fcc Ni                                  
   3.40000000000000     
     0.500000    0.500000    0.000000
     0.000000    0.500000    0.500000
     0.500000    0.000000    0.500000
   Ni
     1
Direct
  0.000000  0.000000  0.000000
 
   20   20   20
  135.68      127.59      105.93      77.220      48.894      26.567      12.625      6.2500      4.4088      3.7761    
  3.5556      3.7761      4.4088      6.2500      12.625      26.567      48.894      77.220      105.93      127.59    
  127.59      112.74      87.714      59.592      34.917      17.599      8.2884      4.9059      4.0020      3.5758    
  3.5760      4.0023      4.9058      8.2881      17.599      34.917      59.593      87.713      112.74      127.59    
  105.93      87.714      63.609      39.970      21.588      10.421      5.5731      4.2139      3.6294      3.4293    
  3.6295      4.2140      5.5730      10.421      21.588      39.970      63.608      87.714      105.93      112.74    
  77.220      59.592      39.970      23.115      11.790      6.1896      4.3794      3.6963      3.3435      3.3434    
  3.6962      4.3794      6.1897      11.790      23.114      39.970      59.593      77.221      87.714      87.713    
  48.894      34.917      21.588      11.790      6.4424      4.4822      3.7506      3.3053      3.1601      3.3053    
  3.7505      4.4820      6.4424      11.790      21.588      34.917      48.894      59.593      63.608      59.593    
  26.567      17.599      10.421      6.1896      4.4822      3.7715      3.2938      3.0649      3.0650      3.2939    
  3.7714      4.4820      6.1897      10.421      17.599      26.566      34.917      39.970      39.970      34.917    
  12.625      8.2884      5.5731      4.3794      3.7506      3.2938      3.0364      2.9561      3.0365      3.2939    
  3.7506      4.3794      5.5730      8.2882      12.625      17.599      21.588      23.114      21.588      17.599    
  6.2500      4.9059      4.2139      3.6963      3.3053      3.0649      2.9561      2.9562      3.0650      3.3053    
  3.6962      4.2139      4.9058      6.2500      8.2882      10.421      11.790      11.790      10.421      8.2881    
  4.4088      4.0020      3.6294      3.3435      3.1601      3.0650      3.0365      3.0650      3.1600      3.3435    
  3.6295      4.0021      4.4089      4.9058      5.5730      6.1897      6.4424      6.1897      5.5730      4.9058    
  3.7761      3.5758      3.4293      3.3434      3.3053      3.2939      3.2939      3.3053      3.3435      3.4295    
  3.5759      3.7761      4.0021      4.2139      4.3794      4.4820      4.4820      4.3794      4.2140      4.0023    
  3.5556      3.5760      3.6295      3.6962      3.7505      3.7714      3.7506      3.6962      3.6295      3.5759    
  3.5555      3.5759      3.6295      3.6962      3.7506      3.7714      3.7505      3.6962      3.6295      3.5760    
  3.7761      4.0023      4.2140      4.3794      4.4820      4.4820      4.3794      4.2139      4.0021      3.7761    
  3.5759      3.4295      3.3435      3.3053      3.2939      3.2939      3.3053      3.3434      3.4293      3.5758    
  4.4088      4.9058      5.5730      6.1897      6.4424      6.1897      5.5730      4.9058      4.4089      4.0021    
  3.6295      3.3435      3.1600      3.0650      3.0365      3.0650      3.1601      3.3435      3.6294      4.0020    
  6.2500      8.2881      10.421      11.790      11.790      10.421      8.2882      6.2500      4.9058      4.2139    
  3.6962      3.3053      3.0650      2.9562      2.9561      3.0649      3.3053      3.6963      4.2139      4.9059    
  12.625      17.599      21.588      23.114      21.588      17.599      12.625      8.2882      5.5730      4.3794    
  3.7506      3.2939      3.0365      2.9561      3.0364      3.2938      3.7506      4.3794      5.5731      8.2884    
  26.567      34.917      39.970      39.970      34.917      26.566      17.599      10.421      6.1897      4.4820    
  3.7714      3.2939      3.0650      3.0649      3.2938      3.7715      4.4822      6.1896      10.421      17.599    
  48.894      59.593      63.608      59.593      48.894      34.917      21.588      11.790      6.4424      4.4820    
  3.7505      3.3053      3.1601      3.3053      3.7506      4.4822      6.4424      11.790      21.588      34.917    
  77.220      87.713      87.714      77.221      59.593      39.970      23.114      11.790      6.1897      4.3794    
  3.6962      3.3434      3.3435      3.6963      4.3794      6.1896      11.790      23.115      39.970      59.592    
  105.93      112.74      105.93      87.714      63.608      39.970      21.588      10.421      5.5730      4.2140    
  3.6295      3.4293      3.6294      4.2139      5.5731      10.421      21.588      39.970      63.609      87.714    
  127.59      127.59      112.74      87.713      59.593      34.917      17.599      8.2881      4.9058      4.0023    
  3.5760      3.5758      4.0020      4.9059      8.2884      17.599      34.917      59.592      87.714      112.74    
  127.59      112.74      87.714      59.592      34.917      17.599      8.2884      4.9059      4.0020      3.5757    
  3.5760      4.0023      4.9058      8.2880      17.600      34.917      59.593      87.713      112.74      127.59    
  112.74      93.316      67.669      42.559      23.009      11.050      5.7707      4.2823      3.6850      3.4789    
  3.6850      4.2821      5.7704      11.050      23.009      42.559      67.669      93.314      112.74      120.01    
  87.714      67.669      45.422      26.297      13.321      6.7326      4.5296      3.8044      3.4307      3.4306    
  3.8041      4.5294      6.7328      13.321      26.297      45.422      67.669      87.714      99.683      99.683    
  59.592      42.559      26.297      14.199      7.3736      4.7393      3.9048      3.4202      3.2599      3.4204    
  3.9048      4.7391      7.3735      14.199      26.297      42.559      59.593      72.668      77.588      72.668    
  34.917      23.009      13.321      7.3736      4.8264      3.9624      3.4273      3.1648      3.1650      3.4276    
  3.9622      4.8259      7.3735      13.321      23.009      34.917      45.966      52.658      52.658      45.966    
  17.599      11.050      6.7326      4.7393      3.9624      3.4327      3.1255      3.0286      3.1255      3.4326    
  3.9622      4.7393      6.7328      11.050      17.599      24.933      30.761      32.987      30.761      24.933    
  8.2884      5.7707      4.5296      3.9048      3.4273      3.1255      2.9872      2.9872      3.1255      3.4274    
  3.9048      4.5295      5.7704      8.2881      11.880      15.503      17.789      17.789      15.503      11.880    
  4.9059      4.2823      3.8044      3.4202      3.1648      3.0286      2.9872      3.0288      3.1650      3.4202    
  3.8042      4.2820      4.9058      6.0053      7.4803      8.7836      9.3051      8.7832      7.4799      6.0051    
  4.0020      3.6850      3.4307      3.2599      3.1650      3.1255      3.1255      3.1650      3.2598      3.4307    
  3.6850      4.0021      4.3337      4.6851      5.0790      5.3577      5.3577      5.0790      4.6850      4.3336    
  3.5757      3.4789      3.4306      3.4204      3.4276      3.4326      3.4274      3.4202      3.4307      3.4791    
  3.5759      3.7146      3.8723      4.0170      4.1176      4.1536      4.1177      4.0171      3.8725      3.7146    
  3.5760      3.6850      3.8041      3.9048      3.9622      3.9622      3.9048      3.8042      3.6850      3.5759    
  3.5001      3.4678      3.4731      3.4972      3.5170      3.5170      3.4971      3.4731      3.4679      3.5003    
  4.0023      4.2821      4.5294      4.7391      4.8259      4.7393      4.5295      4.2820      4.0021      3.7146    
  3.4678      3.2908      3.1857      3.1362      3.1225      3.1362      3.1856      3.2906      3.4678      3.7147    
  4.9058      5.7704      6.7328      7.3735      7.3735      6.7328      5.7704      4.9058      4.3337      3.8723    
  3.4731      3.1857      3.0144      2.9383      2.9383      3.0146      3.1858      3.4731      3.8722      4.3336    
  8.2880      11.050      13.321      14.199      13.321      11.050      8.2881      6.0053      4.6851      4.0170    
  3.4972      3.1362      2.9383      2.8770      2.9382      3.1363      3.4974      4.0171      4.6849      6.0050    
  17.600      23.009      26.297      26.297      23.009      17.599      11.880      7.4803      5.0790      4.1176    
  3.5170      3.1225      2.9383      2.9382      3.1223      3.5170      4.1178      5.0790      7.4801      11.880    
  34.917      42.559      45.422      42.559      34.917      24.933      15.503      8.7836      5.3577      4.1536    
  3.5170      3.1362      3.0146      3.1363      3.5170      4.1536      5.3575      8.7833      15.503      24.933    
  59.593      67.669      67.669      59.593      45.966      30.761      17.789      9.3051      5.3577      4.1177    
  3.4971      3.1856      3.1858      3.4974      4.1178      5.3575      9.3048      17.789      30.761      45.966    
  87.713      93.314      87.714      72.668      52.658      32.987      17.789      8.7832      5.0790      4.0171    
  3.4731      3.2906      3.4731      4.0171      5.0790      8.7833      17.789      32.986      52.658      72.668    
  112.74      112.74      99.683      77.588      52.658      30.761      15.503      7.4799      4.6850      3.8725    
  3.4679      3.4678      3.8722      4.6849      7.4801      15.503      30.761      52.658      77.588      99.683    
  127.59      120.01      99.683      72.668      45.966      24.933      11.880      6.0051      4.3336      3.7146    
  3.5003      3.7147      4.3336      6.0050      11.880      24.933      45.966      72.668      99.683      120.01    
  105.93      87.714      63.609      39.970      21.588      10.421      5.5732      4.2140      3.6294      3.4293    
  3.6295      4.2140      5.5730      10.421      21.588      39.970      63.609      87.714      105.93      112.74    
  87.714      67.669      45.422      26.297      13.321      6.7326      4.5297      3.8044      3.4307      3.4306    
  3.8042      4.5295      6.7328      13.321      26.298      45.422      67.669      87.713      99.683      99.683    
  63.609      45.422      28.067      15.117      7.7396      4.8407      3.9584      3.4611      3.2954      3.4612    
  3.9584      4.8406      7.7396      15.117      28.067      45.422      63.608      77.588      82.854      77.588    
  39.970      26.297      15.117      8.1384      5.0526      4.0629      3.5003      3.2201      3.2204      3.5007    
  4.0630      5.0523      8.1381      15.116      26.297      39.970      52.658      60.354      60.354      52.658    
  21.588      13.321      7.7396      5.0526      4.0999      3.5273      3.1878      3.0798      3.1879      3.5273    
  4.0998      5.0525      7.7396      13.321      21.588      30.761      38.036      40.815      38.036      30.761    
  10.421      6.7326      4.8407      4.0629      3.5273      3.1799      3.0188      3.0187      3.1796      3.5271    
  4.0630      4.8410      6.7329      10.421      15.503      20.544      23.706      23.706      20.544      15.503    
  5.5732      4.5297      3.9584      3.5003      3.1878      3.0188      2.9670      3.0188      3.1879      3.5003    
  3.9584      4.5296      5.5731      7.4801      9.9286      12.033      12.866      12.033      9.9287      7.4802    
  4.2140      3.8044      3.4611      3.2201      3.0798      3.0187      3.0188      3.0801      3.2203      3.4610    
  3.8041      4.2138      4.6851      5.3901      6.2149      6.7847      6.7846      6.2147      5.3899      4.6851    
  3.6294      3.4307      3.2954      3.2204      3.1879      3.1796      3.1879      3.2203      3.2954      3.4307    
  3.6295      3.8723      4.1204      4.3355      4.5084      4.5799      4.5084      4.3355      4.1203      3.8722    
  3.4293      3.4306      3.4612      3.5007      3.5273      3.5271      3.5003      3.4610      3.4307      3.4296    
  3.4679      3.5418      3.6335      3.7168      3.7662      3.7663      3.7170      3.6337      3.5418      3.4677    
  3.6295      3.8042      3.9584      4.0630      4.0998      4.0630      3.9584      3.8041      3.6295      3.4679    
  3.3457      3.2735      3.2442      3.2394      3.2404      3.2394      3.2441      3.2735      3.3458      3.4680    
  4.2140      4.5295      4.8406      5.0523      5.0525      4.8410      4.5296      4.2138      3.8723      3.5418    
  3.2735      3.0901      2.9857      2.9410      2.9410      2.9855      3.0899      3.2734      3.5419      3.8726    
  5.5730      6.7328      7.7396      8.1381      7.7396      6.7329      5.5731      4.6851      4.1204      3.6335    
  3.2442      2.9857      2.8472      2.8047      2.8472      2.9857      3.2443      3.6335      4.1203      4.6850    
  10.421      13.321      15.117      15.116      13.321      10.421      7.4801      5.3901      4.3355      3.7168    
  3.2394      2.9410      2.8047      2.8047      2.9410      3.2396      3.7170      4.3355      5.3897      7.4798    
  21.588      26.298      28.067      26.297      21.588      15.503      9.9286      6.2149      4.5084      3.7662    
  3.2404      2.9410      2.8472      2.9410      3.2404      3.7662      4.5084      6.2149      9.9287      15.503    
  39.970      45.422      45.422      39.970      30.761      20.544      12.033      6.7847      4.5799      3.7663    
  3.2394      2.9855      2.9857      3.2396      3.7662      4.5796      6.7845      12.034      20.544      30.761    
  63.609      67.669      63.608      52.658      38.036      23.706      12.866      6.7846      4.5084      3.7170    
  3.2441      3.0899      3.2443      3.7170      4.5084      6.7845      12.866      23.706      38.036      52.659    
  87.714      87.713      77.588      60.354      40.815      23.706      12.033      6.2147      4.3355      3.6337    
  3.2735      3.2734      3.6335      4.3355      6.2149      12.034      23.706      40.814      60.354      77.588    
  105.93      99.683      82.854      60.354      38.036      20.544      9.9287      5.3899      4.1203      3.5418    
  3.3458      3.5419      4.1203      5.3897      9.9287      20.544      38.036      60.354      82.854      99.683    
  112.74      99.683      77.588      52.658      30.761      15.503      7.4802      4.6851      3.8722      3.4677    
  3.4680      3.8726      4.6850      7.4798      15.503      30.761      52.659      77.588      99.683      112.74    
  77.219      59.592      39.970      23.115      11.790      6.1895      4.3795      3.6964      3.3434      3.3433    
  3.6963      4.3795      6.1896      11.790      23.115      39.970      59.593      77.220      87.714      87.713    
  59.592      42.559      26.298      14.199      7.3736      4.7393      3.9048      3.4202      3.2598      3.4204    
  3.9049      4.7392      7.3734      14.199      26.297      42.559      59.593      72.668      77.588      72.668    
  39.970      26.298      15.117      8.1385      5.0525      4.0629      3.5003      3.2201      3.2203      3.5007    
  4.0630      5.0523      8.1381      15.116      26.297      39.970      52.658      60.354      60.354      52.658    
  23.115      14.199      8.1385      5.1798      4.1468      3.5606      3.2103      3.0984      3.2104      3.5608    
  4.1470      5.1798      8.1381      14.199      23.115      32.987      40.815      43.805      40.814      32.987    
  11.790      7.3736      5.0525      4.1468      3.5828      3.2117      3.0386      3.0385      3.2116      3.5830    
  4.1470      5.0526      7.3735      11.790      17.789      23.706      27.410      27.410      23.706      17.789    
  6.1895      4.7393      4.0629      3.5606      3.2117      3.0213      2.9627      3.0212      3.2116      3.5605    
  4.0630      4.7395      6.1898      8.7832      12.033      14.793      15.880      14.793      12.033      8.7832    
  4.3795      3.9048      3.5003      3.2103      3.0386      2.9627      2.9627      3.0386      3.2103      3.5003    
  3.9048      4.3795      5.0791      6.2148      7.5110      8.3890      8.3891      7.5113      6.2149      5.0791    
  3.6964      3.4202      3.2201      3.0984      3.0385      3.0212      3.0386      3.0987      3.2203      3.4202    
  3.6962      4.0169      4.3355      4.6810      5.0066      5.1444      5.0065      4.6810      4.3356      4.0172    
  3.3434      3.2598      3.2203      3.2104      3.2116      3.2116      3.2103      3.2203      3.2599      3.3435    
  3.4731      3.6335      3.7955      3.9261      3.9984      3.9985      3.9262      3.7956      3.6334      3.4730    
  3.3433      3.4204      3.5007      3.5608      3.5830      3.5605      3.5003      3.4202      3.3435      3.2909    
  3.2735      3.2896      3.3249      3.3586      3.3724      3.3589      3.3252      3.2896      3.2733      3.2905    
  3.6963      3.9049      4.0630      4.1470      4.1470      4.0630      3.9048      3.6962      3.4731      3.2735    
  3.1233      3.0292      2.9816      2.9640      2.9640      2.9816      3.0291      3.1232      3.2735      3.4732    
  4.3795      4.7392      5.0523      5.1798      5.0526      4.7395      4.3795      4.0169      3.6335      3.2896    
  3.0292      2.8621      2.7744      2.7478      2.7743      2.8618      3.0291      3.2898      3.6338      4.0172    
  6.1896      7.3734      8.1381      8.1381      7.3735      6.1898      5.0791      4.3355      3.7955      3.3249    
  2.9816      2.7744      2.6812      2.6811      2.7744      2.9816      3.3250      3.7956      4.3355      5.0789    
  11.790      14.199      15.116      14.199      11.790      8.7832      6.2148      4.6810      3.9261      3.3586    
  2.9640      2.7478      2.6811      2.7479      2.9641      3.3588      3.9261      4.6809      6.2145      8.7831    
  23.115      26.297      26.297      23.115      17.789      12.033      7.5110      5.0066      3.9984      3.3724    
  2.9640      2.7743      2.7744      2.9641      3.3724      3.9983      5.0066      7.5113      12.033      17.789    
  39.970      42.559      39.970      32.987      23.706      14.793      8.3890      5.1444      3.9985      3.3589    
  2.9816      2.8618      2.9816      3.3588      3.9983      5.1444      8.3894      14.793      23.706      32.987    
  59.593      59.593      52.658      40.815      27.410      15.880      8.3891      5.0065      3.9262      3.3252    
  3.0291      3.0291      3.3250      3.9261      5.0066      8.3894      15.880      27.410      40.815      52.658    
  77.220      72.668      60.354      43.805      27.410      14.793      7.5113      4.6810      3.7956      3.2896    
  3.1232      3.2898      3.7956      4.6809      7.5113      14.793      27.410      43.805      60.354      72.668    
  87.714      77.588      60.354      40.814      23.706      12.033      6.2149      4.3356      3.6334      3.2733    
  3.2735      3.6338      4.3355      6.2145      12.033      23.706      40.815      60.354      77.588      87.714    
  87.713      72.668      52.658      32.987      17.789      8.7832      5.0791      4.0172      3.4730      3.2905    
  3.4732      4.0172      5.0789      8.7831      17.789      32.987      52.658      72.668      87.714      93.315    
  48.894      34.917      21.588      11.790      6.4423      4.4821      3.7507      3.3053      3.1600      3.3053    
  3.7507      4.4821      6.4423      11.790      21.588      34.917      48.894      59.593      63.609      59.593    
  34.917      23.009      13.321      7.3737      4.8263      3.9624      3.4274      3.1648      3.1649      3.4276    
  3.9623      4.8259      7.3734      13.321      23.009      34.917      45.966      52.658      52.659      45.966    
  21.588      13.321      7.7397      5.0525      4.0998      3.5272      3.1878      3.0798      3.1878      3.5273    
  4.0998      5.0525      7.7396      13.321      21.588      30.761      38.036      40.815      38.036      30.761    
  11.790      7.3737      5.0525      4.1467      3.5827      3.2117      3.0386      3.0385      3.2116      3.5830    
  4.1470      5.0526      7.3734      11.790      17.789      23.706      27.410      27.410      23.706      17.789    
  6.4423      4.8263      4.0998      3.5827      3.2214      3.0237      2.9629      3.0237      3.2214      3.5829    
  4.0998      4.8262      6.4424      9.3049      12.866      15.880      17.065      15.880      12.866      9.3046    
  4.4821      3.9624      3.5272      3.2117      3.0237      2.9405      2.9404      3.0237      3.2116      3.5270    
  3.9622      4.4823      5.3577      6.7845      8.3891      9.4667      9.4668      8.3892      6.7843      5.3573    
  3.7507      3.4274      3.1878      3.0386      2.9629      2.9404      2.9628      3.0386      3.1879      3.4274    
  3.7506      4.1178      4.5083      5.0066      5.4845      5.6858      5.4846      5.0066      4.5084      4.1179    
  3.3053      3.1648      3.0798      3.0385      3.0237      3.0237      3.0386      3.0800      3.1650      3.3052    
  3.4971      3.7168      3.9261      4.0872      4.1789      4.1788      4.0871      3.9262      3.7171      3.4975    
  3.1600      3.1649      3.1878      3.2116      3.2214      3.2116      3.1879      3.1650      3.1601      3.1857    
  3.2442      3.3250      3.4076      3.4690      3.4917      3.4691      3.4076      3.3250      3.2442      3.1857    
  3.3053      3.4276      3.5273      3.5830      3.5829      3.5270      3.4274      3.3052      3.1857      3.0901    
  3.0292      3.0016      2.9963      2.9988      2.9989      2.9965      3.0017      3.0290      3.0897      3.1855    
  3.7507      3.9623      4.0998      4.1470      4.0998      3.9622      3.7506      3.4971      3.2442      3.0292    
  2.8722      2.7741      2.7240      2.7090      2.7239      2.7741      2.8721      3.0292      3.2442      3.4972    
  4.4821      4.8259      5.0525      5.0526      4.8262      4.4823      4.1178      3.7168      3.3250      3.0016    
  2.7741      2.6388      2.5780      2.5778      2.6386      2.7740      3.0018      3.3253      3.7171      4.1178    
  6.4423      7.3734      7.7396      7.3734      6.4424      5.3577      4.5083      3.9261      3.4076      2.9963    
  2.7240      2.5780      2.5331      2.5780      2.7240      2.9963      3.4076      3.9262      4.5083      5.3576    
  11.790      13.321      13.321      11.790      9.3049      6.7845      5.0066      4.0872      3.4690      2.9988    
  2.7090      2.5778      2.5780      2.7093      2.9989      3.4689      4.0870      5.0064      6.7844      9.3050    
  21.588      23.009      21.588      17.789      12.866      8.3891      5.4845      4.1789      3.4917      2.9989    
  2.7239      2.6386      2.7240      2.9989      3.4916      4.1789      5.4846      8.3891      12.866      17.789    
  34.917      34.917      30.761      23.706      15.880      9.4667      5.6858      4.1788      3.4691      2.9965    
  2.7741      2.7740      2.9963      3.4689      4.1789      5.6861      9.4669      15.880      23.706      30.761    
  48.894      45.966      38.036      27.410      17.065      9.4668      5.4846      4.0871      3.4076      3.0017    
  2.8721      3.0018      3.4076      4.0870      5.4846      9.4669      17.065      27.410      38.036      45.966    
  59.593      52.658      40.815      27.410      15.880      8.3892      5.0066      3.9262      3.3250      3.0290    
  3.0292      3.3253      3.9262      5.0064      8.3891      15.880      27.410      40.815      52.658      59.593    
  63.609      52.659      38.036      23.706      12.866      6.7843      4.5084      3.7171      3.2442      3.0897    
  3.2442      3.7171      4.5083      6.7844      12.866      23.706      38.036      52.658      63.608      67.669    
  59.593      45.966      30.761      17.789      9.3046      5.3573      4.1179      3.4975      3.1857      3.1855    
  3.4972      4.1178      5.3576      9.3050      17.789      30.761      45.966      59.593      67.669      67.669    
  26.567      17.599      10.421      6.1895      4.4820      3.7715      3.2940      3.0650      3.0649      3.2939    
  3.7716      4.4821      6.1896      10.421      17.600      26.566      34.917      39.970      39.970      34.917    
  17.599      11.050      6.7327      4.7393      3.9623      3.4327      3.1257      3.0286      3.1254      3.4326    
  3.9623      4.7393      6.7327      11.050      17.599      24.933      30.761      32.987      30.761      24.933    
  10.421      6.7327      4.8408      4.0628      3.5271      3.1799      3.0189      3.0186      3.1796      3.5271    
  4.0631      4.8410      6.7328      10.421      15.503      20.544      23.706      23.706      20.544      15.503    
  6.1895      4.7393      4.0628      3.5604      3.2116      3.0214      2.9628      3.0212      3.2116      3.5606    
  4.0630      4.7395      6.1897      8.7833      12.033      14.793      15.880      14.793      12.034      8.7832    
  4.4820      3.9623      3.5271      3.2116      3.0237      2.9405      2.9405      3.0237      3.2116      3.5271    
  3.9622      4.4823      5.3577      6.7845      8.3891      9.4667      9.4669      8.3893      6.7843      5.3573    
  3.7715      3.4327      3.1799      3.0214      2.9405      2.9165      2.9404      3.0212      3.1797      3.4324    
  3.7715      4.1537      4.5798      5.1445      5.6860      5.9134      5.6861      5.1443      4.5794      4.1535    
  3.2940      3.1257      3.0189      2.9628      2.9405      2.9404      2.9627      3.0188      3.1255      3.2938    
  3.5170      3.7663      3.9984      4.1790      4.2907      4.2907      4.1790      3.9983      3.7662      3.5171    
  3.0650      3.0286      3.0186      3.0212      3.0237      3.0212      3.0188      3.0287      3.0650      3.1361    
  3.2394      3.3587      3.4690      3.5460      3.5734      3.5459      3.4690      3.3588      3.2397      3.1363    
  3.0649      3.1254      3.1796      3.2116      3.2116      3.1797      3.1255      3.0650      3.0145      2.9856    
  2.9816      2.9964      3.0176      3.0322      3.0322      3.0175      2.9963      2.9816      2.9856      3.0145    
  3.2939      3.4326      3.5271      3.5606      3.5271      3.4324      3.2938      3.1361      2.9856      2.8620    
  2.7741      2.7206      2.6939      2.6862      2.6940      2.7206      2.7740      2.8617      2.9854      3.1361    
  3.7716      3.9623      4.0631      4.0630      3.9622      3.7715      3.5170      3.2394      2.9816      2.7741    
  2.6283      2.5402      2.4999      2.4998      2.5401      2.6282      2.7741      2.9816      3.2394      3.5171    
  4.4821      4.7393      4.8410      4.7395      4.4823      4.1537      3.7663      3.3587      2.9964      2.7206    
  2.5402      2.4428      2.4125      2.4427      2.5401      2.7206      2.9966      3.3590      3.7664      4.1537    
  6.1896      6.7327      6.7328      6.1897      5.3577      4.5798      3.9984      3.4690      3.0176      2.6939    
  2.4999      2.4125      2.4126      2.4999      2.6939      3.0175      3.4691      3.9985      4.5798      5.3576    
  10.421      11.050      10.421      8.7833      6.7845      5.1445      4.1790      3.5460      3.0322      2.6862    
  2.4998      2.4427      2.4999      2.6863      3.0322      3.5459      4.1788      5.1443      6.7845      8.7835    
  17.600      17.599      15.503      12.033      8.3891      5.6860      4.2907      3.5734      3.0322      2.6940    
  2.5401      2.5401      2.6939      3.0322      3.5735      4.2907      5.6858      8.3890      12.033      15.503    
  26.566      24.933      20.544      14.793      9.4667      5.9134      4.2907      3.5459      3.0175      2.7206    
  2.6282      2.7206      3.0175      3.5459      4.2907      5.9135      9.4668      14.793      20.544      24.933    
  34.917      30.761      23.706      15.880      9.4669      5.6861      4.1790      3.4690      2.9963      2.7740    
  2.7741      2.9966      3.4691      4.1788      5.6858      9.4668      15.880      23.706      30.761      34.917    
  39.970      32.987      23.706      14.793      8.3893      5.1443      3.9983      3.3588      2.9816      2.8617    
  2.9816      3.3590      3.9985      5.1443      8.3890      14.793      23.706      32.987      39.970      42.559    
  39.970      30.761      20.544      12.034      6.7843      4.5794      3.7662      3.2397      2.9856      2.9854    
  3.2394      3.7664      4.5798      6.7845      12.033      20.544      30.761      39.970      45.422      45.422    
  34.917      24.933      15.503      8.7832      5.3573      4.1535      3.5171      3.1363      3.0145      3.1361    
  3.5171      4.1537      5.3576      8.7835      15.503      24.933      34.917      42.559      45.422      42.559    
  12.625      8.2882      5.5731      4.3794      3.7505      3.2939      3.0366      2.9561      3.0364      3.2939    
  3.7507      4.3794      5.5729      8.2883      12.625      17.599      21.588      23.115      21.588      17.599    
  8.2882      5.7707      4.5297      3.9048      3.4273      3.1256      2.9873      2.9871      3.1254      3.4274    
  3.9050      4.5295      5.7703      8.2882      11.881      15.503      17.789      17.789      15.503      11.880    
  5.5731      4.5297      3.9585      3.5002      3.1878      3.0189      2.9671      3.0188      3.1878      3.5004    