fcc Ni                                  
   3.40000000000000     
     0.500000    0.500000    0.000000
     0.000000    0.500000    0.500000
     0.500000    0.000000    0.500000
   Ni
     1
Direct
  0.000000  0.000000  0.000000
 
   20   20   20
 0.13567560433E+03 0.12758866712E+03 0.10593295870E+03 0.77219652733E+02 0.48893996143E+02
 0.26566768319E+02 0.12625123246E+02 0.62500065736E+01 0.44088042316E+01 0.37761051136E+01
 0.35556321545E+01 0.37761051136E+01 0.44088042316E+01 0.62500065736E+01 0.12625123246E+02
 0.26566768319E+02 0.48893996143E+02 0.77219652733E+02 0.10593295870E+03 0.12758866712E+03
 0.12758866712E+03 0.11274138380E+03 0.87713750207E+02 0.59592295241E+02 0.34916655514E+02
 0.17599416699E+02 0.82883763271E+01 0.49058764257E+01 0.40019846010E+01 0.35757628948E+01
 0.35759715650E+01 0.40022732529E+01 0.49057816211E+01 0.82880774225E+01 0.17599490052E+02
 0.34917156186E+02 0.59592549798E+02 0.87713208791E+02 0.11274039613E+03 0.12758817222E+03
 0.10593295870E+03 0.87713750207E+02 0.63608625037E+02 0.39970089151E+02 0.21587773651E+02
 0.10420740228E+02 0.55730572581E+01 0.42139264012E+01 0.36294046673E+01 0.34293139369E+01
 0.36294846442E+01 0.42139603675E+01 0.55730399465E+01 0.10420773891E+02 0.21587823493E+02
 0.39970024736E+02 0.63608492643E+02 0.87713723144E+02 0.10593302791E+03 0.11274039613E+03
 0.77219652733E+02 0.59592295241E+02 0.39970089151E+02 0.23114828054E+02 0.11789875344E+02
 0.61895516418E+01 0.43793953129E+01 0.36962870571E+01 0.33434926375E+01 0.33434181232E+01
 0.36961603260E+01 0.43794061505E+01 0.61897106047E+01 0.11789886314E+02 0.23114497005E+02
 0.39969818113E+02 0.59592705541E+02 0.77220602314E+02 0.87713723144E+02 0.87713208791E+02
 0.48893996143E+02 0.34916655514E+02 0.21587773651E+02 0.11789875344E+02 0.64424351435E+01
 0.44821801705E+01 0.37506011104E+01 0.33052752243E+01 0.31601108642E+01 0.33053277560E+01
 0.37505383559E+01 0.44820347327E+01 0.64424244700E+01 0.11790011126E+02 0.21587859260E+02
 0.34916669464E+02 0.48894097091E+02 0.59592705541E+02 0.63608492643E+02 0.59592549798E+02
 0.26566768319E+02 0.17599416699E+02 0.10420740228E+02 0.61895516418E+01 0.44821801705E+01
 0.37715436310E+01 0.32938341002E+01 0.30649237390E+01 0.30650298926E+01 0.32939453620E+01
 0.37714314241E+01 0.44820456784E+01 0.61896939702E+01 0.10421011565E+02 0.17599398824E+02
 0.26566358513E+02 0.34916669464E+02 0.39969818113E+02 0.39970024736E+02 0.34917156186E+02
 0.12625123246E+02 0.82883763271E+01 0.55730572581E+01 0.43793953129E+01 0.37506011104E+01
 0.32938341002E+01 0.30364343372E+01 0.29561067142E+01 0.30365369585E+01 0.32938983642E+01
 0.37505925964E+01 0.43793908851E+01 0.55730232275E+01 0.82882104892E+01 0.12624900929E+02
 0.17599398824E+02 0.21587859260E+02 0.23114497005E+02 0.21587823493E+02 0.17599490052E+02
 0.62500065736E+01 0.49058764257E+01 0.42139264012E+01 0.36962870571E+01 0.33052752243E+01
 0.30649237390E+01 0.29561067142E+01 0.29561503190E+01 0.30649847686E+01 0.33052618227E+01
 0.36962182965E+01 0.42138586920E+01 0.49058178490E+01 0.62499979756E+01 0.82882104892E+01
 0.10421011565E+02 0.11790011126E+02 0.11789886314E+02 0.10420773891E+02 0.82880774225E+01
 0.44088042316E+01 0.40019846010E+01 0.36294046673E+01 0.33434926375E+01 0.31601108642E+01
 0.30650298926E+01 0.30365369585E+01 0.30649847686E+01 0.31600357713E+01 0.33434553992E+01
 0.36294755844E+01 0.40021361685E+01 0.44089285462E+01 0.49058178490E+01 0.55730232275E+01
 0.61896939702E+01 0.64424244700E+01 0.61897106047E+01 0.55730399465E+01 0.49057816211E+01
 0.37761051136E+01 0.35757628948E+01 0.34293139369E+01 0.33434181232E+01 0.33053277560E+01
 0.32939453620E+01 0.32938983642E+01 0.33052618227E+01 0.33434553992E+01 0.34294526183E+01
 0.35758653615E+01 0.37760634905E+01 0.40021361685E+01 0.42138586920E+01 0.43793908851E+01
 0.44820456784E+01 0.44820347327E+01 0.43794061505E+01 0.42139603675E+01 0.40022732529E+01
 0.35556321545E+01 0.35759715650E+01 0.36294846442E+01 0.36961603260E+01 0.37505383559E+01
 0.37714314241E+01 0.37505925964E+01 0.36962182965E+01 0.36294755844E+01 0.35758653615E+01
 0.35554794300E+01 0.35758653615E+01 0.36294755844E+01 0.36962182965E+01 0.37505925964E+01
 0.37714314241E+01 0.37505383559E+01 0.36961603260E+01 0.36294846442E+01 0.35759715650E+01
 0.37761051136E+01 0.40022732529E+01 0.42139603675E+01 0.43794061505E+01 0.44820347327E+01
 0.44820456784E+01 0.43793908851E+01 0.42138586920E+01 0.40021361685E+01 0.37760634905E+01
 0.35758653615E+01 0.34294526183E+01 0.33434553992E+01 0.33052618227E+01 0.32938983642E+01
 0.32939453620E+01 0.33053277560E+01 0.33434181232E+01 0.34293139369E+01 0.35757628948E+01
 0.44088042316E+01 0.49057816211E+01 0.55730399465E+01 0.61897106047E+01 0.64424244700E+01
 0.61896939702E+01 0.55730232275E+01 0.49058178490E+01 0.44089285462E+01 0.40021361685E+01
 0.36294755844E+01 0.33434553992E+01 0.31600357713E+01 0.30649847686E+01 0.30365369585E+01
 0.30650298926E+01 0.31601108642E+01 0.33434926375E+01 0.36294046673E+01 0.40019846010E+01
 0.62500065736E+01 0.82880774225E+01 0.10420773891E+02 0.11789886314E+02 0.11790011126E+02
 0.10421011565E+02 0.82882104892E+01 0.62499979756E+01 0.49058178490E+01 0.42138586920E+01
 0.36962182965E+01 0.33052618227E+01 0.30649847686E+01 0.29561503190E+01 0.29561067142E+01
 0.30649237390E+01 0.33052752243E+01 0.36962870571E+01 0.42139264012E+01 0.49058764257E+01
 0.12625123246E+02 0.17599490052E+02 0.21587823493E+02 0.23114497005E+02 0.21587859260E+02
 0.17599398824E+02 0.12624900929E+02 0.82882104892E+01 0.55730232275E+01 0.43793908851E+01
 0.37505925964E+01 0.32938983642E+01 0.30365369585E+01 0.29561067142E+01 0.30364343372E+01
 0.32938341002E+01 0.37506011104E+01 0.43793953129E+01 0.55730572581E+01 0.82883763271E+01
 0.26566768319E+02 0.34917156186E+02 0.39970024736E+02 0.39969818113E+02 0.34916669464E+02
 0.26566358513E+02 0.17599398824E+02 0.10421011565E+02 0.61896939702E+01 0.44820456784E+01
 0.37714314241E+01 0.32939453620E+01 0.30650298926E+01 0.30649237390E+01 0.32938341002E+01
 0.37715436310E+01 0.44821801705E+01 0.61895516418E+01 0.10420740228E+02 0.17599416699E+02
 0.48893996143E+02 0.59592549798E+02 0.63608492643E+02 0.59592705541E+02 0.48894097091E+02
 0.34916669464E+02 0.21587859260E+02 0.11790011126E+02 0.64424244700E+01 0.44820347327E+01
 0.37505383559E+01 0.33053277560E+01 0.31601108642E+01 0.33052752243E+01 0.37506011104E+01
 0.44821801705E+01 0.64424351435E+01 0.11789875344E+02 0.21587773651E+02 0.34916655514E+02
 0.77219652733E+02 0.87713208791E+02 0.87713723144E+02 0.77220602314E+02 0.59592705541E+02
 0.39969818113E+02 0.23114497005E+02 0.11789886314E+02 0.61897106047E+01 0.43794061505E+01
 0.36961603260E+01 0.33434181232E+01 0.33434926375E+01 0.36962870571E+01 0.43793953129E+01
 0.61895516418E+01 0.11789875344E+02 0.23114828054E+02 0.39970089151E+02 0.59592295241E+02
 0.10593295870E+03 0.11274039613E+03 0.10593302791E+03 0.87713723144E+02 0.63608492643E+02
 0.39970024736E+02 0.21587823493E+02 0.10420773891E+02 0.55730399465E+01 0.42139603675E+01
 0.36294846442E+01 0.34293139369E+01 0.36294046673E+01 0.42139264012E+01 0.55730572581E+01
 0.10420740228E+02 0.21587773651E+02 0.39970089151E+02 0.63608625037E+02 0.87713750207E+02
 0.12758866712E+03 0.12758817222E+03 0.11274039613E+03 0.87713208791E+02 0.59592549798E+02
 0.34917156186E+02 0.17599490052E+02 0.82880774225E+01 0.49057816211E+01 0.40022732529E+01
 0.35759715650E+01 0.35757628948E+01 0.40019846010E+01 0.49058764257E+01 0.82883763271E+01
 0.17599416699E+02 0.34916655514E+02 0.59592295241E+02 0.87713750207E+02 0.11274138380E+03
 0.12758856876E+03 0.11274122730E+03 0.87713660913E+02 0.59592275047E+02 0.34916626328E+02
 0.17599393945E+02 0.82884243929E+01 0.49059494291E+01 0.40019892168E+01 0.35757286270E+01
 0.35759883183E+01 0.40023157605E+01 0.49057680769E+01 0.82880452177E+01 0.17599537294E+02
 0.34917260553E+02 0.59592615729E+02 0.87713238626E+02 0.11274044391E+03 0.12758818844E+03
 0.11274122730E+03 0.93315664118E+02 0.67669375396E+02 0.42558538420E+02 0.23008606755E+02
 0.11049681220E+02 0.57706757182E+01 0.42822811869E+01 0.36849673883E+01 0.34788967243E+01
 0.36849928994E+01 0.42820729523E+01 0.57704269297E+01 0.11049950527E+02 0.23009354637E+02
 0.42558930716E+02 0.67668806590E+02 0.93314494356E+02 0.11274033770E+03 0.12000914176E+03
 0.87713660913E+02 0.67669375396E+02 0.45422133722E+02 0.26297329186E+02 0.13320951725E+02
 0.67325769480E+01 0.45295878036E+01 0.38043998021E+01 0.34307260105E+01 0.34306262741E+01
 0.38041463423E+01 0.45294198320E+01 0.67327979660E+01 0.13321410356E+02 0.26297435695E+02
 0.45421679706E+02 0.67668866926E+02 0.87713531747E+02 0.99682908851E+02 0.99682866707E+02
 0.59592275047E+02 0.42558538420E+02 0.26297329186E+02 0.14199187700E+02 0.73736068696E+01
 0.47392871174E+01 0.39047584865E+01 0.34202201273E+01 0.32598766093E+01 0.34204279841E+01
 0.39048399786E+01 0.47391429560E+01 0.73734509227E+01 0.14199094850E+02 0.26297226102E+02
 0.42558583340E+02 0.59592673328E+02 0.72668173552E+02 0.77588151575E+02 0.72667705993E+02
 0.34916626328E+02 0.23008606755E+02 0.13320951725E+02 0.73736068696E+01 0.48263531596E+01
 0.39623786230E+01 0.34273292396E+01 0.31647841806E+01 0.31650050718E+01 0.34276121227E+01
 0.39622128415E+01 0.48259187644E+01 0.73734609592E+01 0.13321203999E+02 0.23008903198E+02
 0.34916740583E+02 0.45966178056E+02 0.52658493829E+02 0.52658498124E+02 0.45966172976E+02
 0.17599393945E+02 0.11049681220E+02 0.67325769480E+01 0.47392871174E+01 0.39623786230E+01
 0.34327012869E+01 0.31255398713E+01 0.30285877565E+01 0.31255147086E+01 0.34325520093E+01
 0.39622078734E+01 0.47393294363E+01 0.67327943332E+01 0.11049765956E+02 0.17599217258E+02
 0.24932847248E+02 0.30760928476E+02 0.32986556447E+02 0.30761059986E+02 0.24933094300E+02
 0.82884243929E+01 0.57706757182E+01 0.45295878036E+01 0.39047584865E+01 0.34273292396E+01
 0.31255398713E+01 0.29871751239E+01 0.29871554392E+01 0.31255169370E+01 0.34273714301E+01
 0.39048459325E+01 0.45295490399E+01 0.57703957177E+01 0.82881124902E+01 0.11880471203E+02
 0.15502850218E+02 0.17789188891E+02 0.17788986091E+02 0.15502522517E+02 0.11880458974E+02
 0.49059494291E+01 0.42822811869E+01 0.38043998021E+01 0.34202201273E+01 0.31647841806E+01
 0.30285877565E+01 0.29871554392E+01 0.30287962459E+01 0.31649962747E+01 0.34202304965E+01
 0.38041760289E+01 0.42819737830E+01 0.49057946643E+01 0.60053148281E+01 0.74802977335E+01
 0.87835868334E+01 0.93051311511E+01 0.87832130313E+01 0.74798662950E+01 0.60051448603E+01
 0.40019892168E+01 0.36849673883E+01 0.34307260105E+01 0.32598766093E+01 0.31650050718E+01
 0.31255147086E+01 0.31255169370E+01 0.31649962747E+01 0.32598408384E+01 0.34306917879E+01
 0.36849924512E+01 0.40020931787E+01 0.43337133024E+01 0.46850931051E+01 0.50790333296E+01
 0.53577421427E+01 0.53577465424E+01 0.50790167915E+01 0.46850120659E+01 0.43335837791E+01
 0.35757286270E+01 0.34788967243E+01 0.34306262741E+01 0.34204279841E+01 0.34276121227E+01
 0.34325520093E+01 0.34273714301E+01 0.34202304965E+01 0.34306917879E+01 0.34791377784E+01
 0.35758909604E+01 0.37145863233E+01 0.38723457932E+01 0.40169663819E+01 0.41176483858E+01
 0.41536034255E+01 0.41177019942E+01 0.40170957846E+01 0.38725021180E+01 0.37146275749E+01
 0.35759883183E+01 0.36849928994E+01 0.38041463423E+01 0.39048399786E+01 0.39622128415E+01
 0.39622078734E+01 0.39048459325E+01 0.38041760289E+01 0.36849924512E+01 0.35758909604E+01
 0.35001125404E+01 0.34678238058E+01 0.34731324772E+01 0.34972008062E+01 0.35170276531E+01
 0.35169609097E+01 0.34970771761E+01 0.34730976237E+01 0.34679334877E+01 0.35002783342E+01
 0.40023157605E+01 0.42820729523E+01 0.45294198320E+01 0.47391429560E+01 0.48259187644E+01
 0.47393294363E+01 0.45295490399E+01 0.42819737830E+01 0.40020931787E+01 0.37145863233E+01
 0.34678238058E+01 0.32907539928E+01 0.31857191147E+01 0.31362152461E+01 0.31225441799E+01
 0.31361895828E+01 0.31856241830E+01 0.32906083414E+01 0.34677552945E+01 0.37147043504E+01
 0.49057680769E+01 0.57704269297E+01 0.67327979660E+01 0.73734509227E+01 0.73734609592E+01
 0.67327943332E+01 0.57703957177E+01 0.49057946643E+01 0.43337133024E+01 0.38723457932E+01
 0.34731324772E+01 0.31857191147E+01 0.30144393605E+01 0.29382543878E+01 0.29383053037E+01
 0.30145569984E+01 0.31857994306E+01 0.34730716517E+01 0.38721678205E+01 0.43335656191E+01
 0.82880452177E+01 0.11049950527E+02 0.13321410356E+02 0.14199094850E+02 0.13321203999E+02
 0.11049765956E+02 0.82881124902E+01 0.60053148281E+01 0.46850931051E+01 0.40169663819E+01
 0.34972008062E+01 0.31362152461E+01 0.29382543878E+01 0.28769569096E+01 0.29381607870E+01
 0.31362525416E+01 0.34974041147E+01 0.40170669637E+01 0.46849125239E+01 0.60050396520E+01
 0.17599537294E+02 0.23009354637E+02 0.26297435695E+02 0.26297226102E+02 0.23008903198E+02
 0.17599217258E+02 0.11880471203E+02 0.74802977335E+01 0.50790333296E+01 0.41176483858E+01
 0.35170276531E+01 0.31225441799E+01 0.29383053037E+01 0.29381607870E+01 0.31223267821E+01
 0.35170377249E+01 0.41178027915E+01 0.50790352344E+01 0.74801369439E+01 0.11880458150E+02
 0.34917260553E+02 0.42558930716E+02 0.45421679706E+02 0.42558583340E+02 0.34916740583E+02
 0.24932847248E+02 0.15502850218E+02 0.87835868334E+01 0.53577421427E+01 0.41536034255E+01
 0.35169609097E+01 0.31361895828E+01 0.30145569984E+01 0.31362525416E+01 0.35170377249E+01
 0.41535555076E+01 0.53574866522E+01 0.87832986981E+01 0.15502844884E+02 0.24933221420E+02
 0.59592615729E+02 0.67668806590E+02 0.67668866926E+02 0.59592673328E+02 0.45966178056E+02
 0.30760928476E+02 0.17789188891E+02 0.93051311511E+01 0.53577465424E+01 0.41177019942E+01
 0.34970771761E+01 0.31856241830E+01 0.31857994306E+01 0.34974041147E+01 0.41178027915E+01
 0.53574866522E+01 0.93047683416E+01 0.17789055160E+02 0.30761035859E+02 0.45966268094E+02
 0.87713238626E+02 0.93314494356E+02 0.87713531747E+02 0.72668173552E+02 0.52658493829E+02
 0.32986556447E+02 0.17788986091E+02 0.87832130313E+01 0.50790167915E+01 0.40170957846E+01
 0.34730976237E+01 0.32906083414E+01 0.34730716517E+01 0.40170669637E+01 0.50790352344E+01
 0.87832986981E+01 0.17789055160E+02 0.32986461794E+02 0.52658177196E+02 0.72667756021E+02
 0.11274044391E+03 0.11274033770E+03 0.99682908851E+02 0.77588151575E+02 0.52658498124E+02
 0.30761059986E+02 0.15502522517E+02 0.74798662950E+01 0.46850120659E+01 0.38725021180E+01
 0.34679334877E+01 0.34677552945E+01 0.38721678205E+01 0.46849125239E+01 0.74801369439E+01
 0.15502844884E+02 0.30761035859E+02 0.52658177196E+02 0.77587951772E+02 0.99683003784E+02
 0.12758818844E+03 0.12000914176E+03 0.99682866707E+02 0.72667705993E+02 0.45966172976E+02
 0.24933094300E+02 0.11880458974E+02 0.60051448603E+01 0.43335837791E+01 0.37146275749E+01
 0.35002783342E+01 0.37147043504E+01 0.43335656191E+01 0.60050396520E+01 0.11880458150E+02
 0.24933221420E+02 0.45966268094E+02 0.72667756021E+02 0.99683003784E+02 0.12000931448E+03
 0.10593274079E+03 0.87713541376E+02 0.63608604696E+02 0.39970167330E+02 0.21587789225E+02
 0.10420753302E+02 0.55731737364E+01 0.42140357382E+01 0.36293745684E+01 0.34292536384E+01
 0.36295393212E+01 0.42140371456E+01 0.55730098476E+01 0.10420746151E+02 0.21587939971E+02
 0.39970174887E+02 0.63608508217E+02 0.87713664246E+02 0.10593300757E+03 0.11274032438E+03
 0.87713541376E+02 0.67669323070E+02 0.45422202675E+02 0.26297427559E+02 0.13320996486E+02
 0.67326127762E+01 0.45296562161E+01 0.38044361356E+01 0.34306912958E+01 0.34306002434E+01
 0.38041842661E+01 0.45294541025E+01 0.67327814113E+01 0.13321414821E+02 0.26297504931E+02
 0.45421725491E+02 0.67668816569E+02 0.87713443015E+02 0.99682840728E+02 0.99682778741E+02
 0.63608604696E+02 0.45422202675E+02 0.28066753647E+02 0.15116567628E+02 0.77395648369E+01
 0.48407205904E+01 0.39584452127E+01 0.34610638482E+01 0.32954240838E+01 0.34611933364E+01
 0.39584477508E+01 0.48406068291E+01 0.77395876193E+01 0.15116675386E+02 0.28066626606E+02
 0.45421844903E+02 0.63608361169E+02 0.77587860261E+02 0.82853540769E+02 0.77587883649E+02
 0.39970167330E+02 0.26297427559E+02 0.15116567628E+02 0.81383906091E+01 0.50525655192E+01
 0.40629390658E+01 0.35002642973E+01 0.32201085712E+01 0.32203602608E+01 0.35006773600E+01
 0.40630010597E+01 0.50522876961E+01 0.81381363790E+01 0.15116496057E+02 0.26297479940E+02
 0.39970340980E+02 0.52658488884E+02 0.60354259249E+02 0.60354121389E+02 0.52658225540E+02
 0.21587789225E+02 0.13320996486E+02 0.77395648369E+01 0.50525655192E+01 0.40999062751E+01
 0.35272769730E+01 0.31878395809E+01 0.30798283929E+01 0.31879163668E+01 0.35272617262E+01
 0.40997823289E+01 0.50525080545E+01 0.77396445548E+01 0.13321106810E+02 0.21587883925E+02
 0.30761123960E+02 0.38036304273E+02 0.40814725357E+02 0.38036165002E+02 0.30760985501E+02
 0.10420753302E+02 0.67326127762E+01 0.48407205904E+01 0.40629390658E+01 0.35272769730E+01
 0.31799212661E+01 0.30188257503E+01 0.30186985724E+01 0.31796355737E+01 0.35270700870E+01
 0.40630107921E+01 0.48410171147E+01 0.67328504434E+01 0.10420717791E+02 0.15502507768E+02
 0.20543611115E+02 0.23705775969E+02 0.23705868211E+02 0.20543852429E+02 0.15502753592E+02
 0.55731737364E+01 0.45296562161E+01 0.39584452127E+01 0.35002642973E+01 0.31878395809E+01
 0.30188257503E+01 0.29669854625E+01 0.30188451127E+01 0.31878729146E+01 0.35002949375E+01
 0.39584463577E+01 0.45296066358E+01 0.55730781122E+01 0.74800972558E+01 0.99286022259E+01
 0.12033385838E+02 0.12866198967E+02 0.12033429795E+02 0.99286879608E+01 0.74802061802E+01
 0.42140357382E+01 0.38044361356E+01 0.34610638482E+01 0.32201085712E+01 0.30798283929E+01
 0.30186985724E+01 0.30188451127E+01 0.30801434718E+01 0.32203188449E+01 0.34609835914E+01
 0.38041456570E+01 0.42138032244E+01 0.46850645588E+01 0.53900758981E+01 0.62148810244E+01
 0.67846559199E+01 0.67845725339E+01 0.62146706376E+01 0.53898743771E+01 0.46850540657E+01
 0.36293745684E+01 0.34306912958E+01 0.32954240838E+01 0.32203602608E+01 0.31879163668E+01
 0.31796355737E+01 0.31878729146E+01 0.32203188449E+01 0.32954155297E+01 0.34307223405E+01
 0.36294568558E+01 0.38722717898E+01 0.41203981730E+01 0.43354948699E+01 0.45083512319E+01
 0.45799423000E+01 0.45084121805E+01 0.43355110549E+01 0.41203151726E+01 0.38721512658E+01
 0.34292536384E+01 0.34306002434E+01 0.34611933364E+01 0.35006773600E+01 0.35272617262E+01
 0.35270700870E+01 0.35002949375E+01 0.34609835914E+01 0.34307223405E+01 0.34295551478E+01
 0.34678745855E+01 0.35417961959E+01 0.36334881810E+01 0.37167654457E+01 0.37662122253E+01
 0.37663007122E+01 0.37169691787E+01 0.36336596084E+01 0.35417907305E+01 0.34676524884E+01
 0.36295393212E+01 0.38041842661E+01 0.39584477508E+01 0.40630010597E+01 0.40997823289E+01
 0.40630107921E+01 0.39584463577E+01 0.38041456570E+01 0.36294568558E+01 0.34678745855E+01
 0.33457431247E+01 0.32735164156E+01 0.32442173709E+01 0.32394332097E+01 0.32404272050E+01
 0.32393698760E+01 0.32441468469E+01 0.32735016449E+01 0.33458017560E+01 0.34679714115E+01
 0.42140371456E+01 0.45294541025E+01 0.48406068291E+01 0.50522876961E+01 0.50525080545E+01
 0.48410171147E+01 0.45296066358E+01 0.42138032244E+01 0.38722717898E+01 0.35417961959E+01
 0.32735164156E+01 0.30900593749E+01 0.29856593597E+01 0.29410298916E+01 0.29409930999E+01
 0.29855329910E+01 0.30898645251E+01 0.32733979073E+01 0.35419278072E+01 0.38726131640E+01
 0.55730098476E+01 0.67327814113E+01 0.77395876193E+01 0.81381363790E+01 0.77396445548E+01
 0.67328504434E+01 0.55730781122E+01 0.46850645588E+01 0.41203981730E+01 0.36334881810E+01
 0.32442173709E+01 0.29856593597E+01 0.28471763589E+01 0.28047303929E+01 0.28471940521E+01
 0.29857068428E+01 0.32442600940E+01 0.36334671200E+01 0.41203151726E+01 0.46849773512E+01
 0.10420746151E+02 0.13321414821E+02 0.15116675386E+02 0.15116496057E+02 0.13321106810E+02
 0.10420717791E+02 0.74800972558E+01 0.53900758981E+01 0.43354948699E+01 0.37167654457E+01
 0.32394332097E+01 0.29410298916E+01 0.28047303929E+01 0.28046607952E+01 0.29409814162E+01
 0.32396119031E+01 0.37170332723E+01 0.43354979097E+01 0.53897373005E+01 0.74797655518E+01
 0.21587939971E+02 0.26297504931E+02 0.28066626606E+02 0.26297479940E+02 0.21587883925E+02
 0.15502507768E+02 0.99286022259E+01 0.62148810244E+01 0.45083512319E+01 0.37662122253E+01
 0.32404272050E+01 0.29409930999E+01 0.28471940521E+01 0.29409814162E+01 0.32404052847E+01
 0.37661944120E+01 0.45083632069E+01 0.62149371278E+01 0.99286879608E+01 0.15502590930E+02
 0.39970174887E+02 0.45421725491E+02 0.45421844903E+02 0.39970340980E+02 0.30761123960E+02
 0.20543611115E+02 0.12033385838E+02 0.67846559199E+01 0.45799423000E+01 0.37663007122E+01
 0.32393698760E+01 0.29855329910E+01 0.29857068428E+01 0.32396119031E+01 0.37661944120E+01
 0.45795642516E+01 0.67844811778E+01 0.12033637449E+02 0.20543989505E+02 0.30761232890E+02
 0.63608508217E+02 0.67668816569E+02 0.63608361169E+02 0.52658488884E+02 0.38036304273E+02
 0.23705775969E+02 0.12866198967E+02 0.67845725339E+01 0.45084121805E+01 0.37169691787E+01
 0.32441468469E+01 0.30898645251E+01 0.32442600940E+01 0.37170332723E+01 0.45083632069E+01
 0.67844811778E+01 0.12866075432E+02 0.23705588933E+02 0.38036165002E+02 0.52658542884E+02
 0.87713664246E+02 0.87713443015E+02 0.77587860261E+02 0.60354259249E+02 0.40814725357E+02
 0.23705868211E+02 0.12033429795E+02 0.62146706376E+01 0.43355110549E+01 0.36336596084E+01
 0.32735016449E+01 0.32733979073E+01 0.36334671200E+01 0.43354979097E+01 0.62149371278E+01
 0.12033637449E+02 0.23705588933E+02 0.40814122995E+02 0.60353984312E+02 0.77588112871E+02
 0.10593300757E+03 0.99682840728E+02 0.82853540769E+02 0.60354121389E+02 0.38036165002E+02
 0.20543852429E+02 0.99286879608E+01 0.53898743771E+01 0.41203151726E+01 0.35417907305E+01
 0.33458017560E+01 0.35419278072E+01 0.41203151726E+01 0.53897373005E+01 0.99286879608E+01
 0.20543989505E+02 0.38036165002E+02 0.60353984312E+02 0.82853540769E+02 0.99682977805E+02
 0.11274032438E+03 0.99682778741E+02 0.77587883649E+02 0.52658225540E+02 0.30760985501E+02
 0.15502753592E+02 0.74802061802E+01 0.46850540657E+01 0.38721512658E+01 0.34676524884E+01
 0.34679714115E+01 0.38726131640E+01 0.46849773512E+01 0.74797655518E+01 0.15502590930E+02
 0.30761232890E+02 0.52658542884E+02 0.77588112871E+02 0.99682977805E+02 0.11274042245E+03
 0.77219479401E+02 0.59592200081E+02 0.39970211901E+02 0.23114969261E+02 0.11789866309E+02
 0.61895446355E+01 0.43795175212E+01 0.36963662250E+01 0.33434041269E+01 0.33433492581E+01
 0.36962520457E+01 0.43794832553E+01 0.61896402541E+01 0.11789847945E+02 0.23114620037E+02
 0.39969906732E+02 0.59592601388E+02 0.77220470748E+02 0.87713708816E+02 0.87713163659E+02
 0.59592200081E+02 0.42558599764E+02 0.26297541229E+02 0.14199349101E+02 0.73736270209E+01
 0.47393028649E+01 0.39048326290E+01 0.34202262918E+01 0.32597834829E+01 0.34203933869E+01
 0.39049149450E+01 0.47391775532E+01 0.73733941163E+01 0.14199088686E+02 0.26297301892E+02
 0.42558567593E+02 0.59592503244E+02 0.72668012151E+02 0.77588089465E+02 0.72667644649E+02
 0.39970211901E+02 0.26297541229E+02 0.15116710718E+02 0.81384536373E+01 0.50525409099E+01
 0.40629189852E+01 0.35002700275E+01 0.32200784022E+01 0.32203018491E+01 0.35006687934E+01
 0.40630381023E+01 0.50522880229E+01 0.81380961272E+01 0.15116485428E+02 0.26297486494E+02
 0.39970279448E+02 0.52658369158E+02 0.60354186580E+02 0.60354127402E+02 0.52658252162E+02
 0.23114969261E+02 0.14199349101E+02 0.81384536373E+01 0.51797789411E+01 0.41467751235E+01
 0.35605770165E+01 0.32102733987E+01 0.30984232258E+01 0.32103857538E+01 0.35608187610E+01
 0.41470284735E+01 0.51797891532E+01 0.81381164692E+01 0.14198956182E+02 0.23114988428E+02
 0.32987097881E+02 0.40814868676E+02 0.43804876887E+02 0.40814323100E+02 0.32986573166E+02
 0.11789866309E+02 0.73736270209E+01 0.50525409099E+01 0.41467751235E+01 0.35828497680E+01
 0.32117421926E+01 0.30385948765E+01 0.30384951857E+01 0.32116219643E+01 0.35829579282E+01
 0.41470232494E+01 0.50526186383E+01 0.73734712884E+01 0.11789781603E+02 0.17789234239E+02
 0.23706013083E+02 0.27410416280E+02 0.27410192239E+02 0.23705564324E+02 0.17788980194E+02
 0.61895446355E+01 0.47393028649E+01 0.40629189852E+01 0.35605770165E+01 0.32117421926E+01
 0.30213489079E+01 0.29627293377E+01 0.30212016016E+01 0.32115817656E+01 0.35605205800E+01
 0.40630044198E+01 0.47395178332E+01 0.61897805759E+01 0.87832308009E+01 0.12033241596E+02
 0.14792948816E+02 0.15879838532E+02 0.14793233419E+02 0.12033480291E+02 0.87831873253E+01
 0.43795175212E+01 0.39048326290E+01 0.35002700275E+01 0.32102733987E+01 0.30385948765E+01
 0.29627293377E+01 0.29627223540E+01 0.30386063799E+01 0.32103225510E+01 0.35003048792E+01
 0.39048336723E+01 0.43795269203E+01 0.50790845264E+01 0.62147529701E+01 0.75109810265E+01
 0.83889629011E+01 0.83891258762E+01 0.75112956726E+01 0.62149428579E+01 0.50791102008E+01
 0.36963662250E+01 0.34202262918E+01 0.32200784022E+01 0.30984232258E+01 0.30384951857E+01
 0.30212016016E+01 0.30386063799E+01 0.30986558037E+01 0.32203024078E+01 0.34202376196E+01
 0.36961509856E+01 0.40169463417E+01 0.43355215381E+01 0.46810430209E+01 0.50065570622E+01
 0.51443854185E+01 0.50065164388E+01 0.46810109740E+01 0.43356048173E+01 0.40171783364E+01
 0.33434041269E+01 0.32597834829E+01 0.32203018491E+01 0.32103857538E+01 0.32116219643E+01
 0.32115817656E+01 0.32103225510E+01 0.32203024078E+01 0.32598566805E+01 0.33435116155E+01
 0.34731097031E+01 0.36334760305E+01 0.37955355025E+01 0.39260766174E+01 0.39984355386E+01
 0.39985109484E+01 0.39262117176E+01 0.37955830346E+01 0.36334087083E+01 0.34729966853E+01
 0.33433492581E+01 0.34203933869E+01 0.35006687934E+01 0.35608187610E+01 0.35829579282E+01
 0.35605205800E+01 0.35003048792E+01 0.34202376196E+01 0.33435116155E+01 0.32908554976E+01
 0.32735422555E+01 0.32896327657E+01 0.33249120219E+01 0.33586252679E+01 0.33724230419E+01
 0.33588817309E+01 0.33251654670E+01 0.32896249464E+01 0.32732522641E+01 0.32904969687E+01
 0.36962520457E+01 0.39049149450E+01 0.40630381023E+01 0.41470284735E+01 0.41470232494E+01
 0.40630044198E+01 0.39048336723E+01 0.36961509856E+01 0.34731097031E+01 0.32735422555E+01
 0.31232946508E+01 0.30291855906E+01 0.29816161640E+01 0.29639603925E+01 0.29639513862E+01
 0.29815863901E+01 0.30291362634E+01 0.31232478818E+01 0.32735386876E+01 0.34731725901E+01
 0.43794832553E+01 0.47391775532E+01 0.50522880229E+01 0.51797891532E+01 0.50526186383E+01
 0.47395178332E+01 0.43795269203E+01 0.40169463417E+01 0.36334760305E+01 0.32896327657E+01
 0.30291855906E+01 0.28620637979E+01 0.27744379522E+01 0.27478143987E+01 0.27742571272E+01
 0.28618297213E+01 0.30290797800E+01 0.32897709164E+01 0.36337970118E+01 0.40172071573E+01
 0.61896402541E+01 0.73733941163E+01 0.81380961272E+01 0.81381164692E+01 0.73734712884E+01
 0.61897805759E+01 0.50790845264E+01 0.43355215381E+01 0.37955355025E+01 0.33249120219E+01
 0.29816161640E+01 0.27744379522E+01 0.26811517175E+01 0.26811157534E+01 0.27743859993E+01
 0.29816387591E+01 0.33250078230E+01 0.37956011946E+01 0.43354708032E+01 0.50789418251E+01
 0.11789847945E+02 0.14199088686E+02 0.15116485428E+02 0.14198956182E+02 0.11789781603E+02
 0.87832308009E+01 0.62147529701E+01 0.46810430209E+01 0.39260766174E+01 0.33586252679E+01
 0.29639603925E+01 0.27478143987E+01 0.26811157534E+01 0.27479273851E+01 0.29641253487E+01
 0.33587560273E+01 0.39260875619E+01 0.46808934368E+01 0.62145229313E+01 0.87831016586E+01
 0.23114620037E+02 0.26297301892E+02 0.26297486494E+02 0.23114988428E+02 0.17789234239E+02
 0.12033241596E+02 0.75109810265E+01 0.50065570622E+01 0.39984355386E+01 0.33724230419E+01
 0.29639513862E+01 0.27742571272E+01 0.27743859993E+01 0.29641253487E+01 0.33723633677E+01
 0.39982716920E+01 0.50066293059E+01 0.75112964965E+01 0.12033436349E+02 0.17789061057E+02
 0.39969906732E+02 0.42558567593E+02 0.39970279448E+02 0.32987097881E+02 0.23706013083E+02
 0.14792948816E+02 0.83889629011E+01 0.51443854185E+01 0.39985109484E+01 0.33588817309E+01
 0.29815863901E+01 0.28618297213E+01 0.29816387591E+01 0.33587560273E+01 0.39982716920E+01
 0.51444235856E+01 0.83893827012E+01 0.14793329044E+02 0.23705943756E+02 0.32986667820E+02
 0.59592601388E+02 0.59592503244E+02 0.52658369158E+02 0.40814868676E+02 0.27410416280E+02
 0.15879838532E+02 0.83891258762E+01 0.50065164388E+01 0.39262117176E+01 0.33251654670E+01
 0.30291362634E+01 0.30290797800E+01 0.33250078230E+01 0.39260875619E+01 0.50066293059E+01
 0.83893827012E+01 0.15879854941E+02 0.27410097121E+02 0.40814605630E+02 0.52658418862E+02
 0.77220470748E+02 0.72668012151E+02 0.60354186580E+02 0.43804876887E+02 0.27410192239E+02
 0.14793233419E+02 0.75112956726E+01 0.46810109740E+01 0.37955830346E+01 0.32896249464E+01
 0.31232478818E+01 0.32897709164E+01 0.37956011946E+01 0.46808934368E+01 0.75112964965E+01
 0.14793329044E+02 0.27410097121E+02 0.43804604113E+02 0.60354049504E+02 0.72668062179E+02
 0.87713708816E+02 0.77588089465E+02 0.60354127402E+02 0.40814323100E+02 0.23705564324E+02
 0.12033480291E+02 0.62149428579E+01 0.43356048173E+01 0.36334087083E+01 0.32732522641E+01
 0.32735386876E+01 0.36337970118E+01 0.43354708032E+01 0.62145229313E+01 0.12033436349E+02
 0.23705943756E+02 0.40814605630E+02 0.60354049504E+02 0.77587866274E+02 0.87713606713E+02
 0.87713163659E+02 0.72667644649E+02 0.52658252162E+02 0.32986573166E+02 0.17788980194E+02
 0.87831873253E+01 0.50791102008E+01 0.40171783364E+01 0.34729966853E+01 0.32904969687E+01
 0.34731725901E+01 0.40172071573E+01 0.50789418251E+01 0.87831016586E+01 0.17789061057E+02
 0.32986667820E+02 0.52658418862E+02 0.72668062179E+02 0.87713606713E+02 0.93314605729E+02
 0.48893879405E+02 0.34916607955E+02 0.21587890389E+02 0.11789922903E+02 0.64423184052E+01
 0.44821326116E+01 0.37507178486E+01 0.33053227832E+01 0.31599941260E+01 0.33052801971E+01
 0.37506550941E+01 0.44820822915E+01 0.64423077318E+01 0.11789963567E+02 0.21587975999E+02
 0.34916717023E+02 0.48893980353E+02 0.59592657982E+02 0.63608609382E+02 0.59592597357E+02
 0.34916607955E+02 0.23008715701E+02 0.13321157757E+02 0.73736746223E+01 0.48262656081E+01
 0.39623538179E+01 0.34273979120E+01 0.31647587360E+01 0.31648837178E+01 0.34275988317E+01