   1   1   1   0
  0.9826000E+01  0.2404163E-09  0.2404163E-09  0.2404163E-09  0.5000000E-15
  1.000000000000000E-004
  CAR 
 fcc Ni                                  
     60.58989907     -1.70600036  301     10.87887429      1.00000000
     -1.706  0.0000E+00  0.0000E+00  0.0000E+00  0.0000E+00
     -1.498  0.0000E+00  0.0000E+00  0.0000E+00  0.0000E+00
     -1.291  0.0000E+00  0.0000E+00  0.0000E+00  0.0000E+00
     -1.083  0.0000E+00  0.0000E+00  0.0000E+00  0.0000E+00
     -0.875  0.0000E+00  0.0000E+00  0.0000E+00  0.0000E+00
     -0.668  0.0000E+00 -0.1103E-36  0.0000E+00 -0.2290E-37
     -0.460 -0.3225E-30 -0.4049E-29 -0.6697E-31 -0.8408E-30
     -0.252 -0.1881E-23 -0.1692E-22 -0.3906E-24 -0.3514E-23
     -0.045 -0.1243E-17 -0.7801E-17 -0.2581E-18 -0.1620E-17
      0.163 -0.8862E-13 -0.4064E-12 -0.1840E-13 -0.8439E-13
      0.371 -0.7110E-09 -0.2315E-08 -0.1477E-09 -0.4809E-09
      0.578 -0.5951E-06 -0.1359E-05 -0.1237E-06 -0.2826E-06
      0.786 -0.4396E-04 -0.6610E-04 -0.9253E-05 -0.1401E-04
      0.993  0.3578E-04  0.2108E-03 -0.1822E-05  0.2976E-04
      1.201  0.1564E-02  0.1565E-02  0.3230E-03  0.3548E-03
      1.409  0.5635E-02  0.8781E-02  0.1493E-02  0.2178E-02
      1.616  0.3294E-01  0.3424E-01  0.8333E-02  0.9288E-02
      1.824  0.1385E-01  0.9395E-02  0.1121E-01  0.1124E-01
      2.032  0.1441E-01  0.1894E-01  0.1420E-01  0.1517E-01
      2.239  0.2986E-01  0.3028E-01  0.2040E-01  0.2146E-01
      2.447  0.7056E-01  0.7663E-01  0.3505E-01  0.3737E-01
      2.655  0.4660E-01  0.3576E-01  0.4473E-01  0.4480E-01
      2.862  0.2799E-02  0.3900E-02  0.4531E-01  0.4561E-01
      3.070  0.1570E-01  0.1750E-01  0.4857E-01  0.4924E-01
      3.278  0.9177E-01  0.9979E-01  0.6763E-01  0.6996E-01
      3.485  0.8284E-01  0.7328E-01  0.8483E-01  0.8518E-01
      3.693  0.4467E-01  0.4391E-01  0.9411E-01  0.9430E-01
      3.901  0.7908E-01  0.7724E-01  0.1105E+00  0.1103E+00
      4.108  0.7573E-01  0.7705E-01  0.1263E+00  0.1263E+00
      4.316  0.2730E-02  0.3529E-02  0.1268E+00  0.1271E+00
      4.524  0.6510E-01  0.4181E-01  0.1403E+00  0.1358E+00
      4.731  0.2152E+00  0.2057E+00  0.1850E+00  0.1785E+00
      4.939  0.1032E+00  0.9980E-01  0.2064E+00  0.1992E+00
      5.147  0.1524E+00  0.1147E+00  0.2381E+00  0.2230E+00
      5.354  0.9165E-01  0.1269E+00  0.2571E+00  0.2494E+00
      5.562  0.2129E+00  0.6090E-01  0.3013E+00  0.2620E+00
      5.770  0.4991E+00  0.1392E+00  0.4050E+00  0.2909E+00
      5.977  0.5643E+00  0.4459E+00  0.5221E+00  0.3835E+00
      6.185  0.5880E+00  0.5213E+00  0.6443E+00  0.4918E+00
      6.392  0.5402E+00  0.3692E+00  0.7564E+00  0.5684E+00
      6.600  0.9662E+00  0.4559E+00  0.9571E+00  0.6631E+00
      6.808  0.9163E+00  0.5099E+00  0.1147E+01  0.7690E+00
      7.015  0.6978E+00  0.8366E+00  0.1292E+01  0.9427E+00
      7.223  0.8302E+00  0.7813E+00  0.1465E+01  0.1105E+01
      7.431  0.6383E+00  0.6840E+00  0.1597E+01  0.1247E+01
      7.638  0.8842E+00  0.8193E+00  0.1781E+01  0.1417E+01
      7.846  0.1106E+01  0.6447E+00  0.2010E+01  0.1551E+01
      8.054  0.1007E+01  0.6416E+00  0.2220E+01  0.1684E+01
      8.261  0.1211E+01  0.1107E+01  0.2471E+01  0.1914E+01
      8.469  0.1460E+01  0.8255E+00  0.2774E+01  0.2085E+01
      8.677  0.1329E+01  0.1135E+01  0.3050E+01  0.2321E+01
      8.884  0.9905E+00  0.1180E+01  0.3256E+01  0.2566E+01
      9.092  0.7771E+00  0.1331E+01  0.3417E+01  0.2843E+01
      9.300  0.9608E+00  0.1241E+01  0.3617E+01  0.3100E+01
      9.507  0.1399E+01  0.9018E+00  0.3907E+01  0.3288E+01
      9.715  0.1041E+01  0.8729E+00  0.4124E+01  0.3469E+01
      9.923  0.9400E+00  0.8595E+00  0.4319E+01  0.3647E+01
     10.130  0.1373E+01  0.1378E+01  0.4604E+01  0.3933E+01
     10.338  0.1856E+01  0.1033E+01  0.4989E+01  0.4148E+01
     10.546  0.1393E+01  0.7113E+00  0.5278E+01  0.4296E+01
     10.753  0.4847E-01  0.1190E+01  0.5288E+01  0.4543E+01
     10.961 -0.4903E-02  0.1511E+01  0.5287E+01  0.4856E+01
     11.168  0.9019E-01  0.1643E+01  0.5306E+01  0.5198E+01
     11.376  0.2559E+00  0.4391E+00  0.5359E+01  0.5289E+01
     11.584  0.2796E+00  0.3651E-01  0.5417E+01  0.5296E+01
     11.791  0.1431E+00  0.1312E+00  0.5447E+01  0.5324E+01
     11.999  0.1340E+00  0.2846E+00  0.5475E+01  0.5383E+01
     12.207  0.5912E-01  0.3119E+00  0.5487E+01  0.5447E+01
     12.414  0.1142E+00  0.1397E+00  0.5511E+01  0.5476E+01
     12.622  0.2940E-01  0.8661E-01  0.5517E+01  0.5494E+01
     12.830  0.1477E+00  0.1156E+00  0.5548E+01  0.5518E+01
     13.037  0.2509E+00  0.2603E-01  0.5600E+01  0.5524E+01
     13.245  0.1096E+00  0.1778E+00  0.5622E+01  0.5561E+01
     13.453  0.6892E-01  0.1769E+00  0.5637E+01  0.5598E+01
     13.660  0.1848E+00  0.1183E+00  0.5675E+01  0.5622E+01
     13.868  0.1174E+00  0.1249E+00  0.5699E+01  0.5648E+01
     14.076  0.1711E+00  0.2017E+00  0.5735E+01  0.5690E+01
     14.283  0.1064E+00  0.1919E+00  0.5757E+01  0.5730E+01
     14.491 -0.2165E-02  0.1387E+00  0.5757E+01  0.5759E+01
     14.699 -0.5688E-02 -0.8708E-02  0.5755E+01  0.5757E+01
     14.906  0.1033E+00 -0.8935E-02  0.5777E+01  0.5755E+01
     15.114  0.2605E+00  0.6186E-01  0.5831E+01  0.5768E+01
     15.322  0.1026E+00  0.2540E+00  0.5852E+01  0.5821E+01
     15.529  0.5479E-01  0.1275E+00  0.5864E+01  0.5847E+01
     15.737  0.6221E-02  0.6269E-01  0.5865E+01  0.5860E+01
     15.945  0.1210E+00  0.1826E-01  0.5890E+01  0.5864E+01
     16.152  0.1279E+00  0.9578E-01  0.5917E+01  0.5884E+01
     16.360  0.7404E-01  0.1641E+00  0.5932E+01  0.5918E+01
     16.567  0.2325E-01  0.6545E-01  0.5937E+01  0.5931E+01
     16.775  0.1000E+00  0.2539E-01  0.5958E+01  0.5937E+01
     16.983  0.7954E-01  0.9329E-01  0.5974E+01  0.5956E+01
     17.190 -0.8225E-02  0.8707E-01  0.5972E+01  0.5974E+01
     17.398  0.1797E-01 -0.5227E-02  0.5976E+01  0.5973E+01
     17.606  0.1086E+00 -0.4561E-02  0.5999E+01  0.5972E+01
     17.813  0.1046E+00  0.6472E-01  0.6020E+01  0.5985E+01
     18.021  0.1775E+00  0.1190E+00  0.6057E+01  0.6010E+01
     18.229  0.1866E+00  0.1564E+00  0.6096E+01  0.6043E+01
     18.436  0.3848E-01  0.1886E+00  0.6104E+01  0.6082E+01
     18.644  0.9880E-01  0.1013E+00  0.6125E+01  0.6103E+01
     18.852  0.3395E+00  0.1229E+00  0.6195E+01  0.6128E+01
     19.059  0.1673E+00  0.2904E+00  0.6230E+01  0.6189E+01
     19.267  0.3901E-01  0.1891E+00  0.6238E+01  0.6228E+01
     19.475  0.1056E+00  0.3358E-01  0.6260E+01  0.6235E+01
     19.682  0.1438E+00  0.1214E+00  0.6290E+01  0.6260E+01
     19.890  0.1871E+00  0.1435E+00  0.6329E+01  0.6290E+01
     20.098  0.1378E+00  0.1758E+00  0.6357E+01  0.6326E+01
     20.305  0.1100E-01  0.1442E+00  0.6359E+01  0.6356E+01
     20.513  0.6200E-01  0.1441E-01  0.6372E+01  0.6359E+01
     20.721  0.9483E-02  0.6105E-01  0.6374E+01  0.6372E+01
     20.928  0.6378E-01  0.1038E-01  0.6388E+01  0.6374E+01
     21.136  0.2399E+00  0.7357E-01  0.6437E+01  0.6389E+01
     21.343  0.9169E-01  0.2391E+00  0.6456E+01  0.6439E+01
     21.551  0.1082E+00  0.1003E+00  0.6479E+01  0.6460E+01
     21.759  0.1586E+00  0.1107E+00  0.6512E+01  0.6483E+01
     21.966  0.1267E+00  0.1506E+00  0.6538E+01  0.6514E+01
     22.174  0.3358E+00  0.1623E+00  0.6608E+01  0.6548E+01
     22.382  0.1691E+00  0.3579E+00  0.6643E+01  0.6622E+01
     22.589  0.1586E+00  0.1186E+00  0.6676E+01  0.6647E+01
     22.797  0.1807E+00  0.1812E+00  0.6713E+01  0.6685E+01
     23.005  0.1817E+00  0.1858E+00  0.6751E+01  0.6723E+01
     23.212  0.1690E+00  0.1788E+00  0.6786E+01  0.6760E+01
     23.420  0.2590E-01  0.1401E+00  0.6792E+01  0.6789E+01
     23.628  0.2648E-01  0.6432E-02  0.6797E+01  0.6791E+01
     23.835  0.2128E+00  0.7737E-01  0.6841E+01  0.6807E+01
     24.043  0.2395E+00  0.2494E+00  0.6891E+01  0.6858E+01
     24.251  0.2245E+00  0.2278E+00  0.6938E+01  0.6906E+01
     24.458  0.3518E+00  0.3084E+00  0.7011E+01  0.6970E+01
     24.666  0.1141E+00  0.2523E+00  0.7034E+01  0.7022E+01
     24.874  0.1602E+00  0.1200E+00  0.7068E+01  0.7047E+01
     25.081  0.1347E+00  0.1714E+00  0.7096E+01  0.7083E+01
     25.289  0.2782E-01  0.7439E-01  0.7101E+01  0.7098E+01
     25.497  0.9592E-01  0.5101E-01  0.7121E+01  0.7109E+01
     25.704  0.2101E+00  0.1825E+00  0.7165E+01  0.7147E+01
     25.912  0.3465E+00  0.2105E+00  0.7237E+01  0.7190E+01
     26.120  0.4076E+00  0.4654E+00  0.7322E+01  0.7287E+01
     26.327  0.1549E+00  0.2626E+00  0.7354E+01  0.7342E+01
     26.535  0.5739E-01  0.9038E-01  0.7366E+01  0.7360E+01
     26.742  0.1843E+00  0.1221E+00  0.7404E+01  0.7386E+01
     26.950  0.1549E+00  0.1938E+00  0.7436E+01  0.7426E+01
     27.158  0.1698E+00  0.1532E+00  0.7471E+01  0.7458E+01
     27.365  0.1892E+00  0.1495E+00  0.7511E+01  0.7489E+01
     27.573  0.3663E+00  0.3127E+00  0.7587E+01  0.7554E+01
     27.781  0.2465E+00  0.3246E+00  0.7638E+01  0.7621E+01
     27.988  0.2215E+00  0.2372E+00  0.7684E+01  0.7670E+01
     28.196  0.9316E-01  0.1217E+00  0.7703E+01  0.7696E+01
     28.404  0.1206E+00  0.1372E+00  0.7728E+01  0.7724E+01
     28.611  0.1998E+00  0.1175E+00  0.7770E+01  0.7749E+01
     28.819  0.2799E+00  0.2837E+00  0.7828E+01  0.7807E+01
     29.027  0.9564E-01  0.1653E+00  0.7848E+01  0.7842E+01
     29.234  0.7034E-01  0.6919E-01  0.7862E+01  0.7856E+01
     29.442  0.1342E+00  0.9568E-01  0.7890E+01  0.7876E+01
     29.650  0.1990E+00  0.2024E+00  0.7931E+01  0.7918E+01
     29.857  0.3302E+00  0.2687E+00  0.8000E+01  0.7974E+01
     30.065  0.3999E+00  0.4239E+00  0.8083E+01  0.8062E+01
     30.273  0.2480E+00  0.3116E+00  0.8135E+01  0.8127E+01
     30.480  0.1006E+00  0.1048E+00  0.8155E+01  0.8148E+01
     30.688  0.2929E-01  0.5935E-01  0.8162E+01  0.8161E+01
     30.896  0.4115E-01  0.2442E-01  0.8170E+01  0.8166E+01
     31.103  0.1715E+00  0.1302E+00  0.8206E+01  0.8193E+01
     31.311  0.1107E+00  0.1636E+00  0.8229E+01  0.8227E+01
     31.518 -0.2599E-02  0.9920E-02  0.8228E+01  0.8229E+01
     31.726  0.4295E-01  0.3346E-01  0.8237E+01  0.8236E+01
     31.934  0.3396E+00  0.1948E+00  0.8308E+01  0.8276E+01
     32.141  0.4509E+00  0.5345E+00  0.8401E+01  0.8387E+01
     32.349  0.1256E+00  0.1918E+00  0.8427E+01  0.8427E+01
     32.557  0.5475E-01  0.3367E-01  0.8439E+01  0.8434E+01
     32.764  0.1118E+00  0.1071E+00  0.8462E+01  0.8456E+01
     32.972  0.2085E+00  0.2102E+00  0.8505E+01  0.8500E+01
     33.180  0.2261E+00  0.1919E+00  0.8552E+01  0.8540E+01
     33.387  0.2514E+00  0.2592E+00  0.8604E+01  0.8594E+01
     33.595  0.9180E-01  0.1400E+00  0.8623E+01  0.8623E+01
     33.803  0.1565E+00  0.1390E+00  0.8656E+01  0.8651E+01
     34.010  0.1699E+00  0.1617E+00  0.8691E+01  0.8685E+01
     34.218  0.2102E+00  0.1781E+00  0.8735E+01  0.8722E+01
     34.426  0.1120E+00  0.1798E+00  0.8758E+01  0.8759E+01
     34.633  0.2558E+00  0.1938E+00  0.8811E+01  0.8800E+01
     34.841  0.4133E+00  0.4078E+00  0.8897E+01  0.8884E+01
     35.049  0.1452E+00  0.1769E+00  0.8927E+01  0.8921E+01
     35.256  0.2419E+00  0.2175E+00  0.8977E+01  0.8966E+01
     35.464  0.3253E+00  0.3986E+00  0.9045E+01  0.9049E+01
     35.672  0.2282E+00  0.1939E+00  0.9092E+01  0.9089E+01
     35.879  0.1187E+00  0.1002E+00  0.9117E+01  0.9110E+01
     36.087  0.2310E+00  0.2016E+00  0.9165E+01  0.9152E+01
     36.294  0.3525E+00  0.3617E+00  0.9238E+01  0.9227E+01
     36.502  0.1023E+00  0.1660E+00  0.9259E+01  0.9261E+01
     36.710  0.1107E+00  0.7677E-01  0.9282E+01  0.9277E+01
     36.917  0.1690E+00  0.1525E+00  0.9318E+01  0.9309E+01
     37.125  0.3090E+00  0.2983E+00  0.9382E+01  0.9371E+01
     37.333  0.3329E+00  0.3993E+00  0.9451E+01  0.9454E+01
     37.540  0.3460E+00  0.2467E+00  0.9523E+01  0.9505E+01
     37.748  0.4177E+00  0.4042E+00  0.9609E+01  0.9589E+01
     37.956  0.2637E+00  0.3091E+00  0.9664E+01  0.9653E+01
     38.163  0.1843E+00  0.2117E+00  0.9702E+01  0.9697E+01
     38.371  0.2473E-01  0.5209E-01  0.9708E+01  0.9708E+01
     38.579  0.1415E+00  0.8541E-01  0.9737E+01  0.9726E+01
     38.786  0.4503E+00  0.4506E+00  0.9830E+01  0.9819E+01
     38.994  0.2004E+00  0.2233E+00  0.9872E+01  0.9866E+01
     39.202  0.8110E-01  0.9231E-01  0.9889E+01  0.9885E+01
     39.409  0.1656E+00  0.1793E+00  0.9923E+01  0.9922E+01
     39.617  0.9560E-01  0.9625E-01  0.9943E+01  0.9942E+01
     39.825  0.5649E-01  0.5476E-01  0.9955E+01  0.9953E+01
     40.032  0.1098E+00  0.9831E-01  0.9978E+01  0.9974E+01
     40.240  0.7842E-01  0.7206E-01  0.9994E+01  0.9989E+01
     40.448  0.1015E+00  0.7074E-01  0.1002E+02  0.1000E+02
     40.655  0.2528E+00  0.2861E+00  0.1007E+02  0.1006E+02
     40.863  0.1577E+00  0.1298E+00  0.1010E+02  0.1009E+02
     41.071  0.1132E+00  0.1488E+00  0.1012E+02  0.1012E+02
     41.278  0.4147E-01  0.6580E-01  0.1013E+02  0.1013E+02
     41.486  0.9024E-01  0.6607E-01  0.1015E+02  0.1015E+02
     41.693  0.3247E+00  0.3025E+00  0.1022E+02  0.1021E+02
     41.901  0.3150E+00  0.2552E+00  0.1028E+02  0.1026E+02
     42.109  0.2533E+00  0.2606E+00  0.1034E+02  0.1032E+02
     42.316  0.7404E-01  0.1471E+00  0.1035E+02  0.1035E+02
     42.524  0.2480E+00  0.1877E+00  0.1040E+02  0.1039E+02
     42.732  0.3523E+00  0.4170E+00  0.1048E+02  0.1047E+02
     42.939  0.4922E+00  0.5053E+00  0.1058E+02  0.1058E+02
     43.147  0.6176E+00  0.4944E+00  0.1071E+02  0.1068E+02
     43.355  0.3185E+00  0.3302E+00  0.1077E+02  0.1075E+02
     43.562  0.1345E+00  0.2485E+00  0.1080E+02  0.1080E+02
     43.770  0.1423E+00  0.1194E+00  0.1083E+02  0.1083E+02
     43.978  0.1056E+00  0.1079E+00  0.1085E+02  0.1085E+02
     44.185  0.1444E+00  0.1530E+00  0.1088E+02  0.1088E+02
     44.393  0.4136E-01  0.5361E-01  0.1089E+02  0.1089E+02
     44.601  0.1821E+00  0.1785E+00  0.1093E+02  0.1093E+02
     44.808  0.1130E+00  0.1104E+00  0.1095E+02  0.1095E+02
     45.016  0.2543E+00  0.2159E+00  0.1101E+02  0.1100E+02
     45.224  0.2306E+00  0.2655E+00  0.1105E+02  0.1105E+02
     45.431  0.2010E+00  0.2321E+00  0.1109E+02  0.1110E+02
     45.639  0.1252E+00  0.1028E+00  0.1112E+02  0.1112E+02
     45.847  0.5725E-01  0.3304E-01  0.1113E+02  0.1113E+02
     46.054  0.1210E+00  0.1356E+00  0.1116E+02  0.1116E+02
     46.262  0.2996E+00  0.2495E+00  0.1122E+02  0.1121E+02
     46.469  0.2259E+00  0.2437E+00  0.1127E+02  0.1126E+02
     46.677  0.3239E+00  0.3242E+00  0.1133E+02  0.1133E+02
     46.885  0.1576E+00  0.1497E+00  0.1137E+02  0.1136E+02
     47.092  0.1874E+00  0.2285E+00  0.1141E+02  0.1140E+02
     47.300  0.2299E+00  0.2226E+00  0.1145E+02  0.1145E+02
     47.508  0.1424E+00  0.1566E+00  0.1148E+02  0.1148E+02
     47.715  0.6373E-01  0.7570E-01  0.1150E+02  0.1150E+02
     47.923  0.8561E-01  0.8090E-01  0.1151E+02  0.1152E+02
     48.131  0.2099E+00  0.1504E+00  0.1156E+02  0.1155E+02
     48.338  0.1968E+00  0.1816E+00  0.1160E+02  0.1159E+02
     48.546  0.2333E+00  0.3085E+00  0.1165E+02  0.1165E+02
     48.754  0.1863E+00  0.1983E+00  0.1169E+02  0.1169E+02
     48.961  0.4155E-01  0.2013E-01  0.1169E+02  0.1169E+02
     49.169 -0.1246E-01 -0.9764E-02  0.1169E+02  0.1169E+02
     49.377  0.5609E-01  0.2948E-01  0.1170E+02  0.1170E+02
     49.584  0.2448E+00  0.2476E+00  0.1175E+02  0.1175E+02
     49.792  0.1373E+00  0.1602E+00  0.1178E+02  0.1178E+02
     50.000  0.2915E-01  0.2755E-01  0.1179E+02  0.1179E+02
     50.207 -0.3567E-02 -0.3512E-02  0.1179E+02  0.1179E+02
     50.415 -0.3016E-02 -0.1692E-02  0.1179E+02  0.1179E+02
     50.623  0.2079E-01  0.1087E-02  0.1179E+02  0.1179E+02
     50.830  0.5691E-01  0.6205E-01  0.1180E+02  0.1180E+02
     51.038  0.1269E+00  0.1806E+00  0.1183E+02  0.1184E+02
     51.246  0.1952E+00  0.1646E+00  0.1187E+02  0.1187E+02
     51.453  0.1539E+00  0.1477E+00  0.1190E+02  0.1190E+02
     51.661  0.1773E-01  0.1357E-01  0.1191E+02  0.1191E+02
     51.868 -0.4178E-02 -0.3725E-02  0.1191E+02  0.1191E+02
     52.076 -0.1083E-03 -0.8202E-04  0.1191E+02  0.1191E+02
     52.284 -0.2903E-06 -0.3397E-06  0.1191E+02  0.1191E+02
     52.491 -0.3192E-04 -0.7606E-04  0.1191E+02  0.1191E+02
     52.699 -0.1646E-02 -0.2477E-02  0.1190E+02  0.1190E+02
     52.907  0.5331E-02  0.1414E-01  0.1191E+02  0.1191E+02
     53.114  0.7154E-01  0.7839E-01  0.1192E+02  0.1192E+02
     53.322  0.4884E-01  0.3815E-01  0.1193E+02  0.1193E+02
     53.530  0.6240E-01  0.6368E-01  0.1194E+02  0.1195E+02
     53.737  0.6240E-01  0.6589E-01  0.1196E+02  0.1196E+02
     53.945  0.3642E-01  0.2760E-01  0.1196E+02  0.1196E+02
     54.153 -0.2682E-02 -0.2855E-02  0.1196E+02  0.1196E+02
     54.360 -0.3598E-03 -0.2159E-03  0.1196E+02  0.1196E+02
     54.568 -0.2173E-05 -0.9564E-06  0.1196E+02  0.1196E+02
     54.776 -0.1904E-05 -0.2769E-05  0.1196E+02  0.1196E+02
     54.983 -0.3318E-03 -0.4167E-03  0.1196E+02  0.1196E+02
     55.191 -0.2703E-02 -0.2450E-02  0.1196E+02  0.1196E+02
     55.399  0.3681E-01  0.4111E-01  0.1197E+02  0.1197E+02
     55.606  0.5414E-01  0.5045E-01  0.1198E+02  0.1198E+02
     55.814 -0.2700E-03 -0.1215E-02  0.1198E+02  0.1198E+02
     56.022 -0.1743E-02 -0.1753E-02  0.1198E+02  0.1198E+02
     56.229  0.4626E-02  0.6591E-02  0.1198E+02  0.1198E+02
     56.437  0.3282E-01  0.3303E-01  0.1199E+02  0.1199E+02
     56.644  0.8131E-02  0.5967E-02  0.1199E+02  0.1199E+02
     56.852 -0.1180E-02 -0.1031E-02  0.1199E+02  0.1199E+02
     57.060 -0.5615E-04 -0.6771E-04  0.1199E+02  0.1199E+02
     57.267 -0.4890E-03 -0.7065E-03  0.1199E+02  0.1199E+02
     57.475  0.1630E-02  0.5144E-02  0.1199E+02  0.1199E+02
     57.683  0.2151E-01  0.2112E-01  0.1200E+02  0.1200E+02
     57.890  0.2021E-01  0.1720E-01  0.1200E+02  0.1200E+02
     58.098  0.9957E-03  0.1102E-02  0.1200E+02  0.1200E+02
     58.306 -0.4182E-03 -0.3892E-03  0.1200E+02  0.1200E+02
     58.513 -0.8214E-05 -0.7600E-05  0.1200E+02  0.1200E+02
     58.721 -0.1391E-07 -0.1253E-07  0.1200E+02  0.1200E+02
     58.929 -0.2439E-11 -0.2133E-11  0.1200E+02  0.1200E+02
     59.136 -0.4820E-16 -0.3856E-16  0.1200E+02  0.1200E+02
     59.344  0.0000E+00  0.0000E+00  0.1200E+02  0.1200E+02
     59.552  0.0000E+00  0.0000E+00  0.1200E+02  0.1200E+02
     59.759  0.0000E+00  0.0000E+00  0.1200E+02  0.1200E+02
     59.967  0.0000E+00  0.0000E+00  0.1200E+02  0.1200E+02
     60.175  0.0000E+00  0.0000E+00  0.1200E+02  0.1200E+02
     60.382  0.0000E+00  0.0000E+00  0.1200E+02  0.1200E+02
     60.590  0.0000E+00  0.0000E+00  0.1200E+02  0.1200E+02
     60.58989907     -1.70600036  301     10.87887429      1.00000000
     -1.706  0.0000E+00  0.0000E+00  0.0000E+00  0.0000E+00  0.0000E+00  0.0000E+00  0.0000E+00  0.0000E+00  0.0000E+00  0.0000E+00  0.0000E+00  0.0000E+00  0.0000E+00  0.0000E+00  0.0000E+00  0.0000E+00  0.0000E+00  0.0000E+00
     -1.498  0.0000E+00  0.0000E+00  0.0000E+00  0.0000E+00  0.0000E+00  0.0000E+00  0.0000E+00  0.0000E+00  0.0000E+00  0.0000E+00  0.0000E+00  0.0000E+00  0.0000E+00  0.0000E+00  0.0000E+00  0.0000E+00  0.0000E+00  0.0000E+00
     -1.291  0.0000E+00  0.0000E+00  0.0000E+00  0.0000E+00  0.0000E+00  0.0000E+00  0.0000E+00  0.0000E+00  0.0000E+00  0.0000E+00  0.0000E+00  0.0000E+00  0.0000E+00  0.0000E+00  0.0000E+00  0.0000E+00  0.0000E+00  0.0000E+00
     -1.083  0.0000E+00  0.0000E+00  0.0000E+00  0.0000E+00  0.0000E+00  0.0000E+00  0.0000E+00  0.0000E+00  0.0000E+00  0.0000E+00  0.0000E+00  0.0000E+00  0.0000E+00  0.0000E+00  0.0000E+00  0.0000E+00  0.0000E+00  0.0000E+00
     -0.875  0.0000E+00  0.0000E+00  0.0000E+00  0.0000E+00  0.0000E+00  0.0000E+00  0.0000E+00  0.0000E+00  0.0000E+00  0.0000E+00  0.0000E+00  0.0000E+00  0.0000E+00  0.0000E+00  0.0000E+00  0.0000E+00  0.0000E+00  0.0000E+00
     -0.668  0.0000E+00 -0.9043E-37  0.0000E+00 -0.3737E-52  0.0000E+00 -0.3737E-52  0.0000E+00 -0.3737E-52  0.0000E+00 -0.2359E-47  0.0000E+00 -0.2359E-47  0.0000E+00 -0.3464E-51  0.0000E+00 -0.2359E-47  0.0000E+00 -0.3464E-51
     -0.460 -0.2639E-30 -0.3321E-29 -0.3537E-44 -0.1372E-44 -0.3537E-44 -0.1372E-44 -0.3537E-44 -0.1372E-44 -0.1595E-40 -0.8662E-40 -0.1595E-40 -0.8662E-40 -0.3627E-44 -0.1272E-43 -0.1595E-40 -0.8662E-40 -0.3627E-44 -0.1272E-43
     -0.252 -0.1540E-23 -0.1388E-22 -0.2081E-36 -0.2826E-35 -0.2081E-36 -0.2826E-35 -0.2081E-36 -0.2826E-35 -0.9307E-34 -0.3620E-33 -0.9307E-34 -0.3620E-33 -0.2116E-37 -0.5316E-37 -0.9307E-34 -0.3620E-33 -0.2116E-37 -0.5316E-37
     -0.045 -0.1017E-17 -0.6398E-17 -0.4725E-29 -0.5111E-28 -0.4725E-29 -0.5111E-28 -0.4725E-29 -0.5111E-28 -0.6164E-28 -0.1682E-27 -0.6164E-28 -0.1682E-27 -0.1400E-31 -0.2477E-31 -0.6164E-28 -0.1682E-27 -0.1400E-31 -0.2477E-31
      0.163 -0.7253E-13 -0.3333E-12 -0.1347E-22 -0.1052E-21 -0.1347E-22 -0.1052E-21 -0.1347E-22 -0.1052E-21 -0.4770E-23 -0.1133E-22 -0.4770E-23 -0.1133E-22 -0.1208E-26 -0.3080E-26 -0.4770E-23 -0.1133E-22 -0.1208E-26 -0.3080E-26
      0.371 -0.5819E-09 -0.1899E-08 -0.4214E-17 -0.2370E-16 -0.4214E-17 -0.2370E-16 -0.4214E-17 -0.2370E-16 -0.1556E-18 -0.6431E-18 -0.1556E-18 -0.6431E-18 -0.2357E-21 -0.1410E-20 -0.1556E-18 -0.6431E-18 -0.2357E-21 -0.1410E-20
      0.578 -0.4871E-06 -0.1114E-05 -0.1506E-12 -0.6065E-12 -0.1506E-12 -0.6065E-12 -0.1506E-12 -0.6065E-12 -0.4323E-14 -0.1517E-13 -0.4323E-14 -0.1517E-13 -0.2667E-16 -0.1180E-15 -0.4323E-14 -0.1517E-13 -0.2667E-16 -0.1180E-15
      0.786 -0.3598E-04 -0.5420E-04 -0.5860E-09 -0.1684E-08 -0.5860E-09 -0.1684E-08 -0.5860E-09 -0.1684E-08 -0.1655E-10 -0.4157E-10 -0.1655E-10 -0.4157E-10 -0.3529E-12 -0.1118E-11 -0.1655E-10 -0.4157E-10 -0.3529E-12 -0.1118E-11
      0.993  0.3000E-04  0.1743E-03 -0.2364E-06 -0.4783E-06 -0.2364E-06 -0.4783E-06 -0.2364E-06 -0.4783E-06 -0.6447E-08 -0.1132E-07 -0.6447E-08 -0.1132E-07 -0.4948E-09 -0.1111E-08 -0.6447E-08 -0.1132E-07 -0.4948E-09 -0.1111E-08
      1.201  0.1304E-02  0.1315E-02 -0.7994E-05 -0.1035E-04 -0.7994E-05 -0.1035E-04 -0.7994E-05 -0.1035E-04 -0.1867E-06 -0.1983E-06 -0.1867E-06 -0.1983E-06 -0.6518E-07 -0.9978E-07 -0.1867E-06 -0.1983E-06 -0.6518E-07 -0.9978E-07
      1.409  0.4502E-02  0.6994E-02  0.3624E-04  0.6909E-04  0.3624E-04  0.6909E-04  0.3624E-04  0.6909E-04  0.1210E-05  0.1740E-05  0.1210E-05  0.1740E-05 -0.2681E-06 -0.1312E-07  0.1210E-05  0.1740E-05 -0.2681E-06 -0.1312E-07
      1.616  0.2600E-01  0.2706E-01  0.3180E-03  0.3363E-03  0.3180E-03  0.3363E-03  0.3180E-03  0.3363E-03  0.5280E-05  0.4308E-05  0.5280E-05  0.4308E-05  0.5710E-05  0.6378E-05  0.5280E-05  0.4308E-05  0.5710E-05  0.6378E-05
      1.824  0.1093E-01  0.7427E-02  0.1352E-03  0.9263E-04  0.1352E-03  0.9263E-04  0.1352E-03  0.9263E-04 -0.9942E-06 -0.1005E-05 -0.9942E-06 -0.1005E-05  0.5320E-05  0.3733E-05 -0.9942E-06 -0.1005E-05  0.5320E-05  0.3733E-05
      2.032  0.1078E-01  0.1421E-01  0.3246E-03  0.4238E-03  0.3246E-03  0.4238E-03  0.3246E-03  0.4238E-03  0.1954E-04  0.2213E-04  0.1954E-04  0.2213E-04  0.5140E-05  0.5973E-05  0.1954E-04  0.2213E-04  0.5140E-05  0.5973E-05
      2.239  0.2231E-01  0.2255E-01  0.6776E-03  0.7263E-03  0.6776E-03  0.7263E-03  0.6776E-03  0.7263E-03  0.3713E-04  0.3460E-04  0.3713E-04  0.3460E-04  0.1969E-04  0.2597E-04  0.3713E-04  0.3460E-04  0.1969E-04  0.2597E-04
      2.447  0.5085E-01  0.5532E-01  0.2119E-02  0.2330E-02  0.2119E-02  0.2330E-02  0.2119E-02  0.2330E-02  0.1523E-03  0.1482E-03  0.1523E-03  0.1482E-03  0.1397E-03  0.1356E-03  0.1523E-03  0.1482E-03  0.1397E-03  0.1356E-03
      2.655  0.3349E-01  0.2576E-01  0.1415E-02  0.1097E-02  0.1415E-02  0.1097E-02  0.1415E-02  0.1097E-02  0.1455E-03  0.1023E-03  0.1455E-03  0.1023E-03  0.5666E-04  0.3312E-04  0.1455E-03  0.1023E-03  0.5666E-04  0.3312E-04
      2.862  0.1816E-02  0.2558E-02  0.1365E-03  0.1869E-03  0.1365E-03  0.1869E-03  0.1365E-03  0.1869E-03 -0.1606E-04 -0.1984E-04 -0.1606E-04 -0.1984E-04  0.5975E-04  0.7282E-04 -0.1606E-04 -0.1984E-04  0.5975E-04  0.7282E-04
      3.070  0.1057E-01  0.1177E-01  0.6595E-03  0.7539E-03  0.6595E-03  0.7539E-03  0.6595E-03  0.7539E-03  0.1927E-04  0.4191E-04  0.1927E-04  0.4191E-04  0.1520E-03  0.1288E-03  0.1927E-04  0.4191E-04  0.1520E-03  0.1288E-03
      3.278  0.5948E-01  0.6494E-01  0.4358E-02  0.4824E-02  0.4358E-02  0.4824E-02  0.4358E-02  0.4824E-02  0.7953E-03  0.7227E-03  0.7953E-03  0.7227E-03  0.3862E-03  0.3959E-03  0.7953E-03  0.7227E-03  0.3862E-03  0.3959E-03
      3.485  0.5337E-01  0.4742E-01  0.4041E-02  0.3628E-02  0.4041E-02  0.3628E-02  0.4041E-02  0.3628E-02  0.5684E-03  0.4189E-03  0.5684E-03  0.4189E-03  0.5494E-03  0.4506E-03  0.5684E-03  0.4189E-03  0.5494E-03  0.4506E-03
      3.693  0.2698E-01  0.2674E-01  0.2385E-02  0.2419E-02  0.2385E-02  0.2419E-02  0.2385E-02  0.2419E-02  0.8279E-03  0.6823E-03  0.8279E-03  0.6823E-03  0.2223E-03  0.1931E-03  0.8279E-03  0.6823E-03  0.2223E-03  0.1931E-03
      3.901  0.4633E-01  0.4579E-01  0.4379E-02  0.4422E-02  0.4379E-02  0.4422E-02  0.4379E-02  0.4422E-02  0.1429E-02  0.1092E-02  0.1429E-02  0.1092E-02  0.9651E-03  0.8754E-03  0.1429E-02  0.1092E-02  0.9651E-03  0.8754E-03
      4.108  0.4294E-01  0.4425E-01  0.4483E-02  0.4672E-02  0.4483E-02  0.4672E-02  0.4483E-02  0.4672E-02  0.8284E-03  0.7326E-03  0.8284E-03  0.7326E-03  0.1965E-02  0.1699E-02  0.8284E-03  0.7326E-03  0.1965E-02  0.1699E-02
      4.316  0.1851E-02  0.2169E-02  0.1934E-03  0.2302E-03  0.1934E-03  0.2302E-03  0.1934E-03  0.2302E-03 -0.1222E-03 -0.3321E-04 -0.1222E-03 -0.3321E-04  0.6254E-04  0.6550E-04 -0.1222E-03 -0.3321E-04  0.6254E-04  0.6550E-04
      4.524  0.3307E-01  0.2208E-01  0.4331E-02  0.2963E-02  0.4331E-02  0.2963E-02  0.4331E-02  0.2963E-02  0.2256E-02  0.1006E-02  0.2256E-02  0.1006E-02  0.8783E-03  0.4365E-03  0.2256E-02  0.1006E-02  0.8783E-03  0.4365E-03
      4.731  0.1058E+00  0.1036E+00  0.1402E-01  0.1414E-01  0.1402E-01  0.1414E-01  0.1402E-01  0.1414E-01  0.8114E-02  0.6276E-02  0.8114E-02  0.6276E-02  0.4392E-02  0.3745E-02  0.8114E-02  0.6276E-02  0.4392E-02  0.3745E-02
      4.939  0.4623E-01  0.4907E-01  0.6475E-02  0.6942E-02  0.6475E-02  0.6942E-02  0.6475E-02  0.6942E-02  0.4649E-02  0.2708E-02  0.4649E-02  0.2708E-02  0.3910E-02  0.2801E-02  0.4649E-02  0.2708E-02  0.3910E-02  0.2801E-02
      5.147  0.6119E-01  0.4909E-01  0.8641E-02  0.7555E-02  0.8641E-02  0.7555E-02  0.8641E-02  0.7555E-02  0.1048E-01  0.5127E-02  0.1048E-01  0.5127E-02  0.6185E-02  0.5105E-02  0.1048E-01  0.5127E-02  0.6185E-02  0.5105E-02
      5.354  0.3394E-01  0.5249E-01  0.5479E-02  0.7893E-02  0.5479E-02  0.7893E-02  0.5479E-02  0.7893E-02  0.4590E-02  0.8000E-02  0.4590E-02  0.8000E-02  0.7191E-02  0.4218E-02  0.4590E-02  0.8000E-02  0.7191E-02  0.4218E-02
      5.562  0.5316E-01  0.2124E-01  0.6581E-02  0.4022E-02  0.6581E-02  0.4022E-02  0.6581E-02  0.4022E-02  0.2793E-01  0.2067E-03  0.2793E-01  0.2067E-03  0.1707E-01  0.8790E-02  0.2793E-01  0.2067E-03  0.1707E-01  0.8790E-02
      5.770  0.1098E+00  0.4315E-01  0.1622E-01  0.7286E-02  0.1622E-01  0.7286E-02  0.1622E-01  0.7286E-02  0.5864E-01  0.1301E-01  0.5864E-01  0.1301E-01  0.5668E-01  0.8908E-02  0.5864E-01  0.1301E-01  0.5668E-01  0.8908E-02
      5.977  0.1045E+00  0.1230E+00  0.2068E-01  0.2087E-01  0.2068E-01  0.2087E-01  0.2068E-01  0.2087E-01  0.4324E-01  0.4958E-01  0.4324E-01  0.4958E-01  0.1033E+00  0.3011E-01  0.4324E-01  0.4958E-01  0.1033E+00  0.3011E-01
      6.185  0.7159E-01  0.1023E+00  0.1308E-01  0.1934E-01  0.1308E-01  0.1934E-01  0.1308E-01  0.1934E-01  0.7281E-01  0.3569E-01  0.7281E-01  0.3569E-01  0.1038E+00  0.9732E-01  0.7281E-01  0.3569E-01  0.1038E+00  0.9732E-01
      6.392  0.3082E-01  0.5538E-01  0.7720E-02  0.1076E-01  0.7720E-02  0.1076E-01  0.7720E-02  0.1076E-01  0.9169E-01  0.3204E-01  0.9169E-01  0.3204E-01  0.8693E-01  0.7391E-01  0.9169E-01  0.3204E-01  0.8693E-01  0.7391E-01
      6.600  0.5531E-01  0.5015E-01  0.2128E-01  0.9046E-02  0.2128E-01  0.9046E-02  0.2128E-01  0.9046E-02  0.1774E+00  0.5031E-01  0.1774E+00  0.5031E-01  0.1245E+00  0.9372E-01  0.1774E+00  0.5031E-01  0.1245E+00  0.9372E-01
      6.808  0.2982E-01  0.4834E-01  0.1985E-01  0.1583E-01  0.1985E-01  0.1583E-01  0.1985E-01  0.1583E-01  0.1808E+00  0.6662E-01  0.1808E+00  0.6662E-01  0.1135E+00  0.8491E-01  0.1808E+00  0.6662E-01  0.1135E+00  0.8491E-01
      7.015  0.5212E-02  0.5235E-01  0.1748E-01  0.2224E-01  0.1748E-01  0.2224E-01  0.1748E-01  0.2224E-01  0.1474E+00  0.1277E+00  0.1474E+00  0.1277E+00  0.7855E-01  0.1348E+00  0.1474E+00  0.1277E+00  0.7855E-01  0.1348E+00
      7.223  0.5556E-02  0.1981E-01  0.2064E-01  0.1649E-01  0.2064E-01  0.1649E-01  0.2064E-01  0.1649E-01  0.1588E+00  0.1581E+00  0.1588E+00  0.1581E+00  0.1184E+00  0.9456E-01  0.1588E+00  0.1581E+00  0.1184E+00  0.9456E-01
      7.431  0.1747E-02  0.7379E-02  0.1547E-01  0.1853E-01  0.1547E-01  0.1853E-01  0.1547E-01  0.1853E-01  0.1152E+00  0.1568E+00  0.1152E+00  0.1568E+00  0.1031E+00  0.5537E-01  0.1152E+00  0.1568E+00  0.1031E+00  0.5537E-01
      7.638  0.5959E-02  0.5834E-02  0.2237E-01  0.2184E-01  0.2237E-01  0.2184E-01  0.2237E-01  0.2184E-01  0.1900E+00  0.1563E+00  0.1900E+00  0.1563E+00  0.9740E-01  0.1141E+00  0.1900E+00  0.1563E+00  0.9740E-01  0.1141E+00
      7.846  0.1279E-01  0.3205E-02  0.2961E-01  0.1699E-01  0.2961E-01  0.1699E-01  0.2961E-01  0.1699E-01  0.2359E+00  0.1319E+00  0.2359E+00  0.1319E+00  0.1199E+00  0.7824E-01  0.2359E+00  0.1319E+00  0.1199E+00  0.7824E-01
      8.054  0.1238E-01  0.1535E-02  0.2343E-01  0.1757E-01  0.2343E-01  0.1757E-01  0.2343E-01  0.1757E-01  0.2159E+00  0.1281E+00  0.2159E+00  0.1281E+00  0.1166E+00  0.8283E-01  0.2159E+00  0.1281E+00  0.1166E+00  0.8283E-01
      8.261  0.1221E-01  0.8675E-02  0.2382E-01  0.3436E-01  0.2382E-01  0.3436E-01  0.2382E-01  0.3436E-01  0.2425E+00  0.2352E+00  0.2425E+00  0.2352E+00  0.1774E+00  0.1141E+00  0.2425E+00  0.2352E+00  0.1774E+00  0.1141E+00
      8.469  0.1012E-01  0.8761E-02  0.2515E-01  0.2224E-01  0.2515E-01  0.2224E-01  0.2515E-01  0.2224E-01  0.3022E+00  0.1945E+00  0.3022E+00  0.1945E+00  0.2094E+00  0.6368E-01  0.3022E+00  0.1945E+00  0.2094E+00  0.6368E-01
      8.677  0.1516E-01  0.1289E-01  0.2374E-01  0.2809E-01  0.2374E-01  0.2809E-01  0.2374E-01  0.2809E-01  0.2757E+00  0.2298E+00  0.2757E+00  0.2298E+00  0.1854E+00  0.1500E+00  0.2757E+00  0.2298E+00  0.1854E+00  0.1500E+00