    1    1    1    2
  0.9826000E+01  0.2404163E-09  0.2404163E-09  0.2404163E-09  0.5000000E-15
  1.000000000000000E-004
  CAR 
 fcc Ni                                  
     10     56     12
 
  0.0000000E+00  0.0000000E+00  0.0000000E+00  0.7513148E-03
      1          1.157475        1.125631   1.000000   1.000000
      2          8.216043        8.881527   1.000000   1.000000
      3          8.216050        8.881528   1.000000   1.000000
      4          8.216052        8.881528   1.000000   1.000000
      5          9.546259       10.124417   1.000000   1.000001
      6          9.546260       10.124417   1.000000   1.000001
      7         35.515622       35.375522   0.000000   0.000000
      8         40.171412       40.141751   0.000000   0.000000
      9         40.171665       40.141972   0.000000   0.000000
     10         40.171665       40.141973   0.000000   0.000000
     11         43.640463       43.719204   0.000000   0.000000
     12         43.640573       43.719352   0.000000   0.000000
 
  0.9090909E-01  0.2575183E-17  0.2575183E-17  0.6010518E-02
      1          1.504688        1.473398   1.000000   1.000000
      2          8.121789        8.776239   1.000000   1.000000
      3          8.296973        8.964522   1.000000   1.000000
      4          8.297009        8.964548   1.000000   1.000000
      5          9.515865       10.092065   1.000000   1.000000
      6          9.515879       10.092082   1.000000   1.000000
      7         34.409269       34.363264   0.000000   0.000000
      8         37.379645       37.321229   0.000000   0.000000
      9         39.603976       39.613838   0.000000   0.000000
     10         39.604282       39.614109   0.000000   0.000000
     11         44.539465       44.505476   0.000000   0.000000
     12         44.568007       44.596438   0.000000   0.000000
 
  0.1818182E+00  0.3068698E-17  0.3068698E-17  0.6010518E-02
      1          2.495425        2.470184   1.000000   1.000000
      2          7.917239        8.536325   1.000000   1.000000
      3          8.448974        9.107499   1.000000   1.000000
      4          8.449057        9.107576   1.000000   1.000000
      5          9.508172       10.095337   1.000000   1.000000
      6          9.508234       10.095405   1.000000   1.000000
      7         30.076529       30.151640   0.000000   0.000000
      8         36.355921       36.242816   0.000000   0.000000
      9         38.757208       38.809287   0.000000   0.000000
     10         38.757527       38.809583   0.000000   0.000000
     11         44.434520       44.391023   0.000000   0.000000
     12         45.240979       45.227215   0.000000   0.000000
 
  0.2727273E+00  0.1744000E-16 -0.1031557E-16  0.6010518E-02
      1          3.905679        3.922908   1.000000   1.000000
      2          7.863023        8.394071   1.000000   1.000000
      3          8.452873        9.072283   1.000000   1.000000
      4          8.452999        9.072399   1.000000   1.000000
      5          9.709147       10.342307   1.000000   1.000492
      6          9.709274       10.342435   1.000000   1.000494
      7         25.282288       25.426434   0.000000   0.000000
      8         35.493789       35.376354   0.000000   0.000000
      9         38.070329       38.148279   0.000000   0.000000
     10         38.070585       38.148539   0.000000   0.000000
     11         43.461135       43.480326   0.000000   0.000000
     12         43.461281       43.480470   0.000000   0.000000
 
  0.3636364E+00  0.2001518E-16 -0.7740392E-17  0.6010518E-02
      1          5.074251        5.266447   1.000000   1.000000
      2          8.325457        8.861754   1.000000   1.000000
      3          8.325589        8.913947   1.000000   1.000000
      4          8.578040        8.914066   1.000000   1.000000
      5         10.058930       10.732393   1.000000   0.970679
      6         10.059079       10.732540   1.000000   0.970446
      7         20.994453       21.220667   0.000000   0.000000
      8         34.581644       34.455466   0.000000   0.000000
      9         37.643934       37.729277   0.000000   0.000000
     10         37.644026       37.729426   0.000000   0.000000
     11         41.595526       41.625775   0.000000   0.000000
     12         41.596028       41.626196   0.000000   0.000000
 
  0.4545455E+00  0.8712579E-17  0.8712579E-17  0.6010518E-02
      1          5.459721        5.820294   1.000000   1.000000
      2          8.224495        8.799281   1.000000   1.000000
      3          8.224624        8.799398   1.000000   1.000000
      4         10.078252       10.077680   1.000000   1.000000
      5         10.309381       11.003713   1.000214   0.069424
      6         10.309539       11.003868   1.000214   0.069095
      7         17.874599       18.220978   0.000000   0.000000
      8         34.025373       33.892669   0.000000   0.000000
      9         37.443888       37.524617   0.000000   0.000000
     10         37.443980       37.524636   0.000000   0.000000
     11         40.563266       40.600269   0.000000   0.000000
     12         40.564031       40.600888   0.000000   0.000000
 
  0.9090909E-01  0.9090909E-01 -0.5020842E-17  0.4507889E-02
      1          1.619510        1.588313   1.000000   1.000000
      2          8.037275        8.690010   1.000000   1.000000
      3          8.357847        9.026819   1.000000   1.000000
      4          8.357850        9.026821   1.000000   1.000000
      5          9.385249        9.953334   1.000000   1.000000
      6          9.614010       10.193873   1.000000   1.000007
      7         34.843991       34.762665   0.000000   0.000000
      8         37.650855       37.692536   0.000000   0.000000
      9         37.650989       37.692659   0.000000   0.000000
     10         38.233473       38.170925   0.000000   0.000000
     11         45.332809       45.366681   0.000000   0.000000
     12         46.060515       46.044704   0.000000   0.000000
 
  0.1818182E+00  0.9090909E-01  0.4935149E-18  0.1803156E-01
      1          2.394689        2.366963   1.000000   1.000000
      2          7.828108        8.459514   1.000000   1.000000
      3          8.511310        9.173582   1.000000   1.000000
      4          8.525193        9.192770   1.000000   1.000000
      5          9.264797        9.832791   1.000000   1.000000
      6          9.675552       10.263248   1.000000   1.000060
      7         31.888460       31.938282   0.000000   0.000000
      8         35.522903       35.463989   0.000000   0.000000
      9         36.118858       36.182705   0.000000   0.000000
     10         39.332031       39.292816   0.000000   0.000000
     11         43.740424       43.824815   0.000000   0.000000
     12         46.143942       46.261863   0.000000   0.000000
 
  0.2727273E+00  0.9090909E-01  0.3068698E-17  0.1803156E-01
      1          3.683885        3.680019   1.000000   1.000000
      2          7.651989        8.234609   1.000000   1.000000
      3          8.475839        9.081489   1.000000   1.000000
      4          8.603913        9.243482   1.000000   1.000000
      5          9.487021       10.101634   1.000000   1.000000
      6          9.848253       10.472048   1.000000   1.007149
      7         27.058061       27.175748   0.000000   0.000000
      8         34.687852       34.624947   0.000000   0.000000
      9         35.085357       35.161671   0.000000   0.000000
     10         39.410062       39.454775   0.000000   0.000000
     11         42.727033       42.738887   0.000000   0.000000
     12         45.789849       45.848460   0.000000   0.000000
 
  0.3636364E+00  0.9090909E-01 -0.1031557E-16  0.1803156E-01
      1          5.004996        5.125722   1.000000   1.000000
      2          7.877860        8.317211   1.000000   1.000000
      3          8.271007        8.851677   1.000000   1.000000
      4          8.519047        9.123683   1.000000   1.000000
      5         10.139090       10.748580   1.000001   0.941775
      6         10.139263       10.806435   1.000001   0.785364
      7         22.539788       22.726455   0.000000   0.000000
      8         33.791865       33.722483   0.000000   0.000000
      9         34.630333       34.708867   0.000000   0.000000
     10         37.586091       37.677302   0.000000   0.000000
     11         42.944767       42.931492   0.000000   0.000000
     12         44.987206       45.003844   0.000000   0.000000
 
  0.4545455E+00  0.9090909E-01  0.6137396E-17  0.1803156E-01
      1          5.602424        5.936067   1.000000   1.000000
      2          8.079988        8.583204   1.000000   1.000000
      3          8.397676        8.980919   1.000000   1.000000
      4          8.760756        9.130845   1.000000   1.000000
      5         10.340740       11.033864   1.000474   0.016642
      6         11.209062       11.667024  -0.020731  -0.000000
      7         18.824243       19.113295   0.000000   0.000000
      8         32.953038       32.892947   0.000000   0.000000
      9         34.843558       34.918569   0.000000   0.000000
     10         36.142809       36.212300   0.000000   0.000000
     11         42.883721       42.883341   0.000000   0.000000
     12         43.485393       43.515104   0.000000   0.000000
 
 -0.4545455E+00  0.9090909E-01  0.2063115E-16  0.1803156E-01
      1          5.688820        6.077141   1.000000   1.000000
      2          8.054409        8.579187   1.000000   1.000000
      3          8.345739        8.920776   1.000000   1.000000
      4          9.143597        9.496268   1.000000   1.000000
      5         10.293808       10.991471   1.000141   0.097288
      6         11.911040       12.245403  -0.000000  -0.000000
      7         17.468187       17.832136   0.000000   0.000000
      8         32.299356       32.273552   0.000000   0.000000
      9         35.606205       35.627772   0.000000   0.000000
     10         35.824608       35.898989   0.000000   0.000000
     11         42.388753       42.428264   0.000000   0.000000
     12         42.997817       43.004777   0.000000   0.000000
 
 -0.3636364E+00  0.9090909E-01 -0.1058571E-15  0.1803156E-01
      1          5.499365        5.773113   1.000000   1.000000
      2          8.163584        8.679740   1.000000   1.000000
      3          8.403425        8.892525   1.000000   1.000000
      4          8.529735        8.983128   1.000000   1.000000
      5          9.988952       10.671000   1.000000   1.028745
      6         11.012071       11.571468   0.052568  -0.000006
      7         19.931704       20.182332   0.000000   0.000000
      8         31.987385       31.996846   0.000000   0.000000
      9         36.033626       36.017303   0.000000   0.000000
     10         37.605237       37.684881   0.000000   0.000000
     11         41.754578       41.798010   0.000000   0.000000
     12         43.137467       43.139603   0.000000   0.000000
 
 -0.2727273E+00  0.9090909E-01  0.7740392E-17  0.1803156E-01
      1          4.624833        4.683426   1.000000   1.000000
      2          7.780683        8.286369   1.000000   1.000000
      3          8.347103        8.932666   1.000000   1.000000
      4          8.541903        9.144846   1.000000   1.000000
      5          9.556997       10.203678   1.000000   1.000010
      6         10.300187       10.937846   1.000167   0.262089
      7         23.995188       24.157838   0.000000   0.000000
      8         32.137738       32.167140   0.000000   0.000000
      9         37.255342       37.221125   0.000000   0.000000
     10         40.109195       40.187850   0.000000   0.000000
     11         41.549010       41.593696   0.000000   0.000000
     12         42.674426       42.652441   0.000000   0.000000
 
 -0.1818182E+00  0.9090909E-01  0.1031557E-16  0.1803156E-01
      1          3.218034        3.201170   1.000000   1.000000
      2          7.741597        8.345758   1.000000   1.000000
      3          8.479751        9.104239   1.000000   1.000000
      4          8.598496        9.258504   1.000000   1.000000
      5          9.275123        9.856714   1.000000   1.000000
      6          9.844021       10.461552   1.000000   1.005983
      7         28.675117       28.772015   0.000000   0.000000
      8         32.756538       32.785602   0.000000   0.000000
      9         38.780733       38.731837   0.000000   0.000000
     10         41.655993       41.649281   0.000000   0.000000
     11         41.750731       41.712241   0.000000   0.000000
     12         43.132288       43.223146   0.000000   0.000000
 
 -0.9090909E-01  0.9090909E-01 -0.5150366E-17  0.9015778E-02
      1          2.067635        2.038205   1.000000   1.000000
      2          7.958597        8.598136   1.000000   1.000000
      3          8.418660        9.088095   1.000000   1.000000
      4          8.429000        9.092674   1.000000   1.000000
      5          9.355369        9.921565   1.000000   1.000000
      6          9.619426       10.205678   1.000000   1.000010
      7         32.989240       33.008110   0.000000   0.000000
      8         34.323132       34.341006   0.000000   0.000000
      9         38.872417       38.817905   0.000000   0.000000
     10         41.423802       41.390672   0.000000   0.000000
     11         42.617899       42.594622   0.000000   0.000000
     12         44.055313       44.119527   0.000000   0.000000
 
  0.1818182E+00  0.1818182E+00 -0.5878347E-17  0.4507889E-02
      1          2.921094        2.896811   1.000000   1.000000
      2          7.572405        8.193476   1.000000   1.000000
      3          8.763001        9.443906   1.000000   1.000000
      4          8.763002        9.443910   1.000000   1.000000
      5          9.005997        9.540813   1.000000   1.000000
      6          9.785778       10.371347   1.000000   1.000977
      7         33.736198       33.741802   0.000000   0.000000
      8         34.084609       34.153299   0.000000   0.000000
      9         34.084717       34.153402   0.000000   0.000000
     10         35.096990       35.035694   0.000000   0.000000
     11         41.871303       42.080912   0.000000   0.000000
     12         49.409227       49.338529   0.000000   0.000000
 
  0.2727273E+00  0.1818182E+00  0.1055491E-16  0.1803156E-01
      1          3.968570        3.964959   1.000000   1.000000
      2          7.315293        7.912383   1.000000   1.000000
      3          8.591771        9.151594   1.000000   1.000000
      4          8.958040        9.628008   1.000000   1.000000
      5          9.375939       10.005020   1.000000   1.000000
      6          9.939376       10.548540   1.000000   1.020697
      7         29.271458       29.358061   0.000000   0.000000
      8         32.640827       32.712549   0.000000   0.000000
      9         33.295021       33.280893   0.000000   0.000000
     10         35.605335       35.642489   0.000000   0.000000
     11         40.835932       41.001574   0.000000   0.000000
     12         48.742651       48.688501   0.000000   0.000000
 
  0.3636364E+00  0.1818182E+00 -0.8727422E-17  0.1803156E-01
      1          5.210741        5.293344   1.000000   1.000000
      2          7.221532        7.762206   1.000000   1.000000
      3          8.258694        8.801775   1.000000   1.000000
      4          8.952539        9.583099   1.000000   1.000000
      5         10.199602       10.858832   1.000009   0.584337
      6         10.339818       10.919706   1.000463   0.331157
      7         24.583511       24.723781   0.000000   0.000000
      8         31.678539       31.694688   0.000000   0.000000
      9         31.916459       31.985998   0.000000   0.000000
     10         35.272348       35.346377   0.000000   0.000000
     11         43.286876       43.377650   0.000000   0.000000
     12         47.832557       47.783088   0.000000   0.000000
 
  0.4545455E+00  0.1818182E+00 -0.6166339E-16  0.1803156E-01
      1          5.979468        6.280073   1.000000   1.000000
      2          7.447450        7.857105   1.000000   1.000000
      3          8.143857        8.685781   1.000000   1.000000
      4          8.835720        9.436175   1.000000   1.000000
      5         10.379426       11.072588   1.001172  -0.021551
      6         11.923467       12.363680  -0.000000  -0.000000
      7         20.430518       20.641863   0.000000   0.000000
      8         29.986319       30.033310   0.000000   0.000000
      9         31.991185       32.058350   0.000000   0.000000
     10         34.807050       34.858099   0.000000   0.000000
     11         46.508003       46.502052   0.000000   0.000000
     12         47.223451       47.236370   0.000000   0.000000
 
 -0.4545455E+00  0.1818182E+00  0.1484255E-19  0.1803156E-01
      1          6.184485        6.606261   1.000000   1.000000
      2          7.573067        7.969908   1.000000   1.000000
      3          8.342358        8.848152   1.000000   1.000000
      4          8.739530        9.321839   1.000000   1.000000
      5         10.301305       11.005780   1.000172   0.065094
      6         13.681655       13.956209  -0.000000  -0.000000
      7         17.670886       17.993167   0.000000   0.000000
      8         28.587740       28.657454   0.000000   0.000000
      9         32.918261       32.988066   0.000000   0.000000
     10         34.762013       34.780364   0.000000   0.000000
     11         46.030224       46.051602   0.000000   0.000000
     12         46.138690       46.110192   0.000000   0.000000
 
 -0.3636364E+00  0.1818182E+00  0.2063115E-16  0.1803156E-01
      1          6.171528        6.530724   1.000000   1.000000
      2          7.729522        8.150682   1.000000   1.000000
      3          8.125445        8.615220   1.000000   1.000000
      4          8.727032        9.301286   1.000000   1.000000
      5          9.959255       10.656851   1.000000   1.033104
      6         12.798805       13.206249  -0.000000  -0.000000
      7         19.293456       19.547710   0.000000   0.000000
      8         27.738476       27.822590   0.000000   0.000000
      9         34.653289       34.729943   0.000000   0.000000
     10         35.327697       35.319582   0.000000   0.000000
     11         45.244046       45.220265   0.000000   0.000000
     12         45.258955       45.275227   0.000000   0.000000
 
 -0.2727273E+00  0.1818182E+00 -0.8712579E-17  0.1803156E-01
      1          5.673776        5.805048   1.000000   1.000000
      2          7.574568        8.090968   1.000000   1.000000
      3          8.023468        8.555725   1.000000   1.000000
      4          8.826430        9.400823   1.000000   1.000000
      5          9.464228       10.145468   1.000000   1.000001
      6         11.363104       11.942284  -0.001635  -0.000000
      7         23.174461       23.346437   0.000000   0.000000
      8         27.516484       27.608158   0.000000   0.000000
      9         36.583886       36.561448   0.000000   0.000000
     10         37.059311       37.137793   0.000000   0.000000
     11         43.658159       43.591958   0.000000   0.000000
     12         45.015950       45.055741   0.000000   0.000000
 
 -0.1818182E+00  0.1818182E+00 -0.6137396E-17  0.9015778E-02
      1          4.429745        4.440838   1.000000   1.000000
      2          7.521885        8.109237   1.000000   1.000000
      3          8.325220        8.898202   1.000000   1.000000
      4          8.943246        9.592653   1.000000   1.000000
      5          9.045267        9.640786   1.000000   1.000000
      6         10.443007       11.075137   1.004294  -0.023078
      7         27.385837       27.519628   0.000000   0.000000
      8         28.232275       28.302141   0.000000   0.000000
      9         38.442657       38.416534   0.000000   0.000000
     10         39.867492       39.924167   0.000000   0.000000
     11         41.557937       41.477346   0.000000   0.000000
     12         45.186735       45.225031   0.000000   0.000000
 
  0.2727273E+00  0.2727273E+00  0.1269305E-16  0.4507889E-02
      1          4.637122        4.671323   1.000000   1.000000
      2          6.990967        7.575602   1.000000   1.000000
      3          8.910380        9.345148   1.000000   1.000000
      4          9.357836       10.062353   1.000000   1.000000
      5          9.357840       10.062355   1.000000   1.000000
      6         10.014045       10.607355   1.000000   1.033203
      7         30.807337       30.871600   0.000000   0.000000
      8         30.807451       30.871709   0.000000   0.000000
      9         30.954317       30.978311   0.000000   0.000000
     10         32.860401       32.935433   0.000000   0.000000
     11         38.138131       38.306220   0.000000   0.000000
     12         53.135110       53.065036   0.000000   0.000000
 
  0.3636364E+00  0.2727273E+00  0.1055491E-16  0.1803156E-01
      1          5.429937        5.560151   1.000000   1.000000
      2          6.779105        7.343184   1.000000   1.000000
      3          8.802600        9.268475   1.000000   1.000000
      4          9.516506       10.186391   1.000000   1.000006
      5         10.221837       10.865473   1.000017   0.556566
      6         10.344740       10.913621   1.000522   0.355405
      7         26.927412       27.015897   0.000000   0.000000
      8         28.832433       28.913615   0.000000   0.000000
      9         29.738200       29.793740   0.000000   0.000000
     10         33.814777       33.889972   0.000000   0.000000
     11         38.731898       38.856414   0.000000   0.000000
     12         53.040440       53.006054   0.000000   0.000000
 
  0.4545455E+00  0.2727273E+00 -0.3176307E-17  0.1803156E-01
      1          6.052028        6.325274   1.000000   1.000000
      2          6.774427        7.290840   1.000000   1.000000
      3          8.534152        9.033333   1.000000   1.000000
      4          9.436704       10.061913   1.000000   1.000000
      5         10.409013       11.103757   1.002211  -0.033687
      6         12.272328       12.679912  -0.000000  -0.000000
      7         22.670975       22.809458   0.000000   0.000000
      8         26.684506       26.792889   0.000000   0.000000
      9         29.550716       29.602426   0.000000   0.000000
     10         34.086802       34.162127   0.000000   0.000000
     11         42.083845       42.170811   0.000000   0.000000
     12         51.290929       51.286512   0.000000   0.000000
 
 -0.4545455E+00  0.2727273E+00  0.8486972E-16  0.1803156E-01
      1          6.439211        6.858843   1.000000   1.000000
      2          6.946209        7.362550   1.000000   1.000000
      3          8.281159        8.808837   1.000000   1.000000
      4          9.305689        9.900089   1.000000   1.000000
      5         10.334037       11.051207   1.000401  -0.004185
      6         14.849419       15.126652  -0.000000  -0.000000
      7         18.973098       19.185409   0.000000   0.000000
      8         25.009700       25.136771   0.000000   0.000000
      9         30.300418       30.357678   0.000000   0.000000
     10         34.177785       34.235308   0.000000   0.000000
     11         46.532677       46.596741   0.000000   0.000000
     12         49.767032       49.768774   0.000000   0.000000
 
 -0.3636364E+00  0.2727273E+00 -0.1386295E-16  0.1803156E-01
      1          6.716592        7.175822   1.000000   1.000000
      2          7.173529        7.534382   1.000000   1.000000
      3          7.941518        8.474637   1.000000   1.000000
      4          9.198316        9.765006   1.000000   1.000000
      5         10.002394       10.727687   1.000000   0.977900
      6         15.133359       15.418678  -0.000000  -0.000000
      7         18.863869       19.098223   0.000000   0.000000
      8         23.952488       24.089010   0.000000   0.000000
      9         31.923100       31.992238   0.000000   0.000000
     10         34.583510       34.614422   0.000000   0.000000
     11         48.546523       48.480096   0.000000   0.000000
     12         48.621418       48.624407   0.000000   0.000000
 
 -0.2727273E+00  0.2727273E+00  0.2063115E-16  0.9015778E-02
      1          6.586485        6.848633   1.000000   1.000000
      2          7.542014        8.027043   1.000000   1.000000
      3          7.568218        8.086583   1.000000   1.000000
      4          9.099927        9.642991   1.000000   1.000000
      5          9.601065       10.328141   1.000000   1.000346
      6         12.954400       13.402588  -0.000000  -0.000000
      7         22.103301       22.289618   0.000000   0.000000
      8         24.028388       24.154037   0.000000   0.000000
      9         34.273397       34.351062   0.000000   0.000000
     10         35.424555       35.427896   0.000000   0.000000
     11         46.195128       46.112259   0.000000   0.000000
     12         47.528428       47.533326   0.000000   0.000000
 
  0.3636364E+00  0.3636364E+00  0.7672209E-17  0.4507889E-02
      1          5.570019        5.794518   1.000000   1.000000
      2          6.485341        7.040184   1.000000   1.000000
      3         10.006586       10.509903   1.000000   1.012768
      4         10.006594       10.743251   1.000000   0.952001
      5         10.229109       10.743253   1.000022   0.951997
      6         10.322701       10.829765   1.000302   0.701015
      7         25.972143       26.093169   0.000000   0.000000
      8         28.297179       28.336429   0.000000   0.000000
      9         28.297288       28.336538   0.000000   0.000000
     10         32.407854       32.524222   0.000000   0.000000
     11         36.695514       36.833829   0.000000   0.000000
     12         57.593673       57.541801   0.000000   0.000000
 
  0.4545455E+00  0.3636364E+00 -0.5404545E-17  0.1803156E-01
      1          5.764965        6.060232   1.000000   1.000000
      2          6.383374        6.925865   1.000000   1.000000
      3          9.657696       10.219813   1.000000   1.000016
      4         10.034922       10.678307   1.000000   1.025419
      5         10.421260       11.127184   1.002831  -0.035415
      6         12.372388       12.643766  -0.000000  -0.000000
      7         23.735523       23.894416   0.000000   0.000000
      8         25.446118       25.522195   0.000000   0.000000
      9         27.777087       27.807124   0.000000   0.000000
     10         33.232348       33.334291   0.000000   0.000000
     11         37.859051       37.978178   0.000000   0.000000
     12         55.425076       55.412691   0.000000   0.000000
 
 -0.4545455E+00  0.3636364E+00  0.3191149E-17  0.1803156E-01
      1          6.075796        6.423643   1.000000   1.000000
      2          6.505504        7.024297   1.000000   1.000000
      3          9.072772        9.622614   1.000000   1.000000
      4          9.893805       10.493839   1.000000   1.010104
      5         10.390987       11.132551   1.001511  -0.035181
      6         14.992892       15.210956  -0.000000  -0.000000
      7         21.307971       21.450891   0.000000   0.000000
      8         22.538446       22.710048   0.000000   0.000000
      9         28.274525       28.310671   0.000000   0.000000
     10         33.708182       33.799249   0.000000   0.000000
     11         41.545598       41.638277   0.000000   0.000000
     12         53.414411       53.397077   0.000000   0.000000
 
 -0.3636364E+00  0.3636364E+00  0.1548078E-16  0.9015778E-02
      1          6.497344        6.907533   1.000000   1.000000
      2          6.786482        7.242080   1.000000   1.000000
      3          8.402862        8.939367   1.000000   1.000000
      4          9.638242       10.203746   1.000000   1.000010
      5         10.162226       10.914974   1.000002   0.349974
      6         17.590204       17.788645   0.000000   0.000000
      7         18.023442       18.216740   0.000000   0.000000
      8         21.982106       22.171351   0.000000   0.000000
      9         29.722935       29.776054   0.000000   0.000000
     10         34.055603       34.121443   0.000000   0.000000
     11         46.412892       46.491202   0.000000   0.000000
     12         51.330875       51.312589   0.000000   0.000000
 
  0.4545455E+00  0.4545455E+00 -0.1677754E-16  0.4507889E-02
      1          5.614316        5.932279   1.000000   1.000000
      2          6.197629        6.736056   1.000000   1.000000
      3         10.365067       10.969557   1.000846   0.156552
      4         10.453835       11.217875   1.005225  -0.018766
      5         10.453845       11.217879   1.005226  -0.018765
      6         12.850113       12.856387  -0.000000  -0.000000
      7         21.852905       22.070176   0.000000   0.000000
      8         26.898695       26.912779   0.000000   0.000000
      9         26.898798       26.912884   0.000000   0.000000
     10         32.279241       32.411505   0.000000   0.000000
     11         36.273866       36.411272   0.000000   0.000000
     12         57.758267       57.755428   0.000000   0.000000
 
 -0.4545455E+00  0.4545455E+00 -0.1742516E-16  0.9015778E-02
      1          5.724324        6.055580   1.000000   1.000000
      2          6.239661        6.774789   1.000000   1.000000
      3         10.016081       10.658299   1.000000   1.032773
      4         10.268948       10.868128   1.000071   0.545400
      5         10.475547       11.242255   1.007573  -0.013790
      6         14.147265       14.241885  -0.000000  -0.000000
      7         21.114666       21.356144   0.000000   0.000000
      8         24.782823       24.842238   0.000000   0.000000
      9         27.071696       27.088561   0.000000   0.000000
     10         33.059392       33.171158   0.000000   0.000000