       N       E                     dE             d eps       ncg     rms          rms(c)
DAV:   1     0.166337911961E+02    0.16634E+02   -0.29528E+03  3044   0.640E+02
DAV:   2    -0.601773733985E+01   -0.22652E+02   -0.21322E+02  2944   0.119E+02
DAV:   3    -0.638871422740E+01   -0.37098E+00   -0.37028E+00  3084   0.165E+01
DAV:   4    -0.639064031347E+01   -0.19261E-02   -0.19259E-02  3064   0.109E+00
DAV:   5    -0.639066347954E+01   -0.23166E-04   -0.23165E-04  3040   0.111E-01    0.109E+01
DAV:   6    -0.562197024409E+01    0.76869E+00   -0.11635E+01  3332   0.416E+01    0.486E+00
DAV:   7    -0.541324742306E+01    0.20872E+00   -0.16093E+00  3292   0.144E+01    0.221E+00
DAV:   8    -0.539395018195E+01    0.19297E-01   -0.23919E-02  3456   0.131E+00    0.887E-01
DAV:   9    -0.539240488290E+01    0.15453E-02   -0.76525E-04  2948   0.178E-01    0.242E-01
DAV:  10    -0.539202574960E+01    0.37913E-03   -0.28262E-04  1988   0.931E-02    0.332E-02
DAV:  11    -0.539203524646E+01   -0.94969E-05   -0.21017E-05  1424   0.358E-02
   1 F= -.53920352E+01 E0= -.53918771E+01  d E =-.474390E-03  mag=     0.5687
