PROCAR lm decomposed
# of k-points:   56         # of bands:   12         # of ions:    1

 k-point     1 :    0.00000000 0.00000000 0.00000000     weight = 0.00075131

band     1 # energy    1.15747489 # occ.  1.00000000
 
ion      s     py     pz     px    dxy    dyz    dz2    dxz  x2-y2    tot
    1  0.818  0.000  0.000  0.000  0.000  0.000  0.000  0.000  0.000  0.818
 
band     2 # energy    8.21604251 # occ.  1.00000000
 
ion      s     py     pz     px    dxy    dyz    dz2    dxz  x2-y2    tot
    1  0.000  0.000  0.000  0.000  0.318  0.318  0.000  0.348  0.000  0.984
 
band     3 # energy    8.21605010 # occ.  1.00000000
 
ion      s     py     pz     px    dxy    dyz    dz2    dxz  x2-y2    tot
    1  0.000  0.000  0.000  0.000  0.492  0.492  0.000  0.000  0.000  0.984
 
band     4 # energy    8.21605154 # occ.  1.00000000
 
ion      s     py     pz     px    dxy    dyz    dz2    dxz  x2-y2    tot
    1  0.000  0.000  0.000  0.000  0.174  0.174  0.000  0.637  0.000  0.984
 
band     5 # energy    9.54625947 # occ.  1.00000000
 
ion      s     py     pz     px    dxy    dyz    dz2    dxz  x2-y2    tot
    1  0.000  0.000  0.000  0.000  0.000  0.000  0.248  0.000  0.743  0.991
 
band     6 # energy    9.54625983 # occ.  1.00000000
 
ion      s     py     pz     px    dxy    dyz    dz2    dxz  x2-y2    tot
    1  0.000  0.000  0.000  0.000  0.000  0.000  0.743  0.000  0.248  0.991
 
band     7 # energy   35.51562205 # occ.  0.00000000
 
ion      s     py     pz     px    dxy    dyz    dz2    dxz  x2-y2    tot
    1  0.000  0.000  0.000  0.000  0.000  0.000  0.000  0.000  0.000  0.000
 
band     8 # energy   40.17141235 # occ.  0.00000000
 
ion      s     py     pz     px    dxy    dyz    dz2    dxz  x2-y2    tot
    1  0.000  0.110  0.111  0.110  0.000  0.000  0.000  0.000  0.000  0.331
 
band     9 # energy   40.17166463 # occ.  0.00000000
 
ion      s     py     pz     px    dxy    dyz    dz2    dxz  x2-y2    tot
    1  0.000  0.000  0.166  0.165  0.000  0.000  0.000  0.000  0.000  0.331
 
band    10 # energy   40.17166485 # occ.  0.00000000
 
ion      s     py     pz     px    dxy    dyz    dz2    dxz  x2-y2    tot
    1  0.000  0.221  0.055  0.055  0.000  0.000  0.000  0.000  0.000  0.331
 
band    11 # energy   43.64046331 # occ.  0.00000000
 
ion      s     py     pz     px    dxy    dyz    dz2    dxz  x2-y2    tot
    1  0.000  0.000  0.000  0.000  0.131  0.210  0.000  1.114  0.000  1.456
 
band    12 # energy   43.64057250 # occ.  0.00000000
 
ion      s     py     pz     px    dxy    dyz    dz2    dxz  x2-y2    tot
    1  0.000  0.000  0.000  0.000  0.631  0.808  0.000  0.016  0.000  1.456
 

 k-point     2 :    0.09090909 0.00000000 0.00000000     weight = 0.00601052

band     1 # energy    1.50468764 # occ.  1.00000000
 
ion      s     py     pz     px    dxy    dyz    dz2    dxz  x2-y2    tot
    1  0.792  0.009  0.009  0.009  0.000  0.000  0.000  0.000  0.000  0.819
 
band     2 # energy    8.12178909 # occ.  1.00000000
 
ion      s     py     pz     px    dxy    dyz    dz2    dxz  x2-y2    tot
    1  0.000  0.001  0.001  0.001  0.326  0.326  0.000  0.326  0.000  0.982
 
band     3 # energy    8.29697336 # occ.  1.00000000
 
ion      s     py     pz     px    dxy    dyz    dz2    dxz  x2-y2    tot
    1  0.000  0.000  0.000  0.000  0.653  0.157  0.005  0.169  0.000  0.984
 
band     4 # energy    8.29700863 # occ.  1.00000000
 
ion      s     py     pz     px    dxy    dyz    dz2    dxz  x2-y2    tot
    1  0.000  0.000  0.000  0.000  0.000  0.496  0.000  0.483  0.005  0.984
 
band     5 # energy    9.51586492 # occ.  1.00000000
 
ion      s     py     pz     px    dxy    dyz    dz2    dxz  x2-y2    tot
    1  0.000  0.000  0.000  0.000  0.000  0.002  0.000  0.002  0.985  0.990
 
band     6 # energy    9.51587921 # occ.  1.00000000
 
ion      s     py     pz     px    dxy    dyz    dz2    dxz  x2-y2    tot
    1  0.000  0.000  0.000  0.000  0.003  0.001  0.985  0.001  0.000  0.990
 
band     7 # energy   34.40926874 # occ.  0.00000000
 
ion      s     py     pz     px    dxy    dyz    dz2    dxz  x2-y2    tot
    1  0.006  0.029  0.029  0.029  0.109  0.109  0.000  0.109  0.000  0.421
 
band     8 # energy   37.37964542 # occ.  0.00000000
 
ion      s     py     pz     px    dxy    dyz    dz2    dxz  x2-y2    tot
    1  0.029  0.067  0.067  0.067  0.014  0.014  0.000  0.014  0.000  0.273
 
band     9 # energy   39.60397590 # occ.  0.00000000
 
ion      s     py     pz     px    dxy    dyz    dz2    dxz  x2-y2    tot
    1  0.000  0.052  0.208  0.052  0.173  0.043  0.032  0.043  0.000  0.603
 
band    10 # energy   39.60428178 # occ.  0.00000000
 
ion      s     py     pz     px    dxy    dyz    dz2    dxz  x2-y2    tot
    1  0.000  0.156  0.000  0.156  0.000  0.130  0.000  0.130  0.032  0.603
 
band    11 # energy   44.53946543 # occ.  0.00000000
 
ion      s     py     pz     px    dxy    dyz    dz2    dxz  x2-y2    tot
    1  0.013  0.020  0.019  0.020  0.159  0.184  0.000  0.180  0.000  0.594
 
band    12 # energy   44.56800661 # occ.  0.00000000
 
ion      s     py     pz     px    dxy    dyz    dz2    dxz  x2-y2    tot
    1  0.000  0.004  0.000  0.003  0.038  0.437  0.001  0.586  0.022  1.091
 

 k-point     3 :    0.18181818 0.00000000 0.00000000     weight = 0.00601052

band     1 # energy    2.49542462 # occ.  1.00000000
 
ion      s     py     pz     px    dxy    dyz    dz2    dxz  x2-y2    tot
    1  0.714  0.031  0.031  0.031  0.005  0.005  0.000  0.005  0.000  0.822
 
band     2 # energy    7.91723908 # occ.  1.00000000
 
ion      s     py     pz     px    dxy    dyz    dz2    dxz  x2-y2    tot
    1  0.003  0.007  0.007  0.007  0.316  0.316  0.000  0.316  0.000  0.973
 
band     3 # energy    8.44897428 # occ.  1.00000000
 
ion      s     py     pz     px    dxy    dyz    dz2    dxz  x2-y2    tot
    1  0.000  0.000  0.001  0.000  0.596  0.146  0.088  0.152  0.000  0.984
 
band     4 # energy    8.44905699 # occ.  1.00000000
 
ion      s     py     pz     px    dxy    dyz    dz2    dxz  x2-y2    tot
    1  0.000  0.001  0.000  0.001  0.000  0.450  0.000  0.445  0.088  0.984
 
band     5 # energy    9.50817231 # occ.  1.00000000
 
ion      s     py     pz     px    dxy    dyz    dz2    dxz  x2-y2    tot
    1  0.000  0.000  0.000  0.000  0.000  0.044  0.000  0.044  0.899  0.988
 
band     6 # energy    9.50823403 # occ.  1.00000000
 
ion      s     py     pz     px    dxy    dyz    dz2    dxz  x2-y2    tot
    1  0.000  0.000  0.000  0.000  0.059  0.015  0.899  0.015  0.000  0.988
 
band     7 # energy   30.07652878 # occ.  0.00000000
 
ion      s     py     pz     px    dxy    dyz    dz2    dxz  x2-y2    tot
    1  0.057  0.090  0.090  0.090  0.148  0.148  0.000  0.148  0.000  0.772
 
band     8 # energy   36.35592127 # occ.  0.00000000
 
ion      s     py     pz     px    dxy    dyz    dz2    dxz  x2-y2    tot
    1  0.029  0.007  0.007  0.007  0.018  0.018  0.000  0.018  0.000  0.106
 
band     9 # energy   38.75720779 # occ.  0.00000000
 
ion      s     py     pz     px    dxy    dyz    dz2    dxz  x2-y2    tot
    1  0.000  0.055  0.219  0.055  0.284  0.071  0.072  0.071  0.000  0.827
 
band    10 # energy   38.75752726 # occ.  0.00000000
 
ion      s     py     pz     px    dxy    dyz    dz2    dxz  x2-y2    tot
    1  0.000  0.164  0.000  0.164  0.000  0.213  0.000  0.213  0.072  0.827
 
band    11 # energy   44.43452027 # occ.  0.00000000
 
ion      s     py     pz     px    dxy    dyz    dz2    dxz  x2-y2    tot
    1  0.005  0.070  0.070  0.070  0.017  0.017  0.000  0.017  0.000  0.265
 
band    12 # energy   45.24097854 # occ.  0.00000000
 
ion      s     py     pz     px    dxy    dyz    dz2    dxz  x2-y2    tot
    1  0.000  0.021  0.009  0.012  0.056  0.079  0.111  0.132  0.242  0.661
 

 k-point     4 :    0.27272727 0.00000000-0.00000000     weight = 0.00601052

band     1 # energy    3.90567882 # occ.  1.00000000
 
ion      s     py     pz     px    dxy    dyz    dz2    dxz  x2-y2    tot
    1  0.572  0.051  0.051  0.051  0.037  0.037  0.000  0.037  0.000  0.838
 
band     2 # energy    7.86302253 # occ.  1.00000000
 
ion      s     py     pz     px    dxy    dyz    dz2    dxz  x2-y2    tot
    1  0.025  0.034  0.034  0.034  0.273  0.273  0.000  0.273  0.000  0.944
 
band     3 # energy    8.45287281 # occ.  1.00000000
 
ion      s     py     pz     px    dxy    dyz    dz2    dxz  x2-y2    tot
    1  0.000  0.000  0.001  0.000  0.434  0.107  0.329  0.110  0.000  0.982
 
band     4 # energy    8.45299863 # occ.  1.00000000
 
ion      s     py     pz     px    dxy    dyz    dz2    dxz  x2-y2    tot
    1  0.000  0.001  0.000  0.001  0.000  0.327  0.000  0.324  0.329  0.982
 
band     5 # energy    9.70914750 # occ.  1.00000000
 
ion      s     py     pz     px    dxy    dyz    dz2    dxz  x2-y2    tot
    1  0.000  0.001  0.000  0.001  0.000  0.165  0.000  0.166  0.654  0.987
 
band     6 # energy    9.70927434 # occ.  1.00000000
 
ion      s     py     pz     px    dxy    dyz    dz2    dxz  x2-y2    tot
    1  0.000  0.000  0.001  0.000  0.221  0.055  0.654  0.055  0.000  0.987
 
band     7 # energy   25.28228750 # occ.  0.00000000
 
ion      s     py     pz     px    dxy    dyz    dz2    dxz  x2-y2    tot
    1  0.135  0.102  0.102  0.102  0.139  0.139  0.000  0.139  0.000  0.858
 
band     8 # energy   35.49378913 # occ.  0.00000000
 
ion      s     py     pz     px    dxy    dyz    dz2    dxz  x2-y2    tot
    1  0.018  0.000  0.000  0.000  0.028  0.028  0.000  0.028  0.000  0.104
 
band     9 # energy   38.07032907 # occ.  0.00000000
 
ion      s     py     pz     px    dxy    dyz    dz2    dxz  x2-y2    tot
    1  0.000  0.065  0.260  0.065  0.280  0.070  0.085  0.070  0.000  0.896
 
band    10 # energy   38.07058474 # occ.  0.00000000
 
ion      s     py     pz     px    dxy    dyz    dz2    dxz  x2-y2    tot
    1  0.000  0.195  0.000  0.195  0.000  0.210  0.000  0.210  0.085  0.896
 
band    11 # energy   43.46113532 # occ.  0.00000000
 
ion      s     py     pz     px    dxy    dyz    dz2    dxz  x2-y2    tot
    1  0.000  0.023  0.094  0.023  0.001  0.000  0.636  0.000  0.000  0.779
 
band    12 # energy   43.46128067 # occ.  0.00000000
 
ion      s     py     pz     px    dxy    dyz    dz2    dxz  x2-y2    tot
    1  0.000  0.070  0.000  0.070  0.000  0.001  0.000  0.001  0.637  0.779
 

 k-point     5 :    0.36363636 0.00000000-0.00000000     weight = 0.00601052

band     1 # energy    5.07425113 # occ.  1.00000000
 
ion      s     py     pz     px    dxy    dyz    dz2    dxz  x2-y2    tot
    1  0.349  0.031  0.031  0.031  0.150  0.150  0.000  0.150  0.000  0.891
 
band     2 # energy    8.32545694 # occ.  1.00000000
 
ion      s     py     pz     px    dxy    dyz    dz2    dxz  x2-y2    tot
    1  0.000  0.000  0.000  0.000  0.322  0.080  0.496  0.081  0.000  0.980
 
band     3 # energy    8.32558903 # occ.  1.00000000
 
ion      s     py     pz     px    dxy    dyz    dz2    dxz  x2-y2    tot
    1  0.000  0.000  0.000  0.000  0.000  0.243  0.000  0.241  0.496  0.980
 
band     4 # energy    8.57804043 # occ.  1.00000000
 
ion      s     py     pz     px    dxy    dyz    dz2    dxz  x2-y2    tot
    1  0.088  0.119  0.119  0.119  0.142  0.142  0.000  0.142  0.000  0.872
 
band     5 # energy   10.05893013 # occ.  1.00000005
 
ion      s     py     pz     px    dxy    dyz    dz2    dxz  x2-y2    tot
    1  0.000  0.001  0.000  0.001  0.000  0.251  0.000  0.251  0.486  0.990
 
band     6 # energy   10.05907935 # occ.  1.00000005
 
ion      s     py     pz     px    dxy    dyz    dz2    dxz  x2-y2    tot
    1  0.000  0.000  0.001  0.000  0.335  0.084  0.486  0.083  0.000  0.990
 
band     7 # energy   20.99445304 # occ.  0.00000000
 
ion      s     py     pz     px    dxy    dyz    dz2    dxz  x2-y2    tot
    1  0.257  0.081  0.081  0.081  0.133  0.133  0.000  0.133  0.000  0.900
 
band     8 # energy   34.58164410 # occ.  0.00000000
 
ion      s     py     pz     px    dxy    dyz    dz2    dxz  x2-y2    tot
    1  0.006  0.006  0.006  0.006  0.013  0.013  0.000  0.013  0.000  0.063
 
band     9 # energy   37.64393350 # occ.  0.00000000
 
ion      s     py     pz     px    dxy    dyz    dz2    dxz  x2-y2    tot
    1  0.000  0.083  0.334  0.084  0.170  0.043  0.057  0.042  0.000  0.813
 
band    10 # energy   37.64402640 # occ.  0.00000000
 
ion      s     py     pz     px    dxy    dyz    dz2    dxz  x2-y2    tot
    1  0.000  0.252  0.000  0.250  0.000  0.127  0.000  0.128  0.057  0.813
 
band    11 # energy   41.59552647 # occ.  0.00000000
 
ion      s     py     pz     px    dxy    dyz    dz2    dxz  x2-y2    tot
    1  0.000  0.017  0.067  0.017  0.096  0.024  0.722  0.024  0.000  0.966
 
band    12 # energy   41.59602822 # occ.  0.00000000
 
ion      s     py     pz     px    dxy    dyz    dz2    dxz  x2-y2    tot
    1  0.000  0.050  0.000  0.050  0.000  0.072  0.000  0.072  0.722  0.966
 

 k-point     6 :    0.45454545 0.00000000 0.00000000     weight = 0.00601052

band     1 # energy    5.45972109 # occ.  1.00000000
 
ion      s     py     pz     px    dxy    dyz    dz2    dxz  x2-y2    tot
    1  0.207  0.003  0.003  0.003  0.239  0.239  0.000  0.239  0.000  0.933
 
band     2 # energy    8.22449453 # occ.  1.00000000
 
ion      s     py     pz     px    dxy    dyz    dz2    dxz  x2-y2    tot
    1  0.000  0.000  0.000  0.000  0.282  0.070  0.556  0.071  0.000  0.979
 
band     3 # energy    8.22462395 # occ.  1.00000000
 
ion      s     py     pz     px    dxy    dyz    dz2    dxz  x2-y2    tot
    1  0.000  0.000  0.000  0.000  0.000  0.212  0.000  0.210  0.556  0.979
 
band     4 # energy   10.07825202 # occ.  1.00000012
 
ion      s     py     pz     px    dxy    dyz    dz2    dxz  x2-y2    tot
    1  0.035  0.232  0.232  0.232  0.020  0.020  0.000  0.020  0.000  0.792
 
band     5 # energy   10.30938107 # occ.  1.00021361
 
ion      s     py     pz     px    dxy    dyz    dz2    dxz  x2-y2    tot
    1  0.000  0.000  0.000  0.000  0.000  0.284  0.000  0.284  0.425  0.993
 
band     6 # energy   10.30953921 # occ.  1.00021450
 
ion      s     py     pz     px    dxy    dyz    dz2    dxz  x2-y2    tot
    1  0.000  0.000  0.000  0.000  0.378  0.095  0.425  0.094  0.000  0.993
 
band     7 # energy   17.87459930 # occ.  0.00000000
 
ion      s     py     pz     px    dxy    dyz    dz2    dxz  x2-y2    tot
    1  0.428  0.020  0.020  0.020  0.153  0.153  0.000  0.153  0.000  0.949
 
band     8 # energy   34.02537337 # occ.  0.00000000
 
ion      s     py     pz     px    dxy    dyz    dz2    dxz  x2-y2    tot
    1  0.001  0.010  0.010  0.010  0.002  0.002  0.000  0.002  0.000  0.035
 
band     9 # energy   37.44388766 # occ.  0.00000000
 
ion      s     py     pz     px    dxy    dyz    dz2    dxz  x2-y2    tot
    1  0.000  0.307  0.000  0.310  0.000  0.020  0.000  0.019  0.009  0.664
 
band    10 # energy   37.44397968 # occ.  0.00000000
 
ion      s     py     pz     px    dxy    dyz    dz2    dxz  x2-y2    tot
    1  0.000  0.104  0.411  0.101  0.026  0.006  0.009  0.007  0.000  0.664
 
band    11 # energy   40.56326645 # occ.  0.00000000
 
ion      s     py     pz     px    dxy    dyz    dz2    dxz  x2-y2    tot
    1  0.000  0.003  0.011  0.003  0.232  0.058  0.781  0.058  0.000  1.145
 
band    12 # energy   40.56403088 # occ.  0.00000000
 
ion      s     py     pz     px    dxy    dyz    dz2    dxz  x2-y2    tot
    1  0.000  0.008  0.000  0.008  0.000  0.174  0.000  0.174  0.781  1.145
 

 k-point     7 :    0.09090909 0.09090909-0.00000000     weight = 0.00450789

band     1 # energy    1.61950967 # occ.  1.00000000
 
ion      s     py     pz     px    dxy    dyz    dz2    dxz  x2-y2    tot
    1  0.783  0.035  0.000  0.000  0.000  0.000  0.000  0.000  0.001  0.819
 
band     2 # energy    8.03727463 # occ.  1.00000000
 
ion      s     py     pz     px    dxy    dyz    dz2    dxz  x2-y2    tot
    1  0.000  0.000  0.000  0.000  0.000  0.000  0.000  0.981  0.000  0.981
 
band     3 # energy    8.35784706 # occ.  1.00000000
 
ion      s     py     pz     px    dxy    dyz    dz2    dxz  x2-y2    tot
    1  0.000  0.000  0.001  0.001  0.491  0.491  0.000  0.000  0.000  0.985
 
band     4 # energy    8.35785029 # occ.  1.00000000
 
ion      s     py     pz     px    dxy    dyz    dz2    dxz  x2-y2    tot
    1  0.000  0.000  0.001  0.001  0.491  0.491  0.000  0.000  0.000  0.985
 
band     5 # energy    9.38524857 # occ.  1.00000000
 
ion      s     py     pz     px    dxy    dyz    dz2    dxz  x2-y2    tot
    1  0.001  0.000  0.000  0.000  0.000  0.000  0.247  0.000  0.740  0.987
 
band     6 # energy    9.61401008 # occ.  1.00000000
 
ion      s     py     pz     px    dxy    dyz    dz2    dxz  x2-y2    tot
    1  0.000  0.000  0.000  0.000  0.000  0.000  0.744  0.000  0.248  0.992
 
band     7 # energy   34.84399118 # occ.  0.00000000
 
ion      s     py     pz     px    dxy    dyz    dz2    dxz  x2-y2    tot
    1  0.000  0.000  0.000  0.000  0.000  0.000  0.000  0.290  0.000  0.290
 
band     8 # energy   37.65085489 # occ.  0.00000000
 
ion      s     py     pz     px    dxy    dyz    dz2    dxz  x2-y2    tot
    1  0.000  0.000  0.179  0.179  0.195  0.195  0.000  0.000  0.000  0.748
 
band     9 # energy   37.65098909 # occ.  0.00000000
 
ion      s     py     pz     px    dxy    dyz    dz2    dxz  x2-y2    tot
    1  0.000  0.000  0.179  0.179  0.195  0.195  0.000  0.000  0.000  0.748
 
band    10 # energy   38.23347335 # occ.  0.00000000
 
ion      s     py     pz     px    dxy    dyz    dz2    dxz  x2-y2    tot
    1  0.046  0.144  0.000  0.000  0.000  0.000  0.025  0.000  0.075  0.291
 
band    11 # energy   45.33280919 # occ.  0.00000000
 
ion      s     py     pz     px    dxy    dyz    dz2    dxz  x2-y2    tot
    1  0.000  0.000  0.000  0.000  0.000  0.000  0.000  1.165  0.000  1.165
 
band    12 # energy   46.06051494 # occ.  0.00000000
 
ion      s     py     pz     px    dxy    dyz    dz2    dxz  x2-y2    tot
    1  0.000  0.000  0.001  0.004  0.665  0.094  0.000  0.000  0.000  0.763
 

 k-point     8 :    0.18181818 0.09090909 0.00000000     weight = 0.01803156

band     1 # energy    2.39468927 # occ.  1.00000000
 
ion      s     py     pz     px    dxy    dyz    dz2    dxz  x2-y2    tot
    1  0.722  0.074  0.008  0.008  0.002  0.002  0.001  0.000  0.003  0.821
 
band     2 # energy    7.82810761 # occ.  1.00000000
 
ion      s     py     pz     px    dxy    dyz    dz2    dxz  x2-y2    tot
    1  0.000  0.001  0.003  0.003  0.055  0.055  0.000  0.859  0.000  0.976
 
band     3 # energy    8.51131003 # occ.  1.00000000
 
ion      s     py     pz     px    dxy    dyz    dz2    dxz  x2-y2    tot
    1  0.000  0.001  0.002  0.002  0.407  0.402  0.015  0.109  0.044  0.983
 
band     4 # energy    8.52519273 # occ.  1.00000000
 
ion      s     py     pz     px    dxy    dyz    dz2    dxz  x2-y2    tot
    1  0.000  0.000  0.003  0.003  0.467  0.472  0.030  0.000  0.010  0.984
 
band     5 # energy    9.26479664 # occ.  1.00000000
 
ion      s     py     pz     px    dxy    dyz    dz2    dxz  x2-y2    tot
    1  0.004  0.002  0.000  0.000  0.026  0.026  0.230  0.006  0.690  0.983
 
band     6 # energy    9.67555158 # occ.  1.00000000
 
ion      s     py     pz     px    dxy    dyz    dz2    dxz  x2-y2    tot
    1  0.000  0.000  0.000  0.000  0.020  0.020  0.713  0.000  0.238  0.990
 
band     7 # energy   31.88846032 # occ.  0.00000000
 
ion      s     py     pz     px    dxy    dyz    dz2    dxz  x2-y2    tot
    1  0.030  0.032  0.102  0.102  0.119  0.119  0.002  0.227  0.005  0.737
 
band     8 # energy   35.52290278 # occ.  0.00000000
 
ion      s     py     pz     px    dxy    dyz    dz2    dxz  x2-y2    tot
    1  0.036  0.037  0.010  0.010  0.009  0.009  0.015  0.193  0.044  0.363
 
band     9 # energy   36.11885781 # occ.  0.00000000
 
ion      s     py     pz     px    dxy    dyz    dz2    dxz  x2-y2    tot
    1  0.000  0.000  0.201  0.201  0.206  0.206  0.013  0.000  0.004  0.830
 
band    10 # energy   39.33203084 # occ.  0.00000000
 
ion      s     py     pz     px    dxy    dyz    dz2    dxz  x2-y2    tot
    1  0.001  0.000  0.077  0.077  0.040  0.040  0.050  0.019  0.150  0.454
 
band    11 # energy   43.74042429 # occ.  0.00000000
 
ion      s     py     pz     px    dxy    dyz    dz2    dxz  x2-y2    tot
    1  0.032  0.382  0.016  0.016  0.064  0.064  0.006  0.177  0.019  0.777
 
band    12 # energy   46.14394214 # occ.  0.00000000
 
ion      s     py     pz     px    dxy    dyz    dz2    dxz  x2-y2    tot
    1  0.072  0.227  0.015  0.015  0.139  0.139  0.062  0.271  0.184  1.124
 

 k-point     9 :    0.27272727 0.09090909 0.00000000     weight = 0.01803156

band     1 # energy    3.68388457 # occ.  1.00000000
 
ion      s     py     pz     px    dxy    dyz    dz2    dxz  x2-y2    tot
    1  0.603  0.111  0.025  0.025  0.022  0.022  0.003  0.010  0.009  0.830
 
band     2 # energy    7.65198891 # occ.  1.00000000
 
ion      s     py     pz     px    dxy    dyz    dz2    dxz  x2-y2    tot
    1  0.007  0.009  0.016  0.016  0.095  0.095  0.001  0.719  0.003  0.962
 
band     3 # energy    8.47583944 # occ.  1.00000000
 
ion      s     py     pz     px    dxy    dyz    dz2    dxz  x2-y2    tot
    1  0.000  0.001  0.002  0.002  0.212  0.212  0.098  0.160  0.293  0.978
 
band     4 # energy    8.60391295 # occ.  1.00000000
 
ion      s     py     pz     px    dxy    dyz    dz2    dxz  x2-y2    tot
    1  0.000  0.000  0.003  0.003  0.374  0.375  0.171  0.000  0.057  0.982
 
band     5 # energy    9.48702065 # occ.  1.00000000
 
ion      s     py     pz     px    dxy    dyz    dz2    dxz  x2-y2    tot
    1  0.013  0.011  0.002  0.002  0.152  0.152  0.143  0.075  0.430  0.980
 
band     6 # energy    9.84825294 # occ.  1.00000000
 
ion      s     py     pz     px    dxy    dyz    dz2    dxz  x2-y2    tot
    1  0.000  0.000  0.001  0.001  0.115  0.115  0.569  0.000  0.190  0.990
 
band     7 # energy   27.05806106 # occ.  0.00000000
 
ion      s     py     pz     px    dxy    dyz    dz2    dxz  x2-y2    tot
    1  0.095  0.053  0.131  0.131  0.124  0.124  0.002  0.174  0.006  0.840
 
band     8 # energy   34.68785211 # occ.  0.00000000
 
ion      s     py     pz     px    dxy    dyz    dz2    dxz  x2-y2    tot
    1  0.024  0.004  0.001  0.001  0.000  0.000  0.028  0.225  0.085  0.369
 
band     9 # energy   35.08535675 # occ.  0.00000000
 
ion      s     py     pz     px    dxy    dyz    dz2    dxz  x2-y2    tot
    1  0.000  0.000  0.222  0.222  0.183  0.182  0.039  0.000  0.013  0.861
 
band    10 # energy   39.41006226 # occ.  0.00000000
 
ion      s     py     pz     px    dxy    dyz    dz2    dxz  x2-y2    tot
    1  0.047  0.255  0.001  0.001  0.005  0.005  0.073  0.120  0.220  0.728
 
band    11 # energy   42.72703347 # occ.  0.00000000
 
ion      s     py     pz     px    dxy    dyz    dz2    dxz  x2-y2    tot
    1  0.010  0.168  0.055  0.055  0.036  0.036  0.030  0.092  0.091  0.574
 
band    12 # energy   45.78984945 # occ.  0.00000000
 
ion      s     py     pz     px    dxy    dyz    dz2    dxz  x2-y2    tot
    1  0.016  0.084  0.107  0.107  0.070  0.070  0.046  0.161  0.137  0.796
 

 k-point    10 :    0.36363636 0.09090909-0.00000000     weight = 0.01803156

band     1 # energy    5.00499588 # occ.  1.00000000
 
ion      s     py     pz     px    dxy    dyz    dz2    dxz  x2-y2    tot
    1  0.401  0.100  0.023  0.023  0.104  0.104  0.005  0.094  0.014  0.869
 
band     2 # energy    7.87785958 # occ.  1.00000000
 
ion      s     py     pz     px    dxy    dyz    dz2    dxz  x2-y2    tot
    1  0.041  0.056  0.061  0.061  0.065  0.065  0.020  0.491  0.060  0.920
 
band     3 # energy    8.27100665 # occ.  1.00000000
 
ion      s     py     pz     px    dxy    dyz    dz2    dxz  x2-y2    tot
    1  0.003  0.001  0.000  0.000  0.107  0.107  0.125  0.259  0.375  0.976
 
band     4 # energy    8.51904722 # occ.  1.00000000
 
ion      s     py     pz     px    dxy    dyz    dz2    dxz  x2-y2    tot
    1  0.000  0.000  0.002  0.002  0.273  0.273  0.322  0.000  0.108  0.980
 
band     5 # energy   10.13908983 # occ.  1.00000111
 
ion      s     py     pz     px    dxy    dyz    dz2    dxz  x2-y2    tot
    1  0.015  0.016  0.008  0.003  0.004  0.413  0.082  0.044  0.396  0.982
 
band     6 # energy   10.13926254 # occ.  1.00000111
 
ion      s     py     pz     px    dxy    dyz    dz2    dxz  x2-y2    tot
    1  0.020  0.022  0.005  0.010  0.409  0.001  0.428  0.058  0.026  0.979
 
band     7 # energy   22.53978792 # occ.  0.00000000
 
ion      s     py     pz     px    dxy    dyz    dz2    dxz  x2-y2    tot
    1  0.197  0.047  0.124  0.124  0.113  0.113  0.002  0.159  0.005  0.882
 
band     8 # energy   33.79186533 # occ.  0.00000000
 
ion      s     py     pz     px    dxy    dyz    dz2    dxz  x2-y2    tot
    1  0.006  0.009  0.004  0.004  0.000  0.000  0.043  0.146  0.129  0.341
 
band     9 # energy   34.63033267 # occ.  0.00000000
 
ion      s     py     pz     px    dxy    dyz    dz2    dxz  x2-y2    tot
    1  0.000  0.000  0.243  0.243  0.132  0.132  0.073  0.000  0.024  0.847
 
band    10 # energy   37.58609129 # occ.  0.00000000
 
ion      s     py     pz     px    dxy    dyz    dz2    dxz  x2-y2    tot
    1  0.082  0.370  0.025  0.025  0.001  0.001  0.039  0.122  0.116  0.783
 
band    11 # energy   42.94476729 # occ.  0.00000000
 
ion      s     py     pz     px    dxy    dyz    dz2    dxz  x2-y2    tot
    1  0.001  0.037  0.005  0.005  0.060  0.060  0.109  0.180  0.326  0.783
 
band    12 # energy   44.98720554 # occ.  0.00000000
 
ion      s     py     pz     px    dxy    dyz    dz2    dxz  x2-y2    tot
    1  0.000  0.000  0.060  0.060  0.034  0.034  0.450  0.000  0.150  0.788
 

 k-point    11 :    0.45454545 0.09090909 0.00000000     weight = 0.01803156

band     1 # energy    5.60242360 # occ.  1.00000000
 
ion      s     py     pz     px    dxy    dyz    dz2    dxz  x2-y2    tot
    1  0.214  0.037  0.002  0.002  0.209  0.209  0.002  0.245  0.005  0.925
 
band     2 # energy    8.07998840 # occ.  1.00000000
 
ion      s     py     pz     px    dxy    dyz    dz2    dxz  x2-y2    tot
    1  0.000  0.003  0.009  0.009  0.086  0.086  0.164  0.112  0.492  0.963
 
band     3 # energy    8.39767625 # occ.  1.00000000
 
ion      s     py     pz     px    dxy    dyz    dz2    dxz  x2-y2    tot
    1  0.000  0.000  0.001  0.001  0.219  0.220  0.403  0.000  0.134  0.979
 
band     4 # energy    8.76075609 # occ.  1.00000000
 
ion      s     py     pz     px    dxy    dyz    dz2    dxz  x2-y2    tot
    1  0.032  0.102  0.094  0.094  0.016  0.016  0.015  0.489  0.045  0.902
 
band     5 # energy   10.34073987 # occ.  1.00047376
 
ion      s     py     pz     px    dxy    dyz    dz2    dxz  x2-y2    tot
    1  0.000  0.000  0.000  0.000  0.274  0.274  0.334  0.000  0.111  0.994
 
band     6 # energy   11.20906199 # occ. -0.02073054
 
ion      s     py     pz     px    dxy    dyz    dz2    dxz  x2-y2    tot
    1  0.049  0.119  0.074  0.074  0.138  0.138  0.064  0.070  0.192  0.919
 
band     7 # energy   18.82424307 # occ.  0.00000000
 
ion      s     py     pz     px    dxy    dyz    dz2    dxz  x2-y2    tot
    1  0.353  0.014  0.072  0.072  0.122  0.122  0.001  0.168  0.003  0.926
 
band     8 # energy   32.95303804 # occ.  0.00000000
 
ion      s     py     pz     px    dxy    dyz    dz2    dxz  x2-y2    tot
    1  0.001  0.068  0.000  0.000  0.008  0.008  0.052  0.075  0.154  0.366
 
band     9 # energy   34.84355797 # occ.  0.00000000
 
ion      s     py     pz     px    dxy    dyz    dz2    dxz  x2-y2    tot
    1  0.000  0.000  0.257  0.257  0.071  0.071  0.113  0.000  0.038  0.807
 
band    10 # energy   36.14280880 # occ.  0.00000000
 
ion      s     py     pz     px    dxy    dyz    dz2    dxz  x2-y2    tot
    1  0.077  0.310  0.069  0.069  0.010  0.010  0.014  0.069  0.041  0.669
 
band    11 # energy   42.88372113 # occ.  0.00000000
 
ion      s     py     pz     px    dxy    dyz    dz2    dxz  x2-y2    tot
    1  0.012  0.023  0.001  0.001  0.029  0.029  0.128  0.279  0.384  0.886
 
band    12 # energy   43.48539306 # occ.  0.00000000
 
ion      s     py     pz     px    dxy    dyz    dz2    dxz  x2-y2    tot
    1  0.000  0.000  0.061  0.061  0.107  0.107  0.434  0.000  0.145  0.915
 

 k-point    12 :   -0.45454545 0.09090909 0.00000000     weight = 0.01803156

band     1 # energy    5.68882025 # occ.  1.00000000
 
ion      s     py     pz     px    dxy    dyz    dz2    dxz  x2-y2    tot
    1  0.175  0.006  0.005  0.005  0.235  0.235  0.000  0.276  0.000  0.938
 
band     2 # energy    8.05440855 # occ.  1.00000000
 
ion      s     py     pz     px    dxy    dyz    dz2    dxz  x2-y2    tot
    1  0.000  0.000  0.007  0.007  0.057  0.057  0.157  0.209  0.471  0.966
 
band     3 # energy    8.34573875 # occ.  1.00000000
 
ion      s     py     pz     px    dxy    dyz    dz2    dxz  x2-y2    tot
    1  0.000  0.000  0.001  0.001  0.199  0.199  0.434  0.000  0.145  0.978
 
band     4 # energy    9.14359670 # occ.  1.00000000
 
ion      s     py     pz     px    dxy    dyz    dz2    dxz  x2-y2    tot
    1  0.001  0.102  0.101  0.101  0.098  0.098  0.035  0.262  0.106  0.904
 
band     5 # energy   10.29380793 # occ.  1.00014092
 
ion      s     py     pz     px    dxy    dyz    dz2    dxz  x2-y2    tot
    1  0.000  0.000  0.000  0.000  0.296  0.296  0.300  0.000  0.100  0.993
 
band     6 # energy   11.91103970 # occ. -0.00000000
 
ion      s     py     pz     px    dxy    dyz    dz2    dxz  x2-y2    tot
    1  0.005  0.145  0.147  0.147  0.023  0.023  0.054  0.173  0.161  0.878
 
band     7 # energy   17.46818725 # occ.  0.00000000
 
ion      s     py     pz     px    dxy    dyz    dz2    dxz  x2-y2    tot
    1  0.459  0.028  0.000  0.000  0.159  0.159  0.000  0.150  0.000  0.955
 
band     8 # energy   32.29935581 # occ.  0.00000000
 
ion      s     py     pz     px    dxy    dyz    dz2    dxz  x2-y2    tot