<?xml version="1.0" encoding="ISO-8859-1"?>
<modeling>
 <generator>
  <i name="program" type="string">vasp </i>
  <i name="version" type="string">6.3.0  </i>
  <i name="subversion" type="string">20Jan22 (build Feb 01 2022 16:52:37) complex                          parallel </i>
  <i name="platform" type="string">TETRA_NSC1 </i>
  <i name="date" type="string">2022 02 23 </i>
  <i name="time" type="string">15:19:22 </i>
 </generator>
 <incar>
  <i type="string" name="SYSTEM">fcc Ni</i>
  <i type="int" name="ISTART">     0</i>
  <i type="int" name="ISPIN">     2</i>
  <i type="int" name="ICHARG">     2</i>
  <i name="ENCUT">    270.00000000</i>
  <v name="MAGMOM">      1.00000000</v>
  <i type="int" name="ISMEAR">     1</i>
  <i name="SIGMA">      0.20000000</i>
  <i type="int" name="LORBIT">    11</i>
 </incar>
 <primitive_cell>
  <structure name="primitive_cell" >
   <crystal>
    <varray name="basis" >
     <v>       1.70000000       1.70000000       0.00000000 </v>
     <v>       0.00000000       1.70000000       1.70000000 </v>
     <v>       1.70000000       0.00000000       1.70000000 </v>
    </varray>
    <i name="volume">      9.82600000 </i>
    <varray name="rec_basis" >
     <v>       0.29411765       0.29411765      -0.29411765 </v>
     <v>      -0.29411765       0.29411765       0.29411765 </v>
     <v>       0.29411765      -0.29411765       0.29411765 </v>
    </varray>
   </crystal>
   <varray name="positions" >
    <v>       0.00000000       0.00000000       0.00000000 </v>
   </varray>
  </structure>
  <varray name="primitive_index" >
   <v type="int" >        1 </v>
  </varray>
 </primitive_cell>
 <kpoints>
  <generation param="Monkhorst-Pack">
   <v type="int" name="divisions">      11       11       11 </v>
   <v name="usershift">      0.00000000       0.00000000       0.00000000 </v>
   <v name="genvec1">      0.09090909      -0.00000000      -0.00000000 </v>
   <v name="genvec2">     -0.00000000       0.09090909       0.00000000 </v>
   <v name="genvec3">      0.00000000       0.00000000       0.09090909 </v>
   <v name="shift">      0.00000000       0.00000000       0.00000000 </v>
  </generation>
  <varray name="kpointlist" >
   <v>       0.00000000       0.00000000       0.00000000 </v>
   <v>       0.09090909       0.00000000       0.00000000 </v>
   <v>       0.18181818       0.00000000       0.00000000 </v>
   <v>       0.27272727       0.00000000      -0.00000000 </v>
   <v>       0.36363636       0.00000000      -0.00000000 </v>
   <v>       0.45454545       0.00000000       0.00000000 </v>
   <v>       0.09090909       0.09090909      -0.00000000 </v>
   <v>       0.18181818       0.09090909       0.00000000 </v>
   <v>       0.27272727       0.09090909       0.00000000 </v>
   <v>       0.36363636       0.09090909      -0.00000000 </v>
   <v>       0.45454545       0.09090909       0.00000000 </v>
   <v>      -0.45454545       0.09090909       0.00000000 </v>
   <v>      -0.36363636       0.09090909      -0.00000000 </v>
   <v>      -0.27272727       0.09090909       0.00000000 </v>
   <v>      -0.18181818       0.09090909       0.00000000 </v>
   <v>      -0.09090909       0.09090909      -0.00000000 </v>
   <v>       0.18181818       0.18181818      -0.00000000 </v>
   <v>       0.27272727       0.18181818       0.00000000 </v>
   <v>       0.36363636       0.18181818      -0.00000000 </v>
   <v>       0.45454545       0.18181818      -0.00000000 </v>
   <v>      -0.45454545       0.18181818       0.00000000 </v>
   <v>      -0.36363636       0.18181818       0.00000000 </v>
   <v>      -0.27272727       0.18181818      -0.00000000 </v>
   <v>      -0.18181818       0.18181818      -0.00000000 </v>
   <v>       0.27272727       0.27272727       0.00000000 </v>
   <v>       0.36363636       0.27272727       0.00000000 </v>
   <v>       0.45454545       0.27272727      -0.00000000 </v>
   <v>      -0.45454545       0.27272727       0.00000000 </v>
   <v>      -0.36363636       0.27272727      -0.00000000 </v>
   <v>      -0.27272727       0.27272727       0.00000000 </v>
   <v>       0.36363636       0.36363636       0.00000000 </v>
   <v>       0.45454545       0.36363636      -0.00000000 </v>
   <v>      -0.45454545       0.36363636       0.00000000 </v>
   <v>      -0.36363636       0.36363636       0.00000000 </v>
   <v>       0.45454545       0.45454545      -0.00000000 </v>
   <v>      -0.45454545       0.45454545      -0.00000000 </v>
   <v>       0.27272727       0.18181818       0.09090909 </v>
   <v>       0.36363636       0.18181818       0.09090909 </v>
   <v>       0.45454545       0.18181818       0.09090909 </v>
   <v>      -0.45454545       0.18181818       0.09090909 </v>
   <v>       0.36363636       0.27272727       0.09090909 </v>
   <v>       0.45454545       0.27272727       0.09090909 </v>
   <v>      -0.45454545       0.27272727       0.09090909 </v>
   <v>      -0.36363636       0.27272727       0.09090909 </v>
   <v>      -0.27272727       0.27272727       0.09090909 </v>
   <v>      -0.18181818       0.27272727       0.09090909 </v>
   <v>       0.45454545       0.36363636       0.09090909 </v>
   <v>      -0.45454545       0.36363636       0.09090909 </v>
   <v>      -0.36363636       0.36363636       0.09090909 </v>
   <v>      -0.27272727       0.36363636       0.09090909 </v>
   <v>      -0.45454545       0.45454545       0.09090909 </v>
   <v>      -0.36363636       0.45454545       0.09090909 </v>
   <v>      -0.45454545       0.36363636       0.18181818 </v>
   <v>      -0.36363636       0.36363636       0.18181818 </v>
   <v>      -0.36363636       0.45454545       0.18181818 </v>
   <v>      -0.27272727       0.45454545       0.18181818 </v>
  </varray>
  <varray name="weights" >
   <v>       0.00075131 </v>
   <v>       0.00601052 </v>
   <v>       0.00601052 </v>
   <v>       0.00601052 </v>
   <v>       0.00601052 </v>
   <v>       0.00601052 </v>
   <v>       0.00450789 </v>
   <v>       0.01803156 </v>
   <v>       0.01803156 </v>
   <v>       0.01803156 </v>
   <v>       0.01803156 </v>
   <v>       0.01803156 </v>
   <v>       0.01803156 </v>
   <v>       0.01803156 </v>
   <v>       0.01803156 </v>
   <v>       0.00901578 </v>
   <v>       0.00450789 </v>
   <v>       0.01803156 </v>
   <v>       0.01803156 </v>
   <v>       0.01803156 </v>
   <v>       0.01803156 </v>
   <v>       0.01803156 </v>
   <v>       0.01803156 </v>
   <v>       0.00901578 </v>
   <v>       0.00450789 </v>
   <v>       0.01803156 </v>
   <v>       0.01803156 </v>
   <v>       0.01803156 </v>
   <v>       0.01803156 </v>
   <v>       0.00901578 </v>
   <v>       0.00450789 </v>
   <v>       0.01803156 </v>
   <v>       0.01803156 </v>
   <v>       0.00901578 </v>
   <v>       0.00450789 </v>
   <v>       0.00901578 </v>
   <v>       0.01803156 </v>
   <v>       0.03606311 </v>
   <v>       0.03606311 </v>
   <v>       0.03606311 </v>
   <v>       0.01803156 </v>
   <v>       0.03606311 </v>
   <v>       0.03606311 </v>
   <v>       0.03606311 </v>
   <v>       0.03606311 </v>
   <v>       0.01803156 </v>
   <v>       0.01803156 </v>
   <v>       0.03606311 </v>
   <v>       0.03606311 </v>
   <v>       0.01803156 </v>
   <v>       0.01803156 </v>
   <v>       0.01803156 </v>
   <v>       0.01803156 </v>
   <v>       0.03606311 </v>
   <v>       0.01803156 </v>
   <v>       0.01803156 </v>
  </varray>
 </kpoints>
 <parameters>
  <separator name="general" >
   <i type="string" name="SYSTEM">fcc Ni</i>
   <i type="logical" name="LCOMPAT"> F  </i>
  </separator>
  <separator name="electronic" >
   <i type="string" name="PREC">normal</i>
   <i name="ENMAX">    270.00000000</i>
   <i name="ENAUG">    544.56500000</i>
   <i name="EDIFF">      0.00010000</i>
   <i type="int" name="IALGO">    38</i>
   <i type="int" name="IWAVPR">    10</i>
   <i type="int" name="NBANDS">    12</i>
   <i type="int" name="NBANDSLOW">    -1</i>
   <i type="int" name="NBANDSHIGH">    -1</i>
   <i name="NELECT">     10.00000000</i>
   <i type="int" name="TURBO">     0</i>
   <i type="int" name="IRESTART">     0</i>
   <i type="int" name="NREBOOT">     0</i>
   <i type="int" name="NMIN">     0</i>
   <i name="EREF">      0.00000000</i>
   <separator name="electronic smearing" >
    <i type="int" name="ISMEAR">     1</i>
    <i name="SIGMA">      0.20000000</i>
    <i name="KSPACING">      0.50000000</i>
    <i type="logical" name="KGAMMA"> T  </i>
    <i type="logical" name="KBLOWUP"> T  </i>
   </separator>
   <separator name="electronic projectors" >
    <i type="logical" name="LREAL"> F  </i>
    <v name="ROPT">      0.00000000</v>
    <i type="int" name="LMAXPAW">  -100</i>
    <i type="int" name="LMAXMIX">     2</i>
    <i type="logical" name="NLSPLINE"> F  </i>
   </separator>
   <separator name="electronic startup" >
    <i type="int" name="ISTART">     0</i>
    <i type="int" name="ICHARG">     2</i>
    <i type="int" name="INIWAV">     1</i>
   </separator>
   <separator name="electronic spin" >
    <i type="int" name="ISPIN">     2</i>
    <i type="logical" name="LNONCOLLINEAR"> F  </i>
    <v name="MAGMOM">      1.00000000</v>
    <i name="NUPDOWN">     -1.00000000</i>
    <i type="logical" name="LSORBIT"> F  </i>
    <v name="SAXIS">      0.00000000      0.00000000      1.00000000</v>
    <i type="logical" name="LSPIRAL"> F  </i>
    <v name="QSPIRAL">      0.00000000      0.00000000      0.00000000</v>
    <i type="logical" name="LZEROZ"> F  </i>
   </separator>
   <separator name="electronic exchange-correlation" >
    <i type="logical" name="LASPH"> F  </i>
    <i type="logical" name="LMETAGGA"> F  </i>
   </separator>
   <separator name="electronic convergence" >
    <i type="int" name="NELM">    60</i>
    <i type="int" name="NELMDL">    -5</i>
    <i type="int" name="NELMIN">     2</i>
    <i name="ENINI">    270.00000000</i>
    <separator name="electronic convergence detail" >
     <i type="logical" name="LDIAG"> T  </i>
     <i type="logical" name="LSUBROT"> F  </i>
     <i name="WEIMIN">      0.00000000</i>
     <i name="EBREAK">      0.00000208</i>
     <i name="DEPER">      0.30000000</i>
     <i type="int" name="NRMM">     4</i>
     <i name="TIME">      0.40000000</i>
    </separator>
   </separator>
   <separator name="electronic mixer" >
    <i name="AMIX">      0.40000000</i>
    <i name="BMIX">      1.00000000</i>
    <i name="AMIN">      0.10000000</i>
    <i name="AMIX_MAG">      1.60000000</i>
    <i name="BMIX_MAG">      1.00000000</i>
    <separator name="electronic mixer details" >
     <i type="int" name="IMIX">     4</i>
     <i type="logical" name="MIXFIRST"> F  </i>
     <i type="int" name="MAXMIX">   -45</i>
     <i name="WC">    100.00000000</i>
     <i type="int" name="INIMIX">     1</i>
     <i type="int" name="MIXPRE">     1</i>
     <i type="int" name="MREMOVE">     5</i>
    </separator>
   </separator>
   <separator name="electronic dipolcorrection" >
    <i type="logical" name="LDIPOL"> F  </i>
    <i type="logical" name="LMONO"> F  </i>
    <i type="int" name="IDIPOL">     0</i>
    <i name="EPSILON">      1.00000000</i>
    <v name="DIPOL">   -100.00000000   -100.00000000   -100.00000000</v>
    <i name="EFIELD">      0.00000000</i>
   </separator>
  </separator>
  <separator name="grids" >
   <i type="int" name="NGX">    10</i>
   <i type="int" name="NGY">    10</i>
   <i type="int" name="NGZ">    10</i>
   <i type="int" name="NGXF">    20</i>
   <i type="int" name="NGYF">    20</i>
   <i type="int" name="NGZF">    20</i>
   <i type="logical" name="ADDGRID"> F  </i>
  </separator>
  <separator name="ionic" >
   <i type="int" name="NSW">     0</i>
   <i type="int" name="IBRION">    -1</i>
   <i type="int" name="MDALGO">     0</i>
   <i type="int" name="ISIF">     2</i>
   <i name="PSTRESS">      0.00000000</i>
   <i name="EDIFFG">      0.00100000</i>
   <i type="int" name="NFREE">     0</i>
   <i name="POTIM">      0.50000000</i>
   <i name="SMASS">     -3.00000000</i>
   <i name="SCALEE">      1.00000000</i>
  </separator>
  <separator name="ionic md" >
   <i name="TEBEG">      0.00010000</i>
   <i name="TEEND">      0.00010000</i>
   <i type="int" name="NBLOCK">     1</i>
   <i type="int" name="KBLOCK">     1</i>
   <i type="int" name="NPACO">   256</i>
   <i name="APACO">     10.00000000</i>
  </separator>
  <separator name="symmetry" >
   <i type="int" name="ISYM">     2</i>
   <i name="SYMPREC">      0.00001000</i>
  </separator>
  <separator name="dos" >
   <i type="int" name="LORBIT">    11</i>
   <v name="RWIGS">     -1.00000000</v>
   <i type="int" name="NEDOS">   301</i>
   <i name="EMIN">     10.00000000</i>
   <i name="EMAX">    -10.00000000</i>
   <i name="EFERMI">      0.00000000</i>
  </separator>
  <separator name="writing" >
   <i type="int" name="NWRITE">     2</i>
   <i type="logical" name="LWAVE"> T  </i>
   <i type="logical" name="LDOWNSAMPLE"> F  </i>
   <i type="logical" name="LCHARG"> T  </i>
   <i type="logical" name="LPARD"> F  </i>
   <i type="logical" name="LVTOT"> F  </i>
   <i type="logical" name="LVHAR"> F  </i>
   <i type="logical" name="LELF"> F  </i>
   <i type="logical" name="LOPTICS"> F  </i>
   <v name="STM">      0.00000000      0.00000000      0.00000000      0.00000000      0.00000000      0.00000000      0.00000000</v>
  </separator>
  <separator name="performance" >
   <i type="int" name="NPAR">     4</i>
   <i type="int" name="NSIM">     4</i>
   <i type="int" name="NBLK">    -1</i>
   <i type="logical" name="LPLANE"> T  </i>
   <i type="logical" name="LSCALAPACK"> T  </i>
   <i type="logical" name="LSCAAWARE"> F  </i>
   <i type="logical" name="LSCALU"> F  </i>
   <i type="logical" name="LASYNC"> F  </i>
   <i type="logical" name="LORBITALREAL"> F  </i>
  </separator>
  <separator name="miscellaneous" >
   <i type="int" name="IDIOT">     3</i>
   <i type="int" name="PHON_NSTRUCT">    -1</i>
   <i type="logical" name="LMUSIC"> F  </i>
   <v name="POMASS">     58.69000000</v>
   <v name="DARWINR">      0.00000000</v>
   <v name="DARWINV">      1.00000000</v>
   <i type="logical" name="LCORR"> T  </i>
  </separator>
  <i type="logical" name="GGA_COMPAT"> T  </i>
  <i type="logical" name="LBERRY"> F  </i>
  <i type="int" name="ICORELEVEL">     0</i>
  <i type="logical" name="LDAU"> F  </i>
  <i type="int" name="I_CONSTRAINED_M">     0</i>
  <separator name="electronic exchange-correlation" >
   <i type="string" name="GGA">--</i>
   <i type="int" name="VOSKOWN">     0</i>
   <i type="logical" name="LHFCALC"> F  </i>
   <i type="string" name="PRECFOCK"></i>
   <i type="logical" name="LSYMGRAD"> F  </i>
   <i type="logical" name="LHFONE"> F  </i>
   <i type="logical" name="LRHFCALC"> F  </i>
   <i type="logical" name="LTHOMAS"> F  </i>
   <i type="logical" name="LMODELHF"> F  </i>
   <i type="logical" name="LFOCKACE"> F  </i>
   <i name="ENCUT4O">     -1.00000000</i>
   <i type="int" name="EXXOEP">     0</i>
   <i type="int" name="FOURORBIT">     0</i>
   <i name="AEXX">      0.00000000</i>
   <i name="HFALPHA">      0.00000000</i>
   <i name="MCALPHA">      0.00000000</i>
   <i name="ALDAX">      1.00000000</i>
   <i name="AGGAX">      1.00000000</i>
   <i name="ALDAC">      1.00000000</i>
   <i name="AGGAC">      1.00000000</i>
   <i type="int" name="NKREDX">     1</i>
   <i type="int" name="NKREDY">     1</i>
   <i type="int" name="NKREDZ">     1</i>
   <i type="logical" name="SHIFTRED"> F  </i>
   <i type="logical" name="ODDONLY"> F  </i>
   <i type="logical" name="EVENONLY"> F  </i>
   <i type="int" name="LMAXFOCK">     0</i>
   <i type="int" name="NMAXFOCKAE">     0</i>
   <i type="logical" name="LFOCKAEDFT"> F  </i>
   <i name="HFSCREEN">      0.00000000</i>
   <i name="HFSCREENC">      0.00000000</i>
   <i type="int" name="NBANDSGWLOW">     0</i>
  </separator>
  <separator name="vdW DFT" >
   <i type="logical" name="LUSE_VDW"> F  </i>
   <i name="Zab_VDW">     -0.84910000</i>
   <i name="PARAM1">      0.12340000</i>
   <i name="PARAM2">      1.00000000</i>
   <i name="PARAM3">      0.00000000</i>
  </separator>
  <separator name="model GW" >
   <i type="int" name="MODEL_GW">     0</i>
   <i name="MODEL_EPS0">      5.89560000</i>
   <i name="MODEL_ALPHA">      1.00000000</i>
  </separator>
  <separator name="linear response parameters" >
   <i type="logical" name="LEPSILON"> F  </i>
   <i type="logical" name="LRPA"> F  </i>
   <i type="logical" name="LNABLA"> F  </i>
   <i type="logical" name="LVEL"> F  </i>
   <i name="CSHIFT">      0.10000000</i>
   <i name="OMEGAMAX">     -1.00000000</i>
   <i name="DEG_THRESHOLD">      0.00200000</i>
   <i name="RTIME">     -0.10000000</i>
   <i name="WPLASMAI">      0.00000000</i>
   <v name="DFIELD">      0.00000000      0.00000000      0.00000000</v>
   <v name="WPLASMA">      0.00000000      0.00000000      0.00000000      0.00000000      0.00000000      0.00000000      0.00000000      0.00000000      0.00000000</v>
  </separator>
  <separator name="orbital magnetization" >
   <i type="logical" name="NUCIND"> F  </i>
   <v name="MAGPOS">      0.00000000      0.00000000      0.00000000</v>
   <i type="logical" name="LNICSALL"> T  </i>
   <i type="logical" name="ORBITALMAG"> F  </i>
   <i type="logical" name="LMAGBLOCH"> F  </i>
   <i type="logical" name="LCHIMAG"> F  </i>
   <i type="logical" name="LGAUGE"> T  </i>
   <i type="int" name="MAGATOM">     0</i>
   <v name="MAGDIPOL">      0.00000000      0.00000000      0.00000000</v>
   <v name="AVECCONST">      0.00000000      0.00000000      0.00000000</v>
  </separator>
  <separator name="response functions" >
   <i type="logical" name="LFINITE_TEMPERATURE"> F  </i>
   <i type="logical" name="LADDER"> F  </i>
   <i type="logical" name="LRPAFORCE"> F  </i>
   <i type="logical" name="LFXC"> F  </i>
   <i type="logical" name="LHARTREE"> T  </i>
   <i type="int" name="IBSE">     0</i>
   <v type="int" name="KPOINT">    -1     0     0     0</v>
   <i type="logical" name="LTCTC"> F  </i>
   <i type="logical" name="LTCTE"> F  </i>
   <i type="logical" name="LTETE"> F  </i>
   <i type="logical" name="LTRIPLET"> F  </i>
   <i type="logical" name="LFXCEPS"> F  </i>
   <i type="logical" name="LFXHEG"> F  </i>
   <i type="int" name="NATURALO">     2</i>
   <i type="logical" name="LHOLEGF"> F  </i>
   <i type="logical" name="L2ORDER"> F  </i>
   <i type="logical" name="LDMP1"> F  </i>
   <i type="logical" name="LMP2LT"> F  </i>
   <i type="logical" name="LSMP2LT"> F  </i>
   <i type="logical" name="LGWLF"> F  </i>
   <i name="ENCUTGW">     -2.00000000</i>
   <i name="ENCUTGWSOFT">     -2.00000000</i>
   <i name="ENCUTLF">     -1.00000000</i>
   <i type="logical" name="LESF_SPLINES"> F  </i>
   <i type="int" name="LMAXMP2">    -1</i>
   <i name="SCISSOR">      0.00000000</i>
   <i type="int" name="NOMEGA">     0</i>
   <i type="int" name="NOMEGAR">     0</i>
   <i type="int" name="NBANDSGW">    -1</i>
   <i type="int" name="NBANDSO">    -1</i>
   <i type="int" name="NBANDSV">    -1</i>
   <i type="int" name="NELMGW">     1</i>
   <i type="int" name="NELMHF">     1</i>
   <i type="int" name="DIM">     3</i>
   <i type="int" name="IESPILON">     4</i>
   <i type="int" name="ANTIRES">     0</i>
   <i name="OMEGAMAX">    -30.00000000</i>
   <i name="OMEGAMIN">    -30.00000000</i>
   <i name="OMEGATL">   -200.00000000</i>
   <i type="int" name="OMEGAGRID">     0</i>
   <i name="CSHIFT">     -0.10000000</i>
   <i type="logical" name="LSELFENERGY"> F  </i>
   <i type="logical" name="LSPECTRAL"> F  </i>
   <i type="logical" name="LSPECTRALGW"> F  </i>
   <i type="logical" name="LSINGLES"> F  </i>
   <i type="logical" name="LFERMIGW"> F  </i>
   <i type="logical" name="ODDONLYGW"> F  </i>
   <i type="logical" name="EVENONLYGW"> F  </i>
   <i type="int" name="NKREDLFX">     1</i>
   <i type="int" name="NKREDLFY">     1</i>
   <i type="int" name="NKREDLFZ">     1</i>
   <i type="int" name="MAXMEM">  2800</i>
   <i type="int" name="TELESCOPE">     0</i>
   <i type="int" name="NTAUPAR">    -1</i>
   <i type="int" name="NOMEGAPAR">    -1</i>
   <i name="DAMP_NEWTON">      0.80000001</i>
   <i name="LAMBDA">      1.00000000</i>
  </separator>
  <separator name="External order field" >
   <i name="OFIELD_KAPPA">      0.00000000</i>
   <v name="OFIELD_K">      0.00000000      0.00000000      0.00000000</v>
   <i name="OFIELD_Q6_NEAR">      0.00000000</i>
   <i name="OFIELD_Q6_FAR">      0.00000000</i>
   <i name="OFIELD_A">      0.00000000</i>
  </separator>
  <separator name="optional k-points parameters" >
   <i type="int" name="KPOINTS_OPT_MODE">     1</i>
   <i type="logical" name="LKPOINTS_OPT"> F  </i>
  </separator>
 </parameters>
 <atominfo>
  <atoms>       1 </atoms>
  <types>       1 </types>
  <array name="atoms" >
   <dimension dim="1">ion</dimension>
   <field type="string">element</field>
   <field type="int">atomtype</field>
   <set>
    <rc><c>Ni</c><c>   1</c></rc>
   </set>
  </array>
  <array name="atomtypes" >
   <dimension dim="1">type</dimension>
   <field type="int">atomspertype</field>
   <field type="string">element</field>
   <field>mass</field>
   <field>valence</field>
   <field type="string">pseudopotential</field>
   <set>
    <rc><c>   1</c><c>Ni</c><c>     58.69000000</c><c>     10.00000000</c><c>  PAW_PBE Ni 02Aug2007                  </c></rc>
   </set>
  </array>
 </atominfo>
 <structure name="initialpos" >
  <crystal>
   <varray name="basis" >
    <v>       1.70000000       1.70000000       0.00000000 </v>
    <v>       0.00000000       1.70000000       1.70000000 </v>
    <v>       1.70000000       0.00000000       1.70000000 </v>
   </varray>
   <i name="volume">      9.82600000 </i>
   <varray name="rec_basis" >
    <v>       0.29411765       0.29411765      -0.29411765 </v>
    <v>      -0.29411765       0.29411765       0.29411765 </v>
    <v>       0.29411765      -0.29411765       0.29411765 </v>
   </varray>
  </crystal>
  <varray name="positions" >
   <v>       0.00000000       0.00000000       0.00000000 </v>
  </varray>
 </structure>
 <calculation>
  <scstep>
   <time name="dav">    0.18    0.18</time>
   <time name="total">    0.18    0.18</time>
   <energy>
    <i name="alphaZ">     51.90250458 </i>
    <i name="ewald">   -970.89761834 </i>
    <i name="hartreedc">   -229.87206546 </i>
    <i name="XCdc">     32.11117047 </i>
    <i name="pawpsdc">    962.83317360 </i>
    <i name="pawaedc">  -1029.67071227 </i>
    <i name="eentropy">     -0.00417969 </i>
    <i name="bandstr">    122.59544365 </i>
    <i name="atom">   1077.63607467 </i>
    <i name="e_fr_energy">     16.63379120 </i>
    <i name="e_wo_entrp">     16.63797089 </i>
    <i name="e_0_energy">     16.63518443 </i>
   </energy>
  </scstep>
  <scstep>
   <time name="dav">    0.16    0.16</time>
   <time name="total">    0.16    0.16</time>
   <energy>
    <i name="e_fr_energy">     -6.01773734 </i>
    <i name="e_wo_entrp">     -6.01994308 </i>
    <i name="e_0_energy">     -6.01847259 </i>
   </energy>
  </scstep>
  <scstep>
   <time name="dav">    0.17    0.17</time>
   <time name="total">    0.17    0.17</time>
   <energy>
    <i name="e_fr_energy">     -6.38871423 </i>
    <i name="e_wo_entrp">     -6.39189314 </i>
    <i name="e_0_energy">     -6.38977387 </i>
   </energy>
  </scstep>
  <scstep>
   <time name="dav">    0.17    0.17</time>
   <time name="total">    0.17    0.17</time>
   <energy>
    <i name="e_fr_energy">     -6.39064031 </i>
    <i name="e_wo_entrp">     -6.39382357 </i>
    <i name="e_0_energy">     -6.39170140 </i>
   </energy>
  </scstep>
  <scstep>
   <time name="dav">    0.17    0.17</time>
   <time name="total">    0.17    0.17</time>
   <energy>
    <i name="e_fr_energy">     -6.39066348 </i>
    <i name="e_wo_entrp">     -6.39384678 </i>
    <i name="e_0_energy">     -6.39172458 </i>
   </energy>
  </scstep>
  <scstep>
   <time name="dav">    0.18    0.18</time>
   <time name="total">    0.19    0.19</time>
   <energy>
    <i name="e_fr_energy">     -5.62197024 </i>
    <i name="e_wo_entrp">     -5.62038773 </i>
    <i name="e_0_energy">     -5.62144274 </i>
   </energy>
  </scstep>
  <scstep>
   <time name="dav">    0.19    0.19</time>
   <time name="total">    0.20    0.20</time>
   <energy>
    <i name="e_fr_energy">     -5.41324742 </i>
    <i name="e_wo_entrp">     -5.41307494 </i>
    <i name="e_0_energy">     -5.41318993 </i>
   </energy>
  </scstep>
  <scstep>
   <time name="dav">    0.17    0.17</time>
   <time name="total">    0.18    0.18</time>
   <energy>
    <i name="e_fr_energy">     -5.39395018 </i>
    <i name="e_wo_entrp">     -5.39340051 </i>
    <i name="e_0_energy">     -5.39376696 </i>
   </energy>
  </scstep>
  <scstep>
   <time name="dav">    0.16    0.16</time>
   <time name="total">    0.17    0.17</time>
   <energy>
    <i name="e_fr_energy">     -5.39240488 </i>
    <i name="e_wo_entrp">     -5.39192546 </i>
    <i name="e_0_energy">     -5.39224508 </i>
   </energy>
  </scstep>
  <scstep>
   <time name="dav">    0.12    0.12</time>
   <time name="total">    0.13    0.13</time>
   <energy>
    <i name="e_fr_energy">     -5.39202575 </i>
    <i name="e_wo_entrp">     -5.39158090 </i>
    <i name="e_0_energy">     -5.39187747 </i>
   </energy>
  </scstep>
  <scstep>
   <time name="dav">    0.10    0.10</time>
   <time name="total">    0.10    0.10</time>
   <energy>
    <i name="alphaZ">     51.90250458 </i>
    <i name="ewald">   -970.89761834 </i>
    <i name="hartreedc">   -208.71353558 </i>
    <i name="XCdc">     30.98721494 </i>
    <i name="pawpsdc">   1203.35411239 </i>
    <i name="pawaedc">  -1272.59941414 </i>
    <i name="eentropy">     -0.00047439 </i>
    <i name="bandstr">     82.93910063 </i>
    <i name="atom">   1077.63607467 </i>
    <i name="e_fr_energy">     -5.39203525 </i>
    <i name="e_wo_entrp">     -5.39156086 </i>
    <i name="e_0_energy">     -5.39187712 </i>
   </energy>
  </scstep>
  <structure>
   <crystal>
    <varray name="basis" >
     <v>       1.70000000       1.70000000       0.00000000 </v>
     <v>       0.00000000       1.70000000       1.70000000 </v>
     <v>       1.70000000       0.00000000       1.70000000 </v>
    </varray>
    <i name="volume">      9.82600000 </i>
    <varray name="rec_basis" >
     <v>       0.29411765       0.29411765      -0.29411765 </v>
     <v>      -0.29411765       0.29411765       0.29411765 </v>
     <v>       0.29411765      -0.29411765       0.29411765 </v>
    </varray>
   </crystal>
   <varray name="positions" >
    <v>       0.00000000       0.00000000       0.00000000 </v>
   </varray>
  </structure>
  <varray name="forces" >
   <v>       0.00000000      -0.00000000      -0.00000000 </v>
  </varray>
  <varray name="stress" >
   <v>     195.22478546       0.00000000       0.00000000 </v>
   <v>       0.00000000     195.22478546       0.00000000 </v>
   <v>      -0.00000000       0.00000000     195.22478546 </v>
  </varray>
  <energy>
   <i name="e_fr_energy">     -5.39203525 </i>
   <i name="e_wo_entrp">     -5.39156086 </i>
   <i name="e_0_energy">     -5.39187712 </i>
  </energy>
  <time name="totalsc">    1.92    1.93</time>
  <eigenvalues>
   <array>
    <dimension dim="1">band</dimension>
    <dimension dim="2">kpoint</dimension>
    <dimension dim="3">spin</dimension>
    <field>eigene</field>
    <field>occ</field>
    <set>
     <set comment="spin 1">
      <set comment="kpoint 1">
       <r>    1.1575    1.0000 </r>
       <r>    8.2160    1.0000 </r>
       <r>    8.2161    1.0000 </r>
       <r>    8.2161    1.0000 </r>
       <r>    9.5463    1.0000 </r>
       <r>    9.5463    1.0000 </r>
       <r>   35.5156    0.0000 </r>
       <r>   40.1714    0.0000 </r>
       <r>   40.1717    0.0000 </r>
       <r>   40.1717    0.0000 </r>
       <r>   43.6405    0.0000 </r>
       <r>   43.6406    0.0000 </r>
      </set>
      <set comment="kpoint 2">
       <r>    1.5047    1.0000 </r>
       <r>    8.1218    1.0000 </r>
       <r>    8.2970    1.0000 </r>
       <r>    8.2970    1.0000 </r>
       <r>    9.5159    1.0000 </r>
       <r>    9.5159    1.0000 </r>
       <r>   34.4093    0.0000 </r>
       <r>   37.3796    0.0000 </r>
       <r>   39.6040    0.0000 </r>
       <r>   39.6043    0.0000 </r>
       <r>   44.5395    0.0000 </r>
       <r>   44.5680    0.0000 </r>
      </set>
      <set comment="kpoint 3">
       <r>    2.4954    1.0000 </r>
       <r>    7.9172    1.0000 </r>
       <r>    8.4490    1.0000 </r>
       <r>    8.4491    1.0000 </r>
       <r>    9.5082    1.0000 </r>
       <r>    9.5082    1.0000 </r>
       <r>   30.0765    0.0000 </r>
       <r>   36.3559    0.0000 </r>
       <r>   38.7572    0.0000 </r>
       <r>   38.7575    0.0000 </r>
       <r>   44.4345    0.0000 </r>
       <r>   45.2410    0.0000 </r>
      </set>
      <set comment="kpoint 4">
       <r>    3.9057    1.0000 </r>
       <r>    7.8630    1.0000 </r>
       <r>    8.4529    1.0000 </r>
       <r>    8.4530    1.0000 </r>
       <r>    9.7091    1.0000 </r>
       <r>    9.7093    1.0000 </r>
       <r>   25.2823    0.0000 </r>
       <r>   35.4938    0.0000 </r>
       <r>   38.0703    0.0000 </r>
       <r>   38.0706    0.0000 </r>
       <r>   43.4611    0.0000 </r>
       <r>   43.4613    0.0000 </r>
      </set>
      <set comment="kpoint 5">
       <r>    5.0743    1.0000 </r>
       <r>    8.3255    1.0000 </r>
       <r>    8.3256    1.0000 </r>
       <r>    8.5780    1.0000 </r>
       <r>   10.0589    1.0000 </r>
       <r>   10.0591    1.0000 </r>
       <r>   20.9945    0.0000 </r>
       <r>   34.5816    0.0000 </r>
       <r>   37.6439    0.0000 </r>
       <r>   37.6440    0.0000 </r>
       <r>   41.5955    0.0000 </r>
       <r>   41.5960    0.0000 </r>
      </set>
      <set comment="kpoint 6">
       <r>    5.4597    1.0000 </r>
       <r>    8.2245    1.0000 </r>
       <r>    8.2246    1.0000 </r>
       <r>   10.0783    1.0000 </r>
       <r>   10.3094    1.0002 </r>
       <r>   10.3095    1.0002 </r>
       <r>   17.8746    0.0000 </r>
       <r>   34.0254    0.0000 </r>
       <r>   37.4439    0.0000 </r>
       <r>   37.4440    0.0000 </r>
       <r>   40.5633    0.0000 </r>
       <r>   40.5640    0.0000 </r>
      </set>
      <set comment="kpoint 7">
       <r>    1.6195    1.0000 </r>
       <r>    8.0373    1.0000 </r>
       <r>    8.3578    1.0000 </r>
       <r>    8.3579    1.0000 </r>
       <r>    9.3852    1.0000 </r>
       <r>    9.6140    1.0000 </r>
       <r>   34.8440    0.0000 </r>
       <r>   37.6509    0.0000 </r>
       <r>   37.6510    0.0000 </r>
       <r>   38.2335    0.0000 </r>
       <r>   45.3328    0.0000 </r>
       <r>   46.0605    0.0000 </r>
      </set>
      <set comment="kpoint 8">
       <r>    2.3947    1.0000 </r>
       <r>    7.8281    1.0000 </r>
       <r>    8.5113    1.0000 </r>
       <r>    8.5252    1.0000 </r>
       <r>    9.2648    1.0000 </r>
       <r>    9.6756    1.0000 </r>
       <r>   31.8885    0.0000 </r>
       <r>   35.5229    0.0000 </r>
       <r>   36.1189    0.0000 </r>
       <r>   39.3320    0.0000 </r>
       <r>   43.7404    0.0000 </r>
       <r>   46.1439    0.0000 </r>
      </set>
      <set comment="kpoint 9">
       <r>    3.6839    1.0000 </r>
       <r>    7.6520    1.0000 </r>
       <r>    8.4758    1.0000 </r>
       <r>    8.6039    1.0000 </r>
       <r>    9.4870    1.0000 </r>
       <r>    9.8483    1.0000 </r>
       <r>   27.0581    0.0000 </r>
       <r>   34.6879    0.0000 </r>
       <r>   35.0854    0.0000 </r>
       <r>   39.4101    0.0000 </r>
       <r>   42.7270    0.0000 </r>
       <r>   45.7898    0.0000 </r>
      </set>
      <set comment="kpoint 10">
       <r>    5.0050    1.0000 </r>
       <r>    7.8779    1.0000 </r>
       <r>    8.2710    1.0000 </r>
       <r>    8.5190    1.0000 </r>
       <r>   10.1391    1.0000 </r>
       <r>   10.1393    1.0000 </r>
       <r>   22.5398    0.0000 </r>
       <r>   33.7919    0.0000 </r>
       <r>   34.6303    0.0000 </r>
       <r>   37.5861    0.0000 </r>
       <r>   42.9448    0.0000 </r>
       <r>   44.9872    0.0000 </r>
      </set>
      <set comment="kpoint 11">
       <r>    5.6024    1.0000 </r>
       <r>    8.0800    1.0000 </r>
       <r>    8.3977    1.0000 </r>
       <r>    8.7608    1.0000 </r>
       <r>   10.3407    1.0005 </r>
       <r>   11.2091   -0.0207 </r>
       <r>   18.8242    0.0000 </r>
       <r>   32.9530    0.0000 </r>
       <r>   34.8436    0.0000 </r>
       <r>   36.1428    0.0000 </r>
       <r>   42.8837    0.0000 </r>
       <r>   43.4854    0.0000 </r>
      </set>
      <set comment="kpoint 12">
       <r>    5.6888    1.0000 </r>
       <r>    8.0544    1.0000 </r>
       <r>    8.3457    1.0000 </r>
       <r>    9.1436    1.0000 </r>
       <r>   10.2938    1.0001 </r>
       <r>   11.9110   -0.0000 </r>
       <r>   17.4682    0.0000 </r>
       <r>   32.2994    0.0000 </r>
       <r>   35.6062    0.0000 </r>
       <r>   35.8246    0.0000 </r>
       <r>   42.3888    0.0000 </r>
       <r>   42.9978    0.0000 </r>
      </set>
      <set comment="kpoint 13">
       <r>    5.4994    1.0000 </r>
       <r>    8.1636    1.0000 </r>
       <r>    8.4034    1.0000 </r>
       <r>    8.5297    1.0000 </r>
       <r>    9.9890    1.0000 </r>
       <r>   11.0121    0.0526 </r>
       <r>   19.9317    0.0000 </r>
       <r>   31.9874    0.0000 </r>
       <r>   36.0336    0.0000 </r>
       <r>   37.6052    0.0000 </r>
       <r>   41.7546    0.0000 </r>
       <r>   43.1375    0.0000 </r>
      </set>
      <set comment="kpoint 14">
       <r>    4.6248    1.0000 </r>
       <r>    7.7807    1.0000 </r>
       <r>    8.3471    1.0000 </r>
       <r>    8.5419    1.0000 </r>
       <r>    9.5570    1.0000 </r>
       <r>   10.3002    1.0002 </r>
       <r>   23.9952    0.0000 </r>
       <r>   32.1377    0.0000 </r>
       <r>   37.2553    0.0000 </r>
       <r>   40.1092    0.0000 </r>
       <r>   41.5490    0.0000 </r>
       <r>   42.6744    0.0000 </r>
      </set>
      <set comment="kpoint 15">
       <r>    3.2180    1.0000 </r>
       <r>    7.7416    1.0000 </r>
       <r>    8.4798    1.0000 </r>
       <r>    8.5985    1.0000 </r>
       <r>    9.2751    1.0000 </r>
       <r>    9.8440    1.0000 </r>
       <r>   28.6751    0.0000 </r>
       <r>   32.7565    0.0000 </r>
       <r>   38.7807    0.0000 </r>
       <r>   41.6560    0.0000 </r>
       <r>   41.7507    0.0000 </r>
       <r>   43.1323    0.0000 </r>
      </set>
      <set comment="kpoint 16">
       <r>    2.0676    1.0000 </r>
       <r>    7.9586    1.0000 </r>
       <r>    8.4187    1.0000 </r>
       <r>    8.4290    1.0000 </r>
       <r>    9.3554    1.0000 </r>
       <r>    9.6194    1.0000 </r>
       <r>   32.9892    0.0000 </r>
       <r>   34.3231    0.0000 </r>
       <r>   38.8724    0.0000 </r>
       <r>   41.4238    0.0000 </r>
       <r>   42.6179    0.0000 </r>
       <r>   44.0553    0.0000 </r>
      </set>
      <set comment="kpoint 17">
       <r>    2.9211    1.0000 </r>
       <r>    7.5724    1.0000 </r>
       <r>    8.7630    1.0000 </r>
       <r>    8.7630    1.0000 </r>
       <r>    9.0060    1.0000 </r>
       <r>    9.7858    1.0000 </r>
       <r>   33.7362    0.0000 </r>
       <r>   34.0846    0.0000 </r>
       <r>   34.0847    0.0000 </r>
       <r>   35.0970    0.0000 </r>
       <r>   41.8713    0.0000 </r>
       <r>   49.4092    0.0000 </r>
      </set>
      <set comment="kpoint 18">
       <r>    3.9686    1.0000 </r>
       <r>    7.3153    1.0000 </r>
       <r>    8.5918    1.0000 </r>
       <r>    8.9580    1.0000 </r>
       <r>    9.3759    1.0000 </r>
       <r>    9.9394    1.0000 </r>
       <r>   29.2715    0.0000 </r>
       <r>   32.6408    0.0000 </r>
       <r>   33.2950    0.0000 </r>
       <r>   35.6053    0.0000 </r>
       <r>   40.8359    0.0000 </r>
       <r>   48.7427    0.0000 </r>
      </set>
      <set comment="kpoint 19">
       <r>    5.2107    1.0000 </r>
       <r>    7.2215    1.0000 </r>
       <r>    8.2587    1.0000 </r>
       <r>    8.9525    1.0000 </r>
       <r>   10.1996    1.0000 </r>
       <r>   10.3398    1.0005 </r>
       <r>   24.5835    0.0000 </r>
       <r>   31.6785    0.0000 </r>
       <r>   31.9165    0.0000 </r>
       <r>   35.2723    0.0000 </r>
       <r>   43.2869    0.0000 </r>
       <r>   47.8326    0.0000 </r>
      </set>
      <set comment="kpoint 20">
       <r>    5.9795    1.0000 </r>
       <r>    7.4474    1.0000 </r>
       <r>    8.1439    1.0000 </r>
       <r>    8.8357    1.0000 </r>
       <r>   10.3794    1.0012 </r>
       <r>   11.9235   -0.0000 </r>
       <r>   20.4305    0.0000 </r>
       <r>   29.9863    0.0000 </r>
       <r>   31.9912    0.0000 </r>
       <r>   34.8071    0.0000 </r>
       <r>   46.5080    0.0000 </r>
       <r>   47.2235    0.0000 </r>
      </set>
      <set comment="kpoint 21">
       <r>    6.1845    1.0000 </r>
       <r>    7.5731    1.0000 </r>
       <r>    8.3424    1.0000 </r>
       <r>    8.7395    1.0000 </r>
       <r>   10.3013    1.0002 </r>
       <r>   13.6817   -0.0000 </r>
       <r>   17.6709    0.0000 </r>
       <r>   28.5877    0.0000 </r>
       <r>   32.9183    0.0000 </r>
       <r>   34.7620    0.0000 </r>
       <r>   46.0302    0.0000 </r>
       <r>   46.1387    0.0000 </r>
      </set>
      <set comment="kpoint 22">
       <r>    6.1715    1.0000 </r>
       <r>    7.7295    1.0000 </r>
       <r>    8.1254    1.0000 </r>
       <r>    8.7270    1.0000 </r>
       <r>    9.9593    1.0000 </r>
       <r>   12.7988   -0.0000 </r>
       <r>   19.2935    0.0000 </r>
       <r>   27.7385    0.0000 </r>
       <r>   34.6533    0.0000 </r>
       <r>   35.3277    0.0000 </r>
       <r>   45.2440    0.0000 </r>
       <r>   45.2590    0.0000 </r>
      </set>
      <set comment="kpoint 23">
       <r>    5.6738    1.0000 </r>
       <r>    7.5746    1.0000 </r>
       <r>    8.0235    1.0000 </r>
       <r>    8.8264    1.0000 </r>
       <r>    9.4642    1.0000 </r>
       <r>   11.3631   -0.0016 </r>
       <r>   23.1745    0.0000 </r>
       <r>   27.5165    0.0000 </r>
       <r>   36.5839    0.0000 </r>
       <r>   37.0593    0.0000 </r>
       <r>   43.6582    0.0000 </r>
       <r>   45.0159    0.0000 </r>
      </set>
      <set comment="kpoint 24">
       <r>    4.4297    1.0000 </r>
       <r>    7.5219    1.0000 </r>
       <r>    8.3252    1.0000 </r>
       <r>    8.9432    1.0000 </r>
       <r>    9.0453    1.0000 </r>
       <r>   10.4430    1.0043 </r>
       <r>   27.3858    0.0000 </r>
       <r>   28.2323    0.0000 </r>
       <r>   38.4427    0.0000 </r>
       <r>   39.8675    0.0000 </r>
       <r>   41.5579    0.0000 </r>
       <r>   45.1867    0.0000 </r>
      </set>
      <set comment="kpoint 25">
       <r>    4.6371    1.0000 </r>
       <r>    6.9910    1.0000 </r>
       <r>    8.9104    1.0000 </r>
       <r>    9.3578    1.0000 </r>
       <r>    9.3578    1.0000 </r>
       <r>   10.0140    1.0000 </r>
       <r>   30.8073    0.0000 </r>
       <r>   30.8075    0.0000 </r>
       <r>   30.9543    0.0000 </r>
       <r>   32.8604    0.0000 </r>
       <r>   38.1381    0.0000 </r>
       <r>   53.1351    0.0000 </r>
      </set>
      <set comment="kpoint 26">
       <r>    5.4299    1.0000 </r>
       <r>    6.7791    1.0000 </r>
       <r>    8.8026    1.0000 </r>
       <r>    9.5165    1.0000 </r>
       <r>   10.2218    1.0000 </r>
       <r>   10.3447    1.0005 </r>
       <r>   26.9274    0.0000 </r>
       <r>   28.8324    0.0000 </r>
       <r>   29.7382    0.0000 </r>
       <r>   33.8148    0.0000 </r>
       <r>   38.7319    0.0000 </r>
       <r>   53.0404    0.0000 </r>
      </set>
      <set comment="kpoint 27">
       <r>    6.0520    1.0000 </r>
       <r>    6.7744    1.0000 </r>
       <r>    8.5342    1.0000 </r>
       <r>    9.4367    1.0000 </r>
       <r>   10.4090    1.0022 </r>
       <r>   12.2723   -0.0000 </r>
       <r>   22.6710    0.0000 </r>
       <r>   26.6845    0.0000 </r>
       <r>   29.5507    0.0000 </r>
       <r>   34.0868    0.0000 </r>
       <r>   42.0838    0.0000 </r>
       <r>   51.2909    0.0000 </r>
      </set>
      <set comment="kpoint 28">
       <r>    6.4392    1.0000 </r>
       <r>    6.9462    1.0000 </r>
       <r>    8.2812    1.0000 </r>
       <r>    9.3057    1.0000 </r>
       <r>   10.3340    1.0004 </r>
       <r>   14.8494   -0.0000 </r>
       <r>   18.9731    0.0000 </r>
       <r>   25.0097    0.0000 </r>
       <r>   30.3004    0.0000 </r>
       <r>   34.1778    0.0000 </r>
       <r>   46.5327    0.0000 </r>
       <r>   49.7670    0.0000 </r>
      </set>
      <set comment="kpoint 29">
       <r>    6.7166    1.0000 </r>
       <r>    7.1735    1.0000 </r>
       <r>    7.9415    1.0000 </r>
       <r>    9.1983    1.0000 </r>
       <r>   10.0024    1.0000 </r>
       <r>   15.1334   -0.0000 </r>
       <r>   18.8639    0.0000 </r>
       <r>   23.9525    0.0000 </r>
       <r>   31.9231    0.0000 </r>
       <r>   34.5835    0.0000 </r>
       <r>   48.5465    0.0000 </r>
       <r>   48.6214    0.0000 </r>
      </set>
      <set comment="kpoint 30">
       <r>    6.5865    1.0000 </r>
       <r>    7.5420    1.0000 </r>
       <r>    7.5682    1.0000 </r>
       <r>    9.0999    1.0000 </r>
       <r>    9.6011    1.0000 </r>
       <r>   12.9544   -0.0000 </r>
       <r>   22.1033    0.0000 </r>
       <r>   24.0284    0.0000 </r>
       <r>   34.2734    0.0000 </r>
       <r>   35.4246    0.0000 </r>
       <r>   46.1951    0.0000 </r>
       <r>   47.5284    0.0000 </r>
      </set>
      <set comment="kpoint 31">
       <r>    5.5700    1.0000 </r>
       <r>    6.4853    1.0000 </r>
       <r>   10.0066    1.0000 </r>
       <r>   10.0066    1.0000 </r>
       <r>   10.2291    1.0000 </r>
       <r>   10.3227    1.0003 </r>
       <r>   25.9721    0.0000 </r>
       <r>   28.2972    0.0000 </r>
       <r>   28.2973    0.0000 </r>
       <r>   32.4079    0.0000 </r>
       <r>   36.6955    0.0000 </r>
       <r>   57.5937    0.0000 </r>
      </set>
      <set comment="kpoint 32">
       <r>    5.7650    1.0000 </r>
       <r>    6.3834    1.0000 </r>
       <r>    9.6577    1.0000 </r>
       <r>   10.0349    1.0000 </r>
       <r>   10.4213    1.0028 </r>
       <r>   12.3724   -0.0000 </r>
       <r>   23.7355    0.0000 </r>
       <r>   25.4461    0.0000 </r>
       <r>   27.7771    0.0000 </r>
       <r>   33.2323    0.0000 </r>
       <r>   37.8591    0.0000 </r>
       <r>   55.4251    0.0000 </r>
      </set>
      <set comment="kpoint 33">
       <r>    6.0758    1.0000 </r>
       <r>    6.5055    1.0000 </r>
       <r>    9.0728    1.0000 </r>
       <r>    9.8938    1.0000 </r>
       <r>   10.3910    1.0015 </r>
       <r>   14.9929   -0.0000 </r>
       <r>   21.3080    0.0000 </r>
       <r>   22.5384    0.0000 </r>
       <r>   28.2745    0.0000 </r>
       <r>   33.7082    0.0000 </r>
       <r>   41.5456    0.0000 </r>
       <r>   53.4144    0.0000 </r>
      </set>
      <set comment="kpoint 34">
       <r>    6.4973    1.0000 </r>
       <r>    6.7865    1.0000 </r>
       <r>    8.4029    1.0000 </r>
       <r>    9.6382    1.0000 </r>
       <r>   10.1622    1.0000 </r>
       <r>   17.5902    0.0000 </r>
       <r>   18.0234    0.0000 </r>
       <r>   21.9821    0.0000 </r>
       <r>   29.7229    0.0000 </r>
       <r>   34.0556    0.0000 </r>
       <r>   46.4129    0.0000 </r>
       <r>   51.3309    0.0000 </r>
      </set>
      <set comment="kpoint 35">
       <r>    5.6143    1.0000 </r>
       <r>    6.1976    1.0000 </r>
       <r>   10.3651    1.0008 </r>
       <r>   10.4538    1.0052 </r>
       <r>   10.4538    1.0052 </r>
       <r>   12.8501   -0.0000 </r>
       <r>   21.8529    0.0000 </r>
       <r>   26.8987    0.0000 </r>
       <r>   26.8988    0.0000 </r>
       <r>   32.2792    0.0000 </r>
       <r>   36.2739    0.0000 </r>
       <r>   57.7583    0.0000 </r>
      </set>
      <set comment="kpoint 36">
       <r>    5.7243    1.0000 </r>
       <r>    6.2397    1.0000 </r>
       <r>   10.0161    1.0000 </r>
       <r>   10.2689    1.0001 </r>
       <r>   10.4755    1.0076 </r>
       <r>   14.1473   -0.0000 </r>
       <r>   21.1147    0.0000 </r>
       <r>   24.7828    0.0000 </r>
       <r>   27.0717    0.0000 </r>
       <r>   33.0594    0.0000 </r>
       <r>   37.6401    0.0000 </r>
       <r>   56.3470    0.0000 </r>
      </set>
      <set comment="kpoint 37">
       <r>    3.3251    1.0000 </r>
       <r>    7.5879    1.0000 </r>
       <r>    8.5272    1.0000 </r>
       <r>    8.7760    1.0000 </r>
       <r>    9.1831    1.0000 </r>
       <r>    9.8875    1.0000 </r>
       <r>   30.4373    0.0000 </r>
       <r>   31.1707    0.0000 </r>
       <r>   37.3962    0.0000 </r>
       <r>   37.9165    0.0000 </r>
       <r>   43.2136    0.0000 </r>
       <r>   45.4901    0.0000 </r>
      </set>
      <set comment="kpoint 38">
       <r>    4.6415    1.0000 </r>
       <r>    7.4336    1.0000 </r>
       <r>    8.2818    1.0000 </r>
       <r>    8.8694    1.0000 </r>
       <r>    9.4605    1.0000 </r>
       <r>   10.3913    1.0015 </r>
       <r>   25.9262    0.0000 </r>
       <r>   30.0743    0.0000 </r>
       <r>   35.3033    0.0000 </r>
       <r>   38.6516    0.0000 </r>
       <r>   43.1207    0.0000 </r>
       <r>   44.9390    0.0000 </r>
      </set>
      <set comment="kpoint 39">
       <r>    5.7123    1.0000 </r>
       <r>    7.6859    1.0000 </r>
       <r>    8.0353    1.0000 </r>
       <r>    8.7475    1.0000 </r>
       <r>    9.9631    1.0000 </r>
       <r>   11.3264   -0.0034 </r>
       <r>   21.5717    0.0000 </r>
       <r>   29.8396    0.0000 </r>
       <r>   33.3567    0.0000 </r>
       <r>   37.9487    0.0000 </r>
       <r>   42.7988    0.0000 </r>
       <r>   46.5876    0.0000 </r>
      </set>
      <set comment="kpoint 40">
       <r>    6.0305    1.0000 </r>
       <r>    7.7500    1.0000 </r>
       <r>    8.3925    1.0000 </r>
       <r>    8.6408    1.0000 </r>
       <r>   10.2465    1.0000 </r>
       <r>   12.8351   -0.0000 </r>
       <r>   18.1773    0.0000 </r>
       <r>   30.0617    0.0000 </r>
       <r>   31.9560    0.0000 </r>
       <r>   37.2809    0.0000 </r>
       <r>   42.5367    0.0000 </r>
       <r>   47.0387    0.0000 </r>
      </set>
      <set comment="kpoint 41">
       <r>    4.9746    1.0000 </r>
       <r>    7.0771    1.0000 </r>
       <r>    8.3814    1.0000 </r>
       <r>    9.3580    1.0000 </r>
       <r>    9.5661    1.0000 </r>
       <r>   10.3784    1.0011 </r>
       <r>   28.0070    0.0000 </r>
       <r>   28.5285    0.0000 </r>
       <r>   32.0002    0.0000 </r>
       <r>   36.2662    0.0000 </r>
       <r>   40.3725    0.0000 </r>
       <r>   48.4933    0.0000 </r>
      </set>
      <set comment="kpoint 42">
       <r>    5.9445    1.0000 </r>
       <r>    7.0277    1.0000 </r>
       <r>    8.0894    1.0000 </r>
       <r>    9.3362    1.0000 </r>
       <r>   10.0215    1.0000 </r>
       <r>   11.5493   -0.0000 </r>
       <r>   23.7329    0.0000 </r>
       <r>   27.8393    0.0000 </r>
       <r>   29.8076    0.0000 </r>
       <r>   37.0140    0.0000 </r>
       <r>   42.4964    0.0000 </r>
       <r>   47.2561    0.0000 </r>
      </set>
      <set comment="kpoint 43">
       <r>    6.4270    1.0000 </r>
       <r>    7.1768    1.0000 </r>
       <r>    7.9902    1.0000 </r>
       <r>    9.1655    1.0000 </r>
       <r>   10.2710    1.0001 </r>
       <r>   13.5841   -0.0000 </r>
       <r>   19.7744    0.0000 </r>
       <r>   27.3787    0.0000 </r>
       <r>   28.6761    0.0000 </r>
       <r>   37.1083    0.0000 </r>
       <r>   44.5055    0.0000 </r>
       <r>   48.1621    0.0000 </r>
      </set>
      <set comment="kpoint 44">
       <r>    6.6065    1.0000 </r>
       <r>    7.2384    1.0000 </r>
       <r>    7.9965    1.0000 </r>
       <r>    9.0575    1.0000 </r>
       <r>   10.1980    1.0000 </r>
       <r>   15.0055   -0.0000 </r>
       <r>   17.9502    0.0000 </r>
       <r>   26.2610    0.0000 </r>
       <r>   29.4662    0.0000 </r>
       <r>   37.5655    0.0000 </r>
       <r>   44.0340    0.0000 </r>
       <r>   51.0597    0.0000 </r>
      </set>
      <set comment="kpoint 45">
       <r>    6.5303    1.0000 </r>
       <r>    7.4311    1.0000 </r>
       <r>    7.6582    1.0000 </r>
       <r>    9.1185    1.0000 </r>
       <r>    9.8683    1.0000 </r>
       <r>   13.0599   -0.0000 </r>
       <r>   21.0149    0.0000 </r>
       <r>   25.5965    0.0000 </r>
       <r>   31.0404    0.0000 </r>
       <r>   38.7007    0.0000 </r>
       <r>   42.9644    0.0000 </r>
       <r>   49.4383    0.0000 </r>
      </set>
      <set comment="kpoint 46">
       <r>    5.8111    1.0000 </r>
       <r>    7.2980    1.0000 </r>
       <r>    7.9201    1.0000 </r>
       <r>    9.2392    1.0000 </r>
       <r>    9.4000    1.0000 </r>
       <r>   11.4329   -0.0003 </r>
       <r>   24.8267    0.0000 </r>
       <r>   25.9537    0.0000 </r>
       <r>   33.1038    0.0000 </r>
       <r>   40.5461    0.0000 </r>
       <r>   41.0949    0.0000 </r>
       <r>   46.8935    0.0000 </r>
      </set>
      <set comment="kpoint 47">
       <r>    5.8577    1.0000 </r>
       <r>    6.6231    1.0000 </r>
       <r>    8.8252    1.0000 </r>
       <r>   10.0022    1.0000 </r>
       <r>   10.0533    1.0000 </r>
       <r>   11.6989   -0.0000 </r>
       <r>   25.9245    0.0000 </r>
       <r>   26.0178    0.0000 </r>
       <r>   27.1806    0.0000 </r>
       <r>   35.1656    0.0000 </r>
       <r>   39.0279    0.0000 </r>
       <r>   51.3542    0.0000 </r>
      </set>
      <set comment="kpoint 48">
       <r>    6.2235    1.0000 </r>
       <r>    6.6860    1.0000 </r>
       <r>    8.5366    1.0000 </r>
       <r>    9.7755    1.0000 </r>
       <r>   10.3309    1.0004 </r>
       <r>   13.9604   -0.0000 </r>
       <r>   22.1590    0.0000 </r>
       <r>   24.3807    0.0000 </r>
       <r>   26.6552    0.0000 </r>
       <r>   36.1889    0.0000 </r>
       <r>   41.9532    0.0000 </r>
       <r>   49.5607    0.0000 </r>
      </set>
      <set comment="kpoint 49">
       <r>    6.5897    1.0000 </r>
       <r>    6.8809    1.0000 </r>
       <r>    8.1466    1.0000 </r>
       <r>    9.5249    1.0000 </r>
       <r>   10.2862    1.0001 </r>
       <r>   16.7576    0.0000 </r>
       <r>   18.6693    0.0000 </r>
       <r>   23.0403    0.0000 </r>
       <r>   27.5000    0.0000 </r>
       <r>   36.7724    0.0000 </r>
       <r>   46.2491    0.0000 </r>
       <r>   48.0186    0.0000 </r>
      </set>
      <set comment="kpoint 50">
       <r>    6.9852    1.0000 </r>
       <r>    7.0332    1.0000 </r>
       <r>    7.6781    1.0000 </r>
       <r>    9.3615    1.0000 </r>
       <r>   10.0290    1.0000 </r>
       <r>   15.3926   -0.0000 </r>
       <r>   19.9626    0.0000 </r>
       <r>   22.8236    0.0000 </r>
       <r>   29.0413    0.0000 </r>
       <r>   37.6537    0.0000 </r>
       <r>   45.4848    0.0000 </r>
       <r>   50.6924    0.0000 </r>
      </set>
      <set comment="kpoint 51">
       <r>    5.8612    1.0000 </r>
       <r>    6.3601    1.0000 </r>
       <r>    9.4870    1.0000 </r>
       <r>   10.1680    1.0000 </r>
       <r>   10.4510    1.0050 </r>
       <r>   14.1083   -0.0000 </r>
       <r>   21.9772    0.0000 </r>
       <r>   24.8497    0.0000 </r>
       <r>   25.6607    0.0000 </r>
       <r>   34.6429    0.0000 </r>
       <r>   38.5568    0.0000 </r>
       <r>   53.7152    0.0000 </r>
      </set>
      <set comment="kpoint 52">
       <r>    6.1546    1.0000 </r>
       <r>    6.5673    1.0000 </r>
       <r>    8.8619    1.0000 </r>
       <r>    9.8920    1.0000 </r>
       <r>   10.4485    1.0047 </r>
       <r>   16.0777   -0.0000 </r>
       <r>   20.9878    0.0000 </r>
       <r>   22.0617    0.0000 </r>
       <r>   26.0673    0.0000 </r>
       <r>   35.9524    0.0000 </r>
       <r>   41.7993    0.0000 </r>
       <r>   51.0225    0.0000 </r>
      </set>
      <set comment="kpoint 53">
       <r>    6.5436    1.0000 </r>
       <r>    7.0332    1.0000 </r>
       <r>    7.7770    1.0000 </r>
       <r>    9.6064    1.0000 </r>
       <r>    9.9998    1.0000 </r>
       <r>   13.3882   -0.0000 </r>
       <r>   22.8375    0.0000 </r>
       <r>   24.3233    0.0000 </r>
       <r>   27.5185    0.0000 </r>
       <r>   39.8967    0.0000 </r>
       <r>   42.0456    0.0000 </r>
       <r>   46.7989    0.0000 </r>
      </set>
      <set comment="kpoint 54">
       <r>    6.7971    1.0000 </r>
       <r>    7.1315    1.0000 </r>
       <r>    7.6461    1.0000 </r>
       <r>    9.4191    1.0000 </r>
       <r>   10.2651    1.0001 </r>
       <r>   15.9002   -0.0000 </r>
       <r>   19.5207    0.0000 </r>
       <r>   24.2804    0.0000 </r>
       <r>   25.8569    0.0000 </r>
       <r>   40.5853    0.0000 </r>
       <r>   42.9259    0.0000 </r>
       <r>   48.3706    0.0000 </r>
      </set>
      <set comment="kpoint 55">
       <r>    6.4189    1.0000 </r>
       <r>    6.8655    1.0000 </r>
       <r>    8.1982    1.0000 </r>
       <r>    9.6772    1.0000 </r>
       <r>   10.4484    1.0047 </r>
       <r>   16.3084   -0.0000 </r>
       <r>   21.6919    0.0000 </r>
       <r>   22.3564    0.0000 </r>
       <r>   23.9733    0.0000 </r>
       <r>   39.2433    0.0000 </r>
       <r>   43.1118    0.0000 </r>
       <r>   47.4957    0.0000 </r>
      </set>
      <set comment="kpoint 56">
       <r>    6.6296    1.0000 </r>
       <r>    7.2044    1.0000 </r>
       <r>    7.7143    1.0000 </r>
       <r>    9.4841    1.0000 </r>
       <r>   10.4464    1.0046 </r>
       <r>   18.7050    0.0000 </r>
       <r>   18.7591    0.0000 </r>
       <r>   22.0733    0.0000 </r>
       <r>   24.2730    0.0000 </r>
       <r>   40.8726    0.0000 </r>
       <r>   44.7853    0.0000 </r>
       <r>   46.5708    0.0000 </r>
      </set>
     </set>
     <set comment="spin 2">
      <set comment="kpoint 1">
       <r>    1.1256    1.0000 </r>
       <r>    8.8815    1.0000 </r>
       <r>    8.8815    1.0000 </r>
       <r>    8.8815    1.0000 </r>
       <r>   10.1244    1.0000 </r>
       <r>   10.1244    1.0000 </r>
       <r>   35.3755    0.0000 </r>
       <r>   40.1418    0.0000 </r>
       <r>   40.1420    0.0000 </r>
       <r>   40.1420    0.0000 </r>
       <r>   43.7192    0.0000 </r>
       <r>   43.7194    0.0000 </r>
      </set>
      <set comment="kpoint 2">
       <r>    1.4734    1.0000 </r>
       <r>    8.7762    1.0000 </r>
       <r>    8.9645    1.0000 </r>
       <r>    8.9645    1.0000 </r>
       <r>   10.0921    1.0000 </r>
       <r>   10.0921    1.0000 </r>
       <r>   34.3633    0.0000 </r>
       <r>   37.3212    0.0000 </r>
       <r>   39.6138    0.0000 </r>
       <r>   39.6141    0.0000 </r>
       <r>   44.5055    0.0000 </r>
       <r>   44.5964    0.0000 </r>
      </set>
      <set comment="kpoint 3">
       <r>    2.4702    1.0000 </r>
       <r>    8.5363    1.0000 </r>
       <r>    9.1075    1.0000 </r>
       <r>    9.1076    1.0000 </r>
       <r>   10.0953    1.0000 </r>
       <r>   10.0954    1.0000 </r>
       <r>   30.1516    0.0000 </r>
       <r>   36.2428    0.0000 </r>
       <r>   38.8093    0.0000 </r>
       <r>   38.8096    0.0000 </r>
       <r>   44.3910    0.0000 </r>
       <r>   45.2272    0.0000 </r>
      </set>
      <set comment="kpoint 4">
       <r>    3.9229    1.0000 </r>
       <r>    8.3941    1.0000 </r>
       <r>    9.0723    1.0000 </r>
       <r>    9.0724    1.0000 </r>
       <r>   10.3423    1.0005 </r>
       <r>   10.3424    1.0005 </r>
       <r>   25.4264    0.0000 </r>
       <r>   35.3764    0.0000 </r>
       <r>   38.1483    0.0000 </r>
       <r>   38.1485    0.0000 </r>
       <r>   43.4803    0.0000 </r>
       <r>   43.4805    0.0000 </r>
      </set>
      <set comment="kpoint 5">
       <r>    5.2664    1.0000 </r>
       <r>    8.8618    1.0000 </r>
       <r>    8.9139    1.0000 </r>
       <r>    8.9141    1.0000 </r>
       <r>   10.7324    0.9707 </r>
       <r>   10.7325    0.9704 </r>
       <r>   21.2207    0.0000 </r>
       <r>   34.4555    0.0000 </r>
       <r>   37.7293    0.0000 </r>
       <r>   37.7294    0.0000 </r>
       <r>   41.6258    0.0000 </r>
       <r>   41.6262    0.0000 </r>
      </set>
      <set comment="kpoint 6">
       <r>    5.8203    1.0000 </r>
       <r>    8.7993    1.0000 </r>
       <r>    8.7994    1.0000 </r>
       <r>   10.0777    1.0000 </r>
       <r>   11.0037    0.0694 </r>
       <r>   11.0039    0.0691 </r>
       <r>   18.2210    0.0000 </r>
       <r>   33.8927    0.0000 </r>
       <r>   37.5246    0.0000 </r>
       <r>   37.5246    0.0000 </r>
       <r>   40.6003    0.0000 </r>
       <r>   40.6009    0.0000 </r>
      </set>
      <set comment="kpoint 7">
       <r>    1.5883    1.0000 </r>
       <r>    8.6900    1.0000 </r>
       <r>    9.0268    1.0000 </r>
       <r>    9.0268    1.0000 </r>
       <r>    9.9533    1.0000 </r>
       <r>   10.1939    1.0000 </r>
       <r>   34.7627    0.0000 </r>
       <r>   37.6925    0.0000 </r>
       <r>   37.6927    0.0000 </r>
       <r>   38.1709    0.0000 </r>
       <r>   45.3667    0.0000 </r>
       <r>   46.0447    0.0000 </r>
      </set>
      <set comment="kpoint 8">
       <r>    2.3670    1.0000 </r>
       <r>    8.4595    1.0000 </r>
       <r>    9.1736    1.0000 </r>
       <r>    9.1928    1.0000 </r>
       <r>    9.8328    1.0000 </r>
       <r>   10.2632    1.0001 </r>
       <r>   31.9383    0.0000 </r>
       <r>   35.4640    0.0000 </r>
       <r>   36.1827    0.0000 </r>
       <r>   39.2928    0.0000 </r>
       <r>   43.8248    0.0000 </r>
       <r>   46.2619    0.0000 </r>
      </set>
      <set comment="kpoint 9">
       <r>    3.6800    1.0000 </r>
       <r>    8.2346    1.0000 </r>
       <r>    9.0815    1.0000 </r>
       <r>    9.2435    1.0000 </r>
       <r>   10.1016    1.0000 </r>
       <r>   10.4720    1.0071 </r>
       <r>   27.1757    0.0000 </r>
       <r>   34.6249    0.0000 </r>
       <r>   35.1617    0.0000 </r>
       <r>   39.4548    0.0000 </r>
       <r>   42.7389    0.0000 </r>
       <r>   45.8485    0.0000 </r>
      </set>
      <set comment="kpoint 10">
       <r>    5.1257    1.0000 </r>
       <r>    8.3172    1.0000 </r>
       <r>    8.8517    1.0000 </r>
       <r>    9.1237    1.0000 </r>
       <r>   10.7486    0.9418 </r>
       <r>   10.8064    0.7854 </r>
       <r>   22.7265    0.0000 </r>
       <r>   33.7225    0.0000 </r>
       <r>   34.7089    0.0000 </r>
       <r>   37.6773    0.0000 </r>
       <r>   42.9315    0.0000 </r>
       <r>   45.0038    0.0000 </r>
      </set>
      <set comment="kpoint 11">
       <r>    5.9361    1.0000 </r>
       <r>    8.5832    1.0000 </r>
       <r>    8.9809    1.0000 </r>
       <r>    9.1308    1.0000 </r>
       <r>   11.0339    0.0166 </r>
       <r>   11.6670   -0.0000 </r>
       <r>   19.1133    0.0000 </r>
       <r>   32.8929    0.0000 </r>
       <r>   34.9186    0.0000 </r>
       <r>   36.2123    0.0000 </r>
       <r>   42.8833    0.0000 </r>
       <r>   43.5151    0.0000 </r>
      </set>
      <set comment="kpoint 12">
       <r>    6.0771    1.0000 </r>
       <r>    8.5792    1.0000 </r>
       <r>    8.9208    1.0000 </r>
       <r>    9.4963    1.0000 </r>
       <r>   10.9915    0.0973 </r>
       <r>   12.2454   -0.0000 </r>
       <r>   17.8321    0.0000 </r>
       <r>   32.2736    0.0000 </r>
       <r>   35.6278    0.0000 </r>
       <r>   35.8990    0.0000 </r>
       <r>   42.4283    0.0000 </r>
       <r>   43.0048    0.0000 </r>
      </set>
      <set comment="kpoint 13">
       <r>    5.7731    1.0000 </r>
       <r>    8.6797    1.0000 </r>
       <r>    8.8925    1.0000 </r>
       <r>    8.9831    1.0000 </r>
       <r>   10.6710    1.0287 </r>
       <r>   11.5715   -0.0000 </r>
       <r>   20.1823    0.0000 </r>
       <r>   31.9968    0.0000 </r>
       <r>   36.0173    0.0000 </r>
       <r>   37.6849    0.0000 </r>
       <r>   41.7980    0.0000 </r>
       <r>   43.1396    0.0000 </r>
      </set>
      <set comment="kpoint 14">
       <r>    4.6834    1.0000 </r>
       <r>    8.2864    1.0000 </r>
       <r>    8.9327    1.0000 </r>
       <r>    9.1448    1.0000 </r>
       <r>   10.2037    1.0000 </r>
       <r>   10.9378    0.2621 </r>
       <r>   24.1578    0.0000 </r>
       <r>   32.1671    0.0000 </r>
       <r>   37.2211    0.0000 </r>
       <r>   40.1878    0.0000 </r>
       <r>   41.5937    0.0000 </r>
       <r>   42.6524    0.0000 </r>
      </set>
      <set comment="kpoint 15">
       <r>    3.2012    1.0000 </r>
       <r>    8.3458    1.0000 </r>
       <r>    9.1042    1.0000 </r>
       <r>    9.2585    1.0000 </r>
       <r>    9.8567    1.0000 </r>
       <r>   10.4616    1.0060 </r>
       <r>   28.7720    0.0000 </r>
       <r>   32.7856    0.0000 </r>
       <r>   38.7318    0.0000 </r>
       <r>   41.6493    0.0000 </r>
       <r>   41.7122    0.0000 </r>
       <r>   43.2231    0.0000 </r>
      </set>
      <set comment="kpoint 16">
       <r>    2.0382    1.0000 </r>
       <r>    8.5981    1.0000 </r>
       <r>    9.0881    1.0000 </r>
       <r>    9.0927    1.0000 </r>
       <r>    9.9216    1.0000 </r>
       <r>   10.2057    1.0000 </r>
       <r>   33.0081    0.0000 </r>
       <r>   34.3410    0.0000 </r>
       <r>   38.8179    0.0000 </r>
       <r>   41.3907    0.0000 </r>
       <r>   42.5946    0.0000 </r>
       <r>   44.1195    0.0000 </r>
      </set>
      <set comment="kpoint 17">
       <r>    2.8968    1.0000 </r>
       <r>    8.1935    1.0000 </r>
       <r>    9.4439    1.0000 </r>
       <r>    9.4439    1.0000 </r>
       <r>    9.5408    1.0000 </r>
       <r>   10.3713    1.0010 </r>
       <r>   33.7418    0.0000 </r>
       <r>   34.1533    0.0000 </r>
       <r>   34.1534    0.0000 </r>
       <r>   35.0357    0.0000 </r>
       <r>   42.0809    0.0000 </r>
       <r>   49.3385    0.0000 </r>
      </set>
      <set comment="kpoint 18">
       <r>    3.9650    1.0000 </r>
       <r>    7.9124    1.0000 </r>
       <r>    9.1516    1.0000 </r>
       <r>    9.6280    1.0000 </r>
       <r>   10.0050    1.0000 </r>
       <r>   10.5485    1.0207 </r>
       <r>   29.3581    0.0000 </r>
       <r>   32.7125    0.0000 </r>
       <r>   33.2809    0.0000 </r>
       <r>   35.6425    0.0000 </r>
       <r>   41.0016    0.0000 </r>
       <r>   48.6885    0.0000 </r>
      </set>
      <set comment="kpoint 19">
       <r>    5.2933    1.0000 </r>
       <r>    7.7622    1.0000 </r>
       <r>    8.8018    1.0000 </r>
       <r>    9.5831    1.0000 </r>
       <r>   10.8588    0.5843 </r>
       <r>   10.9197    0.3312 </r>
       <r>   24.7238    0.0000 </r>
       <r>   31.6947    0.0000 </r>
       <r>   31.9860    0.0000 </r>
       <r>   35.3464    0.0000 </r>
       <r>   43.3777    0.0000 </r>
       <r>   47.7831    0.0000 </r>
      </set>
      <set comment="kpoint 20">
       <r>    6.2801    1.0000 </r>
       <r>    7.8571    1.0000 </r>
       <r>    8.6858    1.0000 </r>
       <r>    9.4362    1.0000 </r>
       <r>   11.0726   -0.0216 </r>
       <r>   12.3637   -0.0000 </r>
       <r>   20.6419    0.0000 </r>
       <r>   30.0333    0.0000 </r>
       <r>   32.0583    0.0000 </r>
       <r>   34.8581    0.0000 </r>
       <r>   46.5021    0.0000 </r>
       <r>   47.2364    0.0000 </r>
      </set>
      <set comment="kpoint 21">
       <r>    6.6063    1.0000 </r>
       <r>    7.9699    1.0000 </r>
       <r>    8.8482    1.0000 </r>
       <r>    9.3218    1.0000 </r>
       <r>   11.0058    0.0651 </r>
       <r>   13.9562   -0.0000 </r>
       <r>   17.9932    0.0000 </r>
       <r>   28.6575    0.0000 </r>
       <r>   32.9881    0.0000 </r>
       <r>   34.7804    0.0000 </r>
       <r>   46.0516    0.0000 </r>
       <r>   46.1102    0.0000 </r>
      </set>
      <set comment="kpoint 22">
       <r>    6.5307    1.0000 </r>
       <r>    8.1507    1.0000 </r>
       <r>    8.6152    1.0000 </r>
       <r>    9.3013    1.0000 </r>
       <r>   10.6569    1.0331 </r>
       <r>   13.2062   -0.0000 </r>
       <r>   19.5477    0.0000 </r>
       <r>   27.8226    0.0000 </r>
       <r>   34.7299    0.0000 </r>
       <r>   35.3196    0.0000 </r>
       <r>   45.2203    0.0000 </r>
       <r>   45.2752    0.0000 </r>
      </set>
      <set comment="kpoint 23">
       <r>    5.8050    1.0000 </r>
       <r>    8.0910    1.0000 </r>
       <r>    8.5557    1.0000 </r>
       <r>    9.4008    1.0000 </r>
       <r>   10.1455    1.0000 </r>
       <r>   11.9423   -0.0000 </r>
       <r>   23.3464    0.0000 </r>
       <r>   27.6082    0.0000 </r>
       <r>   36.5614    0.0000 </r>
       <r>   37.1378    0.0000 </r>
       <r>   43.5920    0.0000 </r>
       <r>   45.0557    0.0000 </r>
      </set>
      <set comment="kpoint 24">
       <r>    4.4408    1.0000 </r>
       <r>    8.1092    1.0000 </r>
       <r>    8.8982    1.0000 </r>
       <r>    9.5927    1.0000 </r>
       <r>    9.6408    1.0000 </r>
       <r>   11.0751   -0.0231 </r>
       <r>   27.5196    0.0000 </r>
       <r>   28.3021    0.0000 </r>
       <r>   38.4165    0.0000 </r>
       <r>   39.9242    0.0000 </r>
       <r>   41.4773    0.0000 </r>
       <r>   45.2250    0.0000 </r>
      </set>
      <set comment="kpoint 25">
       <r>    4.6713    1.0000 </r>
       <r>    7.5756    1.0000 </r>
       <r>    9.3451    1.0000 </r>
       <r>   10.0624    1.0000 </r>
       <r>   10.0624    1.0000 </r>
       <r>   10.6074    1.0332 </r>
       <r>   30.8716    0.0000 </r>
       <r>   30.8717    0.0000 </r>
       <r>   30.9783    0.0000 </r>
       <r>   32.9354    0.0000 </r>
       <r>   38.3062    0.0000 </r>
       <r>   53.0650    0.0000 </r>
      </set>
      <set comment="kpoint 26">
       <r>    5.5602    1.0000 </r>
       <r>    7.3432    1.0000 </r>
       <r>    9.2685    1.0000 </r>
       <r>   10.1864    1.0000 </r>
       <r>   10.8655    0.5566 </r>
       <r>   10.9136    0.3554 </r>
       <r>   27.0159    0.0000 </r>
       <r>   28.9136    0.0000 </r>
       <r>   29.7937    0.0000 </r>
       <r>   33.8900    0.0000 </r>
       <r>   38.8564    0.0000 </r>
       <r>   53.0061    0.0000 </r>
      </set>
      <set comment="kpoint 27">
       <r>    6.3253    1.0000 </r>
       <r>    7.2908    1.0000 </r>
       <r>    9.0333    1.0000 </r>
       <r>   10.0619    1.0000 </r>
       <r>   11.1038   -0.0337 </r>
       <r>   12.6799   -0.0000 </r>
       <r>   22.8095    0.0000 </r>
       <r>   26.7929    0.0000 </r>
       <r>   29.6024    0.0000 </r>
       <r>   34.1621    0.0000 </r>
       <r>   42.1708    0.0000 </r>
       <r>   51.2865    0.0000 </r>
      </set>
      <set comment="kpoint 28">
       <r>    6.8588    1.0000 </r>
       <r>    7.3625    1.0000 </r>
       <r>    8.8088    1.0000 </r>
       <r>    9.9001    1.0000 </r>
       <r>   11.0512   -0.0042 </r>
       <r>   15.1267   -0.0000 </r>
       <r>   19.1854    0.0000 </r>
       <r>   25.1368    0.0000 </r>
       <r>   30.3577    0.0000 </r>
       <r>   34.2353    0.0000 </r>
       <r>   46.5967    0.0000 </r>
       <r>   49.7688    0.0000 </r>
      </set>
      <set comment="kpoint 29">
       <r>    7.1758    1.0000 </r>
       <r>    7.5344    1.0000 </r>
       <r>    8.4746    1.0000 </r>
       <r>    9.7650    1.0000 </r>
       <r>   10.7277    0.9779 </r>
       <r>   15.4187   -0.0000 </r>
       <r>   19.0982    0.0000 </r>
       <r>   24.0890    0.0000 </r>
       <r>   31.9922    0.0000 </r>
       <r>   34.6144    0.0000 </r>
       <r>   48.4801    0.0000 </r>
       <r>   48.6244    0.0000 </r>
      </set>
      <set comment="kpoint 30">
       <r>    6.8486    1.0000 </r>
       <r>    8.0270    1.0000 </r>
       <r>    8.0866    1.0000 </r>
       <r>    9.6430    1.0000 </r>
       <r>   10.3281    1.0003 </r>
       <r>   13.4026   -0.0000 </r>
       <r>   22.2896    0.0000 </r>
       <r>   24.1540    0.0000 </r>
       <r>   34.3511    0.0000 </r>
       <r>   35.4279    0.0000 </r>
       <r>   46.1123    0.0000 </r>
       <r>   47.5333    0.0000 </r>
      </set>
      <set comment="kpoint 31">
       <r>    5.7945    1.0000 </r>
       <r>    7.0402    1.0000 </r>
       <r>   10.5099    1.0128 </r>
       <r>   10.7433    0.9520 </r>
       <r>   10.7433    0.9520 </r>
       <r>   10.8298    0.7010 </r>
       <r>   26.0932    0.0000 </r>
       <r>   28.3364    0.0000 </r>
       <r>   28.3365    0.0000 </r>
       <r>   32.5242    0.0000 </r>
       <r>   36.8338    0.0000 </r>
       <r>   57.5418    0.0000 </r>
      </set>
      <set comment="kpoint 32">
       <r>    6.0602    1.0000 </r>
       <r>    6.9259    1.0000 </r>
       <r>   10.2198    1.0000 </r>
       <r>   10.6783    1.0254 </r>
       <r>   11.1272   -0.0354 </r>
       <r>   12.6438   -0.0000 </r>
       <r>   23.8944    0.0000 </r>
       <r>   25.5222    0.0000 </r>
       <r>   27.8071    0.0000 </r>
       <r>   33.3343    0.0000 </r>
       <r>   37.9782    0.0000 </r>
       <r>   55.4127    0.0000 </r>
      </set>
      <set comment="kpoint 33">
       <r>    6.4236    1.0000 </r>
       <r>    7.0243    1.0000 </r>
       <r>    9.6226    1.0000 </r>
       <r>   10.4938    1.0101 </r>
       <r>   11.1326   -0.0352 </r>
       <r>   15.2110   -0.0000 </r>
       <r>   21.4509    0.0000 </r>
       <r>   22.7100    0.0000 </r>
       <r>   28.3107    0.0000 </r>
       <r>   33.7992    0.0000 </r>
       <r>   41.6383    0.0000 </r>
       <r>   53.3971    0.0000 </r>
      </set>
      <set comment="kpoint 34">
       <r>    6.9075    1.0000 </r>
       <r>    7.2421    1.0000 </r>
       <r>    8.9394    1.0000 </r>
       <r>   10.2037    1.0000 </r>
       <r>   10.9150    0.3500 </r>
       <r>   17.7886    0.0000 </r>
       <r>   18.2167    0.0000 </r>
       <r>   22.1714    0.0000 </r>
       <r>   29.7761    0.0000 </r>
       <r>   34.1214    0.0000 </r>
       <r>   46.4912    0.0000 </r>
       <r>   51.3126    0.0000 </r>
      </set>
      <set comment="kpoint 35">
       <r>    5.9323    1.0000 </r>
       <r>    6.7361    1.0000 </r>
       <r>   10.9696    0.1566 </r>
       <r>   11.2179   -0.0188 </r>
       <r>   11.2179   -0.0188 </r>
       <r>   12.8564   -0.0000 </r>
       <r>   22.0702    0.0000 </r>
       <r>   26.9128    0.0000 </r>
       <r>   26.9129    0.0000 </r>
       <r>   32.4115    0.0000 </r>
       <r>   36.4113    0.0000 </r>
       <r>   57.7554    0.0000 </r>
      </set>
      <set comment="kpoint 36">
       <r>    6.0556    1.0000 </r>
       <r>    6.7748    1.0000 </r>
       <r>   10.6583    1.0328 </r>
       <r>   10.8681    0.5454 </r>
       <r>   11.2423   -0.0138 </r>
       <r>   14.2419   -0.0000 </r>
       <r>   21.3561    0.0000 </r>
       <r>   24.8422    0.0000 </r>
       <r>   27.0886    0.0000 </r>
       <r>   33.1712    0.0000 </r>
       <r>   37.7617    0.0000 </r>
       <r>   56.3305    0.0000 </r>
      </set>
      <set comment="kpoint 37">
       <r>    3.3069    1.0000 </r>
       <r>    8.1989    1.0000 </r>
       <r>    9.1391    1.0000 </r>
       <r>    9.4612    1.0000 </r>
       <r>    9.7510    1.0000 </r>
       <r>   10.5000    1.0111 </r>
       <r>   30.5248    0.0000 </r>
       <r>   31.2145    0.0000 </r>
       <r>   37.3836    0.0000 </r>
       <r>   37.8958    0.0000 </r>
       <r>   43.4004    0.0000 </r>
       <r>   45.4440    0.0000 </r>
      </set>
      <set comment="kpoint 38">
       <r>    4.6692    1.0000 </r>
       <r>    8.0027    1.0000 </r>
       <r>    8.8495    1.0000 </r>
       <r>    9.4955    1.0000 </r>
       <r>   10.0836    1.0000 </r>
       <r>   11.0230    0.0332 </r>
       <r>   26.0572    0.0000 </r>
       <r>   30.1399    0.0000 </r>
       <r>   35.3210    0.0000 </r>
       <r>   38.6723    0.0000 </r>
       <r>   43.1593    0.0000 </r>
       <r>   44.9704    0.0000 </r>
      </set>
      <set comment="kpoint 39">
       <r>    5.9208    1.0000 </r>
       <r>    8.1108    1.0000 </r>
       <r>    8.6013    1.0000 </r>
       <r>    9.3370    1.0000 </r>
       <r>   10.6291    1.0354 </r>
       <r>   11.8735   -0.0000 </r>
       <r>   21.7693    0.0000 </r>
       <r>   29.8977    0.0000 </r>
       <r>   33.4040    0.0000 </r>
       <r>   37.9737    0.0000 </r>
       <r>   42.8114    0.0000 </r>
       <r>   46.5773    0.0000 </r>
      </set>
      <set comment="kpoint 40">
       <r>    6.4216    1.0000 </r>
       <r>    8.1796    1.0000 </r>
       <r>    8.8694    1.0000 </r>
       <r>    9.2160    1.0000 </r>
       <r>   10.9449    0.2368 </r>
       <r>   13.1765   -0.0000 </r>
       <r>   18.4804    0.0000 </r>
       <r>   30.0986    0.0000 </r>
       <r>   32.0366    0.0000 </r>
       <r>   37.2845    0.0000 </r>
       <r>   42.5687    0.0000 </r>
       <r>   47.0197    0.0000 </r>
      </set>
      <set comment="kpoint 41">
       <r>    5.0209    1.0000 </r>
       <r>    7.6556    1.0000 </r>
       <r>    8.9123    1.0000 </r>
       <r>   10.0646    1.0000 </r>
       <r>   10.1233    1.0000 </r>
       <r>   11.0055    0.0657 </r>
       <r>   28.1213    0.0000 </r>
       <r>   28.5880    0.0000 </r>
       <r>   32.0571    0.0000 </r>
       <r>   36.2882    0.0000 </r>
       <r>   40.5088    0.0000 </r>
       <r>   48.4675    0.0000 </r>
      </set>
      <set comment="kpoint 42">
       <r>    6.1192    1.0000 </r>
       <r>    7.5621    1.0000 </r>
       <r>    8.6096    1.0000 </r>
       <r>    9.9461    1.0000 </r>
       <r>   10.6834    1.0226 </r>
       <r>   12.0703   -0.0000 </r>
       <r>   23.8760    0.0000 </r>
       <r>   27.9156    0.0000 </r>
       <r>   29.8932    0.0000 </r>
       <r>   37.0460    0.0000 </r>
       <r>   42.5713    0.0000 </r>
       <r>   47.2713    0.0000 </r>
      </set>
      <set comment="kpoint 43">
       <r>    6.8023    1.0000 </r>
       <r>    7.5948    1.0000 </r>
       <r>    8.5221    1.0000 </r>
       <r>    9.7524    1.0000 </r>
       <r>   10.9783    0.1315 </r>
       <r>   13.9342   -0.0000 </r>
       <r>   19.9854    0.0000 </r>
       <r>   27.4618    0.0000 </r>
       <r>   28.7707    0.0000 </r>
       <r>   37.1332    0.0000 </r>
       <r>   44.5132    0.0000 </r>
       <r>   48.2432    0.0000 </r>
      </set>
      <set comment="kpoint 44">
       <r>    7.0585    1.0000 </r>
       <r>    7.6102    1.0000 </r>
       <r>    8.5256    1.0000 </r>
       <r>    9.6318    1.0000 </r>
       <r>   10.9155    0.3479 </r>
       <r>   15.2590   -0.0000 </r>
       <r>   18.2360    0.0000 </r>
       <r>   26.3626    0.0000 </r>
       <r>   29.5494    0.0000 </r>
       <r>   37.5775    0.0000 </r>
       <r>   44.0405    0.0000 </r>
       <r>   51.0246    0.0000 </r>
      </set>
      <set comment="kpoint 45">
       <r>    6.8318    1.0000 </r>
       <r>    7.8696    1.0000 </r>
       <r>    8.2048    1.0000 </r>
       <r>    9.6826    1.0000 </r>
       <r>   10.5760    1.0270 </r>
       <r>   13.4820   -0.0000 </r>
       <r>   21.2118    0.0000 </r>
       <r>   25.7050    0.0000 </r>
       <r>   31.1126    0.0000 </r>
       <r>   38.7107    0.0000 </r>
       <r>   42.9566    0.0000 </r>
       <r>   49.4998    0.0000 </r>
      </set>
      <set comment="kpoint 46">
       <r>    5.9159    1.0000 </r>
       <r>    7.8608    1.0000 </r>
       <r>    8.4501    1.0000 </r>
       <r>    9.7764    1.0000 </r>
       <r>   10.1141    1.0000 </r>
       <r>   12.0050   -0.0000 </r>
       <r>   24.9852    0.0000 </r>
       <r>   26.0462    0.0000 </r>
       <r>   33.1567    0.0000 </r>
       <r>   40.5710    0.0000 </r>
       <r>   41.0707    0.0000 </r>
       <r>   46.9899    0.0000 </r>
      </set>
      <set comment="kpoint 47">
       <r>    6.0944    1.0000 </r>
       <r>    7.1748    1.0000 </r>
       <r>    9.3215    1.0000 </r>
       <r>   10.6170    1.0345 </r>
       <r>   10.7395    0.9587 </r>
       <r>   12.1437   -0.0000 </r>
       <r>   26.0183    0.0000 </r>
       <r>   26.1223    0.0000 </r>
       <r>   27.2684    0.0000 </r>
       <r>   35.2190    0.0000 </r>
       <r>   39.1459    0.0000 </r>
       <r>   51.3429    0.0000 </r>
      </set>
      <set comment="kpoint 48">
       <r>    6.5483    1.0000 </r>
       <r>    7.2121    1.0000 </r>
       <r>    9.0561    1.0000 </r>
       <r>   10.3666    1.0009 </r>
       <r>   11.0636   -0.0153 </r>
       <r>   14.2644   -0.0000 </r>
       <r>   22.2946    0.0000 </r>
       <r>   24.5223    0.0000 </r>
       <r>   26.7333    0.0000 </r>
       <r>   36.2372    0.0000 </r>
       <r>   42.0437    0.0000 </r>
       <r>   49.5557    0.0000 </r>
      </set>
      <set comment="kpoint 49">
       <r>    6.9797    1.0000 </r>
       <r>    7.3563    1.0000 </r>
       <r>    8.6797    1.0000 </r>
       <r>   10.0929    1.0000 </r>
       <r>   11.0329    0.0180 </r>
       <r>   16.9761    0.0000 </r>
       <r>   18.8706    0.0000 </r>
       <r>   23.1988    0.0000 </r>
       <r>   27.5821    0.0000 </r>
       <r>   36.8098    0.0000 </r>
       <r>   46.2959    0.0000 </r>
       <r>   48.0267    0.0000 </r>
      </set>
      <set comment="kpoint 50">
       <r>    7.3327    1.0000 </r>
       <r>    7.5158    1.0000 </r>
       <r>    8.2135    1.0000 </r>
       <r>    9.9123    1.0000 </r>
       <r>   10.7729    0.8861 </r>
       <r>   15.6828   -0.0000 </r>
       <r>   20.1541    0.0000 </r>
       <r>   22.9750    0.0000 </r>
       <r>   29.1245    0.0000 </r>
       <r>   37.6771    0.0000 </r>
       <r>   45.4530    0.0000 </r>
       <r>   50.7707    0.0000 </r>
      </set>
      <set comment="kpoint 51">
       <r>    6.1887    1.0000 </r>
       <r>    6.8972    1.0000 </r>
       <r>   10.0701    1.0000 </r>
       <r>   10.7599    0.9177 </r>
       <r>   11.2153   -0.0193 </r>
       <r>   14.2919   -0.0000 </r>
       <r>   22.1817    0.0000 </r>
       <r>   24.9341    0.0000 </r>
       <r>   25.7093    0.0000 </r>
       <r>   34.7147    0.0000 </r>
       <r>   38.6764    0.0000 </r>
       <r>   53.6888    0.0000 </r>
      </set>
      <set comment="kpoint 52">
       <r>    6.5057    1.0000 </r>
       <r>    7.0931    1.0000 </r>
       <r>    9.4167    1.0000 </r>
       <r>   10.4686    1.0068 </r>
       <r>   11.2132   -0.0198 </r>
       <r>   16.2532   -0.0000 </r>
       <r>   21.1737    0.0000 </r>
       <r>   22.2161    0.0000 </r>
       <r>   26.1368    0.0000 </r>
       <r>   36.0071    0.0000 </r>
       <r>   41.8967    0.0000 </r>
       <r>   50.9828    0.0000 </r>
      </set>
      <set comment="kpoint 53">
       <r>    6.8170    1.0000 </r>
       <r>    7.5769    1.0000 </r>
       <r>    8.2816    1.0000 </r>
       <r>   10.1576    1.0000 </r>
       <r>   10.7391    0.9595 </r>
       <r>   13.7745   -0.0000 </r>
       <r>   22.9961    0.0000 </r>
       <r>   24.4278    0.0000 </r>
       <r>   27.6222    0.0000 </r>
       <r>   39.8983    0.0000 </r>
       <r>   42.0861    0.0000 </r>
       <r>   46.8733    0.0000 </r>
      </set>
      <set comment="kpoint 54">
       <r>    7.1525    1.0000 </r>
       <r>    7.6332    1.0000 </r>
       <r>    8.1733    1.0000 </r>
       <r>    9.9782    1.0000 </r>
       <r>   11.0117    0.0532 </r>
       <r>   16.1602   -0.0000 </r>
       <r>   19.7184    0.0000 </r>
       <r>   24.4010    0.0000 </r>
       <r>   25.9714    0.0000 </r>
       <r>   40.5904    0.0000 </r>
       <r>   42.9276    0.0000 </r>
       <r>   48.4560    0.0000 </r>
      </set>
      <set comment="kpoint 55">
       <r>    6.7690    1.0000 </r>
       <r>    7.3985    1.0000 </r>
       <r>    8.7292    1.0000 </r>
       <r>   10.2402    1.0000 </r>
[...]
       </set>
       <set comment="band 5">
        <r>  0.0000  0.0032  0.0023  0.0001  0.1757  0.6552  0.0509  0.0111  0.0880 </r>
       </set>
       <set comment="band 6">
        <r>  0.1274  0.0101  0.1355  0.0653  0.0020  0.0017  0.1126  0.3739  0.1063 </r>
       </set>
       <set comment="band 7">
        <r>  0.1577  0.3170  0.0072  0.0400  0.1941  0.1131  0.0144  0.0375  0.0211 </r>
       </set>
       <set comment="band 8">
        <r>  0.1581  0.1767  0.0149  0.1000  0.0725  0.0363  0.0679  0.0549  0.1156 </r>
       </set>
       <set comment="band 9">
        <r>  0.1028  0.0064  0.3012  0.0202  0.0003  0.0042  0.2934  0.0388  0.0050 </r>
       </set>
       <set comment="band 10">
        <r>  0.0107  0.0111  0.0286  0.2773  0.0109  0.0002  0.0207  0.0613  0.0954 </r>
       </set>
       <set comment="band 11">
        <r>  0.0277  0.0523  0.0015  0.0000  0.4149  0.0351  0.0232  0.0542  0.0928 </r>
       </set>
       <set comment="band 12">
        <r>  0.0880  0.0300  0.0697  0.1460  0.0001  0.0386  0.2584  0.0470  0.0852 </r>
       </set>
      </set>
      <set comment="kpoint 46">
       <set comment="band 1">
        <r>  0.3489  0.0000  0.1753  0.0813  0.0000  0.0000  0.0865  0.1500  0.0089 </r>
       </set>
       <set comment="band 2">
        <r>  0.0000  0.0524  0.0000  0.0000  0.7314  0.1774  0.0000  0.0000  0.0000 </r>
       </set>
       <set comment="band 3">
        <r>  0.0058  0.0000  0.0001  0.0116  0.0000  0.0000  0.4280  0.3501  0.1626 </r>
       </set>
       <set comment="band 4">
        <r>  0.0046  0.0000  0.0203  0.0027  0.0000  0.0000  0.3347  0.0121  0.6002 </r>
       </set>
       <set comment="band 5">
        <r>  0.0000  0.0048  0.0000  0.0000  0.2063  0.7728  0.0000  0.0000  0.0000 </r>
       </set>
       <set comment="band 6">
        <r>  0.0790  0.0000  0.0576  0.0274  0.0000  0.0000  0.1197  0.4800  0.2069 </r>
       </set>
       <set comment="band 7">
        <r>  0.0000  0.4590  0.0000  0.0000  0.2830  0.1831  0.0000  0.0000  0.0000 </r>
       </set>
       <set comment="band 8">
        <r>  0.2262  0.0000  0.0441  0.1865  0.0000  0.0000  0.0665  0.1346  0.0833 </r>
       </set>
       <set comment="band 9">
        <r>  0.0787  0.0000  0.2782  0.0002  0.0000  0.0000  0.3527  0.0107  0.0028 </r>
       </set>
       <set comment="band 10">
        <r>  0.0005  0.0000  0.0435  0.3120  0.0000  0.0000  0.0529  0.0067  0.1321 </r>
       </set>
       <set comment="band 11">
        <r>  0.0000  0.1043  0.0000  0.0000  0.4262  0.0441  0.0000  0.0000  0.0000 </r>
       </set>
       <set comment="band 12">
        <r>  0.1513  0.0000  0.1420  0.1091  0.0000  0.0000  0.1873  0.1200  0.2036 </r>
       </set>
      </set>
      <set comment="kpoint 47">
       <set comment="band 1">
        <r>  0.1626  0.1030  0.0000  0.0186  0.0125  0.0000  0.1678  0.0000  0.4089 </r>
       </set>
       <set comment="band 2">
        <r>  0.0000  0.0000  0.0161  0.0000  0.0000  0.0109  0.0000  0.9368  0.0000 </r>
       </set>
       <set comment="band 3">
        <r>  0.0655  0.1396  0.0000  0.0018  0.5196  0.0000  0.1446  0.0000  0.0733 </r>
       </set>
       <set comment="band 4">
        <r>  0.0075  0.0289  0.0000  0.0042  0.0000  0.0000  0.5183  0.0000  0.4235 </r>
       </set>
       <set comment="band 5">
        <r>  0.0000  0.0000  0.0099  0.0000  0.0000  0.9629  0.0000  0.0146  0.0000 </r>
       </set>
       <set comment="band 6">
        <r>  0.0978  0.1869  0.0000  0.0143  0.4556  0.0000  0.1435  0.0000  0.0482 </r>
       </set>
       <set comment="band 7">
        <r>  0.0036  0.0976  0.0000  0.1943  0.0579  0.0000  0.1732  0.0000  0.2625 </r>
       </set>
       <set comment="band 8">
        <r>  0.0000  0.0000  0.5270  0.0000  0.0000  0.0825  0.0000  0.2474  0.0000 </r>
       </set>
       <set comment="band 9">
        <r>  0.2661  0.1447  0.0000  0.2474  0.0292  0.0000  0.0000  0.0000  0.0957 </r>
       </set>
       <set comment="band 10">
        <r>  0.0000  0.0000  0.0989  0.0000  0.0000  0.0216  0.0000  0.7706  0.0000 </r>
       </set>
       <set comment="band 11">
        <r>  0.3051  0.0946  0.0000  0.1764  0.0156  0.0000  0.0171  0.0000  0.1055 </r>
       </set>
       <set comment="band 12">
        <r>  0.0635  0.0006  0.0000  0.0404  0.1036  0.0000  0.0510  0.0000  0.2619 </r>
       </set>
      </set>
      <set comment="kpoint 48">
       <set comment="band 1">
        <r>  0.0677  0.0404  0.0010  0.0309  0.0104  0.0021  0.2469  0.0266  0.4678 </r>
       </set>
       <set comment="band 2">
        <r>  0.0006  0.0000  0.0386  0.0082  0.0039  0.0121  0.0107  0.8685  0.0147 </r>
       </set>
       <set comment="band 3">
        <r>  0.0352  0.1438  0.0003  0.0003  0.6266  0.0383  0.0765  0.0154  0.0106 </r>
       </set>
       <set comment="band 4">
        <r>  0.0000  0.0139  0.0021  0.0053  0.0000  0.1348  0.4817  0.0020  0.3412 </r>
       </set>
       <set comment="band 5">
        <r>  0.0002  0.0003  0.0028  0.0002  0.0867  0.7649  0.0780  0.0103  0.0489 </r>
       </set>
       <set comment="band 6">
        <r>  0.1053  0.3413  0.0057  0.0234  0.2840  0.0308  0.0642  0.0012  0.0615 </r>
       </set>
       <set comment="band 7">
        <r>  0.0822  0.0020  0.3023  0.1442  0.0240  0.0303  0.0476  0.1849  0.0306 </r>
       </set>
       <set comment="band 8">
        <r>  0.1887  0.1798  0.0208  0.0258  0.0206  0.0000  0.1165  0.0273  0.2723 </r>
       </set>
       <set comment="band 9">
        <r>  0.1656  0.0226  0.2246  0.1998  0.0119  0.0151  0.0640  0.0660  0.0093 </r>
       </set>
       <set comment="band 10">
        <r>  0.0542  0.0081  0.0592  0.0485  0.0011  0.0071  0.0002  0.6077  0.0315 </r>
       </set>
       <set comment="band 11">
        <r>  0.1765  0.0309  0.0342  0.2146  0.0023  0.0034  0.0206  0.1371  0.1130 </r>
       </set>
       <set comment="band 12">
        <r>  0.0772  0.0076  0.0021  0.0177  0.2482  0.0039  0.0356  0.0019  0.2133 </r>
       </set>
      </set>
      <set comment="kpoint 49">
       <set comment="band 1">
        <r>  0.0222  0.0090  0.0027  0.0372  0.0046  0.0019  0.3200  0.0729  0.4381 </r>
       </set>
       <set comment="band 2">
        <r>  0.0140  0.0011  0.0695  0.0284  0.0156  0.0109  0.0342  0.7510  0.0213 </r>
       </set>
       <set comment="band 3">
        <r>  0.0064  0.1397  0.0021  0.0005  0.6563  0.0965  0.0118  0.0363  0.0007 </r>
       </set>
       <set comment="band 4">
        <r>  0.0032  0.0031  0.0044  0.0037  0.0010  0.0551  0.5021  0.0004  0.4044 </r>
       </set>
       <set comment="band 5">
        <r>  0.0007  0.0010  0.0001  0.0001  0.1546  0.7773  0.0300  0.0054  0.0226 </r>
       </set>
       <set comment="band 6">
        <r>  0.0177  0.4053  0.0544  0.0582  0.1857  0.0464  0.0514  0.0209  0.0573 </r>
       </set>
       <set comment="band 7">
        <r>  0.1900  0.0543  0.2201  0.0907  0.0496  0.0307  0.0336  0.1967  0.0162 </r>
       </set>
       <set comment="band 8">
        <r>  0.2960  0.1138  0.0000  0.0474  0.0225  0.0044  0.0996  0.0250  0.2369 </r>
       </set>
       <set comment="band 9">
        <r>  0.1279  0.0038  0.2822  0.1396  0.0020  0.0041  0.1568  0.0725  0.0045 </r>
       </set>
       <set comment="band 10">
        <r>  0.0682  0.0037  0.0308  0.1279  0.0002  0.0011  0.0003  0.4052  0.0800 </r>
       </set>
       <set comment="band 11">
        <r>  0.0507  0.0200  0.0349  0.1938  0.0578  0.0068  0.0367  0.2480  0.0313 </r>
       </set>
       <set comment="band 12">
        <r>  0.0901  0.0172  0.0188  0.0157  0.3392  0.0086  0.0015  0.0262  0.1534 </r>
       </set>
      </set>
      <set comment="kpoint 50">
       <set comment="band 1">
        <r>  0.0277  0.0000  0.0932  0.0911  0.0000  0.0000  0.3112  0.1905  0.1834 </r>
       </set>
       <set comment="band 2">
        <r>  0.0415  0.0000  0.0199  0.0005  0.0000  0.0000  0.1349  0.5696  0.1828 </r>
       </set>
       <set comment="band 3">
        <r>  0.0000  0.1167  0.0000  0.0000  0.6858  0.1502  0.0000  0.0000  0.0000 </r>
       </set>
       <set comment="band 4">
        <r>  0.0021  0.0000  0.0120  0.0003  0.0000  0.0000  0.4361  0.0065  0.5193 </r>
       </set>
       <set comment="band 5">
        <r>  0.0000  0.0031  0.0000  0.0000  0.1961  0.7896  0.0000  0.0000  0.0000 </r>
       </set>
       <set comment="band 6">
        <r>  0.1514  0.0000  0.2144  0.1044  0.0000  0.0000  0.0839  0.2799  0.0661 </r>
       </set>
       <set comment="band 7">
        <r>  0.0000  0.5576  0.0000  0.0000  0.2507  0.1124  0.0000  0.0000  0.0000 </r>
       </set>
       <set comment="band 8">
        <r>  0.3699  0.0000  0.0091  0.0962  0.0000  0.0000  0.0927  0.0498  0.1956 </r>
       </set>
       <set comment="band 9">
        <r>  0.1155  0.0000  0.3002  0.0754  0.0000  0.0000  0.2384  0.0636  0.0040 </r>
       </set>
       <set comment="band 10">
        <r>  0.0478  0.0000  0.0225  0.2032  0.0000  0.0000  0.0063  0.2296  0.1172 </r>
       </set>
       <set comment="band 11">
        <r>  0.0000  0.0601  0.0000  0.0000  0.4725  0.0232  0.0000  0.0000  0.0000 </r>
       </set>
       <set comment="band 12">
        <r>  0.0265  0.0000  0.0004  0.3018  0.0000  0.0000  0.1623  0.3569  0.0230 </r>
       </set>
      </set>
      <set comment="kpoint 51">
       <set comment="band 1">
        <r>  0.0594  0.0097  0.0000  0.0159  0.0007  0.0000  0.2378  0.0000  0.5720 </r>
       </set>
       <set comment="band 2">
        <r>  0.0000  0.0000  0.0170  0.0000  0.0000  0.0011  0.0000  0.9452  0.0000 </r>
       </set>
       <set comment="band 3">
        <r>  0.0102  0.1550  0.0000  0.0008  0.7482  0.0000  0.0408  0.0000  0.0000 </r>
       </set>
       <set comment="band 4">
        <r>  0.0001  0.0087  0.0000  0.0035  0.0215  0.0000  0.6512  0.0000  0.3030 </r>
       </set>
       <set comment="band 5">
        <r>  0.0000  0.0000  0.0017  0.0000  0.0000  0.9910  0.0000  0.0016  0.0000 </r>
       </set>
       <set comment="band 6">
        <r>  0.0482  0.5492  0.0000  0.0045  0.2420  0.0000  0.0191  0.0000  0.0285 </r>
       </set>
       <set comment="band 7">
        <r>  0.2493  0.0756  0.0000  0.0410  0.0066  0.0000  0.1486  0.0000  0.3662 </r>
       </set>
       <set comment="band 8">
        <r>  0.0000  0.0000  0.5891  0.0000  0.0000  0.0108  0.0000  0.2238  0.0000 </r>
       </set>
       <set comment="band 9">
        <r>  0.1979  0.0047  0.0000  0.4597  0.0085  0.0000  0.0483  0.0000  0.0002 </r>
       </set>
       <set comment="band 10">
        <r>  0.0000  0.0000  0.0838  0.0000  0.0000  0.0024  0.0000  0.8788  0.0000 </r>
       </set>
       <set comment="band 11">
        <r>  0.3503  0.0107  0.0000  0.1591  0.0015  0.0000  0.0340  0.0000  0.1976 </r>
       </set>
       <set comment="band 12">
        <r>  0.0229  0.0150  0.0000  0.0118  0.2326  0.0000  0.0177  0.0000  0.0568 </r>
       </set>
      </set>
      <set comment="kpoint 52">
       <set comment="band 1">
        <r>  0.0338  0.0000  0.0019  0.0306  0.0000  0.0000  0.2876  0.0104  0.5359 </r>
       </set>
       <set comment="band 2">
        <r>  0.0012  0.0000  0.0389  0.0062  0.0000  0.0000  0.0030  0.9065  0.0034 </r>
       </set>
       <set comment="band 3">
        <r>  0.0000  0.1678  0.0000  0.0000  0.7277  0.0551  0.0000  0.0000  0.0000 </r>
       </set>
       <set comment="band 4">
        <r>  0.0036  0.0000  0.0011  0.0058  0.0000  0.0000  0.6285  0.0001  0.3433 </r>
       </set>
       <set comment="band 5">
        <r>  0.0000  0.0009  0.0000  0.0000  0.0785  0.9151  0.0000  0.0000  0.0000 </r>
       </set>
       <set comment="band 6">
        <r>  0.0000  0.6177  0.0000  0.0000  0.2447  0.0320  0.0000  0.0000  0.0000 </r>
       </set>
       <set comment="band 7">
        <r>  0.0441  0.0000  0.1604  0.1717  0.0000  0.0000  0.1625  0.0663  0.2556 </r>
       </set>
       <set comment="band 8">
        <r>  0.4072  0.0000  0.1823  0.0143  0.0000  0.0000  0.0148  0.1427  0.0960 </r>
       </set>
       <set comment="band 9">
        <r>  0.1398  0.0000  0.2373  0.2299  0.0000  0.0000  0.0939  0.0666  0.0014 </r>
       </set>
       <set comment="band 10">
        <r>  0.0566  0.0000  0.0565  0.0429  0.0000  0.0000  0.0006  0.6526  0.0417 </r>
       </set>
       <set comment="band 11">
        <r>  0.2094  0.0000  0.0333  0.2025  0.0000  0.0000  0.0239  0.1328  0.1744 </r>
       </set>
       <set comment="band 12">
        <r>  0.0000  0.0319  0.0000  0.0000  0.3696  0.0057  0.0000  0.0000  0.0000 </r>
       </set>
      </set>
      <set comment="kpoint 53">
       <set comment="band 1">
        <r>  0.1034  0.1014  0.0000  0.0634  0.0682  0.0000  0.2519  0.0000  0.2932 </r>
       </set>
       <set comment="band 2">
        <r>  0.0000  0.0000  0.0598  0.0000  0.0000  0.0505  0.0000  0.8484  0.0000 </r>
       </set>
       <set comment="band 3">
        <r>  0.0462  0.0688  0.0000  0.0014  0.5741  0.0000  0.2141  0.0000  0.0460 </r>
       </set>
       <set comment="band 4">
        <r>  0.0002  0.0260  0.0000  0.0049  0.0076  0.0000  0.3560  0.0000  0.5811 </r>
       </set>
       <set comment="band 5">
        <r>  0.0000  0.0000  0.0073  0.0000  0.0000  0.9131  0.0000  0.0673  0.0000 </r>
       </set>
       <set comment="band 6">
        <r>  0.1349  0.2105  0.0000  0.0407  0.3650  0.0000  0.1392  0.0000  0.0417 </r>
       </set>
       <set comment="band 7">
        <r>  0.0000  0.0000  0.5299  0.0000  0.0000  0.0884  0.0000  0.2934  0.0000 </r>
       </set>
       <set comment="band 8">
        <r>  0.2111  0.0011  0.0000  0.2474  0.0748  0.0000  0.2102  0.0000  0.0225 </r>
       </set>
       <set comment="band 9">
        <r>  0.2144  0.2792  0.0000  0.0028  0.0200  0.0000  0.0411  0.0000  0.2576 </r>
       </set>
       <set comment="band 10">
        <r>  0.0000  0.0000  0.0917  0.0000  0.0000  0.0245  0.0000  0.6127  0.0000 </r>
       </set>
       <set comment="band 11">
        <r>  0.0251  0.0585  0.0000  0.3512  0.0211  0.0000  0.0329  0.0000  0.0000 </r>
       </set>
       <set comment="band 12">
        <r>  0.2207  0.0086  0.0000  0.0264  0.2462  0.0000  0.0321  0.0000  0.4430 </r>
       </set>
      </set>
      <set comment="kpoint 54">
       <set comment="band 1">
        <r>  0.0154  0.0347  0.0004  0.0696  0.0222  0.0022  0.4738  0.0176  0.2638 </r>
       </set>
       <set comment="band 2">
        <r>  0.0255  0.0191  0.0648  0.0039  0.1945  0.0442  0.0545  0.5394  0.0030 </r>
       </set>
       <set comment="band 3">
        <r>  0.0139  0.0745  0.0279  0.0028  0.5372  0.0001  0.0333  0.2633  0.0003 </r>
       </set>
       <set comment="band 4">
        <r>  0.0047  0.0114  0.0017  0.0010  0.0064  0.0464  0.2778  0.0003  0.6253 </r>
       </set>
       <set comment="band 5">
        <r>  0.0010  0.0000  0.0028  0.0000  0.0262  0.8696  0.0129  0.0508  0.0277 </r>
       </set>
       <set comment="band 6">
        <r>  0.0976  0.3067  0.0217  0.0734  0.2486  0.0059  0.0978  0.0050  0.0440 </r>
       </set>
       <set comment="band 7">
        <r>  0.1532  0.0039  0.3656  0.0344  0.0269  0.0473  0.0341  0.2299  0.0020 </r>
       </set>
       <set comment="band 8">
        <r>  0.0827  0.0117  0.1449  0.1617  0.0413  0.0054  0.2727  0.0638  0.0328 </r>
       </set>
       <set comment="band 9">
        <r>  0.3217  0.2306  0.0288  0.0105  0.0313  0.0060  0.0063  0.0010  0.1833 </r>
       </set>
       <set comment="band 10">
        <r>  0.0027  0.0216  0.0390  0.1870  0.0435  0.0026  0.0069  0.2406  0.0034 </r>
       </set>
       <set comment="band 11">
        <r>  0.0199  0.0191  0.0216  0.0511  0.2047  0.0115  0.0445  0.2773  0.0609 </r>
       </set>
       <set comment="band 12">
        <r>  0.1350  0.0005  0.0140  0.2072  0.1942  0.0001  0.0001  0.0722  0.2513 </r>
       </set>
      </set>
      <set comment="kpoint 55">
       <set comment="band 1">
        <r>  0.0208  0.0083  0.0000  0.0537  0.0022  0.0000  0.3891  0.0000  0.4246 </r>
       </set>
       <set comment="band 2">
        <r>  0.0000  0.0000  0.0630  0.0000  0.0000  0.0050  0.0000  0.8895  0.0000 </r>
       </set>
       <set comment="band 3">
        <r>  0.0116  0.1420  0.0000  0.0000  0.7719  0.0000  0.0238  0.0000  0.0000 </r>
       </set>
       <set comment="band 4">
        <r>  0.0078  0.0057  0.0000  0.0045  0.0097  0.0000  0.4756  0.0000  0.4734 </r>
       </set>
       <set comment="band 5">
        <r>  0.0000  0.0000  0.0015  0.0000  0.0000  0.9851  0.0000  0.0075  0.0000 </r>
       </set>
       <set comment="band 6">
        <r>  0.0616  0.4816  0.0000  0.0204  0.2744  0.0000  0.0335  0.0000  0.0306 </r>
       </set>
       <set comment="band 7">
        <r>  0.0000  0.0000  0.5773  0.0000  0.0000  0.0121  0.0000  0.3038  0.0000 </r>
       </set>
       <set comment="band 8">
        <r>  0.0404  0.0806  0.0000  0.2024  0.0330  0.0000  0.2516  0.0000  0.2368 </r>
       </set>
       <set comment="band 9">
        <r>  0.5454  0.0332  0.0000  0.1085  0.0001  0.0000  0.0561  0.0000  0.0420 </r>
       </set>
       <set comment="band 10">
        <r>  0.0000  0.0000  0.0870  0.0000  0.0000  0.0028  0.0000  0.6997  0.0000 </r>
       </set>
       <set comment="band 11">
        <r>  0.1395  0.0138  0.0000  0.3534  0.0051  0.0000  0.0185  0.0000  0.1475 </r>
       </set>
       <set comment="band 12">
        <r>  0.0605  0.0281  0.0000  0.0004  0.4189  0.0000  0.0100  0.0000  0.1153 </r>
       </set>
      </set>
      <set comment="kpoint 56">
       <set comment="band 1">
        <r>  0.0015  0.0000  0.0036  0.0675  0.0000  0.0000  0.5355  0.0003  0.2930 </r>
       </set>
       <set comment="band 2">
        <r>  0.0084  0.0000  0.0914  0.0024  0.0000  0.0000  0.0003  0.8480  0.0030 </r>
       </set>
       <set comment="band 3">
        <r>  0.0000  0.1227  0.0000  0.0000  0.8141  0.0155  0.0000  0.0000  0.0000 </r>
       </set>
       <set comment="band 4">
        <r>  0.0157  0.0000  0.0022  0.0006  0.0000  0.0000  0.3367  0.0032  0.6155 </r>
       </set>
       <set comment="band 5">
        <r>  0.0000  0.0013  0.0000  0.0000  0.0232  0.9697  0.0000  0.0000  0.0000 </r>
       </set>
       <set comment="band 6">
        <r>  0.0000  0.5941  0.0000  0.0000  0.2928  0.0170  0.0000  0.0000  0.0000 </r>
       </set>
       <set comment="band 7">
        <r>  0.0613  0.0000  0.4043  0.0768  0.0000  0.0000  0.0806  0.2392  0.0220 </r>
       </set>
       <set comment="band 8">
        <r>  0.2221  0.0000  0.0259  0.1570  0.0000  0.0000  0.1827  0.0379  0.2146 </r>
       </set>
       <set comment="band 9">
        <r>  0.4005  0.0000  0.1525  0.0624  0.0000  0.0000  0.1411  0.0405  0.0138 </r>
       </set>
       <set comment="band 10">
        <r>  0.0153  0.0000  0.0562  0.0935  0.0000  0.0000  0.0000  0.4706  0.0406 </r>
       </set>
       <set comment="band 11">
        <r>  0.0000  0.0597  0.0000  0.0000  0.5404  0.0032  0.0000  0.0000  0.0000 </r>
       </set>
       <set comment="band 12">
        <r>  0.0250  0.0000  0.0134  0.3832  0.0000  0.0000  0.0478  0.1596  0.0602 </r>
       </set>
      </set>
     </set>
    </set>
   </array>
  </projected>
 </calculation>
 <structure name="finalpos" >
  <crystal>
   <varray name="basis" >
    <v>       1.70000000       1.70000000       0.00000000 </v>
    <v>       0.00000000       1.70000000       1.70000000 </v>
    <v>       1.70000000       0.00000000       1.70000000 </v>
   </varray>
   <i name="volume">      9.82600000 </i>
   <varray name="rec_basis" >
    <v>       0.29411765       0.29411765      -0.29411765 </v>
    <v>      -0.29411765       0.29411765       0.29411765 </v>
    <v>       0.29411765      -0.29411765       0.29411765 </v>
   </varray>
  </crystal>
  <varray name="positions" >
   <v>       0.00000000       0.00000000       0.00000000 </v>
  </varray>
 </structure>
</modeling>
