clean (100) nickel surface              
   3.53000000000000     
     0.500000    0.500000    0.000000
    -0.500000    0.500000    0.000000
     0.000000    0.000000    5.000000
   Ni
     5
Direct
  0.000000  0.000000  0.000000
  0.500000  0.500000  0.100000
  0.000000  0.000000  0.200000
  0.500000  0.500000  0.300210
  0.000000  0.000000  0.395507
 
   20   20  144
  1533.7      1434.5      1171.5      830.22      504.53      259.53      116.42      57.464      41.656      34.972    
  33.003      34.972      41.656      57.464      116.42      259.53      504.53      830.22      1171.5      1434.5    
  1434.5      1341.7      1095.5      775.55      470.20      241.22      108.75      55.271      40.801      34.302    
  32.390      34.302      40.801      55.271      108.75      241.22      470.20      775.55      1095.5      1341.7    
  1171.5      1095.5      893.31      630.03      379.15      193.31      89.304      49.901      38.376      32.435    
  30.694      32.435      38.376      49.901      89.304      193.31      379.15      630.03      893.31      1095.5    
  830.22      775.55      630.03      440.70      262.08      133.78      66.775      43.793      34.790      29.753    
  28.281      29.753      34.790      43.793      66.775      133.78      262.08      440.70      630.03      775.55    
  504.53      470.20      379.15      262.08      154.94      82.892      49.560      37.888      30.658      26.744    
  25.600      26.744      30.658      37.888      49.560      82.892      154.94      262.08      379.15      470.20    
  259.53      241.22      193.31      133.78      82.892      52.555      39.727      31.960      26.639      23.855    
  23.037      23.855      26.639      31.960      39.727      52.555      82.892      133.78      193.31      241.22    
  116.42      108.75      89.304      66.775      49.560      39.727      32.476      26.851      23.244      21.384    
  20.830      21.384      23.244      26.851      32.476      39.727      49.560      66.775      89.304      108.75    
  57.464      55.271      49.901      43.793      37.888      31.960      26.851      23.090      20.712      19.463    
  19.081      19.463      20.712      23.090      26.851      31.960      37.888      43.793      49.901      55.271    
  41.656      40.801      38.376      34.790      30.658      26.639      23.244      20.712      19.041      18.112    
  17.816      18.112      19.041      20.712      23.244      26.639      30.658      34.790      38.376      40.801    
  34.972      34.302      32.435      29.753      26.744      23.855      21.384      19.463      18.112      17.311    
  17.046      17.311      18.112      19.463      21.384      23.855      26.744      29.753      32.435      34.302    
  33.003      32.390      30.694      28.281      25.600      23.037      20.830      19.081      17.816      17.046    
  16.786      17.046      17.816      19.081      20.830      23.037      25.600      28.281      30.694      32.390    
  34.972      34.302      32.435      29.753      26.744      23.855      21.384      19.463      18.112      17.311    
  17.046      17.311      18.112      19.463      21.384      23.855      26.744      29.753      32.435      34.302    
  41.656      40.801      38.376      34.790      30.658      26.639      23.244      20.712      19.041      18.112    
  17.816      18.112      19.041      20.712      23.244      26.639      30.658      34.790      38.376      40.801    
  57.464      55.271      49.901      43.793      37.888      31.960      26.851      23.090      20.712      19.463    
  19.081      19.463      20.712      23.090      26.851      31.960      37.888      43.793      49.901      55.271    
  116.42      108.75      89.304      66.775      49.560      39.727      32.476      26.851      23.244      21.384    
  20.830      21.384      23.244      26.851      32.476      39.727      49.560      66.775      89.304      108.75    
  259.53      241.22      193.31      133.78      82.892      52.555      39.727      31.960      26.639      23.855    
  23.037      23.855      26.639      31.960      39.727      52.555      82.892      133.78      193.31      241.22    
  504.53      470.20      379.15      262.08      154.94      82.892      49.560      37.888      30.658      26.744    
  25.600      26.744      30.658      37.888      49.560      82.892      154.94      262.08      379.15      470.20    
  830.22      775.55      630.03      440.70      262.08      133.78      66.775      43.793      34.790      29.753    
  28.281      29.753      34.790      43.793      66.775      133.78      262.08      440.70      630.03      775.55    
  1171.5      1095.5      893.31      630.03      379.15      193.31      89.304      49.901      38.376      32.435    
  30.694      32.435      38.376      49.901      89.304      193.31      379.15      630.03      893.31      1095.5    
  1434.5      1341.7      1095.5      775.55      470.20      241.22      108.75      55.271      40.801      34.302    
  32.390      34.302      40.801      55.271      108.75      241.22      470.20      775.55      1095.5      1341.7    
  1437.5      1343.8      1095.7      774.38      468.85      240.55      108.79      55.627      41.276      34.853    
  32.968      34.853      41.276      55.627      108.79      240.55      468.85      774.38      1095.7      1343.8    
  1343.8      1256.2      1024.0      722.98      436.75      223.61      101.83      53.705      40.490      34.248    
  32.417      34.248      40.490      53.705      101.83      223.61      436.75      722.98      1024.0      1256.2    
  1095.7      1024.0      833.68      586.39      351.81      179.41      84.269      48.998      38.256      32.556    
  30.890      32.556      38.256      48.998      84.269      179.41      351.81      586.39      833.68      1024.0    
  774.38      722.98      586.39      409.23      243.05      124.82      64.097      43.575      34.942      30.117    
  28.709      30.117      34.942      43.575      64.097      124.82      243.05      409.23      586.39      722.98    
  468.85      436.75      351.81      243.05      144.25      78.640      48.842      38.057      31.109      27.366    
  26.273      27.366      31.109      38.057      48.842      78.640      144.25      243.05      351.81      436.75    
  240.55      223.61      179.41      124.82      78.640      51.530      39.933      32.457      27.367      24.712    
  23.932      24.712      27.367      32.457      39.933      51.530      78.640      124.82      179.41      223.61    
  108.79      101.83      84.269      64.097      48.842      39.933      32.992      27.628      24.197      22.432    
  21.906      22.432      24.197      27.628      32.992      39.933      48.842      64.097      84.269      101.83    
  55.627      53.705      48.998      43.575      38.057      32.457      27.628      24.075      21.830      20.653    
  20.293      20.653      21.830      24.075      27.628      32.457      38.057      43.575      48.998      53.705    
  41.276      40.490      38.256      34.942      31.109      27.367      24.197      21.830      20.268      19.400    
  19.123      19.400      20.268      21.830      24.197      27.367      31.109      34.942      38.256      40.490    
  34.853      34.248      32.556      30.117      27.366      24.712      22.432      20.653      19.400      18.656    
  18.410      18.656      19.400      20.653      22.432      24.712      27.366      30.117      32.556      34.248    
  32.968      32.417      30.890      28.709      26.273      23.932      21.906      20.293      19.123      18.410    
  18.169      18.410      19.123      20.293      21.906      23.932      26.273      28.709      30.890      32.417    
  34.853      34.248      32.556      30.117      27.366      24.712      22.432      20.653      19.400      18.656    
  18.410      18.656      19.400      20.653      22.432      24.712      27.366      30.117      32.556      34.248    
  41.276      40.490      38.256      34.942      31.109      27.367      24.197      21.830      20.268      19.400    
  19.123      19.400      20.268      21.830      24.197      27.367      31.109      34.942      38.256      40.490    
  55.627      53.705      48.998      43.575      38.057      32.457      27.628      24.075      21.830      20.653    
  20.293      20.653      21.830      24.075      27.628      32.457      38.057      43.575      48.998      53.705    
  108.79      101.83      84.269      64.097      48.842      39.933      32.992      27.628      24.197      22.432    
  21.906      22.432      24.197      27.628      32.992      39.933      48.842      64.097      84.269      101.83    
  240.55      223.61      179.41      124.82      78.640      51.530      39.933      32.457      27.367      24.712    
  23.932      24.712      27.367      32.457      39.933      51.530      78.640      124.82      179.41      223.61    
  468.85      436.75      351.81      243.05      144.25      78.640      48.842      38.057      31.109      27.366    
  26.273      27.366      31.109      38.057      48.842      78.640      144.25      243.05      351.81      436.75    
  774.38      722.98      586.39      409.23      243.05      124.82      64.097      43.575      34.942      30.117    
  28.709      30.117      34.942      43.575      64.097      124.82      243.05      409.23      586.39      722.98    
  1095.7      1024.0      833.68      586.39      351.81      179.41      84.269      48.998      38.256      32.556    
  30.890      32.556      38.256      48.998      84.269      179.41      351.81      586.39      833.68      1024.0    
  1343.8      1256.2      1024.0      722.98      436.75      223.61      101.83      53.705      40.490      34.248    
  32.417      34.248      40.490      53.705      101.83      223.61      436.75      722.98      1024.0      1256.2    
  1188.5      1109.2      899.84      630.44      377.43      192.46      89.762      50.886      39.583      33.782    
  32.086      33.782      39.583      50.886      89.762      192.46      377.43      630.44      899.84      1109.2    
  1109.2      1035.1      839.48      587.54      351.10      178.99      84.544      49.536      38.912      33.285    
  31.641      33.285      38.912      49.536      84.544      178.99      351.10      587.54      839.48      1035.1    
  899.84      839.48      679.81      474.09      281.85      144.18      71.541      46.182      37.006      31.892    
  30.400      31.892      37.006      46.182      71.541      144.18      281.85      474.09      679.81      839.48    
  630.44      587.54      474.09      328.49      194.42      102.00      56.957      41.982      34.172      29.867    
  28.611      29.867      34.172      41.982      56.957      102.00      194.42      328.49      474.09      587.54    
  377.43      351.10      281.85      194.42      116.91      67.483      46.123      37.117      30.879      27.556    
  26.584      27.556      30.879      37.117      46.123      67.483      116.91      194.42      281.85      351.10    
  192.46      178.99      144.18      102.00      67.483      48.052      38.939      32.171      27.641      25.288    
  24.594      25.288      27.641      32.171      38.939      48.052      67.483      102.00      144.18      178.99    
  89.762      84.544      71.541      56.957      46.123      38.939      32.689      27.912      24.868      23.297    
  22.826      23.297      24.868      27.912      32.689      38.939      46.123      56.957      71.541      84.544    
  50.886      49.536      46.182      41.982      37.117      32.171      27.912      24.768      22.765      21.702    
  21.375      21.702      22.765      24.768      27.912      32.171      37.117      41.982      46.182      49.536    
  39.583      38.912      37.006      34.172      30.879      27.641      24.868      22.765      21.349      20.548    
  20.290      20.548      21.349      22.765      24.868      27.641      30.879      34.172      37.006      38.912    
  33.782      33.285      31.892      29.867      27.556      25.288      23.297      21.702      20.548      19.848    
  19.613      19.848      20.548      21.702      23.297      25.288      27.556      29.867      31.892      33.285    
  32.086      31.641      30.400      28.611      26.584      24.594      22.826      21.375      20.290      19.613    
  19.381      19.613      20.290      21.375      22.826      24.594      26.584      28.611      30.400      31.641    
  33.782      33.285      31.892      29.867      27.556      25.288      23.297      21.702      20.548      19.848    
  19.613      19.848      20.548      21.702      23.297      25.288      27.556      29.867      31.892      33.285    
  39.583      38.912      37.006      34.172      30.879      27.641      24.868      22.765      21.349      20.548    
  20.290      20.548      21.349      22.765      24.868      27.641      30.879      34.172      37.006      38.912    
  50.886      49.536      46.182      41.982      37.117      32.171      27.912      24.768      22.765      21.702    
  21.375      21.702      22.765      24.768      27.912      32.171      37.117      41.982      46.182      49.536    
  89.762      84.544      71.541      56.957      46.123      38.939      32.689      27.912      24.868      23.297    
  22.826      23.297      24.868      27.912      32.689      38.939      46.123      56.957      71.541      84.544    
  192.46      178.99      144.18      102.00      67.483      48.052      38.939      32.171      27.641      25.288    
  24.594      25.288      27.641      32.171      38.939      48.052      67.483      102.00      144.18      178.99    
  377.43      351.10      281.85      194.42      116.91      67.483      46.123      37.117      30.879      27.556    
  26.584      27.556      30.879      37.117      46.123      67.483      116.91      194.42      281.85      351.10    
  630.44      587.54      474.09      328.49      194.42      102.00      56.957      41.982      34.172      29.867    
  28.611      29.867      34.172      41.982      56.957      102.00      194.42      328.49      474.09      587.54    
  899.84      839.48      679.81      474.09      281.85      144.18      71.541      46.182      37.006      31.892    
  30.400      31.892      37.006      46.182      71.541      144.18      281.85      474.09      679.81      839.48    
  1109.2      1035.1      839.48      587.54      351.10      178.99      84.544      49.536      38.912      33.285    
  31.641      33.285      38.912      49.536      84.544      178.99      351.10      587.54      839.48      1035.1    
  863.61      803.64      646.22      446.30      263.03      134.62      68.459      45.788      37.072      32.190    
  30.768      32.190      37.072      45.788      68.459      134.62      263.03      446.30      646.22      803.64    
  803.64      747.76      601.05      414.76      244.31      125.63      65.343      44.982      36.551      31.826    
  30.450      31.826      36.551      44.982      65.343      125.63      244.31      414.76      601.05      747.76    
  646.22      601.05      482.46      332.14      195.71      102.78      57.736      42.793      35.067      30.800    
  29.557      30.800      35.067      42.793      57.736      102.78      195.71      332.14      482.46      601.05    
  446.30      414.76      332.14      228.26      135.97      76.103      49.456      39.481      32.857      29.293    
  28.252      29.293      32.857      39.481      49.456      76.103      135.97      228.26      332.14      414.76    
  263.03      244.31      195.71      135.97      85.444      55.519      42.981      35.482      30.279      27.546    
  26.744      27.546      30.279      35.482      42.981      55.519      85.444      135.97      195.71      244.31    
  134.62      125.63      102.78      76.103      55.519      44.299      37.164      31.459      27.729      25.801    
  25.229      25.801      27.729      31.459      37.164      44.299      55.519      76.103      102.78      125.63    
  68.459      65.343      57.736      49.456      42.981      37.164      31.939      28.011      25.524      24.235    
  23.847      24.235      25.524      28.011      31.939      37.164      42.981      49.456      57.736      65.343    
  45.788      44.982      42.793      39.481      35.482      31.459      28.011      25.463      23.828      22.952    
  22.680      22.952      23.828      25.463      28.011      31.459      35.482      39.481      42.793      44.982    
  37.072      36.551      35.067      32.857      30.279      27.729      25.524      23.828      22.669      22.003    
  21.786      22.003      22.669      23.828      25.524      27.729      30.279      32.857      35.067      36.551    
  32.190      31.826      30.800      29.293      27.546      25.801      24.235      22.952      22.003      21.417    
  21.218      21.417      22.003      22.952      24.235      25.801      27.546      29.293      30.800      31.826    
  30.768      30.450      29.557      28.252      26.744      25.229      23.847      22.680      21.786      21.218    
  21.022      21.218      21.786      22.680      23.847      25.229      26.744      28.252      29.557      30.450    
  32.190      31.826      30.800      29.293      27.546      25.801      24.235      22.952      22.003      21.417    
  21.218      21.417      22.003      22.952      24.235      25.801      27.546      29.293      30.800      31.826    
  37.072      36.551      35.067      32.857      30.279      27.729      25.524      23.828      22.669      22.003    
  21.786      22.003      22.669      23.828      25.524      27.729      30.279      32.857      35.067      36.551    
  45.788      44.982      42.793      39.481      35.482      31.459      28.011      25.463      23.828      22.952    
  22.680      22.952      23.828      25.463      28.011      31.459      35.482      39.481      42.793      44.982    
  68.459      65.343      57.736      49.456      42.981      37.164      31.939      28.011      25.524      24.235    
  23.847      24.235      25.524      28.011      31.939      37.164      42.981      49.456      57.736      65.343    
  134.62      125.63      102.78      76.103      55.519      44.299      37.164      31.459      27.729      25.801    
  25.229      25.801      27.729      31.459      37.164      44.299      55.519      76.103      102.78      125.63    
  263.03      244.31      195.71      135.97      85.444      55.519      42.981      35.482      30.279      27.546    
  26.744      27.546      30.279      35.482      42.981      55.519      85.444      135.97      195.71      244.31    
  446.30      414.76      332.14      228.26      135.97      76.103      49.456      39.481      32.857      29.293    
  28.252      29.293      32.857      39.481      49.456      76.103      135.97      228.26      332.14      414.76    
  646.22      601.05      482.46      332.14      195.71      102.78      57.736      42.793      35.067      30.800    
  29.557      30.800      35.067      42.793      57.736      102.78      195.71      332.14      482.46      601.05    
  803.64      747.76      601.05      414.76      244.31      125.63      65.343      44.982      36.551      31.826    
  30.450      31.826      36.551      44.982      65.343      125.63      244.31      414.76      601.05      747.76    
  545.32      505.37      401.61      272.89      159.81      86.251      52.745      41.268      34.297      30.514    
  29.415      30.514      34.297      41.268      52.745      86.251      159.81      272.89      401.61      505.37    
  505.37      468.33      372.14      252.98      148.69      81.476      51.352      40.702      33.939      30.286    
  29.224      30.286      33.939      40.702      51.352      81.476      148.69      252.98      372.14      468.33    
  401.61      372.14      295.75      201.62      120.42      69.689      47.974      39.069      32.922      29.642    
  28.686      29.642      32.922      39.069      47.974      69.689      120.42      201.62      295.75      372.14    
  272.89      252.98      201.62      139.28      87.242      56.709      44.028      36.586      31.412      28.696    
  27.900      28.696      31.412      36.586      44.028      56.709      87.242      139.28      201.62      252.98    
  159.81      148.69      120.42      87.242      61.298      47.256      39.668      33.649      29.667      27.608    
  27.001      27.608      29.667      33.649      39.668      47.256      61.298      87.242      120.42      148.69    
  86.251      81.476      69.689      56.709      47.256      40.849      35.140      30.756      27.971      26.546    
  26.123      26.546      27.971      30.756      35.140      40.849      47.256      56.709      69.689      81.476    
  52.745      51.352      47.974      44.028      39.668      35.140      31.209      28.333      26.547      25.634    
  25.360      25.634      26.547      28.333      31.209      35.140      39.668      44.028      47.974      51.352    
  41.268      40.702      39.069      36.586      33.649      30.756      28.333      26.587      25.499      24.933    
  24.760      24.933      25.499      26.587      28.333      30.756      33.649      36.586      39.069      40.702    
  34.297      33.939      32.922      31.412      29.667      27.971      26.547      25.499      24.820      24.449    
  24.333      24.449      24.820      25.499      26.547      27.971      29.667      31.412      32.922      33.939    
  30.514      30.286      29.642      28.696      27.608      26.546      25.634      24.933      24.449      24.168    
  24.075      24.168      24.449      24.933      25.634      26.546      27.608      28.696      29.642      30.286    
  29.415      29.224      28.686      27.900      27.001      26.123      25.360      24.760      24.333      24.075    
  23.989      24.075      24.333      24.760      25.360      26.123      27.001      27.900      28.686      29.224    
  30.514      30.286      29.642      28.696      27.608      26.546      25.634      24.933      24.449      24.168    
  24.075      24.168      24.449      24.933      25.634      26.546      27.608      28.696      29.642      30.286    
  34.297      33.939      32.922      31.412      29.667      27.971      26.547      25.499      24.820      24.449    
  24.333      24.449      24.820      25.499      26.547      27.971      29.667      31.412      32.922      33.939    
  41.268      40.702      39.069      36.586      33.649      30.756      28.333      26.587      25.499      24.933    
  24.760      24.933      25.499      26.587      28.333      30.756      33.649      36.586      39.069      40.702    
  52.745      51.352      47.974      44.028      39.668      35.140      31.209      28.333      26.547      25.634    
  25.360      25.634      26.547      28.333      31.209      35.140      39.668      44.028      47.974      51.352    
  86.251      81.476      69.689      56.709      47.256      40.849      35.140      30.756      27.971      26.546    
  26.123      26.546      27.971      30.756      35.140      40.849      47.256      56.709      69.689      81.476    
  159.81      148.69      120.42      87.242      61.298      47.256      39.668      33.649      29.667      27.608    
  27.001      27.608      29.667      33.649      39.668      47.256      61.298      87.242      120.42      148.69    
  272.89      252.98      201.62      139.28      87.242      56.709      44.028      36.586      31.412      28.696    
  27.900      28.696      31.412      36.586      44.028      56.709      87.242      139.28      201.62      252.98    
  401.61      372.14      295.75      201.62      120.42      69.689      47.974      39.069      32.922      29.642    
  28.686      29.642      32.922      39.069      47.974      69.689      120.42      201.62      295.75      372.14    
  505.37      468.33      372.14      252.98      148.69      81.476      51.352      40.702      33.939      30.286    
  29.224      30.286      33.939      40.702      51.352      81.476      148.69      252.98      372.14      468.33    
  293.42      270.93      213.56      145.21      89.391      57.282      44.227      36.845      31.740      29.078    
  28.304      29.078      31.740      36.845      44.227      57.282      89.391      145.21      213.56      270.93    
  270.93      250.26      197.58      135.03      84.302      55.479      43.657      36.474      31.543      28.977    
  28.230      28.977      31.543      36.474      43.657      55.479      84.302      135.03      197.58      250.26    
  213.56      197.58      157.06      109.48      71.816      51.173      42.010      35.421      30.994      28.705    
  28.035      28.705      30.994      35.421      42.010      51.173      71.816      109.48      157.06      197.58    
  145.21      135.03      109.48      80.266      58.203      46.497      39.466      33.869      30.219      28.347    
  27.797      28.347      30.219      33.869      39.466      46.497      58.203      80.266      109.48      135.03    
  89.391      84.302      71.816      58.203      48.441      42.051      36.426      32.122      29.404      28.028    
  27.623      28.028      29.404      32.122      36.426      42.051      48.441      58.203      71.816      84.302    
  57.282      55.479      51.173      46.497      42.051      37.452      33.438      30.520      28.745      27.867    
  27.611      27.867      28.745      30.520      33.438      37.452      42.051      46.497      51.173      55.479    
  44.227      43.657      42.010      39.466      36.426      33.438      30.992      29.319      28.366      27.925    
  27.802      27.925      28.366      29.319      30.992      33.438      36.426      39.466      42.010      43.657    
  36.845      36.474      35.421      33.869      32.122      30.520      29.319      28.601      28.274      28.172    
  28.156      28.172      28.274      28.601      29.319      30.520      32.122      33.869      35.421      36.474    
  31.740      31.543      30.994      30.219      29.404      28.745      28.366      28.274      28.366      28.501    
  28.560      28.501      28.366      28.274      28.366      28.745      29.404      30.219      30.994      31.543    
  29.078      28.977      28.705      28.347      28.028      27.867      27.925      28.172      28.501      28.773    
  28.877      28.773      28.501      28.172      27.925      27.867      28.028      28.347      28.705      28.977    
  28.304      28.230      28.035      27.797      27.623      27.611      27.802      28.156      28.560      28.877    
  28.997      28.877      28.560      28.156      27.802      27.611      27.623      27.797      28.035      28.230    
  29.078      28.977      28.705      28.347      28.028      27.867      27.925      28.172      28.501      28.773    
  28.877      28.773      28.501      28.172      27.925      27.867      28.028      28.347      28.705      28.977    
  31.740      31.543      30.994      30.219      29.404      28.745      28.366      28.274      28.366      28.501    
  28.560      28.501      28.366      28.274      28.366      28.745      29.404      30.219      30.994      31.543    
  36.845      36.474      35.421      33.869      32.122      30.520      29.319      28.601      28.274      28.172    
  28.156      28.172      28.274      28.601      29.319      30.520      32.122      33.869      35.421      36.474    
  44.227      43.657      42.010      39.466      36.426      33.438      30.992      29.319      28.366      27.925    
  27.802      27.925      28.366      29.319      30.992      33.438      36.426      39.466      42.010      43.657    
  57.282      55.479      51.173      46.497      42.051      37.452      33.438      30.520      28.745      27.867    
  27.611      27.867      28.745      30.520      33.438      37.452      42.051      46.497      51.173      55.479    
  89.391      84.302      71.816      58.203      48.441      42.051      36.426      32.122      29.404      28.028    
  27.623      28.028      29.404      32.122      36.426      42.051      48.441      58.203      71.816      84.302    
  145.21      135.03      109.48      80.266      58.203      46.497      39.466      33.869      30.219      28.347    
  27.797      28.347      30.219      33.869      39.466      46.497      58.203      80.266      109.48      135.03    
  213.56      197.58      157.06      109.48      71.816      51.173      42.010      35.421      30.994      28.705    
  28.035      28.705      30.994      35.421      42.010      51.173      71.816      109.48      157.06      197.58    
  270.93      250.26      197.58      135.03      84.302      55.479      43.657      36.474      31.543      28.977    
  28.230      28.977      31.543      36.474      43.657      55.479      84.302      135.03      197.58      250.26    
  135.10      125.33      101.20      74.404      54.987      44.862      38.216      33.036      29.725      28.052    
  27.565      28.052      29.725      33.036      38.216      44.862      54.987      74.404      101.20      125.33    
  125.33      116.50      94.734      70.719      53.462      44.312      37.865      32.865      29.683      28.075    
  27.607      28.075      29.683      32.865      37.865      44.312      53.462      70.719      94.734      116.50    