clean (100) nickel surface              
   3.53000000000000     
     0.500000    0.500000    0.000000
    -0.500000    0.500000    0.000000
     0.000000    0.000000    5.000000
   Ni
     5
Direct
  0.000000  0.000000  0.000000
  0.500000  0.500000  0.100000
  0.000000  0.000000  0.200000
  0.500000  0.500000  0.300210
  0.000000  0.000000  0.395507
 
   20   20  144
 0.15336907008E+04 0.14344678136E+04 0.11715114805E+04 0.83022265290E+03 0.50452628218E+03
 0.25953475997E+03 0.11642233030E+03 0.57463661126E+02 0.41656266790E+02 0.34971850393E+02
 0.33002927060E+02 0.34971850393E+02 0.41656266790E+02 0.57463661126E+02 0.11642233030E+03
 0.25953475997E+03 0.50452628218E+03 0.83022265290E+03 0.11715114805E+04 0.14344678136E+04
 0.14344678136E+04 0.13416537490E+04 0.10954604962E+04 0.77554599332E+03 0.47019609032E+03
 0.24121594419E+03 0.10874811490E+03 0.55271131788E+02 0.40800962719E+02 0.34301679731E+02
 0.32390262249E+02 0.34301679731E+02 0.40800962719E+02 0.55271131788E+02 0.10874811490E+03
 0.24121594419E+03 0.47019609032E+03 0.77554599332E+03 0.10954604962E+04 0.13416537490E+04
 0.11715114805E+04 0.10954604962E+04 0.89331109858E+03 0.63003362265E+03 0.37915178271E+03
 0.19330818792E+03 0.89303575270E+02 0.49900679964E+02 0.38375681534E+02 0.32434957565E+02
 0.30693945773E+02 0.32434957565E+02 0.38375681534E+02 0.49900679964E+02 0.89303575270E+02
 0.19330818792E+03 0.37915178271E+03 0.63003362265E+03 0.89331109858E+03 0.10954604962E+04
 0.83022265290E+03 0.77554599332E+03 0.63003362265E+03 0.44069538087E+03 0.26208196446E+03
 0.13378071886E+03 0.66774642348E+02 0.43792641583E+02 0.34790386332E+02 0.29752752418E+02
 0.28280649738E+02 0.29752752418E+02 0.34790386332E+02 0.43792641583E+02 0.66774642348E+02
 0.13378071886E+03 0.26208196446E+03 0.44069538087E+03 0.63003362265E+03 0.77554599332E+03
 0.50452628218E+03 0.47019609032E+03 0.37915178271E+03 0.26208196446E+03 0.15494259383E+03
 0.82891846498E+02 0.49560484483E+02 0.37888470514E+02 0.30658035992E+02 0.26744126213E+02
 0.25600043175E+02 0.26744126213E+02 0.30658035992E+02 0.37888470514E+02 0.49560484483E+02
 0.82891846498E+02 0.15494259383E+03 0.26208196446E+03 0.37915178271E+03 0.47019609032E+03
 0.25953475997E+03 0.24121594419E+03 0.19330818792E+03 0.13378071886E+03 0.82891846498E+02
 0.52555056912E+02 0.39727210786E+02 0.31960439739E+02 0.26638877060E+02 0.23855168321E+02
 0.23036960217E+02 0.23855168321E+02 0.26638877060E+02 0.31960439739E+02 0.39727210786E+02
 0.52555056912E+02 0.82891846498E+02 0.13378071886E+03 0.19330818792E+03 0.24121594419E+03
 0.11642233030E+03 0.10874811490E+03 0.89303575270E+02 0.66774642348E+02 0.49560484483E+02
 0.39727210786E+02 0.32475591378E+02 0.26850883392E+02 0.23243559649E+02 0.21384168961E+02
 0.20830233626E+02 0.21384168961E+02 0.23243559649E+02 0.26850883392E+02 0.32475591378E+02
 0.39727210786E+02 0.49560484483E+02 0.66774642348E+02 0.89303575270E+02 0.10874811490E+03
 0.57463661126E+02 0.55271131788E+02 0.49900679964E+02 0.43792641583E+02 0.37888470514E+02
 0.31960439739E+02 0.26850883392E+02 0.23090155212E+02 0.20712101684E+02 0.19463104510E+02
 0.19080982423E+02 0.19463104510E+02 0.20712101684E+02 0.23090155212E+02 0.26850883392E+02
 0.31960439739E+02 0.37888470514E+02 0.43792641583E+02 0.49900679964E+02 0.55271131788E+02
 0.41656266790E+02 0.40800962719E+02 0.38375681534E+02 0.34790386332E+02 0.30658035992E+02
 0.26638877060E+02 0.23243559649E+02 0.20712101684E+02 0.19040926322E+02 0.18111863670E+02
 0.17815709152E+02 0.18111863670E+02 0.19040926322E+02 0.20712101684E+02 0.23243559649E+02
 0.26638877060E+02 0.30658035992E+02 0.34790386332E+02 0.38375681534E+02 0.40800962719E+02
 0.34971850393E+02 0.34301679731E+02 0.32434957565E+02 0.29752752418E+02 0.26744126213E+02
 0.23855168321E+02 0.21384168961E+02 0.19463104510E+02 0.18111863670E+02 0.17311125163E+02
 0.17045577076E+02 0.17311125163E+02 0.18111863670E+02 0.19463104510E+02 0.21384168961E+02
 0.23855168321E+02 0.26744126213E+02 0.29752752418E+02 0.32434957565E+02 0.34301679731E+02
 0.33002927060E+02 0.32390262249E+02 0.30693945773E+02 0.28280649738E+02 0.25600043175E+02
 0.23036960217E+02 0.20830233626E+02 0.19080982423E+02 0.17815709152E+02 0.17045577076E+02
 0.16786072890E+02 0.17045577076E+02 0.17815709152E+02 0.19080982423E+02 0.20830233626E+02
 0.23036960217E+02 0.25600043175E+02 0.28280649738E+02 0.30693945773E+02 0.32390262249E+02
 0.34971850393E+02 0.34301679731E+02 0.32434957565E+02 0.29752752418E+02 0.26744126213E+02
 0.23855168321E+02 0.21384168961E+02 0.19463104510E+02 0.18111863670E+02 0.17311125163E+02
 0.17045577076E+02 0.17311125163E+02 0.18111863670E+02 0.19463104510E+02 0.21384168961E+02
 0.23855168321E+02 0.26744126213E+02 0.29752752418E+02 0.32434957565E+02 0.34301679731E+02
 0.41656266790E+02 0.40800962719E+02 0.38375681534E+02 0.34790386332E+02 0.30658035992E+02
 0.26638877060E+02 0.23243559649E+02 0.20712101684E+02 0.19040926322E+02 0.18111863670E+02
 0.17815709152E+02 0.18111863670E+02 0.19040926322E+02 0.20712101684E+02 0.23243559649E+02
 0.26638877060E+02 0.30658035992E+02 0.34790386332E+02 0.38375681534E+02 0.40800962719E+02
 0.57463661126E+02 0.55271131788E+02 0.49900679964E+02 0.43792641583E+02 0.37888470514E+02
 0.31960439739E+02 0.26850883392E+02 0.23090155212E+02 0.20712101684E+02 0.19463104510E+02
 0.19080982423E+02 0.19463104510E+02 0.20712101684E+02 0.23090155212E+02 0.26850883392E+02
 0.31960439739E+02 0.37888470514E+02 0.43792641583E+02 0.49900679964E+02 0.55271131788E+02
 0.11642233030E+03 0.10874811490E+03 0.89303575270E+02 0.66774642348E+02 0.49560484483E+02
 0.39727210786E+02 0.32475591378E+02 0.26850883392E+02 0.23243559649E+02 0.21384168961E+02
 0.20830233626E+02 0.21384168961E+02 0.23243559649E+02 0.26850883392E+02 0.32475591378E+02
 0.39727210786E+02 0.49560484483E+02 0.66774642348E+02 0.89303575270E+02 0.10874811490E+03
 0.25953475997E+03 0.24121594419E+03 0.19330818792E+03 0.13378071886E+03 0.82891846498E+02
 0.52555056912E+02 0.39727210786E+02 0.31960439739E+02 0.26638877060E+02 0.23855168321E+02
 0.23036960217E+02 0.23855168321E+02 0.26638877060E+02 0.31960439739E+02 0.39727210786E+02
 0.52555056912E+02 0.82891846498E+02 0.13378071886E+03 0.19330818792E+03 0.24121594419E+03
 0.50452628218E+03 0.47019609032E+03 0.37915178271E+03 0.26208196446E+03 0.15494259383E+03
 0.82891846498E+02 0.49560484483E+02 0.37888470514E+02 0.30658035992E+02 0.26744126213E+02
 0.25600043175E+02 0.26744126213E+02 0.30658035992E+02 0.37888470514E+02 0.49560484483E+02
 0.82891846498E+02 0.15494259383E+03 0.26208196446E+03 0.37915178271E+03 0.47019609032E+03
 0.83022265290E+03 0.77554599332E+03 0.63003362265E+03 0.44069538087E+03 0.26208196446E+03
 0.13378071886E+03 0.66774642348E+02 0.43792641583E+02 0.34790386332E+02 0.29752752418E+02
 0.28280649738E+02 0.29752752418E+02 0.34790386332E+02 0.43792641583E+02 0.66774642348E+02
 0.13378071886E+03 0.26208196446E+03 0.44069538087E+03 0.63003362265E+03 0.77554599332E+03
 0.11715114805E+04 0.10954604962E+04 0.89331109858E+03 0.63003362265E+03 0.37915178271E+03
 0.19330818792E+03 0.89303575270E+02 0.49900679964E+02 0.38375681534E+02 0.32434957565E+02
 0.30693945773E+02 0.32434957565E+02 0.38375681534E+02 0.49900679964E+02 0.89303575270E+02
 0.19330818792E+03 0.37915178271E+03 0.63003362265E+03 0.89331109858E+03 0.10954604962E+04
 0.14344678136E+04 0.13416537490E+04 0.10954604962E+04 0.77554599332E+03 0.47019609032E+03
 0.24121594419E+03 0.10874811490E+03 0.55271131788E+02 0.40800962719E+02 0.34301679731E+02
 0.32390262249E+02 0.34301679731E+02 0.40800962719E+02 0.55271131788E+02 0.10874811490E+03
 0.24121594419E+03 0.47019609032E+03 0.77554599332E+03 0.10954604962E+04 0.13416537490E+04
 0.14374976419E+04 0.13438085438E+04 0.10957277546E+04 0.77437782616E+03 0.46884626087E+03
 0.24055331234E+03 0.10878644667E+03 0.55626956527E+02 0.41276129893E+02 0.34853364851E+02
 0.32967785486E+02 0.34853364851E+02 0.41276129893E+02 0.55626956527E+02 0.10878644667E+03
 0.24055331234E+03 0.46884626087E+03 0.77437782616E+03 0.10957277546E+04 0.13438085438E+04
 0.13438085438E+04 0.12562021872E+04 0.10240348973E+04 0.72297901317E+03 0.43675305377E+03
 0.22360703107E+03 0.10182823775E+03 0.53704972123E+02 0.40489757022E+02 0.34247506909E+02
 0.32417297721E+02 0.34247506909E+02 0.40489757022E+02 0.53704972123E+02 0.10182823775E+03
 0.22360703107E+03 0.43675305377E+03 0.72297901317E+03 0.10240348973E+04 0.12562021872E+04
 0.10957277546E+04 0.10240348973E+04 0.83368252588E+03 0.58638965528E+03 0.35180826440E+03
 0.17941044806E+03 0.84269462534E+02 0.48998230555E+02 0.38255662632E+02 0.32556259357E+02
 0.30889953884E+02 0.32556259357E+02 0.38255662632E+02 0.48998230555E+02 0.84269462534E+02
 0.17941044806E+03 0.35180826440E+03 0.58638965528E+03 0.83368252588E+03 0.10240348973E+04
 0.77437782616E+03 0.72297901317E+03 0.58638965528E+03 0.40922933081E+03 0.24304567374E+03
 0.12482233020E+03 0.64096654271E+02 0.43574701950E+02 0.34942211103E+02 0.30116621971E+02
 0.28708633881E+02 0.30116621971E+02 0.34942211103E+02 0.43574701950E+02 0.64096654271E+02
 0.12482233020E+03 0.24304567374E+03 0.40922933081E+03 0.58638965528E+03 0.72297901317E+03
 0.46884626087E+03 0.43675305377E+03 0.35180826440E+03 0.24304567374E+03 0.14424850332E+03
 0.78640428024E+02 0.48842170815E+02 0.38056899613E+02 0.31108694585E+02 0.27366459404E+02
 0.26273371141E+02 0.27366459404E+02 0.31108694585E+02 0.38056899613E+02 0.48842170815E+02
 0.78640428024E+02 0.14424850332E+03 0.24304567374E+03 0.35180826440E+03 0.43675305377E+03
 0.24055331234E+03 0.22360703107E+03 0.17941044806E+03 0.12482233020E+03 0.78640428024E+02
 0.51529629882E+02 0.39933254954E+02 0.32456634912E+02 0.27366914453E+02 0.24712089582E+02
 0.23931996104E+02 0.24712089582E+02 0.27366914453E+02 0.32456634912E+02 0.39933254954E+02
 0.51529629882E+02 0.78640428024E+02 0.12482233020E+03 0.17941044806E+03 0.22360703107E+03
 0.10878644667E+03 0.10182823775E+03 0.84269462534E+02 0.64096654271E+02 0.48842170815E+02
 0.39933254954E+02 0.32992316600E+02 0.27628015349E+02 0.24197260732E+02 0.22431580217E+02
 0.21905774619E+02 0.22431580217E+02 0.24197260732E+02 0.27628015349E+02 0.32992316600E+02
 0.39933254954E+02 0.48842170815E+02 0.64096654271E+02 0.84269462534E+02 0.10182823775E+03
 0.55626956527E+02 0.53704972123E+02 0.48998230555E+02 0.43574701950E+02 0.38056899613E+02
 0.32456634912E+02 0.27628015349E+02 0.24075117954E+02 0.21830463338E+02 0.20652930691E+02
 0.20292993796E+02 0.20652930691E+02 0.21830463338E+02 0.24075117954E+02 0.27628015349E+02
 0.32456634912E+02 0.38056899613E+02 0.43574701950E+02 0.48998230555E+02 0.53704972123E+02
 0.41276129893E+02 0.40489757022E+02 0.38255662632E+02 0.34942211103E+02 0.31108694585E+02
 0.27366914453E+02 0.24197260732E+02 0.21830463338E+02 0.20267721936E+02 0.19399616966E+02
 0.19123116099E+02 0.19399616966E+02 0.20267721936E+02 0.21830463338E+02 0.24197260732E+02
 0.27366914453E+02 0.31108694585E+02 0.34942211103E+02 0.38255662632E+02 0.40489757022E+02
 0.34853364851E+02 0.34247506909E+02 0.32556259357E+02 0.30116621971E+02 0.27366459404E+02
 0.24712089582E+02 0.22431580217E+02 0.20652930691E+02 0.19399616966E+02 0.18656368456E+02
 0.18409838475E+02 0.18656368456E+02 0.19399616966E+02 0.20652930691E+02 0.22431580217E+02
 0.24712089582E+02 0.27366459404E+02 0.30116621971E+02 0.32556259357E+02 0.34247506909E+02
 0.32967785486E+02 0.32417297721E+02 0.30889953884E+02 0.28708633881E+02 0.26273371141E+02
 0.23931996104E+02 0.21905774619E+02 0.20292993796E+02 0.19123116099E+02 0.18409838475E+02
 0.18169302981E+02 0.18409838475E+02 0.19123116099E+02 0.20292993796E+02 0.21905774619E+02
 0.23931996104E+02 0.26273371141E+02 0.28708633881E+02 0.30889953884E+02 0.32417297721E+02
 0.34853364851E+02 0.34247506909E+02 0.32556259357E+02 0.30116621971E+02 0.27366459404E+02
 0.24712089582E+02 0.22431580217E+02 0.20652930691E+02 0.19399616966E+02 0.18656368456E+02
 0.18409838475E+02 0.18656368456E+02 0.19399616966E+02 0.20652930691E+02 0.22431580217E+02
 0.24712089582E+02 0.27366459404E+02 0.30116621971E+02 0.32556259357E+02 0.34247506909E+02
 0.41276129893E+02 0.40489757022E+02 0.38255662632E+02 0.34942211103E+02 0.31108694585E+02
 0.27366914453E+02 0.24197260732E+02 0.21830463338E+02 0.20267721936E+02 0.19399616966E+02
 0.19123116099E+02 0.19399616966E+02 0.20267721936E+02 0.21830463338E+02 0.24197260732E+02
 0.27366914453E+02 0.31108694585E+02 0.34942211103E+02 0.38255662632E+02 0.40489757022E+02
 0.55626956527E+02 0.53704972123E+02 0.48998230555E+02 0.43574701950E+02 0.38056899613E+02
 0.32456634912E+02 0.27628015349E+02 0.24075117954E+02 0.21830463338E+02 0.20652930691E+02
 0.20292993796E+02 0.20652930691E+02 0.21830463338E+02 0.24075117954E+02 0.27628015349E+02
 0.32456634912E+02 0.38056899613E+02 0.43574701950E+02 0.48998230555E+02 0.53704972123E+02
 0.10878644667E+03 0.10182823775E+03 0.84269462534E+02 0.64096654271E+02 0.48842170815E+02
 0.39933254954E+02 0.32992316600E+02 0.27628015349E+02 0.24197260732E+02 0.22431580217E+02
 0.21905774619E+02 0.22431580217E+02 0.24197260732E+02 0.27628015349E+02 0.32992316600E+02
 0.39933254954E+02 0.48842170815E+02 0.64096654271E+02 0.84269462534E+02 0.10182823775E+03
 0.24055331234E+03 0.22360703107E+03 0.17941044806E+03 0.12482233020E+03 0.78640428024E+02
 0.51529629882E+02 0.39933254954E+02 0.32456634912E+02 0.27366914453E+02 0.24712089582E+02
 0.23931996104E+02 0.24712089582E+02 0.27366914453E+02 0.32456634912E+02 0.39933254954E+02
 0.51529629882E+02 0.78640428024E+02 0.12482233020E+03 0.17941044806E+03 0.22360703107E+03
 0.46884626087E+03 0.43675305377E+03 0.35180826440E+03 0.24304567374E+03 0.14424850332E+03
 0.78640428024E+02 0.48842170815E+02 0.38056899613E+02 0.31108694585E+02 0.27366459404E+02
 0.26273371141E+02 0.27366459404E+02 0.31108694585E+02 0.38056899613E+02 0.48842170815E+02
 0.78640428024E+02 0.14424850332E+03 0.24304567374E+03 0.35180826440E+03 0.43675305377E+03
 0.77437782616E+03 0.72297901317E+03 0.58638965528E+03 0.40922933081E+03 0.24304567374E+03
 0.12482233020E+03 0.64096654271E+02 0.43574701950E+02 0.34942211103E+02 0.30116621971E+02
 0.28708633881E+02 0.30116621971E+02 0.34942211103E+02 0.43574701950E+02 0.64096654271E+02
 0.12482233020E+03 0.24304567374E+03 0.40922933081E+03 0.58638965528E+03 0.72297901317E+03
 0.10957277546E+04 0.10240348973E+04 0.83368252588E+03 0.58638965528E+03 0.35180826440E+03
 0.17941044806E+03 0.84269462534E+02 0.48998230555E+02 0.38255662632E+02 0.32556259357E+02
 0.30889953884E+02 0.32556259357E+02 0.38255662632E+02 0.48998230555E+02 0.84269462534E+02
 0.17941044806E+03 0.35180826440E+03 0.58638965528E+03 0.83368252588E+03 0.10240348973E+04
 0.13438085438E+04 0.12562021872E+04 0.10240348973E+04 0.72297901317E+03 0.43675305377E+03
 0.22360703107E+03 0.10182823775E+03 0.53704972123E+02 0.40489757022E+02 0.34247506909E+02
 0.32417297721E+02 0.34247506909E+02 0.40489757022E+02 0.53704972123E+02 0.10182823775E+03
 0.22360703107E+03 0.43675305377E+03 0.72297901317E+03 0.10240348973E+04 0.12562021872E+04
 0.11884804058E+04 0.11091906245E+04 0.89984071748E+03 0.63044238229E+03 0.37743151495E+03
 0.19246290224E+03 0.89761797687E+02 0.50886337235E+02 0.39582546106E+02 0.33781742560E+02
 0.32086394659E+02 0.33781742560E+02 0.39582546106E+02 0.50886337235E+02 0.89761797687E+02
 0.19246290224E+03 0.37743151495E+03 0.63044238229E+03 0.89984071748E+03 0.11091906245E+04
 0.11091906245E+04 0.10351330858E+04 0.83947740378E+03 0.58754261834E+03 0.35109836361E+03
 0.17899279691E+03 0.84544356961E+02 0.49536340186E+02 0.38912309009E+02 0.33284708576E+02
 0.31641145635E+02 0.33284708576E+02 0.38912309009E+02 0.49536340186E+02 0.84544356961E+02
 0.17899279691E+03 0.35109836361E+03 0.58754261834E+03 0.83947740378E+03 0.10351330858E+04
 0.89984071748E+03 0.83947740378E+03 0.67980509686E+03 0.47409068743E+03 0.28185012974E+03
 0.14417680879E+03 0.71540793907E+02 0.46182372545E+02 0.37006081141E+02 0.31891769879E+02
 0.30400077976E+02 0.31891769879E+02 0.37006081141E+02 0.46182372545E+02 0.71540793907E+02
 0.14417680879E+03 0.28185012974E+03 0.47409068743E+03 0.67980509686E+03 0.83947740378E+03
 0.63044238229E+03 0.58754261834E+03 0.47409068743E+03 0.32848805528E+03 0.19441931593E+03
 0.10200311231E+03 0.56957122593E+02 0.41982307835E+02 0.34171971594E+02 0.29866519951E+02
 0.28610837280E+02 0.29866519951E+02 0.34171971594E+02 0.41982307835E+02 0.56957122593E+02
 0.10200311231E+03 0.19441931593E+03 0.32848805528E+03 0.47409068743E+03 0.58754261834E+03
 0.37743151495E+03 0.35109836361E+03 0.28185012974E+03 0.19441931593E+03 0.11691306341E+03
 0.67483347210E+02 0.46123048748E+02 0.37116669812E+02 0.30878687392E+02 0.27555792089E+02
 0.26583732041E+02 0.27555792089E+02 0.30878687392E+02 0.37116669812E+02 0.46123048748E+02
 0.67483347210E+02 0.11691306341E+03 0.19441931593E+03 0.28185012974E+03 0.35109836361E+03
 0.19246290224E+03 0.17899279691E+03 0.14417680879E+03 0.10200311231E+03 0.67483347210E+02
 0.48051889103E+02 0.38938945748E+02 0.32170679168E+02 0.27641096750E+02 0.25287944592E+02
 0.24594189787E+02 0.25287944592E+02 0.27641096750E+02 0.32170679168E+02 0.38938945748E+02
 0.48051889103E+02 0.67483347210E+02 0.10200311231E+03 0.14417680879E+03 0.17899279691E+03
 0.89761797687E+02 0.84544356961E+02 0.71540793907E+02 0.56957122593E+02 0.46123048748E+02
 0.38938945748E+02 0.32688877751E+02 0.27911769371E+02 0.24868054534E+02 0.23296537730E+02
 0.22825988738E+02 0.23296537730E+02 0.24868054534E+02 0.27911769371E+02 0.32688877751E+02
 0.38938945748E+02 0.46123048748E+02 0.56957122593E+02 0.71540793907E+02 0.84544356961E+02
 0.50886337235E+02 0.49536340186E+02 0.46182372545E+02 0.41982307835E+02 0.37116669812E+02
 0.32170679168E+02 0.27911769371E+02 0.24767617629E+02 0.22764742664E+02 0.21702233109E+02
 0.21374671997E+02 0.21702233109E+02 0.22764742664E+02 0.24767617629E+02 0.27911769371E+02
 0.32170679168E+02 0.37116669812E+02 0.41982307835E+02 0.46182372545E+02 0.49536340186E+02
 0.39582546106E+02 0.38912309009E+02 0.37006081141E+02 0.34171971594E+02 0.30878687392E+02
 0.27641096750E+02 0.24868054534E+02 0.22764742664E+02 0.21349057212E+02 0.20547915354E+02
 0.20289764078E+02 0.20547915354E+02 0.21349057212E+02 0.22764742664E+02 0.24868054534E+02
 0.27641096750E+02 0.30878687392E+02 0.34171971594E+02 0.37006081141E+02 0.38912309009E+02
 0.33781742560E+02 0.33284708576E+02 0.31891769879E+02 0.29866519951E+02 0.27555792089E+02
 0.25287944592E+02 0.23296537730E+02 0.21702233109E+02 0.20547915354E+02 0.19847751199E+02
 0.19612542191E+02 0.19847751199E+02 0.20547915354E+02 0.21702233109E+02 0.23296537730E+02
 0.25287944592E+02 0.27555792089E+02 0.29866519951E+02 0.31891769879E+02 0.33284708576E+02
 0.32086394659E+02 0.31641145635E+02 0.30400077976E+02 0.28610837280E+02 0.26583732041E+02
 0.24594189787E+02 0.22825988738E+02 0.21374671997E+02 0.20289764078E+02 0.19612542191E+02
 0.19381253455E+02 0.19612542191E+02 0.20289764078E+02 0.21374671997E+02 0.22825988738E+02
 0.24594189787E+02 0.26583732041E+02 0.28610837280E+02 0.30400077976E+02 0.31641145635E+02
 0.33781742560E+02 0.33284708576E+02 0.31891769879E+02 0.29866519951E+02 0.27555792089E+02
 0.25287944592E+02 0.23296537730E+02 0.21702233109E+02 0.20547915354E+02 0.19847751199E+02
 0.19612542191E+02 0.19847751199E+02 0.20547915354E+02 0.21702233109E+02 0.23296537730E+02
 0.25287944592E+02 0.27555792089E+02 0.29866519951E+02 0.31891769879E+02 0.33284708576E+02
 0.39582546106E+02 0.38912309009E+02 0.37006081141E+02 0.34171971594E+02 0.30878687392E+02
 0.27641096750E+02 0.24868054534E+02 0.22764742664E+02 0.21349057212E+02 0.20547915354E+02
 0.20289764078E+02 0.20547915354E+02 0.21349057212E+02 0.22764742664E+02 0.24868054534E+02
 0.27641096750E+02 0.30878687392E+02 0.34171971594E+02 0.37006081141E+02 0.38912309009E+02
 0.50886337235E+02 0.49536340186E+02 0.46182372545E+02 0.41982307835E+02 0.37116669812E+02
 0.32170679168E+02 0.27911769371E+02 0.24767617629E+02 0.22764742664E+02 0.21702233109E+02
 0.21374671997E+02 0.21702233109E+02 0.22764742664E+02 0.24767617629E+02 0.27911769371E+02
 0.32170679168E+02 0.37116669812E+02 0.41982307835E+02 0.46182372545E+02 0.49536340186E+02
 0.89761797687E+02 0.84544356961E+02 0.71540793907E+02 0.56957122593E+02 0.46123048748E+02
 0.38938945748E+02 0.32688877751E+02 0.27911769371E+02 0.24868054534E+02 0.23296537730E+02
 0.22825988738E+02 0.23296537730E+02 0.24868054534E+02 0.27911769371E+02 0.32688877751E+02
 0.38938945748E+02 0.46123048748E+02 0.56957122593E+02 0.71540793907E+02 0.84544356961E+02
 0.19246290224E+03 0.17899279691E+03 0.14417680879E+03 0.10200311231E+03 0.67483347210E+02
 0.48051889103E+02 0.38938945748E+02 0.32170679168E+02 0.27641096750E+02 0.25287944592E+02
 0.24594189787E+02 0.25287944592E+02 0.27641096750E+02 0.32170679168E+02 0.38938945748E+02
 0.48051889103E+02 0.67483347210E+02 0.10200311231E+03 0.14417680879E+03 0.17899279691E+03
 0.37743151495E+03 0.35109836361E+03 0.28185012974E+03 0.19441931593E+03 0.11691306341E+03
 0.67483347210E+02 0.46123048748E+02 0.37116669812E+02 0.30878687392E+02 0.27555792089E+02
 0.26583732041E+02 0.27555792089E+02 0.30878687392E+02 0.37116669812E+02 0.46123048748E+02
 0.67483347210E+02 0.11691306341E+03 0.19441931593E+03 0.28185012974E+03 0.35109836361E+03
 0.63044238229E+03 0.58754261834E+03 0.47409068743E+03 0.32848805528E+03 0.19441931593E+03
 0.10200311231E+03 0.56957122593E+02 0.41982307835E+02 0.34171971594E+02 0.29866519951E+02
 0.28610837280E+02 0.29866519951E+02 0.34171971594E+02 0.41982307835E+02 0.56957122593E+02
 0.10200311231E+03 0.19441931593E+03 0.32848805528E+03 0.47409068743E+03 0.58754261834E+03
 0.89984071748E+03 0.83947740378E+03 0.67980509686E+03 0.47409068743E+03 0.28185012974E+03
 0.14417680879E+03 0.71540793907E+02 0.46182372545E+02 0.37006081141E+02 0.31891769879E+02
 0.30400077976E+02 0.31891769879E+02 0.37006081141E+02 0.46182372545E+02 0.71540793907E+02
 0.14417680879E+03 0.28185012974E+03 0.47409068743E+03 0.67980509686E+03 0.83947740378E+03
 0.11091906245E+04 0.10351330858E+04 0.83947740378E+03 0.58754261834E+03 0.35109836361E+03
 0.17899279691E+03 0.84544356961E+02 0.49536340186E+02 0.38912309009E+02 0.33284708576E+02
 0.31641145635E+02 0.33284708576E+02 0.38912309009E+02 0.49536340186E+02 0.84544356961E+02
 0.17899279691E+03 0.35109836361E+03 0.58754261834E+03 0.83947740378E+03 0.10351330858E+04
 0.86361212565E+03 0.80363911324E+03 0.64621557773E+03 0.44629659810E+03 0.26302691880E+03
 0.13462303389E+03 0.68459439929E+02 0.45788216874E+02 0.37071776203E+02 0.32189595293E+02
 0.30768287962E+02 0.32189595293E+02 0.37071776203E+02 0.45788216874E+02 0.68459439929E+02
 0.13462303389E+03 0.26302691880E+03 0.44629659810E+03 0.64621557773E+03 0.80363911324E+03
 0.80363911324E+03 0.74776091565E+03 0.60105075751E+03 0.41476213750E+03 0.24431251902E+03
 0.12562845698E+03 0.65343409749E+02 0.44982238651E+02 0.36550757959E+02 0.31825800487E+02
 0.30450125255E+02 0.31825800487E+02 0.36550757959E+02 0.44982238651E+02 0.65343409749E+02
 0.12562845698E+03 0.24431251902E+03 0.41476213750E+03 0.60105075751E+03 0.74776091565E+03
 0.64621557773E+03 0.60105075751E+03 0.48245947806E+03 0.33214406060E+03 0.19570730552E+03
 0.10277777341E+03 0.57735853325E+02 0.42793407350E+02 0.35067454347E+02 0.30800266466E+02
 0.29556938564E+02 0.30800266466E+02 0.35067454347E+02 0.42793407350E+02 0.57735853325E+02
 0.10277777341E+03 0.19570730552E+03 0.33214406060E+03 0.48245947806E+03 0.60105075751E+03
 0.44629659810E+03 0.41476213750E+03 0.33214406060E+03 0.22825662455E+03 0.13597226550E+03
 0.76103454117E+02 0.49456181725E+02 0.39481011811E+02 0.32857298050E+02 0.29292701440E+02
 0.28251556204E+02 0.29292701440E+02 0.32857298050E+02 0.39481011811E+02 0.49456181725E+02
 0.76103454117E+02 0.13597226550E+03 0.22825662455E+03 0.33214406060E+03 0.41476213750E+03
 0.26302691880E+03 0.24431251902E+03 0.19570730552E+03 0.13597226550E+03 0.85444182465E+02
 0.55519364131E+02 0.42981275042E+02 0.35482430160E+02 0.30279173303E+02 0.27546423585E+02
 0.26744064945E+02 0.27546423585E+02 0.30279173303E+02 0.35482430160E+02 0.42981275042E+02
 0.55519364131E+02 0.85444182465E+02 0.13597226550E+03 0.19570730552E+03 0.24431251902E+03
 0.13462303389E+03 0.12562845698E+03 0.10277777341E+03 0.76103454117E+02 0.55519364131E+02
 0.44299038055E+02 0.37164324902E+02 0.31458638522E+02 0.27728815960E+02 0.25800688787E+02
 0.25229257583E+02 0.25800688787E+02 0.27728815960E+02 0.31458638522E+02 0.37164324902E+02
 0.44299038055E+02 0.55519364131E+02 0.76103454117E+02 0.10277777341E+03 0.12562845698E+03
 0.68459439929E+02 0.65343409749E+02 0.57735853325E+02 0.49456181725E+02 0.42981275042E+02
 0.37164324902E+02 0.31938947587E+02 0.28010888789E+02 0.25523528141E+02 0.24234973099E+02
 0.23846654691E+02 0.24234973099E+02 0.25523528141E+02 0.28010888789E+02 0.31938947587E+02
 0.37164324902E+02 0.42981275042E+02 0.49456181725E+02 0.57735853325E+02 0.65343409749E+02
 0.45788216874E+02 0.44982238651E+02 0.42793407350E+02 0.39481011811E+02 0.35482430160E+02
 0.31458638522E+02 0.28010888789E+02 0.25462886569E+02 0.23828469793E+02 0.22952469902E+02
 0.22680268902E+02 0.22952469902E+02 0.23828469793E+02 0.25462886569E+02 0.28010888789E+02
 0.31458638522E+02 0.35482430160E+02 0.39481011811E+02 0.42793407350E+02 0.44982238651E+02
 0.37071776203E+02 0.36550757959E+02 0.35067454347E+02 0.32857298050E+02 0.30279173303E+02
 0.27728815960E+02 0.25523528141E+02 0.23828469793E+02 0.22669169040E+02 0.22003119071E+02
 0.21786495800E+02 0.22003119071E+02 0.22669169040E+02 0.23828469793E+02 0.25523528141E+02
 0.27728815960E+02 0.30279173303E+02 0.32857298050E+02 0.35067454347E+02 0.36550757959E+02
 0.32189595293E+02 0.31825800487E+02 0.30800266466E+02 0.29292701440E+02 0.27546423585E+02
 0.25800688787E+02 0.24234973099E+02 0.22952469902E+02 0.22003119071E+02 0.21417020011E+02
 0.21218201515E+02 0.21417020011E+02 0.22003119071E+02 0.22952469902E+02 0.24234973099E+02
 0.25800688787E+02 0.27546423585E+02 0.29292701440E+02 0.30800266466E+02 0.31825800487E+02
 0.30768287962E+02 0.30450125255E+02 0.29556938564E+02 0.28251556204E+02 0.26744064945E+02
 0.25229257583E+02 0.23846654691E+02 0.22680268902E+02 0.21786495800E+02 0.21218201515E+02
 0.21022222955E+02 0.21218201515E+02 0.21786495800E+02 0.22680268902E+02 0.23846654691E+02
 0.25229257583E+02 0.26744064945E+02 0.28251556204E+02 0.29556938564E+02 0.30450125255E+02
 0.32189595293E+02 0.31825800487E+02 0.30800266466E+02 0.29292701440E+02 0.27546423585E+02
 0.25800688787E+02 0.24234973099E+02 0.22952469902E+02 0.22003119071E+02 0.21417020011E+02
 0.21218201515E+02 0.21417020011E+02 0.22003119071E+02 0.22952469902E+02 0.24234973099E+02
 0.25800688787E+02 0.27546423585E+02 0.29292701440E+02 0.30800266466E+02 0.31825800487E+02
 0.37071776203E+02 0.36550757959E+02 0.35067454347E+02 0.32857298050E+02 0.30279173303E+02
 0.27728815960E+02 0.25523528141E+02 0.23828469793E+02 0.22669169040E+02 0.22003119071E+02
 0.21786495800E+02 0.22003119071E+02 0.22669169040E+02 0.23828469793E+02 0.25523528141E+02
 0.27728815960E+02 0.30279173303E+02 0.32857298050E+02 0.35067454347E+02 0.36550757959E+02
 0.45788216874E+02 0.44982238651E+02 0.42793407350E+02 0.39481011811E+02 0.35482430160E+02
 0.31458638522E+02 0.28010888789E+02 0.25462886569E+02 0.23828469793E+02 0.22952469902E+02
 0.22680268902E+02 0.22952469902E+02 0.23828469793E+02 0.25462886569E+02 0.28010888789E+02
 0.31458638522E+02 0.35482430160E+02 0.39481011811E+02 0.42793407350E+02 0.44982238651E+02
 0.68459439929E+02 0.65343409749E+02 0.57735853325E+02 0.49456181725E+02 0.42981275042E+02
 0.37164324902E+02 0.31938947587E+02 0.28010888789E+02 0.25523528141E+02 0.24234973099E+02
 0.23846654691E+02 0.24234973099E+02 0.25523528141E+02 0.28010888789E+02 0.31938947587E+02
 0.37164324902E+02 0.42981275042E+02 0.49456181725E+02 0.57735853325E+02 0.65343409749E+02
 0.13462303389E+03 0.12562845698E+03 0.10277777341E+03 0.76103454117E+02 0.55519364131E+02
 0.44299038055E+02 0.37164324902E+02 0.31458638522E+02 0.27728815960E+02 0.25800688787E+02
 0.25229257583E+02 0.25800688787E+02 0.27728815960E+02 0.31458638522E+02 0.37164324902E+02
 0.44299038055E+02 0.55519364131E+02 0.76103454117E+02 0.10277777341E+03 0.12562845698E+03
 0.26302691880E+03 0.24431251902E+03 0.19570730552E+03 0.13597226550E+03 0.85444182465E+02
 0.55519364131E+02 0.42981275042E+02 0.35482430160E+02 0.30279173303E+02 0.27546423585E+02
 0.26744064945E+02 0.27546423585E+02 0.30279173303E+02 0.35482430160E+02 0.42981275042E+02
 0.55519364131E+02 0.85444182465E+02 0.13597226550E+03 0.19570730552E+03 0.24431251902E+03
 0.44629659810E+03 0.41476213750E+03 0.33214406060E+03 0.22825662455E+03 0.13597226550E+03
 0.76103454117E+02 0.49456181725E+02 0.39481011811E+02 0.32857298050E+02 0.29292701440E+02
 0.28251556204E+02 0.29292701440E+02 0.32857298050E+02 0.39481011811E+02 0.49456181725E+02
 0.76103454117E+02 0.13597226550E+03 0.22825662455E+03 0.33214406060E+03 0.41476213750E+03
 0.64621557773E+03 0.60105075751E+03 0.48245947806E+03 0.33214406060E+03 0.19570730552E+03
 0.10277777341E+03 0.57735853325E+02 0.42793407350E+02 0.35067454347E+02 0.30800266466E+02
 0.29556938564E+02 0.30800266466E+02 0.35067454347E+02 0.42793407350E+02 0.57735853325E+02
 0.10277777341E+03 0.19570730552E+03 0.33214406060E+03 0.48245947806E+03 0.60105075751E+03
 0.80363911324E+03 0.74776091565E+03 0.60105075751E+03 0.41476213750E+03 0.24431251902E+03
 0.12562845698E+03 0.65343409749E+02 0.44982238651E+02 0.36550757959E+02 0.31825800487E+02
 0.30450125255E+02 0.31825800487E+02 0.36550757959E+02 0.44982238651E+02 0.65343409749E+02
 0.12562845698E+03 0.24431251902E+03 0.41476213750E+03 0.60105075751E+03 0.74776091565E+03
 0.54531774097E+03 0.50537216210E+03 0.40161164641E+03 0.27289344793E+03 0.15980851573E+03
 0.86251084399E+02 0.52744740051E+02 0.41267955321E+02 0.34296529322E+02 0.30513982668E+02
 0.29414720413E+02 0.30513982668E+02 0.34296529322E+02 0.41267955321E+02 0.52744740051E+02
 0.86251084399E+02 0.15980851573E+03 0.27289344793E+03 0.40161164641E+03 0.50537216210E+03
 0.50537216210E+03 0.46832941581E+03 0.37214134942E+03 0.25297576271E+03 0.14868813707E+03