   5   5   1   0
  0.2199349E+02  0.2496087E-09  0.2496087E-09  0.1765000E-08  0.5000000E-15
  1.000000000000000E-004
  CAR 
 clean (100) nickel surface              
     16.37332558     -8.30612336  301      2.31037118      1.00000000
     -8.306  0.0000E+00  0.0000E+00  0.0000E+00  0.0000E+00
     -8.224  0.0000E+00  0.0000E+00  0.0000E+00  0.0000E+00
     -8.142  0.0000E+00  0.0000E+00  0.0000E+00  0.0000E+00
     -8.059  0.0000E+00  0.0000E+00  0.0000E+00  0.0000E+00
     -7.977  0.0000E+00  0.7087E-28  0.0000E+00  0.5830E-29
     -7.895  0.1740E-26  0.4932E-25  0.1432E-27  0.4063E-26
     -7.813  0.1024E-23  0.2427E-22  0.8440E-25  0.2001E-23
     -7.730  0.4261E-21  0.8427E-20  0.3513E-22  0.6953E-21
     -7.648  0.1250E-18  0.2061E-17  0.1031E-19  0.1703E-18
     -7.566  0.2579E-16  0.3545E-15  0.2132E-17  0.2933E-16
     -7.483  0.3740E-14  0.4286E-13  0.3098E-15  0.3555E-14
     -7.401  0.3806E-12  0.3616E-11  0.3162E-13  0.3010E-12
     -7.319  0.2700E-10  0.2126E-09  0.2253E-11  0.1779E-10
     -7.237  0.1331E-08  0.8659E-08  0.1117E-09  0.7301E-09
     -7.154  0.4529E-07  0.2424E-06  0.3838E-08  0.2067E-07
     -7.072  0.1054E-05  0.4608E-05  0.9053E-07  0.3997E-06
     -6.990  0.1652E-04  0.5835E-04  0.1450E-05  0.5200E-05
     -6.908  0.1701E-03  0.4755E-03  0.1545E-04  0.4431E-04
     -6.825  0.1096E-02  0.2311E-02  0.1056E-03  0.2344E-03
     -6.743  0.3899E-02  0.5226E-02  0.4263E-03  0.6643E-03
     -6.661  0.3979E-02 -0.3864E-02  0.7537E-03  0.3464E-03
     -6.579 -0.2034E-01 -0.4601E-01 -0.9194E-03 -0.3439E-02
     -6.496 -0.6536E-01 -0.5432E-01 -0.6296E-02 -0.7907E-02
     -6.414  0.1549E-01  0.1731E+00 -0.5022E-02  0.6336E-02
     -6.332  0.3818E+00  0.6120E+00  0.2639E-01  0.5669E-01
     -6.250  0.7567E+00  0.7724E+00  0.8864E-01  0.1202E+00
     -6.167  0.6471E+00  0.4171E+00  0.1419E+00  0.1545E+00
     -6.085  0.1948E+00  0.3203E-01  0.1579E+00  0.1572E+00
     -6.003 -0.5932E-02  0.6017E-01  0.1574E+00  0.1621E+00
     -5.920  0.1883E+00  0.3154E+00  0.1729E+00  0.1881E+00
     -5.838  0.3821E+00  0.3649E+00  0.2043E+00  0.2181E+00
     -5.756  0.2725E+00  0.1491E+00  0.2268E+00  0.2304E+00
     -5.674  0.4864E-01  0.1140E-01  0.2308E+00  0.2313E+00
     -5.591  0.5972E-01  0.1616E+00  0.2357E+00  0.2446E+00
     -5.509  0.2893E+00  0.3726E+00  0.2595E+00  0.2752E+00
     -5.427  0.3811E+00  0.3122E+00  0.2908E+00  0.3009E+00
     -5.345  0.1743E+00  0.5106E-01  0.3051E+00  0.3051E+00
     -5.262 -0.1909E-01  0.3246E-02  0.3036E+00  0.3054E+00
     -5.180  0.1798E+00  0.3686E+00  0.3184E+00  0.3357E+00
     -5.098  0.6281E+00  0.7427E+00  0.3700E+00  0.3968E+00
     -5.016  0.7242E+00  0.6005E+00  0.4296E+00  0.4462E+00
     -4.933  0.3544E+00  0.2087E+00  0.4588E+00  0.4634E+00
     -4.851  0.1810E+00  0.2486E+00  0.4737E+00  0.4838E+00
     -4.769  0.5008E+00  0.6349E+00  0.5149E+00  0.5361E+00
     -4.686  0.7310E+00  0.6878E+00  0.5750E+00  0.5927E+00
     -4.604  0.4542E+00  0.2971E+00  0.6124E+00  0.6171E+00
     -4.522  0.7466E-01  0.1699E-01  0.6185E+00  0.6185E+00
     -4.440  0.7224E-01  0.1411E+00  0.6244E+00  0.6301E+00
     -4.357  0.3123E+00  0.3649E+00  0.6501E+00  0.6601E+00
     -4.275  0.3711E+00  0.3289E+00  0.6807E+00  0.6872E+00
     -4.193  0.1793E+00  0.1119E+00  0.6954E+00  0.6964E+00
     -4.111  0.1679E-02 -0.2073E-01  0.6955E+00  0.6947E+00
     -4.028 -0.4777E-01 -0.3961E-01  0.6916E+00  0.6914E+00
     -3.946 -0.3776E-01 -0.3354E-01  0.6885E+00  0.6887E+00
     -3.864  0.5495E-01  0.4198E-01  0.6930E+00  0.6921E+00
     -3.782  0.2495E+00  0.2313E+00  0.7135E+00  0.7111E+00
     -3.699  0.3332E+00  0.3343E+00  0.7410E+00  0.7386E+00
     -3.617  0.2230E+00  0.2323E+00  0.7593E+00  0.7577E+00
     -3.535  0.3172E+00  0.3013E+00  0.7854E+00  0.7825E+00
     -3.452  0.7946E+00  0.7611E+00  0.8508E+00  0.8451E+00
     -3.370  0.1110E+01  0.1064E+01  0.9420E+00  0.9326E+00
     -3.288  0.9079E+00  0.8301E+00  0.1017E+01  0.1001E+01
     -3.206  0.5835E+00  0.5279E+00  0.1065E+01  0.1044E+01
     -3.123  0.4677E+00  0.5102E+00  0.1103E+01  0.1086E+01
     -3.041  0.3788E+00  0.4957E+00  0.1134E+01  0.1127E+01
     -2.959  0.1712E+00  0.2754E+00  0.1148E+01  0.1150E+01
     -2.877  0.1140E+00  0.8930E-01  0.1158E+01  0.1157E+01
     -2.794  0.4101E+00  0.1565E+00  0.1192E+01  0.1170E+01
     -2.712  0.7289E+00  0.3205E+00  0.1252E+01  0.1196E+01
     -2.630  0.7103E+00  0.4577E+00  0.1310E+01  0.1234E+01
     -2.548  0.5283E+00  0.6514E+00  0.1353E+01  0.1288E+01
     -2.465  0.5645E+00  0.7409E+00  0.1400E+01  0.1349E+01
     -2.383  0.9821E+00  0.5645E+00  0.1481E+01  0.1395E+01
     -2.301  0.1774E+01  0.3361E+00  0.1627E+01  0.1423E+01
     -2.219  0.2853E+01  0.2749E+00  0.1861E+01  0.1445E+01
     -2.136  0.3757E+01  0.5153E+00  0.2170E+01  0.1488E+01
     -2.054  0.3641E+01  0.1010E+01  0.2470E+01  0.1571E+01
     -1.972  0.2462E+01  0.1537E+01  0.2672E+01  0.1697E+01
     -1.889  0.1600E+01  0.2269E+01  0.2804E+01  0.1884E+01
     -1.807  0.2288E+01  0.3206E+01  0.2992E+01  0.2148E+01
     -1.725  0.4085E+01  0.3531E+01  0.3328E+01  0.2438E+01
     -1.643  0.5604E+01  0.2870E+01  0.3789E+01  0.2674E+01
     -1.560  0.5926E+01  0.2008E+01  0.4277E+01  0.2839E+01
     -1.478  0.5105E+01  0.1737E+01  0.4697E+01  0.2982E+01
     -1.396  0.4209E+01  0.1999E+01  0.5043E+01  0.3147E+01
     -1.314  0.4319E+01  0.2503E+01  0.5398E+01  0.3353E+01
     -1.231  0.4920E+01  0.3415E+01  0.5803E+01  0.3634E+01
     -1.149  0.4599E+01  0.4522E+01  0.6181E+01  0.4006E+01
     -1.067  0.3282E+01  0.4876E+01  0.6451E+01  0.4407E+01
     -0.985  0.2252E+01  0.4334E+01  0.6637E+01  0.4763E+01
     -0.902  0.2499E+01  0.3788E+01  0.6842E+01  0.5075E+01
     -0.820  0.3580E+01  0.3731E+01  0.7137E+01  0.5382E+01
     -0.738  0.3973E+01  0.3974E+01  0.7464E+01  0.5709E+01
     -0.655  0.3163E+01  0.4124E+01  0.7724E+01  0.6048E+01
     -0.573  0.2479E+01  0.3728E+01  0.7928E+01  0.6355E+01
     -0.491  0.3442E+01  0.2807E+01  0.8211E+01  0.6586E+01
     -0.409  0.5594E+01  0.2139E+01  0.8671E+01  0.6762E+01
     -0.326  0.6263E+01  0.2265E+01  0.9186E+01  0.6948E+01
     -0.244  0.4420E+01  0.2922E+01  0.9550E+01  0.7188E+01
     -0.162  0.3156E+01  0.3479E+01  0.9810E+01  0.7475E+01
     -0.080  0.5369E+01  0.3405E+01  0.1025E+02  0.7755E+01
      0.003  0.9312E+01  0.3065E+01  0.1102E+02  0.8007E+01
      0.085  0.1061E+02  0.3543E+01  0.1189E+02  0.8298E+01
      0.167  0.7993E+01  0.4850E+01  0.1255E+02  0.8697E+01
      0.249  0.5064E+01  0.5460E+01  0.1296E+02  0.9146E+01
      0.332  0.5240E+01  0.4543E+01  0.1340E+02  0.9520E+01
      0.414  0.7126E+01  0.3508E+01  0.1398E+02  0.9809E+01
      0.496  0.7306E+01  0.4002E+01  0.1458E+02  0.1014E+02
      0.578  0.5903E+01  0.5997E+01  0.1507E+02  0.1063E+02
      0.661  0.5423E+01  0.8465E+01  0.1551E+02  0.1133E+02
      0.743  0.5994E+01  0.9602E+01  0.1601E+02  0.1212E+02
      0.825  0.6273E+01  0.7889E+01  0.1652E+02  0.1277E+02
      0.908  0.6961E+01  0.4864E+01  0.1710E+02  0.1317E+02
      0.990  0.8978E+01  0.3886E+01  0.1783E+02  0.1349E+02
      1.072  0.1070E+02  0.5564E+01  0.1871E+02  0.1394E+02
      1.154  0.1027E+02  0.7145E+01  0.1956E+02  0.1453E+02
      1.237  0.8048E+01  0.7077E+01  0.2022E+02  0.1511E+02
      1.319  0.6447E+01  0.6894E+01  0.2075E+02  0.1568E+02
      1.401  0.7564E+01  0.7225E+01  0.2137E+02  0.1628E+02
      1.483  0.1034E+02  0.6802E+01  0.2223E+02  0.1684E+02
      1.566  0.1203E+02  0.6111E+01  0.2321E+02  0.1734E+02
      1.648  0.1196E+02  0.6874E+01  0.2420E+02  0.1790E+02
      1.730  0.1110E+02  0.8599E+01  0.2511E+02  0.1861E+02
      1.812  0.9306E+01  0.9208E+01  0.2588E+02  0.1937E+02
      1.895  0.6164E+01  0.8009E+01  0.2638E+02  0.2003E+02
      1.977  0.2992E+01  0.6344E+01  0.2663E+02  0.2055E+02
      2.059  0.1178E+01  0.5896E+01  0.2673E+02  0.2103E+02
      2.142  0.4468E+00  0.6899E+01  0.2676E+02  0.2160E+02
      2.224  0.6123E-01  0.8662E+01  0.2677E+02  0.2231E+02
      2.306 -0.7386E-01  0.1061E+02  0.2676E+02  0.2319E+02
      2.388  0.1731E+00  0.1174E+02  0.2678E+02  0.2415E+02
      2.471  0.5988E+00  0.1142E+02  0.2683E+02  0.2509E+02
      2.553  0.6714E+00  0.9785E+01  0.2688E+02  0.2590E+02
      2.635  0.3297E+00  0.6658E+01  0.2691E+02  0.2645E+02
      2.717  0.3870E+00  0.2886E+01  0.2694E+02  0.2668E+02
      2.800  0.1306E+01  0.8036E+00  0.2705E+02  0.2675E+02
      2.882  0.2091E+01  0.1084E+01  0.2722E+02  0.2684E+02
      2.964  0.1612E+01  0.1776E+01  0.2735E+02  0.2698E+02
      3.046  0.5143E+00  0.1405E+01  0.2740E+02  0.2710E+02
      3.129  0.1990E+00  0.6132E+00  0.2741E+02  0.2715E+02
      3.211  0.6953E+00  0.4319E+00  0.2747E+02  0.2719E+02
      3.293  0.1061E+01  0.7921E+00  0.2756E+02  0.2725E+02
      3.375  0.1009E+01  0.1021E+01  0.2764E+02  0.2733E+02
      3.458  0.9452E+00  0.8332E+00  0.2772E+02  0.2740E+02
      3.540  0.1006E+01  0.4458E+00  0.2780E+02  0.2744E+02
      3.622  0.9602E+00  0.3097E+00  0.2788E+02  0.2747E+02
      3.705  0.7964E+00  0.7045E+00  0.2794E+02  0.2752E+02
      3.787  0.7330E+00  0.1209E+01  0.2800E+02  0.2762E+02
      3.869  0.7194E+00  0.1317E+01  0.2806E+02  0.2773E+02
      3.951  0.6595E+00  0.1341E+01  0.2812E+02  0.2784E+02
      4.034  0.8875E+00  0.1583E+01  0.2819E+02  0.2797E+02
      4.116  0.1554E+01  0.1661E+01  0.2832E+02  0.2811E+02
      4.198  0.1936E+01  0.1334E+01  0.2848E+02  0.2822E+02
      4.280  0.1373E+01  0.9322E+00  0.2859E+02  0.2829E+02
      4.363  0.4347E+00  0.9396E+00  0.2863E+02  0.2837E+02
      4.445  0.7845E-01  0.1255E+01  0.2863E+02  0.2848E+02
      4.527  0.2641E+00  0.1175E+01  0.2866E+02  0.2857E+02
      4.609  0.3029E+00  0.5548E+00  0.2868E+02  0.2862E+02
      4.692  0.2223E-01  0.5280E-01  0.2868E+02  0.2862E+02
      4.774 -0.6469E-02  0.6204E-01  0.2868E+02  0.2863E+02
      4.856  0.7364E+00  0.2488E+00  0.2874E+02  0.2865E+02
      4.939  0.1761E+01  0.2560E+00  0.2889E+02  0.2867E+02
      5.021  0.1947E+01  0.4149E+00  0.2905E+02  0.2870E+02
      5.103  0.1150E+01  0.1148E+01  0.2914E+02  0.2880E+02
      5.185  0.2663E+00  0.1882E+01  0.2916E+02  0.2895E+02
      5.268 -0.1321E+00  0.1680E+01  0.2915E+02  0.2909E+02
      5.350 -0.5511E-01  0.7874E+00  0.2915E+02  0.2916E+02
      5.432  0.3774E+00  0.3377E+00  0.2918E+02  0.2918E+02
      5.514  0.8678E+00  0.5564E+00  0.2925E+02  0.2923E+02
      5.597  0.1073E+01  0.6181E+00  0.2934E+02  0.2928E+02
      5.679  0.1035E+01  0.3231E+00  0.2942E+02  0.2931E+02
      5.761  0.9041E+00  0.3537E+00  0.2950E+02  0.2934E+02
      5.843  0.6895E+00  0.8086E+00  0.2956E+02  0.2940E+02
      5.926  0.4631E+00  0.9774E+00  0.2959E+02  0.2948E+02
      6.008  0.2483E+00  0.6379E+00  0.2961E+02  0.2953E+02
      6.090  0.3159E-01  0.3417E+00  0.2962E+02  0.2956E+02
      6.172 -0.6677E-01  0.3255E+00  0.2961E+02  0.2959E+02
      6.255  0.1026E+00  0.2516E+00  0.2962E+02  0.2961E+02
      6.337  0.4618E+00  0.3172E-01  0.2966E+02  0.2961E+02
      6.419  0.6267E+00  0.6747E-02  0.2971E+02  0.2961E+02
      6.502  0.5579E+00  0.3553E+00  0.2975E+02  0.2964E+02
      6.584  0.8432E+00  0.7087E+00  0.2982E+02  0.2970E+02
      6.666  0.1471E+01  0.6284E+00  0.2995E+02  0.2975E+02
      6.748  0.1579E+01  0.3760E+00  0.3007E+02  0.2978E+02
      6.831  0.1100E+01  0.5180E+00  0.3017E+02  0.2983E+02
      6.913  0.8117E+00  0.1071E+01  0.3023E+02  0.2991E+02
      6.995  0.8326E+00  0.1527E+01  0.3030E+02  0.3004E+02
      7.077  0.8587E+00  0.1417E+01  0.3037E+02  0.3016E+02
      7.160  0.1045E+01  0.9123E+00  0.3046E+02  0.3023E+02
      7.242  0.1466E+01  0.7868E+00  0.3058E+02  0.3030E+02
      7.324  0.1717E+01  0.1445E+01  0.3072E+02  0.3041E+02
      7.406  0.1477E+01  0.2110E+01  0.3084E+02  0.3059E+02
      7.489  0.9211E+00  0.1757E+01  0.3092E+02  0.3073E+02
      7.571  0.4962E+00  0.7981E+00  0.3096E+02  0.3080E+02
      7.653  0.3169E+00  0.3601E+00  0.3098E+02  0.3083E+02
      7.736  0.1334E+00  0.5423E+00  0.3099E+02  0.3087E+02
      7.818 -0.1146E-01  0.7191E+00  0.3099E+02  0.3093E+02
      7.900  0.2350E+00  0.5291E+00  0.3101E+02  0.3098E+02
      7.982  0.8936E+00  0.2157E+00  0.3109E+02  0.3099E+02
      8.065  0.1458E+01  0.3619E+00  0.3121E+02  0.3102E+02
      8.147  0.1414E+01  0.9865E+00  0.3132E+02  0.3110E+02
      8.229  0.8665E+00  0.1306E+01  0.3139E+02  0.3121E+02
      8.311  0.4069E+00  0.9386E+00  0.3143E+02  0.3129E+02
      8.394  0.3648E+00  0.5438E+00  0.3146E+02  0.3133E+02
      8.476  0.6147E+00  0.6485E+00  0.3151E+02  0.3139E+02
      8.558  0.8767E+00  0.9013E+00  0.3158E+02  0.3146E+02
      8.640  0.9516E+00  0.9261E+00  0.3166E+02  0.3154E+02
      8.723  0.7883E+00  0.8235E+00  0.3172E+02  0.3161E+02
      8.805  0.5402E+00  0.7771E+00  0.3177E+02  0.3167E+02
      8.887  0.5469E+00  0.6956E+00  0.3181E+02  0.3173E+02
      8.969  0.7583E+00  0.4716E+00  0.3187E+02  0.3177E+02
      9.052  0.7665E+00  0.3661E+00  0.3194E+02  0.3180E+02
      9.134  0.5768E+00  0.5147E+00  0.3199E+02  0.3184E+02
      9.216  0.4464E+00  0.6421E+00  0.3202E+02  0.3189E+02
      9.299  0.3642E+00  0.6530E+00  0.3205E+02  0.3194E+02
      9.381  0.2838E+00  0.6666E+00  0.3208E+02  0.3200E+02
      9.463  0.3905E+00  0.5550E+00  0.3211E+02  0.3204E+02
      9.545  0.8179E+00  0.2413E+00  0.3217E+02  0.3206E+02
      9.628  0.1423E+01  0.1748E+00  0.3229E+02  0.3208E+02
      9.710  0.1861E+01  0.7579E+00  0.3244E+02  0.3214E+02
      9.792  0.1893E+01  0.1554E+01  0.3260E+02  0.3227E+02
      9.874  0.1639E+01  0.1850E+01  0.3274E+02  0.3242E+02
      9.957  0.1328E+01  0.1586E+01  0.3284E+02  0.3255E+02
     10.039  0.1165E+01  0.1194E+01  0.3294E+02  0.3265E+02
     10.121  0.1259E+01  0.1147E+01  0.3304E+02  0.3274E+02
     10.203  0.1265E+01  0.1471E+01  0.3315E+02  0.3287E+02
     10.286  0.8350E+00  0.1579E+01  0.3322E+02  0.3300E+02
     10.368  0.3949E+00  0.1239E+01  0.3325E+02  0.3310E+02
     10.450  0.4210E+00  0.8813E+00  0.3328E+02  0.3317E+02
     10.533  0.5973E+00  0.7064E+00  0.3333E+02  0.3323E+02
     10.615  0.6191E+00  0.5297E+00  0.3338E+02  0.3327E+02
     10.697  0.7112E+00  0.4364E+00  0.3344E+02  0.3331E+02
     10.779  0.9066E+00  0.7073E+00  0.3352E+02  0.3337E+02
     10.862  0.9909E+00  0.1120E+01  0.3360E+02  0.3346E+02
     10.944  0.9719E+00  0.1241E+01  0.3368E+02  0.3356E+02
     11.026  0.8561E+00  0.1125E+01  0.3375E+02  0.3365E+02
     11.108  0.6299E+00  0.9292E+00  0.3380E+02  0.3373E+02
     11.191  0.5215E+00  0.6478E+00  0.3384E+02  0.3378E+02
     11.273  0.6798E+00  0.3745E+00  0.3390E+02  0.3381E+02
     11.355  0.9012E+00  0.2545E+00  0.3397E+02  0.3383E+02
     11.437  0.9934E+00  0.4580E+00  0.3406E+02  0.3387E+02
     11.520  0.9561E+00  0.8751E+00  0.3413E+02  0.3394E+02
     11.602  0.7491E+00  0.9432E+00  0.3420E+02  0.3402E+02
     11.684  0.5620E+00  0.6649E+00  0.3424E+02  0.3408E+02
     11.766  0.8271E+00  0.7882E+00  0.3431E+02  0.3414E+02
     11.849  0.1394E+01  0.1322E+01  0.3442E+02  0.3425E+02
     11.931  0.1548E+01  0.1452E+01  0.3455E+02  0.3437E+02
     12.013  0.1041E+01  0.1112E+01  0.3464E+02  0.3446E+02
     12.096  0.4817E+00  0.9905E+00  0.3468E+02  0.3454E+02
     12.178  0.5843E+00  0.1089E+01  0.3473E+02  0.3463E+02
     12.260  0.1251E+01  0.9272E+00  0.3483E+02  0.3471E+02
     12.342  0.1606E+01  0.7768E+00  0.3496E+02  0.3477E+02
     12.425  0.1145E+01  0.1090E+01  0.3505E+02  0.3486E+02
     12.507  0.3602E+00  0.1389E+01  0.3508E+02  0.3498E+02
     12.589 -0.3429E-01  0.1021E+01  0.3508E+02  0.3506E+02
     12.671  0.8394E-01  0.3052E+00  0.3509E+02  0.3508E+02
     12.754  0.2946E+00 -0.4240E-01  0.3511E+02  0.3508E+02
     12.836  0.2482E+00  0.1020E+00  0.3513E+02  0.3509E+02
     12.918  0.2576E+00  0.3302E+00  0.3515E+02  0.3512E+02
     13.000  0.8393E+00  0.3321E+00  0.3522E+02  0.3514E+02
     13.083  0.1587E+01  0.2845E+00  0.3535E+02  0.3517E+02
     13.165  0.1539E+01  0.5894E+00  0.3548E+02  0.3522E+02
     13.247  0.7536E+00  0.1244E+01  0.3554E+02  0.3532E+02
     13.330  0.2160E+00  0.1559E+01  0.3556E+02  0.3545E+02
     13.412  0.2326E+00  0.1018E+01  0.3558E+02  0.3553E+02
     13.494  0.2383E+00  0.2495E+00  0.3560E+02  0.3555E+02
     13.576  0.8478E-01  0.7136E-01  0.3561E+02  0.3556E+02
     13.659  0.3033E+00  0.2626E+00  0.3563E+02  0.3558E+02
     13.741  0.9642E+00  0.2363E+00  0.3571E+02  0.3560E+02
     13.823  0.1312E+01  0.1694E+00  0.3582E+02  0.3561E+02
     13.905  0.9381E+00  0.6060E+00  0.3590E+02  0.3566E+02
     13.988  0.3330E+00  0.1262E+01  0.3592E+02  0.3577E+02
     14.070  0.7689E-01  0.1282E+01  0.3593E+02  0.3587E+02
     14.152  0.2187E+00  0.6278E+00  0.3595E+02  0.3592E+02
     14.234  0.3724E+00  0.1053E+00  0.3598E+02  0.3593E+02
     14.317  0.2621E+00  0.1370E+00  0.3600E+02  0.3594E+02
     14.399  0.5330E-01  0.3489E+00  0.3600E+02  0.3597E+02
     14.481 -0.3091E-01  0.3062E+00  0.3600E+02  0.3600E+02
     14.563 -0.1725E-01  0.9224E-01  0.3600E+02  0.3600E+02
     14.646  0.2400E-03 -0.2488E-01  0.3600E+02  0.3600E+02
     14.728  0.2428E-02 -0.2253E-01  0.3600E+02  0.3600E+02
     14.810  0.8722E-03 -0.1872E-02  0.3600E+02  0.3600E+02
     14.893  0.1593E-03  0.2618E-02  0.3600E+02  0.3600E+02
     14.975  0.1775E-04  0.1156E-02  0.3600E+02  0.3600E+02
     15.057  0.1285E-05  0.2377E-03  0.3600E+02  0.3600E+02
     15.139  0.6225E-07  0.2918E-04  0.3600E+02  0.3600E+02
     15.222  0.2054E-08  0.2304E-05  0.3600E+02  0.3600E+02
     15.304  0.4667E-10  0.1212E-06  0.3600E+02  0.3600E+02
     15.386  0.7356E-12  0.4329E-08  0.3600E+02  0.3600E+02
     15.468  0.7994E-14  0.1063E-09  0.3600E+02  0.3600E+02
     15.551  0.1038E-15  0.1808E-11  0.3600E+02  0.3600E+02
     15.633  0.0000E+00  0.2139E-13  0.3600E+02  0.3600E+02
     15.715  0.0000E+00  0.2076E-15  0.3600E+02  0.3600E+02
     15.797  0.0000E+00  0.0000E+00  0.3600E+02  0.3600E+02
     15.880  0.0000E+00  0.0000E+00  0.3600E+02  0.3600E+02
     15.962  0.0000E+00  0.0000E+00  0.3600E+02  0.3600E+02
     16.044  0.0000E+00  0.0000E+00  0.3600E+02  0.3600E+02
     16.127  0.0000E+00  0.0000E+00  0.3600E+02  0.3600E+02
     16.209  0.0000E+00  0.0000E+00  0.3600E+02  0.3600E+02
     16.291  0.0000E+00  0.0000E+00  0.3600E+02  0.3600E+02
     16.373  0.0000E+00  0.0000E+00  0.3600E+02  0.3600E+02
     16.37332558     -8.30612336  301      2.31037118      1.00000000
     -8.306  0.0000E+00  0.0000E+00  0.0000E+00  0.0000E+00  0.0000E+00  0.0000E+00  0.0000E+00  0.0000E+00  0.0000E+00  0.0000E+00  0.0000E+00  0.0000E+00  0.0000E+00  0.0000E+00  0.0000E+00  0.0000E+00  0.0000E+00  0.0000E+00
     -8.224  0.0000E+00  0.0000E+00  0.0000E+00  0.0000E+00  0.0000E+00  0.0000E+00  0.0000E+00  0.0000E+00  0.0000E+00  0.0000E+00  0.0000E+00  0.0000E+00  0.0000E+00  0.0000E+00  0.0000E+00  0.0000E+00  0.0000E+00  0.0000E+00
     -8.142  0.0000E+00  0.0000E+00  0.0000E+00  0.0000E+00  0.0000E+00  0.0000E+00  0.0000E+00  0.0000E+00  0.0000E+00  0.0000E+00  0.0000E+00  0.0000E+00  0.0000E+00  0.0000E+00  0.0000E+00  0.0000E+00  0.0000E+00  0.0000E+00
     -8.059  0.0000E+00  0.0000E+00  0.0000E+00  0.0000E+00  0.0000E+00  0.0000E+00  0.0000E+00  0.0000E+00  0.0000E+00  0.0000E+00  0.0000E+00  0.0000E+00  0.0000E+00  0.0000E+00  0.0000E+00  0.0000E+00  0.0000E+00  0.0000E+00
     -7.977  0.0000E+00  0.2815E-29  0.0000E+00  0.3094E-40  0.0000E+00  0.4423E-30  0.0000E+00  0.3094E-40  0.0000E+00  0.2621E-39  0.0000E+00  0.4149E-41  0.0000E+00  0.1030E-32  0.0000E+00  0.4149E-41  0.0000E+00  0.5575E-41
     -7.895  0.6920E-28  0.1959E-26  0.9967E-39  0.2153E-37  0.1074E-28  0.3078E-27  0.9967E-39  0.2153E-37  0.8030E-38  0.1824E-36  0.2340E-39  0.2888E-38  0.3386E-31  0.7166E-30  0.2340E-39  0.2888E-38  0.6297E-39  0.3880E-38
     -7.813  0.4073E-25  0.9640E-24  0.5866E-36  0.1060E-34  0.6319E-26  0.1515E-24  0.5866E-36  0.1060E-34  0.4725E-35  0.8976E-34  0.1377E-36  0.1421E-35  0.1992E-28  0.3527E-27  0.1377E-36  0.1421E-35  0.3706E-36  0.1909E-35
     -7.730  0.1694E-22  0.3347E-21  0.2440E-33  0.3679E-32  0.2629E-23  0.5259E-22  0.2440E-33  0.3679E-32  0.1966E-32  0.3117E-31  0.5728E-34  0.4934E-33  0.8288E-26  0.1224E-24  0.5728E-34  0.4934E-33  0.1541E-33  0.6629E-33
     -7.648  0.4968E-20  0.8186E-19  0.7156E-31  0.8997E-30  0.7709E-21  0.1286E-19  0.7156E-31  0.8997E-30  0.5765E-30  0.7622E-29  0.1680E-31  0.1207E-30  0.2431E-23  0.2995E-22  0.1680E-31  0.1207E-30  0.4521E-31  0.1621E-30
     -7.566  0.1026E-17  0.1408E-16  0.1477E-28  0.1548E-27  0.1591E-18  0.2212E-17  0.1477E-28  0.1548E-27  0.1190E-27  0.1311E-26  0.3468E-29  0.2079E-28  0.5017E-21  0.5150E-20  0.3468E-29  0.2079E-28  0.9332E-29  0.2788E-28
     -7.483  0.1487E-15  0.1702E-14  0.2144E-26  0.1877E-25  0.2307E-16  0.2675E-15  0.2144E-26  0.1877E-25  0.1725E-25  0.1585E-24  0.5039E-27  0.2534E-26  0.7275E-19  0.6227E-18  0.5039E-27  0.2534E-26  0.1353E-26  0.3372E-26
     -7.401  0.1513E-13  0.1436E-12  0.2194E-24  0.1607E-23  0.2348E-14  0.2256E-13  0.2194E-24  0.1607E-23  0.1756E-23  0.1337E-22  0.5180E-25  0.2230E-24  0.7404E-17  0.5253E-16  0.5180E-25  0.2230E-24  0.1377E-24  0.2844E-24
     -7.319  0.1074E-11  0.8443E-11  0.1600E-22  0.1021E-21  0.1666E-12  0.1327E-11  0.1600E-22  0.1021E-21  0.1246E-21  0.7866E-21  0.3875E-23  0.1610E-22  0.5252E-15  0.3089E-14  0.3875E-23  0.1610E-22  0.9768E-23  0.1672E-22
     -7.237  0.5292E-10  0.3439E-09  0.9075E-21  0.5897E-20  0.8211E-11  0.5404E-10  0.9075E-21  0.5897E-20  0.6147E-20  0.3211E-19  0.2457E-21  0.1342E-20  0.2589E-13  0.1258E-12  0.2457E-21  0.1342E-20  0.4815E-21  0.6811E-21
     -7.154  0.1801E-08  0.9626E-08  0.5377E-19  0.4457E-18  0.2794E-09  0.1513E-08  0.5377E-19  0.4457E-18  0.2102E-18  0.9101E-18  0.1888E-19  0.1482E-18  0.8810E-12  0.3521E-11  0.1888E-19  0.1482E-18  0.1639E-19  0.1907E-19
     -7.072  0.4190E-07  0.1830E-06  0.4346E-17  0.4033E-16  0.6502E-08  0.2876E-07  0.4346E-17  0.4033E-16  0.5036E-17  0.1859E-16  0.1862E-17  0.1538E-16  0.2050E-10  0.6694E-10  0.1862E-17  0.1538E-16  0.3813E-18  0.3625E-18
     -6.990  0.6569E-06  0.2318E-05  0.3625E-15  0.3041E-14  0.1019E-06  0.3642E-06  0.3625E-15  0.3041E-14  0.9265E-16  0.3376E-15  0.1645E-15  0.1192E-14  0.3214E-09  0.8478E-09  0.1645E-15  0.1192E-14  0.5977E-17  0.4590E-17
     -6.908  0.6765E-05  0.1888E-04  0.2329E-13  0.1653E-12  0.1050E-05  0.2967E-05  0.2329E-13  0.1653E-12  0.1864E-14  0.8427E-14  0.1068E-13  0.6511E-13  0.3310E-08  0.6908E-08  0.1068E-13  0.6511E-13  0.6155E-16  0.3740E-16
     -6.825  0.4358E-04  0.9177E-04  0.1058E-11  0.6255E-11  0.6761E-05  0.1442E-04  0.1058E-11  0.6255E-11  0.5426E-13  0.2612E-12  0.4862E-12  0.2466E-11  0.2132E-07  0.3357E-07  0.4862E-12  0.2466E-11  0.3965E-15  0.1818E-15
     -6.743  0.1550E-03  0.2076E-03  0.3323E-10  0.1625E-09  0.2405E-04  0.3261E-04  0.3323E-10  0.1625E-09  0.1564E-11  0.6584E-11  0.1527E-10  0.6407E-10  0.7585E-07  0.7593E-07  0.1527E-10  0.6407E-10  0.1411E-14  0.4114E-15
     -6.661  0.1582E-03 -0.1535E-03  0.7120E-09  0.2859E-08  0.2455E-04 -0.2412E-04  0.7120E-09  0.2859E-08  0.3315E-10  0.1155E-09  0.3272E-09  0.1127E-08  0.7745E-07 -0.5602E-07  0.3272E-09  0.1127E-08  0.1443E-14 -0.2794E-15
     -6.579 -0.8087E-03 -0.1828E-02  0.1023E-07  0.3334E-07 -0.1255E-03 -0.2872E-03  0.1023E-07  0.3334E-07  0.4762E-09  0.1347E-08  0.4704E-08  0.1314E-07 -0.3951E-06 -0.6670E-06  0.4704E-08  0.1314E-07 -0.7095E-14 -0.1914E-14
     -6.496 -0.2599E-02 -0.2158E-02  0.9592E-07  0.2476E-06 -0.4033E-03 -0.3391E-03  0.9592E-07  0.2476E-06  0.4463E-08  0.1000E-07  0.4408E-07  0.9762E-07 -0.1266E-05 -0.7780E-06  0.4408E-07  0.9762E-07 -0.7945E-14  0.7952E-13
     -6.414  0.6141E-03  0.6874E-02  0.5530E-06  0.1069E-05  0.9542E-04  0.1080E-02  0.5530E-06  0.1069E-05  0.2573E-07  0.4318E-07  0.2541E-06  0.4214E-06  0.3317E-06  0.2564E-05  0.2541E-06  0.4214E-06  0.6461E-12  0.2865E-11
     -6.332  0.1518E-01  0.2430E-01  0.1670E-05  0.1897E-05  0.2355E-02  0.3819E-02  0.1670E-05  0.1897E-05  0.7769E-07  0.7661E-07  0.7674E-06  0.7479E-06  0.7520E-05  0.8978E-05  0.7674E-06  0.7479E-06  0.1806E-10  0.6643E-10
     -6.250  0.3009E-01  0.3069E-01  0.6653E-06 -0.3427E-05  0.4668E-02  0.4821E-02  0.6653E-06 -0.3427E-05  0.3081E-07 -0.1389E-06  0.3058E-06 -0.1351E-05  0.1476E-04  0.1107E-04  0.3058E-06 -0.1351E-05  0.3407E-09  0.1041E-08
     -6.167  0.2576E-01  0.1663E-01 -0.1100E-04 -0.2021E-04  0.3995E-02  0.2608E-02 -0.1100E-04 -0.2021E-04 -0.5139E-06 -0.8212E-06 -0.5056E-05 -0.7967E-05  0.1198E-04  0.5147E-05 -0.5056E-05 -0.7967E-05  0.4309E-08  0.1073E-07
     -6.085  0.7819E-02  0.1307E-02 -0.2403E-04 -0.1203E-04  0.1207E-02  0.2025E-03 -0.2403E-04 -0.1203E-04 -0.1134E-05 -0.5167E-06 -0.1104E-04 -0.4732E-05  0.2477E-05 -0.6360E-07 -0.1104E-04 -0.4732E-05  0.3508E-07  0.6915E-07
     -6.003 -0.3158E-03  0.2118E-02  0.2665E-04  0.9454E-04 -0.4243E-04  0.3554E-03  0.2665E-04  0.9454E-04  0.1165E-05  0.3708E-05  0.1227E-04  0.3730E-04  0.1392E-05  0.5221E-05  0.1227E-04  0.3730E-04  0.1703E-06  0.2463E-06
     -5.920  0.6957E-02  0.1180E-01  0.1775E-03  0.2519E-03  0.1123E-02  0.1915E-02  0.1775E-03  0.2519E-03  0.8091E-05  0.1006E-04  0.8165E-04  0.9932E-04  0.1352E-04  0.1607E-04  0.8165E-04  0.9932E-04  0.3843E-06  0.2523E-06
     -5.838  0.1435E-01  0.1376E-01  0.2825E-03  0.2583E-03  0.2295E-02  0.2222E-02  0.2825E-03  0.2583E-03  0.1327E-04  0.1101E-04  0.1298E-03  0.1017E-03  0.2290E-04  0.1673E-04  0.1298E-03  0.1017E-03 -0.2877E-06 -0.1283E-05
     -5.756  0.1031E-01  0.5703E-02  0.1791E-03  0.8380E-04  0.1642E-02  0.9134E-03  0.1791E-03  0.8380E-04  0.9834E-05  0.5243E-05  0.8179E-04  0.3251E-04  0.1438E-04  0.5124E-05  0.8179E-04  0.3251E-04 -0.3393E-05 -0.4140E-05
     -5.674  0.1945E-02  0.5262E-03  0.1482E-04  0.1137E-04  0.2995E-03  0.7522E-04  0.1482E-04  0.1137E-04  0.2460E-05  0.4980E-07  0.6178E-05  0.4596E-05  0.1240E-05  0.1787E-05  0.6178E-05  0.4596E-05 -0.4008E-05  0.9121E-06
     -5.591  0.2313E-02  0.6075E-02  0.9866E-04  0.2428E-03  0.3627E-03  0.9818E-03  0.9866E-04  0.2428E-03 -0.1006E-05 -0.9485E-06  0.4734E-04  0.9872E-04  0.1179E-04  0.2216E-04  0.4734E-04  0.9872E-04  0.1267E-04  0.2396E-04
     -5.509  0.1073E-01  0.1361E-01  0.4103E-03  0.5244E-03  0.1729E-02  0.2240E-02  0.4103E-03  0.5244E-03 -0.7156E-06 -0.2618E-06  0.1956E-03  0.2127E-03  0.4342E-04  0.4351E-04  0.1956E-03  0.2127E-03  0.4486E-04  0.4778E-04
     -5.427  0.1290E-01  0.9023E-02  0.5413E-03  0.4677E-03  0.2204E-02  0.1734E-02  0.5413E-03  0.4677E-03 -0.1100E-07  0.1145E-06  0.2578E-03  0.1897E-03  0.4602E-04  0.1900E-04  0.2578E-03  0.1897E-03  0.5711E-04  0.4192E-04
     -5.345  0.1232E-02 -0.4614E-02  0.3128E-03  0.1642E-03  0.7301E-03 -0.8387E-04  0.3128E-03  0.1642E-03  0.2908E-06  0.3766E-06  0.1491E-03  0.6680E-04 -0.1253E-04 -0.3971E-04  0.1491E-03  0.6680E-04  0.3264E-04  0.1446E-04
     -5.262 -0.5177E-02  0.2183E-02  0.3999E-04 -0.2053E-04 -0.3802E-03  0.1440E-03  0.3999E-04 -0.2053E-04  0.9513E-06  0.1159E-05  0.1977E-04 -0.7711E-05 -0.3465E-04  0.1490E-04  0.1977E-04 -0.7711E-05  0.3563E-05 -0.2613E-05
     -5.180  0.2695E-01  0.5157E-01 -0.3495E-04 -0.2665E-04  0.2282E-02  0.4516E-02 -0.3495E-04 -0.2665E-04  0.1826E-05  0.1228E-05 -0.1578E-04 -0.1096E-04  0.1705E-03  0.3095E-03 -0.1578E-04 -0.1096E-04 -0.4939E-05 -0.3360E-05
     -5.098  0.8556E-01  0.1007E+00 -0.2796E-04 -0.4049E-04  0.7462E-02  0.8906E-02 -0.2796E-04 -0.4049E-04 -0.2210E-05 -0.5687E-05 -0.1731E-04 -0.2178E-04  0.5334E-03  0.6002E-03 -0.1731E-04 -0.2178E-04 -0.1965E-05 -0.4862E-06
     -5.016  0.9943E-01  0.8342E-01 -0.1013E-03 -0.1370E-03  0.8650E-02  0.7319E-02 -0.1013E-03 -0.1370E-03 -0.1742E-04 -0.1916E-04 -0.6210E-04 -0.6385E-04  0.6205E-03  0.5009E-03 -0.6210E-04 -0.6385E-04  0.2236E-06  0.3722E-06
     -4.933  0.4896E-01  0.2615E-01 -0.1176E-03 -0.2068E-04  0.4239E-02  0.2357E-02 -0.1176E-03 -0.2068E-04 -0.1617E-04  0.2254E-05 -0.5353E-04  0.1019E-04  0.3135E-03  0.1649E-03 -0.5353E-04  0.1019E-04  0.5008E-06  0.4305E-06
     -4.851  0.1051E-01  0.1108E-01  0.3929E-03  0.7484E-03  0.1281E-02  0.1596E-02  0.3929E-03  0.7484E-03  0.7120E-04  0.1087E-03  0.2648E-03  0.3755E-03  0.7225E-04  0.5693E-04  0.2648E-03  0.3755E-03  0.8677E-06  0.9268E-06
     -4.769  0.2968E-01  0.4306E-01  0.1415E-02  0.1737E-02  0.3652E-02  0.5042E-02  0.1415E-02  0.1737E-02  0.2262E-03  0.2286E-03  0.8161E-03  0.7824E-03  0.1533E-03  0.1971E-03  0.8161E-03  0.7824E-03  0.1337E-05  0.8165E-06
     -4.686  0.5649E-01  0.5673E-01  0.1851E-02  0.1719E-02  0.6174E-02  0.6112E-02  0.1851E-02  0.1719E-02  0.2793E-03  0.2148E-03  0.9785E-03  0.7154E-03  0.2745E-03  0.2539E-03  0.9785E-03  0.7154E-03 -0.2589E-05 -0.4858E-05
     -4.604  0.4087E-01  0.2852E-01  0.1043E-02  0.6506E-03  0.4202E-02  0.2892E-02  0.1043E-02  0.6506E-03  0.1599E-03  0.8650E-04  0.5083E-03  0.2482E-03  0.1933E-03  0.1279E-03  0.5083E-03  0.2482E-03 -0.1450E-04 -0.1459E-04
     -4.522  0.9571E-02  0.4472E-02  0.1334E-03  0.5973E-04  0.8748E-03  0.3626E-03  0.1334E-03  0.5973E-04  0.2043E-04 -0.5900E-05  0.3853E-04 -0.5899E-05  0.4092E-04  0.1071E-04  0.3853E-04 -0.5899E-05 -0.8248E-05  0.5145E-05
     -4.440  0.1122E-01  0.1881E-01  0.4688E-03  0.8100E-03  0.1060E-02  0.1838E-02  0.4688E-03  0.8100E-03 -0.2247E-04 -0.1726E-04  0.1249E-03  0.2021E-03  0.1935E-05  0.1765E-04  0.1249E-03  0.2021E-03  0.6672E-04  0.8754E-04
     -4.357  0.3769E-01  0.4374E-01  0.1549E-02  0.1795E-02  0.3736E-02  0.4356E-02  0.1549E-02  0.1795E-02 -0.9267E-05 -0.3451E-05  0.5093E-03  0.4882E-03  0.4839E-04  0.6786E-04  0.5093E-03  0.4882E-03  0.1764E-03  0.1681E-03
     -4.275  0.4384E-01  0.3907E-01  0.1757E-02  0.1576E-02  0.4356E-02  0.3893E-02  0.1757E-02  0.1576E-02  0.3861E-05  0.3669E-05  0.5901E-03  0.4333E-03  0.6614E-04  0.6499E-04  0.5901E-03  0.4333E-03  0.1899E-03  0.1430E-03
     -4.193  0.2110E-01  0.1324E-01  0.8447E-03  0.5378E-03  0.2098E-02  0.1321E-02  0.8447E-03  0.5378E-03  0.1059E-04  0.7876E-05  0.2883E-03  0.1509E-03  0.3277E-04  0.2225E-04  0.2883E-03  0.1509E-03  0.8853E-04  0.4682E-04