    5    5    1    2
  0.2199349E+02  0.2496087E-09  0.2496087E-09  0.1765000E-08  0.5000000E-15
  1.000000000000000E-004
  CAR 
 clean (100) nickel surface              
     50     13     36
 
  0.0000000E+00  0.0000000E+00  0.0000000E+00  0.7692308E-01
      1         -6.263538       -6.306123   1.000000   1.000000
      2         -5.079821       -5.113843   1.000000   1.000000
      3         -3.401428       -3.395546   1.000000   1.000000
      4         -2.280490       -2.072781   1.000000   1.000000
      5         -2.201025       -1.885664   1.000000   1.000000
      6         -1.711881       -1.175795   1.000000   1.000000
      7         -1.360546       -0.795451   1.000000   1.000000
      8         -0.836844       -0.204347   1.000000   1.000000
      9         -0.370283        0.287020   1.000000   1.000000
     10         -0.122429        0.534393   1.000000   1.000000
     11          0.029185        0.716468   1.000000   1.000000
     12          0.029185        0.716468   1.000000   1.000000
     13          0.401062        1.049960   1.000000   1.000000
     14          0.401062        1.120533   1.000000   1.000000
     15          0.501837        1.120533   1.000000   1.000000
     16          0.759007        1.355638   1.000000   1.000000
     17          0.947452        1.377006   1.000000   1.000000
     18          0.985258        1.568791   1.000000   0.999994
     19          0.985258        1.673620   1.000000   0.999879
     20          1.005782        1.735132   1.000000   0.999482
     21          1.094405        1.735132   1.000000   0.999482
     22          1.168795        1.868239   1.000000   0.995852
     23          1.431482        2.137224   1.000000   1.048317
     24          1.514112        2.312977   0.999999   0.486217
     25          1.514112        2.312977   0.999999   0.486217
     26          1.615867        2.407384   0.999975   0.069829
     27          1.679956        2.442171   0.999857  -0.008899
     28          1.794455        2.586551   0.998389  -0.020676
     29          1.794455        2.586551   0.998389  -0.020676
     30          2.850940        2.907991   0.001041   0.000315
     31          4.213759        4.199756   0.000000   0.000000
     32          6.648821        7.008178   0.000000   0.000000
     33          8.092179        8.231232   0.000000   0.000000
     34          9.892414       10.173146   0.000000   0.000000
     35         13.063010       13.305999   0.000000   0.000000
     36         13.750562       13.952191   0.000000   0.000000
 
  0.1250000E+00  0.0000000E+00  0.0000000E+00  0.7692308E-01
      1         -5.869685       -5.910851   1.000000   1.000000
      2         -4.711687       -4.741204   1.000000   1.000000
      3         -3.086387       -3.066075   1.000000   1.000000
      4         -2.044095       -1.797107   1.000000   1.000000
      5         -1.966926       -1.652513   1.000000   1.000000
      6         -1.587223       -1.057347   1.000000   1.000000
      7         -1.253078       -0.698289   1.000000   1.000000
      8         -0.768829       -0.148707   1.000000   1.000000
      9         -0.356450        0.290981   1.000000   1.000000
     10         -0.041229        0.620353   1.000000   1.000000
     11         -0.004920        0.676293   1.000000   1.000000
     12          0.078113        0.766248   1.000000   1.000000
     13          0.133829        0.767026   1.000000   1.000000
     14          0.360336        0.886905   1.000000   1.000000
     15          0.363473        1.062847   1.000000   1.000000
     16          0.745756        1.410779   1.000000   1.000000
     17          0.764187        1.459596   1.000000   1.000000
     18          0.843480        1.472699   1.000000   1.000000
     19          0.939330        1.598234   1.000000   0.999985
     20          0.971003        1.622543   1.000000   0.999970
     21          1.161586        1.734744   1.000000   0.999486
     22          1.206472        1.887241   1.000000   0.995300
     23          1.213879        1.908341   1.000000   0.995068
     24          1.241448        1.986293   1.000000   1.003501
     25          1.526907        2.311600   0.999999   0.493503
     26          1.539472        2.317313   0.999998   0.463318
     27          1.693009        2.383417   0.999803   0.150977
     28          1.800523        2.458032   0.998221  -0.030192
     29          1.930495        2.592789   0.995604  -0.017926
     30          3.590919        3.810280   0.000000   0.000000
     31          5.070807        5.192203   0.000000   0.000000
     32          7.026927        7.386231   0.000000   0.000000
     33          8.518785        8.662658   0.000000   0.000000
     34         10.209149       10.487933   0.000000   0.000000
     35         13.412125       13.649156   0.000000   0.000000
     36         13.893060       14.064981   0.000000   0.000000
 
  0.2500000E+00  0.0000000E+00  0.0000000E+00  0.7692308E-01
      1         -4.760675       -4.789572   1.000000   1.000000
      2         -3.737274       -3.729921   1.000000   1.000000
      3         -2.432746       -2.299337   1.000000   1.000000
      4         -1.639384       -1.274813   1.000000   1.000000
      5         -1.516759       -1.102854   1.000000   1.000000
      6         -1.250677       -0.784884   1.000000   1.000000
      7         -0.830615       -0.374510   1.000000   1.000000
      8         -0.415482        0.099554   1.000000   1.000000
      9         -0.379870        0.210870   1.000000   1.000000
     10         -0.029176        0.516272   1.000000   1.000000
     11         -0.000597        0.630650   1.000000   1.000000
     12          0.061998        0.718725   1.000000   1.000000
     13          0.102894        0.743492   1.000000   1.000000
     14          0.153975        0.832171   1.000000   1.000000
     15          0.227545        0.893219   1.000000   1.000000
     16          0.412301        1.046517   1.000000   1.000000
     17          0.487164        1.142995   1.000000   1.000000
     18          0.507849        1.182089   1.000000   1.000000
     19          0.676317        1.358932   1.000000   1.000000
     20          1.031046        1.711016   1.000000   0.999697
     21          1.087165        1.742197   1.000000   0.999398
     22          1.100303        1.814451   1.000000   0.997794
     23          1.165991        1.849641   1.000000   0.996528
     24          1.369266        2.012413   1.000000   1.011676
     25          1.450119        2.141942   1.000000   1.046275
     26          1.581983        2.351604   0.999991   0.288954
     27          1.711745        2.496046   0.999692  -0.051301
     28          1.747165        2.526900   0.999333  -0.047221
     29          2.902558        3.257758   0.000357   0.000000
     30          4.946343        5.147587   0.000000   0.000000
     31          6.750659        6.898048   0.000000   0.000000
     32          8.130008        8.477282   0.000000   0.000000
     33          9.782732        9.935866   0.000000   0.000000
     34          9.996800       10.180145   0.000000   0.000000
     35         11.275272       11.492372   0.000000   0.000000
     36         11.325238       11.533392   0.000000   0.000000
 
  0.3750000E+00  0.0000000E+00  0.0000000E+00  0.7692308E-01
      1         -3.243276       -3.198636   1.000000   1.000000
      2         -2.711986       -2.534984   1.000000   1.000000
      3         -2.144664       -1.801924   1.000000   1.000000
      4         -1.618379       -1.187703   1.000000   1.000000
      5         -1.271450       -0.827429   1.000000   1.000000
      6         -0.809734       -0.389419   1.000000   1.000000
      7         -0.397817        0.127846   1.000000   1.000000
      8         -0.369821        0.169554   1.000000   1.000000
      9         -0.064038        0.420189   1.000000   1.000000
     10         -0.053252        0.532352   1.000000   1.000000
     11         -0.005681        0.560187   1.000000   1.000000
     12          0.055623        0.698006   1.000000   1.000000
     13          0.061533        0.705444   1.000000   1.000000
     14          0.156689        0.756256   1.000000   1.000000
     15          0.198976        0.815525   1.000000   1.000000
     16          0.389166        1.060387   1.000000   1.000000
     17          0.407821        1.105823   1.000000   1.000000
     18          0.699319        1.192048   1.000000   1.000000
     19          0.806295        1.371741   1.000000   1.000000
     20          0.953217        1.503725   1.000000   0.999999
     21          1.026503        1.780482   1.000000   0.998734
     22          1.420880        2.191759   1.000000   0.984448
     23          1.515382        2.224702   0.999999   0.894453
     24          1.559293        2.295854   0.999996   0.576474
     25          1.661696        2.358339   0.999911   0.257293
     26          1.701381        2.434118   0.999759   0.005270
     27          1.770976        2.479546   0.998936  -0.046634
     28          1.961700        2.481470   0.998581  -0.047497
     29          3.924010        4.131069   0.000000   0.000000
     30          5.597188        5.809668   0.000000   0.000000
     31          7.182409        7.388840   0.000000   0.000000
     32          7.412626        7.628524   0.000000   0.000000
     33          9.260680        9.443584   0.000000   0.000000
     34          9.475153        9.713863   0.000000   0.000000
     35         10.054772       10.396998   0.000000   0.000000
     36         11.120516       11.263557   0.000000   0.000000
 
  0.5000000E+00  0.0000000E+00  0.0000000E+00  0.7692308E-01
      1         -2.370804       -2.028501   1.000000   1.000000
      2         -2.323463       -1.966387   1.000000   1.000000
      3         -2.061854       -1.804595   1.000000   1.000000
      4         -1.694343       -1.300861   1.000000   1.000000
      5         -1.392526       -1.105635   1.000000   1.000000
      6         -0.483725        0.075476   1.000000   1.000000
      7         -0.364277        0.142727   1.000000   1.000000
      8         -0.332001        0.219008   1.000000   1.000000
      9         -0.172391        0.377495   1.000000   1.000000
     10         -0.083759        0.523972   1.000000   1.000000
     11         -0.028166        0.607082   1.000000   1.000000
     12         -0.004972        0.627890   1.000000   1.000000
     13          0.076876        0.702822   1.000000   1.000000
     14          0.156928        0.721343   1.000000   1.000000
     15          0.297533        0.740053   1.000000   1.000000
     16          0.356467        0.942788   1.000000   1.000000
     17          0.369314        1.073112   1.000000   1.000000
     18          0.703382        1.404781   1.000000   1.000000
     19          1.070237        1.570447   1.000000   0.999994
     20          1.144326        1.895813   1.000000   0.995142
     21          1.341684        2.114563   1.000000   1.051486
     22          1.532117        2.311877   0.999998   0.492034
     23          1.595944        2.332301   0.999986   0.385087
     24          1.609485        2.361757   0.999980   0.241675
     25          1.694321        2.470807   0.999796  -0.041525
     26          2.518943        2.510994  -0.049470  -0.050988
     27          2.867112        3.291240   0.000761   0.000000
     28          3.194961        3.486890   0.000000   0.000000
     29          3.214207        3.723987   0.000000   0.000000
     30          3.296014        3.734694   0.000000   0.000000
     31          6.706466        6.964077   0.000000   0.000000
     32          6.902651        7.097579   0.000000   0.000000
     33          8.926309        9.193516   0.000000   0.000000
     34          9.557469        9.764725   0.000000   0.000000
     35         10.698382       10.810963   0.000000   0.000000
     36         11.894089       11.941486   0.000000   0.000000
 
  0.5000000E+00  0.1250000E+00  0.0000000E+00  0.7692308E-01
      1         -2.124822       -1.766752   1.000000   1.000000
      2         -2.107850       -1.737911   1.000000   1.000000
      3         -1.863248       -1.593386   1.000000   1.000000
      4         -1.566909       -1.157188   1.000000   1.000000
      5         -1.319190       -1.002025   1.000000   1.000000
      6         -0.705828       -0.143615   1.000000   1.000000
      7         -0.584253       -0.073465   1.000000   1.000000
      8         -0.456415        0.038123   1.000000   1.000000
      9         -0.385569        0.162462   1.000000   1.000000
     10         -0.259134        0.289148   1.000000   1.000000
     11         -0.173310        0.438900   1.000000   1.000000
     12         -0.081659        0.483690   1.000000   1.000000
     13          0.071117        0.615806   1.000000   1.000000
     14          0.183337        0.828527   1.000000   1.000000
     15          0.327114        0.957917   1.000000   1.000000
     16          0.342921        0.979539   1.000000   1.000000
     17          0.536227        1.185294   1.000000   1.000000
     18          0.739750        1.346866   1.000000   1.000000
     19          0.923247        1.572701   1.000000   0.999993
     20          1.237310        1.866850   1.000000   0.995900
     21          1.239876        2.001162   1.000000   1.007777
     22          1.359788        2.076091   1.000000   1.040341
     23          1.583022        2.301030   0.999991   0.549326
     24          1.592441        2.317712   0.999988   0.461211
     25          1.715057        2.475412   0.999668  -0.044467
     26          3.400397        3.823948   0.000000   0.000000
     27          3.469629        3.969764   0.000000   0.000000
     28          3.575225        3.991283   0.000000   0.000000
     29          3.747403        4.023415   0.000000   0.000000
     30          3.827130        4.043366   0.000000   0.000000
     31          6.946191        7.206130   0.000000   0.000000
     32          7.244231        7.429249   0.000000   0.000000
     33          9.093618        9.338912   0.000000   0.000000
     34          9.830379       10.013208   0.000000   0.000000
     35         10.967298       11.068973   0.000000   0.000000
     36         12.236851       12.279763   0.000000   0.000000
 
  0.5000000E+00  0.2500000E+00  0.0000000E+00  0.7692308E-01
      1         -1.815716       -1.461283   1.000000   1.000000
      2         -1.757745       -1.436407   1.000000   1.000000
      3         -1.602961       -1.169096   1.000000   1.000000
      4         -1.532832       -1.050259   1.000000   1.000000
      5         -1.415538       -0.936320   1.000000   1.000000
      6         -1.084767       -0.627630   1.000000   1.000000
      7         -1.083276       -0.544532   1.000000   1.000000
      8         -0.858197       -0.315492   1.000000   1.000000
      9         -0.648984       -0.108337   1.000000   1.000000
     10         -0.568750        0.000815   1.000000   1.000000
     11         -0.081081        0.471460   1.000000   1.000000
     12         -0.012472        0.503028   1.000000   1.000000
     13          0.136285        0.680658   1.000000   1.000000
     14          0.630290        1.276641   1.000000   1.000000
     15          0.650539        1.306155   1.000000   1.000000
     16          0.656272        1.320409   1.000000   1.000000
     17          0.680607        1.372700   1.000000   1.000000
     18          0.836094        1.491845   1.000000   1.000000
     19          1.143070        1.848394   1.000000   0.996575
     20          1.186266        1.896673   1.000000   0.995130
     21          1.438825        2.119397   1.000000   1.051620
     22          1.488207        2.158582   1.000000   1.034389
     23          1.670933        2.386098   0.999887   0.140843
     24          1.729853        2.486751   0.999538  -0.049413
     25          1.750875        2.512259   0.999280  -0.050802
     26          4.057705        4.387020   0.000000   0.000000
     27          4.099255        4.502605   0.000000   0.000000
     28          4.897932        5.236439   0.000000   0.000000
     29          4.988045        5.236914   0.000000   0.000000
     30          5.726744        5.922825   0.000000   0.000000
     31          7.609608        7.853222   0.000000   0.000000
     32          8.310883        8.468154   0.000000   0.000000
     33          9.695965        9.879828   0.000000   0.000000
     34         10.748005       10.879644   0.000000   0.000000
     35         11.791678       11.862314   0.000000   0.000000
     36         13.142521       13.250333   0.000000   0.000000
 
  0.5000000E+00  0.3750000E+00  0.0000000E+00  0.7692308E-01
      1         -2.075480       -1.682979   1.000000   1.000000
      2         -1.981352       -1.612999   1.000000   1.000000
      3         -1.654140       -1.202439   1.000000   1.000000
      4         -1.582640       -1.028049   1.000000   1.000000
      5         -1.548852       -1.021123   1.000000   1.000000
      6         -1.337058       -0.847551   1.000000   1.000000
      7         -1.253657       -0.699933   1.000000   1.000000
      8         -1.106699       -0.572001   1.000000   1.000000
      9         -1.035622       -0.481942   1.000000   1.000000
     10         -0.564019        0.010720   1.000000   1.000000
     11         -0.276944        0.308152   1.000000   1.000000
     12          0.447638        1.044904   1.000000   1.000000
     13          0.493830        1.120933   1.000000   1.000000
     14          1.034075        1.676643   1.000000   0.999869
     15          1.108473        1.736381   1.000000   0.999468
     16          1.302757        2.012204   1.000000   1.011598
     17          1.362034        2.022004   1.000000   1.015424
     18          1.372042        2.061194   1.000000   1.033447
     19          1.412773        2.139801   1.000000   1.047269
     20          1.440204        2.143263   1.000000   1.045605
     21          1.640760        2.333744   0.999950   0.377677
     22          1.652912        2.362680   0.999930   0.237516
     23          1.720440        2.440193   0.999625  -0.005636
     24          1.797173        2.577613   0.998315  -0.024797
     25          1.889358        2.695096   0.995254   0.004603
     26          4.924352        5.085792   0.000000   0.000000
     27          4.928679        5.124693   0.000000   0.000000
     28          6.349965        6.553393   0.000000   0.000000
     29          6.413599        6.585096   0.000000   0.000000
     30          7.982814        8.136498   0.000000   0.000000
     31          8.695739        8.869670   0.000000   0.000000
     32         10.162265       10.290256   0.000000   0.000000
     33         10.956563       11.069835   0.000000   0.000000
     34         12.383115       12.485653   0.000000   0.000000
     35         13.002870       13.120278   0.000000   0.000000
     36         13.118531       13.301866   0.000000   0.000000
 
  0.5000000E+00  0.5000000E+00  0.0000000E+00  0.7692308E-01
      1         -2.203268       -1.798118   1.000000   1.000000
      2         -2.096826       -1.716981   1.000000   1.000000
      3         -1.761436       -1.334862   1.000000   1.000000
      4         -1.684520       -1.123868   1.000000   1.000000
      5         -1.684520       -1.123868   1.000000   1.000000
      6         -1.458152       -0.954629   1.000000   1.000000
      7         -1.209830       -0.690902   1.000000   1.000000
      8         -1.209830       -0.633500   1.000000   1.000000
      9         -1.202874       -0.633500   1.000000   1.000000
     10         -0.384078        0.206036   1.000000   1.000000
     11         -0.384078        0.206036   1.000000   1.000000
     12          0.632709        1.285202   1.000000   1.000000
     13          0.632709        1.285202   1.000000   1.000000
     14          1.092186        1.737048   1.000000   0.999460
     15          1.204463        1.831876   1.000000   0.997190
     16          1.469553        2.153257   1.000000   1.039040
     17          1.533876        2.203627   0.999998   0.956854
     18          1.533876        2.280008   0.999998   0.657754
     19          1.555782        2.280008   0.999996   0.657754
     20          1.653868        2.346630   0.999928   0.313033
     21          1.820427        2.540648   0.997595  -0.042063
     22          1.875144        2.602009   0.995628  -0.014104
     23          1.876978        2.634660   0.995572  -0.003448
     24          2.027982        2.860245   1.017938   0.000871
     25          2.066026        2.909914   1.035743   0.000301
     26          5.490888        5.519319   0.000000   0.000000
     27          5.490888        5.519319   0.000000   0.000000
     28          7.305362        7.396092   0.000000   0.000000
     29          7.305362        7.396092   0.000000   0.000000
     30          9.691212        9.792652   0.000000   0.000000
     31          9.691212        9.792652   0.000000   0.000000
     32         11.532917       11.794077   0.000000   0.000000
     33         11.549743       11.796310   0.000000   0.000000
     34         11.908791       12.144432   0.000000   0.000000
     35         12.234896       12.425811   0.000000   0.000000
     36         12.339618       12.443299   0.000000   0.000000
 
  0.3750000E+00  0.3750000E+00  0.0000000E+00  0.7692308E-01
      1         -2.157296       -1.860427   1.000000   1.000000
      2         -1.785083       -1.376541   1.000000   1.000000
      3         -1.575624       -1.207423   1.000000   1.000000
      4         -1.483795       -0.943266   1.000000   1.000000
      5         -1.468661       -0.894746   1.000000   1.000000
      6         -1.241714       -0.763329   1.000000   1.000000
      7         -1.204357       -0.706318   1.000000   1.000000
      8         -1.066060       -0.482678   1.000000   1.000000
      9         -0.888157       -0.352494   1.000000   1.000000
     10         -0.505066        0.072310   1.000000   1.000000
     11         -0.398228        0.177442   1.000000   1.000000
     12          0.247414        0.830317   1.000000   1.000000
     13          0.309860        0.885432   1.000000   1.000000
     14          1.019083        1.653446   1.000000   0.999929
     15          1.052688        1.692747   1.000000   0.999804
     16          1.142014        1.836288   1.000000   0.997029
     17          1.150880        1.862151   1.000000   0.996066
     18          1.178981        1.904288   1.000000   0.995068
     19          1.321803        1.964492   1.000000   0.999013
     20          1.404304        2.079427   1.000000   1.041781
     21          1.494570        2.202283   1.000000   0.960250
     22          1.531897        2.217305   0.999998   0.918304
     23          1.538567        2.261247   0.999998   0.748030
     24          1.671032        2.455383   0.999886  -0.027218
     25          1.806070        2.604220   0.998057  -0.013236
     26          2.760197        3.058866   0.003876   0.000005
     27          4.157736        4.468568   0.000000   0.000000
     28          5.904383        6.150206   0.000000   0.000000
     29          7.159733        7.299003   0.000000   0.000000
     30          7.965764        8.132305   0.000000   0.000000
     31          8.670760        8.814933   0.000000   0.000000
     32         10.163728       10.271444   0.000000   0.000000
     33         10.828958       10.956135   0.000000   0.000000
     34         11.877072       12.098741   0.000000   0.000000
     35         12.035177       12.156578   0.000000   0.000000
     36         12.749679       12.905513   0.000000   0.000000
 
  0.2500000E+00  0.2500000E+00  0.0000000E+00  0.7692308E-01
      1         -3.472026       -3.463731   1.000000   1.000000
      2         -2.565355       -2.504678   1.000000   1.000000
      3         -1.562771       -1.342595   1.000000   1.000000
      4         -1.279275       -0.855213   1.000000   1.000000
      5         -0.969991       -0.578242   1.000000   1.000000
      6         -0.944209       -0.336225   1.000000   1.000000
      7         -0.800141       -0.238494   1.000000   1.000000
      8         -0.768845       -0.233428   1.000000   1.000000
      9         -0.715289       -0.171218   1.000000   1.000000
     10         -0.621158       -0.057167   1.000000   1.000000
     11         -0.309231        0.246325   1.000000   1.000000
     12         -0.204598        0.404512   1.000000   1.000000
     13          0.013516        0.620004   1.000000   1.000000
     14          0.434753        1.150364   1.000000   1.000000
     15          0.469349        1.191854   1.000000   1.000000
     16          0.545117        1.225212   1.000000   1.000000
     17          0.658644        1.251542   1.000000   1.000000
     18          0.790024        1.406627   1.000000   1.000000
     19          0.812616        1.481237   1.000000   1.000000
     20          0.877035        1.502342   1.000000   0.999999
     21          0.973234        1.629298   1.000000   0.999963
     22          0.985992        1.662878   1.000000   0.999908
     23          1.022044        1.744402   1.000000   0.999370
     24          1.353587        2.011725   1.000000   1.011421
     25          1.449293        2.231643   1.000000   0.870195
     26          1.764574        2.475343   0.999057  -0.044428
     27          1.843062        2.550299   0.996776  -0.037800
     28          2.863471        3.385530   0.000818   0.000000
     29          4.527473        4.855171   0.000000   0.000000
     30          6.623933        6.804608   0.000000   0.000000
     31          8.498737        8.618984   0.000000   0.000000
     32          9.626022        9.966477   0.000000   0.000000
     33         10.443763       10.593472   0.000000   0.000000
     34         11.418242       11.580003   0.000000   0.000000
     35         11.748995       11.906581   0.000000   0.000000
     36         12.288582       12.537710   0.000000   0.000000
 
  0.1250000E+00  0.1250000E+00  0.0000000E+00  0.7692308E-01
      1         -5.483628       -5.523039   1.000000   1.000000
      2         -4.349578       -4.374590   1.000000   1.000000
      3         -2.773595       -2.741230   1.000000   1.000000
      4         -1.827967       -1.529239   1.000000   1.000000
      5         -1.721077       -1.435415   1.000000   1.000000
      6         -1.457878       -0.926361   1.000000   1.000000
      7         -1.162491       -0.604689   1.000000   1.000000
      8         -0.742084       -0.122691   1.000000   1.000000
      9         -0.427283        0.216935   1.000000   1.000000
     10          0.003644        0.574156   1.000000   1.000000
     11          0.035022        0.665184   1.000000   1.000000
     12          0.051304        0.724926   1.000000   1.000000
     13          0.064962        0.727056   1.000000   1.000000
     14          0.146329        0.821890   1.000000   1.000000
     15          0.384311        1.096364   1.000000   1.000000
     16          0.539772        1.189137   1.000000   1.000000
     17          0.741674        1.382543   1.000000   1.000000
     18          0.797423        1.401697   1.000000   1.000000
     19          0.833380        1.474403   1.000000   1.000000
     20          0.940155        1.592050   1.000000   0.999988
     21          0.944797        1.688364   1.000000   0.999824
     22          1.107692        1.777728   1.000000   0.998795
     23          1.230016        1.820945   1.000000   0.997577
     24          1.365047        2.072654   1.000000   1.038808
     25          1.410733        2.136762   1.000000   1.048488
     26          1.481476        2.274644   1.000000   0.684360
     27          1.628402        2.324509   0.999964   0.425513
     28          1.783090        2.572241   0.998674  -0.027347
     29          2.470082        2.961986  -0.041009   0.000082
     30          4.157474        4.398090   0.000000   0.000000
     31          5.714634        5.858342   0.000000   0.000000
     32          7.403742        7.762530   0.000000   0.000000
     33          8.943813        9.092108   0.000000   0.000000
     34         10.526723       10.803229   0.000000   0.000000
     35         13.766727       13.998711   0.000000   0.000000
     36         14.191568       14.373326   0.000000   0.000000
 
  0.0000000E+00  0.0000000E+00  0.0000000E+00  0.7692308E-01
      1         -6.263538       -6.306123   1.000000   1.000000
      2         -5.079821       -5.113843   1.000000   1.000000
      3         -3.401428       -3.395547   1.000000   1.000000
      4         -2.280490       -2.072781   1.000000   1.000000
      5         -2.201025       -1.885664   1.000000   1.000000
      6         -1.711881       -1.175795   1.000000   1.000000
      7         -1.360546       -0.795451   1.000000   1.000000
      8         -0.836844       -0.204347   1.000000   1.000000
      9         -0.370283        0.287020   1.000000   1.000000
     10         -0.122429        0.534393   1.000000   1.000000
     11          0.029185        0.716468   1.000000   1.000000
     12          0.029185        0.716468   1.000000   1.000000
     13          0.401062        1.049960   1.000000   1.000000
     14          0.401062        1.120533   1.000000   1.000000
     15          0.501837        1.120533   1.000000   1.000000
     16          0.759007        1.355638   1.000000   1.000000
     17          0.947452        1.377006   1.000000   1.000000
     18          0.985258        1.568791   1.000000   0.999994
     19          0.985258        1.673620   1.000000   0.999879
     20          1.005782        1.735132   1.000000   0.999482