       N       E                     dE             d eps       ncg     rms          rms(c)
DAV:   1     0.247115143676E+03    0.24712E+03   -0.15699E+04  1872   0.102E+03
DAV:   2    -0.117078702743E+02   -0.25882E+03   -0.24333E+03  1912   0.258E+02
DAV:   3    -0.265069072071E+02   -0.14799E+02   -0.14200E+02  2020   0.820E+01
DAV:   4    -0.266767250705E+02   -0.16982E+00   -0.16969E+00  2144   0.894E+00
DAV:   5    -0.266811183515E+02   -0.43933E-02   -0.43932E-02  2256   0.107E+00
DAV:   6    -0.266813106955E+02   -0.19234E-03   -0.19234E-03  2436   0.201E-01
DAV:   7    -0.266813121442E+02   -0.14487E-05   -0.14488E-05  1224   0.216E-02
   1 F= -.26681312E+02 E0= -.26679957E+02  d E =-.541958E-02  mag=     3.1321
