 vasp.6.3.0 20Jan22 (build Feb 01 2022 16:52:37) complex                        
  
 executed on           TETRA_NSC1 date 2022.02.23  16:06:58
 running    4 mpi-ranks, with    1 threads/rank
 distrk:  each k-point on    4 cores,    1 groups
 distr:  one band on NCORE=   1 cores,    4 groups


--------------------------------------------------------------------------------------------------------


 INCAR:
   ICHARG = 11
   SYSTEM = clean (100) nickel surface
   ENMAX = 270
   ISMEAR = 2
   SIGMA = 0.2
   ALGO = Normal
   ISPIN = 2
   MAGMOM = 5*1
   LORBIT = 11

 POTCAR:    PAW_PBE Ni 02Aug2007                  
 POTCAR:    PAW_PBE Ni 02Aug2007                  
   VRHFIN =Ni:                                                                                      
   LEXCH  = PE                                                                                      
   EATOM  =  1077.6739 eV,   79.2068 Ry                                                             
                                                                                                    
   TITEL  = PAW_PBE Ni 02Aug2007                                                                    
   LULTRA =        F    use ultrasoft PP ?                                                          
   IUNSCR =        1    unscreen: 0-lin 1-nonlin 2-no                                               
   RPACOR =    2.000    partial core radius                                                         
   POMASS =   58.690; ZVAL   =   10.000    mass and valenz                                          
   RCORE  =    2.300    outmost cutoff radius                                                       
   RWIGS  =    2.430; RWIGS  =    1.286    wigner-seitz radius (au A)                               
   ENMAX  =  269.532; ENMIN  =  202.149 eV                                                          
   RCLOC  =    1.201    cutoff for local pot                                                        
   LCOR   =        T    correct aug charges                                                         
   LPAW   =        T    paw PP                                                                      
   EAUG   =  544.565                                                                                
   DEXC   =    0.000                                                                                
   RMAX   =    2.357    core radius for proj-oper                                                   
   RAUG   =    1.300    factor for augmentation sphere                                              
   RDEP   =    2.390    radius for radial grids                                                     
   RDEPT  =    1.838    core radius for aug-charge                                                  
                                                                                                    
   Atomic configuration                                                                             
    9 entries                                                                                       
     n  l   j            E        occ.                                                              
     1  0  0.50     -8206.4253   2.0000                                                             
     2  0  0.50      -976.1748   2.0000                                                             
     2  1  1.50      -839.0571   6.0000                                                             
     3  0  0.50      -105.9991   2.0000                                                             
     3  1  1.50       -66.4603   6.0000                                                             
     3  2  2.50        -4.6458   9.0000                                                             
     4  0  0.50        -4.4926   1.0000                                                             
     4  1  1.50        -4.0817   0.0000                                                             
     4  3  2.50        -1.3606   0.0000                                                             
   Description                                                                                      
     l       E           TYP  RCUT    TYP  RCUT                                                     
     2     -4.6457903     23  2.300                                                                 
     2     -6.0063729     23  2.300                                                                 
     0     -4.4925590     23  2.300                                                                 
     0      5.0102601     23  2.300                                                                 
     1     -2.7211652     23  2.300                                                                 
     1     16.5183231     23  2.300                                                                 
  local pseudopotential read in
  partial core-charges read in
  partial kinetic energy density read in
  atomic valenz-charges read in
  non local Contribution for L=           2  read in
    real space projection operators read in
  non local Contribution for L=           2  read in
    real space projection operators read in
  non local Contribution for L=           0  read in
    real space projection operators read in
  non local Contribution for L=           0  read in
    real space projection operators read in
  non local Contribution for L=           1  read in
    real space projection operators read in
  non local Contribution for L=           1  read in
    real space projection operators read in
    PAW grid and wavefunctions read in
 
   number of l-projection  operators is LMAX  =           6
   number of lm-projection operators is LMMAX =          18
 
  PAW_PBE Ni 02Aug2007                  :
 energy of atom  1       EATOM=-1077.6739
 kinetic energy error for atom=    0.0378 (will be added to EATOM!!)
 
 
 POSCAR: fcc (100) surface
  positions in direct lattice
  velocities in cartesian coordinates
 exchange correlation table for  LEXCH =        8
   RHO(1)=    0.500       N(1)  =     2000
   RHO(2)=  100.500       N(2)  =     4000
 


--------------------------------------------------------------------------------------------------------


 ion  position               nearest neighbor table
   1  0.000  0.000  0.000-   2 2.50   2 2.50   2 2.50   2 2.50
   2  0.500  0.500  0.100-   1 2.50   3 2.50   1 2.50   3 2.50   1 2.50   3 2.50   1 2.50   3 2.50

   3  0.000  0.000  0.200-   2 2.50   2 2.50   2 2.50   2 2.50   4 2.50   4 2.50   4 2.50   4 2.50

   4  0.500  0.500  0.300-   5 2.44   5 2.44   5 2.44   5 2.44   3 2.50   3 2.50   3 2.50   3 2.50

   5  0.000  0.000  0.396-   4 2.44   4 2.44   4 2.44   4 2.44
 
  LATTYP: Found a simple tetragonal cell.
 ALAT       =     2.4960869376
 C/A-ratio  =     7.0710678119
  
  Lattice vectors:
  
 A1 = (   1.7650000000,   1.7650000000,   0.0000000000)
 A2 = (  -1.7650000000,   1.7650000000,   0.0000000000)
 A3 = (   0.0000000000,   0.0000000000,  17.6500000000)


Analysis of symmetry for initial positions (statically):
=====================================================================
 Subroutine PRICEL returns:
 Original cell was already a primitive cell.
 

 Routine SETGRP: Setting up the symmetry group for a 
 simple tetragonal supercell.


 Subroutine GETGRP returns: Found  8 space group operations
 (whereof  8 operations were pure point group operations)
 out of a pool of 16 trial point group operations.


The static configuration has the point symmetry C_4v.


Analysis of symmetry for dynamics (positions and initial velocities):
=====================================================================
 Subroutine PRICEL returns:
 Original cell was already a primitive cell.
 

 Routine SETGRP: Setting up the symmetry group for a 
 simple tetragonal supercell.


 Subroutine GETGRP returns: Found  8 space group operations
 (whereof  8 operations were pure point group operations)
 out of a pool of 16 trial point group operations.


The dynamic configuration has the point symmetry C_4v.


Analysis of constrained symmetry for selective dynamics:
=====================================================================
 Subroutine PRICEL returns:
 Original cell was already a primitive cell.
 

 Routine SETGRP: Setting up the symmetry group for a 
 simple tetragonal supercell.


 Subroutine GETGRP returns: Found  8 space group operations
 (whereof  8 operations were pure point group operations)
 out of a pool of 16 trial point group operations.


The constrained configuration has the point symmetry C_4v.


Analysis of structural, dynamic, and magnetic symmetry:
=====================================================================
 Subroutine PRICEL returns:
 Original cell was already a primitive cell.
 

 Routine SETGRP: Setting up the symmetry group for a 
 simple tetragonal supercell.


 Subroutine GETGRP returns: Found  8 space group operations
 (whereof  8 operations were pure point group operations)
 out of a pool of 16 trial point group operations.


The overall configuration has the point symmetry C_4v.


 Subroutine INISYM returns: Found  8 space group operations
 (whereof  8 operations are pure point group operations),
 and found     1 'primitive' translations


----------------------------------------------------------------------------------------

                                     Primitive cell                                     

  volume of cell :     109.9674

  direct lattice vectors                    reciprocal lattice vectors
     1.765000000  1.765000000  0.000000000     0.283286119  0.283286119  0.000000000
    -1.765000000  1.765000000  0.000000000    -0.283286119  0.283286119  0.000000000
     0.000000000  0.000000000 17.650000000     0.000000000  0.000000000  0.056657224

  length of vectors
     2.496086938  2.496086938 17.650000000     0.400627071  0.400627071  0.056657224

  position of ions in fractional coordinates (direct lattice)
     0.000000000  0.000000000  0.000000000
     0.500000000  0.500000000  0.100000000
     0.000000000  0.000000000  0.200000000
     0.500000000  0.500000000  0.300209984
     0.000000000  0.000000000  0.395507253

  ion indices of the primitive-cell ions
   primitive index   ion index
                 1           1
                 2           2
                 3           3
                 4           4
                 5           5

----------------------------------------------------------------------------------------

 
 
 KPOINTS: kpoints for band-structure G-X-M-G      

Read explicit list of k-points.

 Found     13 k-points:

 Following reciprocal coordinates:
            Coordinates               Weight
  0.000000  0.000000  0.000000      0.076923
  0.125000  0.000000  0.000000      0.076923
  0.250000  0.000000  0.000000      0.076923
  0.375000  0.000000  0.000000      0.076923
  0.500000  0.000000  0.000000      0.076923
  0.500000  0.125000  0.000000      0.076923
  0.500000  0.250000  0.000000      0.076923
  0.500000  0.375000  0.000000      0.076923
  0.500000  0.500000  0.000000      0.076923
  0.375000  0.375000  0.000000      0.076923
  0.250000  0.250000  0.000000      0.076923
  0.125000  0.125000  0.000000      0.076923
  0.000000  0.000000  0.000000      0.076923

 Following cartesian coordinates:
            Coordinates               Weight
  0.000000  0.000000  0.000000      0.076923
  0.125000  0.125000  0.000000      0.076923
  0.250000  0.250000  0.000000      0.076923
  0.375000  0.375000  0.000000      0.076923
  0.500000  0.500000  0.000000      0.076923
  0.375000  0.625000  0.000000      0.076923
  0.250000  0.750000  0.000000      0.076923
  0.125000  0.875000  0.000000      0.076923
  0.000000  1.000000  0.000000      0.076923
  0.000000  0.750000  0.000000      0.076923
  0.000000  0.500000  0.000000      0.076923
  0.000000  0.250000  0.000000      0.076923
  0.000000  0.000000  0.000000      0.076923
 


--------------------------------------------------------------------------------------------------------




 Dimension of arrays:
   k-points           NKPTS =     13   k-points in BZ     NKDIM =     13   number of bands    NBANDS=     36
   number of dos      NEDOS =    301   number of ions     NIONS =      5
   non local maximal  LDIM  =      6   non local SUM 2l+1 LMDIM =     18
   total plane-waves  NPLWV =   7200
   max r-space proj   IRMAX =      1   max aug-charges    IRDMAX=   2322
   dimension x,y,z NGX =    10 NGY =   10 NGZ =   72
   dimension x,y,z NGXF=    20 NGYF=   20 NGZF=  144
   support grid    NGXF=    20 NGYF=   20 NGZF=  144
   ions per type =               5
   NGX,Y,Z   is equivalent  to a cutoff of   6.66,  6.66,  6.78 a.u.
   NGXF,Y,Z  is equivalent  to a cutoff of  13.32, 13.32, 13.56 a.u.

 SYSTEM =  clean (100) nickel surface              
 POSCAR =  fcc (100) surface                       

 Startparameter for this run:
   NWRITE =      2    write-flag & timer
   PREC   = normal    normal or accurate (medium, high low for compatibility)
   ISTART =      0    job   : 0-new  1-cont  2-samecut
   ICHARG =     11    charge: 1-file 2-atom 10-const
   ISPIN  =      2    spin polarized calculation?
   LNONCOLLINEAR =      F non collinear calculations
   LSORBIT =      F    spin-orbit coupling
   INIWAV =      1    electr: 0-lowe 1-rand  2-diag
   LASPH  =      F    aspherical Exc in radial PAW
 Electronic Relaxation 1
   ENCUT  =  270.0 eV  19.84 Ry    4.45 a.u.   3.34  3.34 23.65*2*pi/ulx,y,z
   ENINI  =  270.0     initial cutoff
   ENAUG  =  544.6 eV  augmentation charge cutoff
   NELM   =     60;   NELMIN=  2; NELMDL= -5     # of ELM steps 
   EDIFF  = 0.1E-03   stopping-criterion for ELM
   LREAL  =      F    real-space projection
   NLSPLINE    = F    spline interpolate recip. space projectors
   LCOMPAT=      F    compatible to vasp.4.4
   GGA_COMPAT  = T    GGA compatible to vasp.4.4-vasp.4.6
   LMAXPAW     = -100 max onsite density
   LMAXMIX     =    2 max onsite mixed and CHGCAR
   VOSKOWN=      0    Vosko Wilk Nusair interpolation
   ROPT   =    0.00000
 Ionic relaxation
   EDIFFG = 0.1E-02   stopping-criterion for IOM
   NSW    =      0    number of steps for IOM
   NBLOCK =      1;   KBLOCK =      1    inner block; outer block 
   IBRION =     -1    ionic relax: 0-MD 1-quasi-New 2-CG
   NFREE  =      0    steps in history (QN), initial steepest desc. (CG)
   ISIF   =      2    stress and relaxation
   IWAVPR =     10    prediction:  0-non 1-charg 2-wave 3-comb
   ISYM   =      2    0-nonsym 1-usesym 2-fastsym
   LCORR  =      T    Harris-Foulkes like correction to forces

   POTIM  = 0.5000    time-step for ionic-motion
   TEIN   =    0.0    initial temperature
   TEBEG  =    0.0;   TEEND  =   0.0 temperature during run
   SMASS  =  -3.00    Nose mass-parameter (am)
   estimated Nose-frequenzy (Omega)   =  0.10E-29 period in steps = 0.13E+47 mass=  -0.142E-27a.u.
   SCALEE = 1.0000    scale energy and forces
   NPACO  =    256;   APACO  = 10.0  distance and # of slots for P.C.
   PSTRESS=    0.0 pullay stress

  Mass of Ions in am
   POMASS =  58.69
  Ionic Valenz
   ZVAL   =  10.00
  Atomic Wigner-Seitz radii
   RWIGS  =  -1.00
  virtual crystal weights 
   VCA    =   1.00
   NELECT =      50.0000    total number of electrons
   NUPDOWN=      -1.0000    fix difference up-down

 DOS related values:
   EMIN   =  10.00;   EMAX   =-10.00  energy-range for DOS
   EFERMI =   0.00
   ISMEAR =     2;   SIGMA  =   0.20  broadening in eV -4-tet -1-fermi 0-gaus

 Electronic relaxation 2 (details)
   IALGO  =     38    algorithm
   LDIAG  =      T    sub-space diagonalisation (order eigenvalues)
   LSUBROT=      F    optimize rotation matrix (better conditioning)
   TURBO    =      0    0=normal 1=particle mesh
   IRESTART =      0    0=no restart 2=restart with 2 vectors
   NREBOOT  =      0    no. of reboots
   NMIN     =      0    reboot dimension
   EREF     =   0.00    reference energy to select bands
   IMIX   =      4    mixing-type and parameters
     AMIX     =   0.40;   BMIX     =  1.00
     AMIX_MAG =   1.60;   BMIX_MAG =  1.00
     AMIN     =   0.10
     WC   =   100.;   INIMIX=   1;  MIXPRE=   1;  MAXMIX= -45

 Intra band minimization:
   WEIMIN = 0.0000     energy-eigenvalue tresh-hold
   EBREAK =  0.69E-06  absolut break condition
   DEPER  =   0.30     relativ break condition  

   TIME   =   0.40     timestep for ELM

  volume/ion in A,a.u.               =      21.99       148.42
  Fermi-wavevector in a.u.,A,eV,Ry     =   1.258858  2.378897 21.561476  1.584724
  Thomas-Fermi vector in A             =   2.392447
 
 Write flags
   LWAVE        =      T    write WAVECAR
   LDOWNSAMPLE  =      F    k-point downsampling of WAVECAR
   LCHARG       =      T    write CHGCAR
   LVTOT        =      F    write LOCPOT, total local potential
   LVHAR        =      F    write LOCPOT, Hartree potential only
   LELF         =      F    write electronic localiz. function (ELF)
   LORBIT       =     11    0 simple, 1 ext, 2 COOP (PROOUT), +10 PAW based schemes


 Dipole corrections
   LMONO  =      F    monopole corrections only (constant potential shift)
   LDIPOL =      F    correct potential (dipole corrections)
   IDIPOL =      0    1-x, 2-y, 3-z, 4-all directions 
   EPSILON=  1.0000000 bulk dielectric constant

 Exchange correlation treatment:
   GGA     =    --    GGA type
   LEXCH   =     8    internal setting for exchange type
   LIBXC   =     F    Libxc                    
   VOSKOWN =     0    Vosko Wilk Nusair interpolation
   LHFCALC =     F    Hartree Fock is set to
   LHFONE  =     F    Hartree Fock one center treatment
   AEXX    =    0.0000 exact exchange contribution

 Linear response parameters
   LEPSILON=     F    determine dielectric tensor
   LRPA    =     F    only Hartree local field effects (RPA)
   LNABLA  =     F    use nabla operator in PAW spheres
   LVEL    =     F    velocity operator in full k-point grid
   CSHIFT  =0.1000    complex shift for real part using Kramers Kronig
   OMEGAMAX=  -1.0    maximum frequency
   DEG_THRESHOLD= 0.2000000E-02 threshold for treating states as degnerate
   RTIME   =   -0.100 relaxation time in fs
  (WPLASMAI=    0.000 imaginary part of plasma frequency in eV, 0.658/RTIME)
   DFIELD  = 0.0000000 0.0000000 0.0000000 field for delta impulse in time
 
  Optional k-point grid parameters
   LKPOINTS_OPT  =     F    use optional k-point grid
   KPOINTS_OPT_MODE=     1    mode for optional k-point grid
 
 Orbital magnetization related:
   ORBITALMAG=     F  switch on orbital magnetization
   LCHIMAG   =     F  perturbation theory with respect to B field
   DQ        =  0.001000  dq finite difference perturbation B field
   LLRAUG    =     F  two centre corrections for induced B field



--------------------------------------------------------------------------------------------------------


 Static calculation
 charge density and potential remain constant during run
 spin polarized calculation
 Variant of blocked Davidson
 Davidson routine will perform the subspace rotation
 perform sub-space diagonalisation
    after iterative eigenvector-optimisation
 no mixing
 using additional bands           11
 reciprocal scheme for non local part
 use partial core corrections
 calculate Harris-corrections to forces 
   (improved forces if not selfconsistent)
 use gradient corrections 
 WARNING: stress and forces are not correct
  (second derivative of E(xc) not defined)
 use of overlap-Matrix (Vanderbilt PP)
 Methfessel and Paxton  Order N= 2 SIGMA  =   0.20


--------------------------------------------------------------------------------------------------------


  energy-cutoff  :      270.00
  volume of cell :      109.97
      direct lattice vectors                 reciprocal lattice vectors
     1.765000000  1.765000000  0.000000000     0.283286119  0.283286119  0.000000000
    -1.765000000  1.765000000  0.000000000    -0.283286119  0.283286119  0.000000000
     0.000000000  0.000000000 17.650000000     0.000000000  0.000000000  0.056657224

  length of vectors
     2.496086938  2.496086938 17.650000000     0.400627071  0.400627071  0.056657224


 
 k-points in units of 2pi/SCALE and weight: kpoints for band-structure G-X-M-G      
   0.00000000  0.00000000  0.00000000       0.077
   0.12500000  0.12500000  0.00000000       0.077
   0.25000000  0.25000000  0.00000000       0.077
   0.37500000  0.37500000  0.00000000       0.077
   0.50000000  0.50000000  0.00000000       0.077
   0.37500000  0.62500000  0.00000000       0.077
   0.25000000  0.75000000  0.00000000       0.077
   0.12500000  0.87500000  0.00000000       0.077
   0.00000000  1.00000000  0.00000000       0.077
   0.00000000  0.75000000  0.00000000       0.077
   0.00000000  0.50000000  0.00000000       0.077
   0.00000000  0.25000000  0.00000000       0.077
   0.00000000  0.00000000  0.00000000       0.077
 
 k-points in reciprocal lattice and weights: kpoints for band-structure G-X-M-G      
   0.00000000  0.00000000  0.00000000       0.077
   0.12500000  0.00000000  0.00000000       0.077
   0.25000000  0.00000000  0.00000000       0.077
   0.37500000  0.00000000  0.00000000       0.077
   0.50000000  0.00000000  0.00000000       0.077
   0.50000000  0.12500000  0.00000000       0.077
   0.50000000  0.25000000  0.00000000       0.077
   0.50000000  0.37500000  0.00000000       0.077
   0.50000000  0.50000000  0.00000000       0.077
   0.37500000  0.37500000  0.00000000       0.077
   0.25000000  0.25000000  0.00000000       0.077
   0.12500000  0.12500000  0.00000000       0.077
   0.00000000  0.00000000  0.00000000       0.077
 
 position of ions in fractional coordinates (direct lattice) 
   0.00000000  0.00000000  0.00000000
   0.50000000  0.50000000  0.10000000
   0.00000000  0.00000000  0.20000000
   0.50000000  0.50000000  0.30020998
   0.00000000  0.00000000  0.39550725
 
 position of ions in cartesian coordinates  (Angst):
   0.00000000  0.00000000  0.00000000
   0.00000000  1.76500000  1.76500000
   0.00000000  0.00000000  3.53000000
   0.00000000  1.76500000  5.29870622
   0.00000000  0.00000000  6.98070302
 


--------------------------------------------------------------------------------------------------------


 k-point   1 :   0.0000 0.0000 0.0000  plane waves:    1131
 k-point   2 :   0.1250 0.0000 0.0000  plane waves:    1129
 k-point   3 :   0.2500 0.0000 0.0000  plane waves:    1111
 k-point   4 :   0.3750 0.0000 0.0000  plane waves:    1110
 k-point   5 :   0.5000 0.0000 0.0000  plane waves:    1094
 k-point   6 :   0.5000 0.1250 0.0000  plane waves:    1112
 k-point   7 :   0.5000 0.2500 0.0000  plane waves:    1098
 k-point   8 :   0.5000 0.3750 0.0000  plane waves:    1092
 k-point   9 :   0.5000 0.5000 0.0000  plane waves:    1096
 k-point  10 :   0.3750 0.3750 0.0000  plane waves:    1098
 k-point  11 :   0.2500 0.2500 0.0000  plane waves:    1119
 k-point  12 :   0.1250 0.1250 0.0000  plane waves:    1125
 k-point  13 :   0.0000 0.0000 0.0000  plane waves:    1131

 maximum and minimum number of plane-waves per node :      1131     1092

 maximum number of plane-waves:      1131
 maximum index in each direction: 
   IXMAX=    3   IYMAX=    3   IZMAX=   23
   IXMIN=   -3   IYMIN=   -3   IZMIN=  -23


 serial   3D FFT for wavefunctions
 parallel 3D FFT for charge:
    minimum data exchange during FFTs selected (reduces bandwidth)


 total amount of memory used by VASP MPI-rank0    39093. kBytes
=======================================================================

   base      :      30000. kBytes
   nonl-proj :       2209. kBytes
   fftplans  :        520. kBytes
   grid      :       1627. kBytes
   one-center:        155. kBytes
   wavefun   :       4582. kBytes
 
     INWAV:  cpu time      0.0000: real time      0.0000
 initial charge density was supplied:
 number of electron      49.9998830 magnetization       3.1321365
 keeping initial charge density in first step


--------------------------------------------------------------------------------------------------------


 Maximum index for augmentation-charges          540 (set IRDMAX)


--------------------------------------------------------------------------------------------------------


 First call to EWALD:  gamma=   0.370
 Maximum number of real-space cells 5x 5x 1
 Maximum number of reciprocal cells 2x 2x 9

    FEWALD:  cpu time      0.0015: real time      0.0016


--------------------------------------- Iteration      1(   1)  ---------------------------------------


    POTLOK:  cpu time      0.0158: real time      0.0165
    SETDIJ:  cpu time      0.0090: real time      0.0092
     EDDAV:  cpu time      0.3855: real time      0.3902
       DOS:  cpu time      0.0012: real time      0.0013
    --------------------------------------------
      LOOP:  cpu time      0.4117: real time      0.4172

 eigenvalue-minimisations  :  1872
 total energy-change (2. order) : 0.2471151E+03  (-0.1569909E+04)
 number of electron      49.9998830 magnetization       3.1321365
 augmentation part       49.9998830 magnetization       3.1321365

 Free energy of the ion-electron system (eV)
  ---------------------------------------------------
  alpha Z        PSCENC =       115.94204576
  Ewald energy   TEWEN  =      9453.09366082
  -Hartree energ DENC   =    -14802.13141136
  -exchange      EXHF   =         0.00000000
  -V(xc)+E(xc)   XCENC  =       152.65703717
  PAW double counting   =      5573.37830148    -5914.67299622
  entropy T*S    EENTRO =        -0.00287111
  eigenvalues    EBANDS =       280.67100380
  atomic energy  EATOM  =      5388.18037335
  Solvation  Ediel_sol  =         0.00000000
  ---------------------------------------------------
  free energy    TOTEN  =       247.11514368 eV

  energy without entropy =      247.11801479  energy(sigma->0) =      247.11586145


--------------------------------------------------------------------------------------------------------




--------------------------------------- Iteration      1(   2)  ---------------------------------------


     EDDAV:  cpu time      0.3747: real time      0.3758
       DOS:  cpu time      0.0015: real time      0.0015
    --------------------------------------------
      LOOP:  cpu time      0.3762: real time      0.3772

 eigenvalue-minimisations  :  1912
 total energy-change (2. order) :-0.2588230E+03  (-0.2433258E+03)
 number of electron      49.9998830 magnetization       3.1321365
 augmentation part       49.9998830 magnetization       3.1321365

 Free energy of the ion-electron system (eV)
  ---------------------------------------------------
  alpha Z        PSCENC =       115.94204576
  Ewald energy   TEWEN  =      9453.09366082
  -Hartree energ DENC   =    -14802.13141136
  -exchange      EXHF   =         0.00000000
  -V(xc)+E(xc)   XCENC  =       152.65703717
  PAW double counting   =      5573.37830148    -5914.67299622
  entropy T*S    EENTRO =        -0.00503843
  eigenvalues    EBANDS =        21.85015717
  atomic energy  EATOM  =      5388.18037335
  Solvation  Ediel_sol  =         0.00000000
  ---------------------------------------------------
  free energy    TOTEN  =       -11.70787027 eV

  energy without entropy =      -11.70283185  energy(sigma->0) =      -11.70661067


--------------------------------------------------------------------------------------------------------




--------------------------------------- Iteration      1(   3)  ---------------------------------------


     EDDAV:  cpu time      0.3944: real time      0.6044
       DOS:  cpu time      0.0014: real time      0.0014
    --------------------------------------------
      LOOP:  cpu time      0.3957: real time      0.6058

 eigenvalue-minimisations  :  2020
 total energy-change (2. order) :-0.1479904E+02  (-0.1420004E+02)
 number of electron      49.9998830 magnetization       3.1321365
 augmentation part       49.9998830 magnetization       3.1321365

 Free energy of the ion-electron system (eV)
  ---------------------------------------------------
  alpha Z        PSCENC =       115.94204576
  Ewald energy   TEWEN  =      9453.09366082
  -Hartree energ DENC   =    -14802.13141136
  -exchange      EXHF   =         0.00000000
  -V(xc)+E(xc)   XCENC  =       152.65703717
  PAW double counting   =      5573.37830148    -5914.67299622
  entropy T*S    EENTRO =        -0.00532552
  eigenvalues    EBANDS =         7.05140733
  atomic energy  EATOM  =      5388.18037335
  Solvation  Ediel_sol  =         0.00000000
  ---------------------------------------------------
  free energy    TOTEN  =       -26.50690721 eV

  energy without entropy =      -26.50158169  energy(sigma->0) =      -26.50557583


--------------------------------------------------------------------------------------------------------




--------------------------------------- Iteration      1(   4)  ---------------------------------------


     EDDAV:  cpu time      0.4134: real time      0.4144
       DOS:  cpu time      0.0015: real time      0.0015
    --------------------------------------------
      LOOP:  cpu time      0.4149: real time      0.4159

 eigenvalue-minimisations  :  2144
 total energy-change (2. order) :-0.1698179E+00  (-0.1696867E+00)
 number of electron      49.9998830 magnetization       3.1321365
 augmentation part       49.9998830 magnetization       3.1321365

 Free energy of the ion-electron system (eV)
  ---------------------------------------------------
  alpha Z        PSCENC =       115.94204576
  Ewald energy   TEWEN  =      9453.09366082
  -Hartree energ DENC   =    -14802.13141136
  -exchange      EXHF   =         0.00000000
  -V(xc)+E(xc)   XCENC  =       152.65703717
  PAW double counting   =      5573.37830148    -5914.67299622
  entropy T*S    EENTRO =        -0.00541227
  eigenvalues    EBANDS =         6.88167622
  atomic energy  EATOM  =      5388.18037335
  Solvation  Ediel_sol  =         0.00000000
  ---------------------------------------------------
  free energy    TOTEN  =       -26.67672507 eV

  energy without entropy =      -26.67131280  energy(sigma->0) =      -26.67537200


--------------------------------------------------------------------------------------------------------




--------------------------------------- Iteration      1(   5)  ---------------------------------------


     EDDAV:  cpu time      0.4295: real time      0.4317
       DOS:  cpu time      0.0015: real time      0.0015
    --------------------------------------------
      LOOP:  cpu time      0.4310: real time      0.4332

 eigenvalue-minimisations  :  2256
 total energy-change (2. order) :-0.4393281E-02  (-0.4393164E-02)
 number of electron      49.9998830 magnetization       3.1321365
 augmentation part       49.9998830 magnetization       3.1321365

 Free energy of the ion-electron system (eV)
  ---------------------------------------------------
  alpha Z        PSCENC =       115.94204576
  Ewald energy   TEWEN  =      9453.09366082
  -Hartree energ DENC   =    -14802.13141136
  -exchange      EXHF   =         0.00000000
  -V(xc)+E(xc)   XCENC  =       152.65703717
  PAW double counting   =      5573.37830148    -5914.67299622
  entropy T*S    EENTRO =        -0.00541908
  eigenvalues    EBANDS =         6.87728974
  atomic energy  EATOM  =      5388.18037335
  Solvation  Ediel_sol  =         0.00000000
  ---------------------------------------------------
  free energy    TOTEN  =       -26.68111835 eV

  energy without entropy =      -26.67569927  energy(sigma->0) =      -26.67976358


--------------------------------------------------------------------------------------------------------




--------------------------------------- Iteration      1(   6)  ---------------------------------------


     EDDAV:  cpu time      0.4551: real time      0.4563
       DOS:  cpu time      0.0015: real time      0.0015
    --------------------------------------------
      LOOP:  cpu time      0.4566: real time      0.4578

 eigenvalue-minimisations  :  2436
 total energy-change (2. order) :-0.1923440E-03  (-0.1923432E-03)
 number of electron      49.9998830 magnetization       3.1321365
 augmentation part       49.9998830 magnetization       3.1321365

 Free energy of the ion-electron system (eV)
  ---------------------------------------------------
  alpha Z        PSCENC =       115.94204576
  Ewald energy   TEWEN  =      9453.09366082
  -Hartree energ DENC   =    -14802.13141136
  -exchange      EXHF   =         0.00000000
  -V(xc)+E(xc)   XCENC  =       152.65703717
  PAW double counting   =      5573.37830148    -5914.67299622
  entropy T*S    EENTRO =        -0.00541955
  eigenvalues    EBANDS =         6.87709787
  atomic energy  EATOM  =      5388.18037335
  Solvation  Ediel_sol  =         0.00000000
  ---------------------------------------------------
  free energy    TOTEN  =       -26.68131070 eV

  energy without entropy =      -26.67589115  energy(sigma->0) =      -26.67995581


--------------------------------------------------------------------------------------------------------




--------------------------------------- Iteration      1(   7)  ---------------------------------------


     EDDAV:  cpu time      0.2843: real time      0.2851
       DOS:  cpu time      0.0015: real time      0.0015
    --------------------------------------------
      LOOP:  cpu time      0.2858: real time      0.2866

 eigenvalue-minimisations  :  1224
 total energy-change (2. order) :-0.1448701E-05  (-0.1448759E-05)
 number of electron      49.9998830 magnetization       3.1321365
 augmentation part       49.9998830 magnetization       3.1321365

 Free energy of the ion-electron system (eV)
  ---------------------------------------------------
  alpha Z        PSCENC =       115.94204576
  Ewald energy   TEWEN  =      9453.09366082
  -Hartree energ DENC   =    -14802.13141136
  -exchange      EXHF   =         0.00000000
  -V(xc)+E(xc)   XCENC  =       152.65703717
  PAW double counting   =      5573.37830148    -5914.67299622
  entropy T*S    EENTRO =        -0.00541958
  eigenvalues    EBANDS =         6.87709645
  atomic energy  EATOM  =      5388.18037335
  Solvation  Ediel_sol  =         0.00000000
  ---------------------------------------------------
  free energy    TOTEN  =       -26.68131214 eV

  energy without entropy =      -26.67589256  energy(sigma->0) =      -26.67995725


--------------------------------------------------------------------------------------------------------




 average (electrostatic) potential at core
  the test charge radii are     0.9791
  (the norm of the test charge is              1.0000)
       1 -88.7826       2 -89.0973       3 -89.0850       4 -89.1493       5 -88.8169
 
 
 
 E-fermi :   2.3104     XC(G=0):  -7.6525     alpha+bet : -8.1440

 Fermi energy:         2.3103711785

 spin component 1

 k-point     1 :       0.0000    0.0000    0.0000
  band No.  band energies     occupation 
      1      -6.2635      1.00000
      2      -5.0798      1.00000
      3      -3.4014      1.00000
      4      -2.2805      1.00000
      5      -2.2010      1.00000
      6      -1.7119      1.00000
      7      -1.3605      1.00000
      8      -0.8368      1.00000
      9      -0.3703      1.00000
     10      -0.1224      1.00000
     11       0.0292      1.00000
     12       0.0292      1.00000
     13       0.4011      1.00000
     14       0.4011      1.00000
     15       0.5018      1.00000
     16       0.7590      1.00000
     17       0.9475      1.00000
     18       0.9853      1.00000
     19       0.9853      1.00000
     20       1.0058      1.00000
     21       1.0944      1.00000
     22       1.1688      1.00000
     23       1.4315      1.00000
     24       1.5141      1.00000
     25       1.5141      1.00000
     26       1.6159      0.99998
     27       1.6800      0.99986
     28       1.7945      0.99839
     29       1.7945      0.99839
     30       2.8509      0.00104
     31       4.2138      0.00000
     32       6.6488      0.00000
     33       8.0922      0.00000
     34       9.8924      0.00000
     35      13.0630      0.00000
     36      13.7506      0.00000

 k-point     2 :       0.1250    0.0000    0.0000
  band No.  band energies     occupation 
      1      -5.8697      1.00000
      2      -4.7117      1.00000
      3      -3.0864      1.00000
      4      -2.0441      1.00000
      5      -1.9669      1.00000
      6      -1.5872      1.00000
      7      -1.2531      1.00000
      8      -0.7688      1.00000
      9      -0.3564      1.00000
     10      -0.0412      1.00000
     11      -0.0049      1.00000
     12       0.0781      1.00000
     13       0.1338      1.00000
     14       0.3603      1.00000
     15       0.3635      1.00000
     16       0.7458      1.00000
     17       0.7642      1.00000
     18       0.8435      1.00000
     19       0.9393      1.00000
     20       0.9710      1.00000
     21       1.1616      1.00000
     22       1.2065      1.00000
     23       1.2139      1.00000
     24       1.2414      1.00000
     25       1.5269      1.00000
     26       1.5395      1.00000
     27       1.6930      0.99980
     28       1.8005      0.99822
     29       1.9305      0.99560
     30       3.5909      0.00000
     31       5.0708      0.00000
     32       7.0269      0.00000
     33       8.5188      0.00000
     34      10.2091      0.00000
     35      13.4121      0.00000
     36      13.8931      0.00000

 k-point     3 :       0.2500    0.0000    0.0000
  band No.  band energies     occupation 
      1      -4.7607      1.00000
      2      -3.7373      1.00000
      3      -2.4327      1.00000
      4      -1.6394      1.00000
      5      -1.5168      1.00000
      6      -1.2507      1.00000
      7      -0.8306      1.00000
      8      -0.4155      1.00000
      9      -0.3799      1.00000
     10      -0.0292      1.00000
     11      -0.0006      1.00000
     12       0.0620      1.00000
     13       0.1029      1.00000
     14       0.1540      1.00000
     15       0.2275      1.00000
     16       0.4123      1.00000
     17       0.4872      1.00000
     18       0.5078      1.00000
     19       0.6763      1.00000
     20       1.0310      1.00000
     21       1.0872      1.00000
     22       1.1003      1.00000
     23       1.1660      1.00000
     24       1.3693      1.00000
     25       1.4501      1.00000
     26       1.5820      0.99999
     27       1.7117      0.99969
     28       1.7472      0.99933
     29       2.9026      0.00036
     30       4.9463      0.00000
     31       6.7507      0.00000
     32       8.1300      0.00000
     33       9.7827      0.00000
     34       9.9968      0.00000
     35      11.2753      0.00000
     36      11.3252      0.00000

 k-point     4 :       0.3750    0.0000    0.0000
  band No.  band energies     occupation 
      1      -3.2433      1.00000
      2      -2.7120      1.00000
      3      -2.1447      1.00000
      4      -1.6184      1.00000
      5      -1.2715      1.00000
      6      -0.8097      1.00000
      7      -0.3978      1.00000
      8      -0.3698      1.00000
      9      -0.0640      1.00000
     10      -0.0533      1.00000
     11      -0.0057      1.00000
     12       0.0556      1.00000
     13       0.0615      1.00000
     14       0.1567      1.00000
     15       0.1990      1.00000
     16       0.3892      1.00000
     17       0.4078      1.00000
     18       0.6993      1.00000
     19       0.8063      1.00000
     20       0.9532      1.00000
     21       1.0265      1.00000
     22       1.4209      1.00000
     23       1.5154      1.00000
     24       1.5593      1.00000
     25       1.6617      0.99991
     26       1.7014      0.99976
     27       1.7710      0.99894
     28       1.9617      0.99858
     29       3.9240      0.00000
     30       5.5972      0.00000
     31       7.1824      0.00000
     32       7.4126      0.00000
     33       9.2607      0.00000
     34       9.4752      0.00000
     35      10.0548      0.00000
     36      11.1205      0.00000

 k-point     5 :       0.5000    0.0000    0.0000
  band No.  band energies     occupation 
      1      -2.3708      1.00000
      2      -2.3235      1.00000
      3      -2.0619      1.00000
      4      -1.6943      1.00000
      5      -1.3925      1.00000
      6      -0.4837      1.00000
      7      -0.3643      1.00000
      8      -0.3320      1.00000
      9      -0.1724      1.00000
     10      -0.0838      1.00000
     11      -0.0282      1.00000
     12      -0.0050      1.00000
     13       0.0769      1.00000
     14       0.1569      1.00000
     15       0.2975      1.00000
     16       0.3565      1.00000
     17       0.3693      1.00000
     18       0.7034      1.00000
     19       1.0702      1.00000
     20       1.1443      1.00000
     21       1.3417      1.00000
     22       1.5321      1.00000
     23       1.5959      0.99999
     24       1.6095      0.99998
     25       1.6943      0.99980
     26       2.5189     -0.04947
     27       2.8671      0.00076
     28       3.1950      0.00000
     29       3.2142      0.00000
     30       3.2960      0.00000
     31       6.7065      0.00000
     32       6.9027      0.00000
     33       8.9263      0.00000
     34       9.5575      0.00000
     35      10.6984      0.00000
     36      11.8941      0.00000

 k-point     6 :       0.5000    0.1250    0.0000
  band No.  band energies     occupation 
      1      -2.1248      1.00000
      2      -2.1078      1.00000
      3      -1.8632      1.00000
      4      -1.5669      1.00000
      5      -1.3192      1.00000
      6      -0.7058      1.00000
      7      -0.5843      1.00000
      8      -0.4564      1.00000
      9      -0.3856      1.00000
     10      -0.2591      1.00000
     11      -0.1733      1.00000
     12      -0.0817      1.00000
     13       0.0711      1.00000
     14       0.1833      1.00000
     15       0.3271      1.00000
     16       0.3429      1.00000
     17       0.5362      1.00000
     18       0.7398      1.00000
     19       0.9232      1.00000
     20       1.2373      1.00000
     21       1.2399      1.00000
     22       1.3598      1.00000
     23       1.5830      0.99999
     24       1.5924      0.99999
     25       1.7151      0.99967
     26       3.4004      0.00000
     27       3.4696      0.00000
     28       3.5752      0.00000
     29       3.7474      0.00000
     30       3.8271      0.00000
     31       6.9462      0.00000
     32       7.2442      0.00000
     33       9.0936      0.00000
     34       9.8304      0.00000
     35      10.9673      0.00000
     36      12.2369      0.00000

 k-point     7 :       0.5000    0.2500    0.0000
  band No.  band energies     occupation 
      1      -1.8157      1.00000
      2      -1.7577      1.00000
      3      -1.6030      1.00000
      4      -1.5328      1.00000
      5      -1.4155      1.00000
      6      -1.0848      1.00000
      7      -1.0833      1.00000
      8      -0.8582      1.00000
      9      -0.6490      1.00000
     10      -0.5687      1.00000
     11      -0.0811      1.00000
     12      -0.0125      1.00000
     13       0.1363      1.00000
     14       0.6303      1.00000
     15       0.6505      1.00000
     16       0.6563      1.00000
     17       0.6806      1.00000
     18       0.8361      1.00000
     19       1.1431      1.00000
     20       1.1863      1.00000
     21       1.4388      1.00000
     22       1.4882      1.00000
     23       1.6709      0.99989
     24       1.7299      0.99954
     25       1.7509      0.99928
     26       4.0577      0.00000
     27       4.0993      0.00000
     28       4.8979      0.00000
     29       4.9880      0.00000
     30       5.7267      0.00000
     31       7.6096      0.00000
     32       8.3109      0.00000
     33       9.6960      0.00000
     34      10.7480      0.00000
     35      11.7917      0.00000
     36      13.1425      0.00000

 k-point     8 :       0.5000    0.3750    0.0000
  band No.  band energies     occupation 
      1      -2.0755      1.00000
      2      -1.9814      1.00000
      3      -1.6541      1.00000
      4      -1.5826      1.00000
      5      -1.5489      1.00000
      6      -1.3371      1.00000
      7      -1.2537      1.00000
      8      -1.1067      1.00000
      9      -1.0356      1.00000
     10      -0.5640      1.00000
     11      -0.2769      1.00000
     12       0.4476      1.00000
     13       0.4938      1.00000
     14       1.0341      1.00000
     15       1.1085      1.00000
     16       1.3028      1.00000
     17       1.3620      1.00000
     18       1.3720      1.00000
     19       1.4128      1.00000
     20       1.4402      1.00000
     21       1.6408      0.99995
     22       1.6529      0.99993
     23       1.7204      0.99962
     24       1.7972      0.99832
     25       1.8894      0.99525
     26       4.9244      0.00000
     27       4.9287      0.00000
     28       6.3500      0.00000
     29       6.4136      0.00000
     30       7.9828      0.00000
     31       8.6957      0.00000
     32      10.1623      0.00000
     33      10.9566      0.00000
     34      12.3831      0.00000
     35      13.0029      0.00000
     36      13.1185      0.00000

 k-point     9 :       0.5000    0.5000    0.0000
  band No.  band energies     occupation 
      1      -2.2033      1.00000
      2      -2.0968      1.00000
      3      -1.7614      1.00000
      4      -1.6845      1.00000
      5      -1.6845      1.00000
      6      -1.4582      1.00000
      7      -1.2098      1.00000
      8      -1.2098      1.00000
      9      -1.2029      1.00000
     10      -0.3841      1.00000
     11      -0.3841      1.00000
     12       0.6327      1.00000
     13       0.6327      1.00000
     14       1.0922      1.00000
     15       1.2045      1.00000
     16       1.4696      1.00000
     17       1.5339      1.00000
     18       1.5339      1.00000
     19       1.5558      1.00000
     20       1.6539      0.99993
     21       1.8204      0.99759
     22       1.8751      0.99563
     23       1.8770      0.99557
     24       2.0280      1.01794
     25       2.0660      1.03574
     26       5.4909      0.00000
     27       5.4909      0.00000
     28       7.3054      0.00000
     29       7.3054      0.00000
     30       9.6912      0.00000
     31       9.6912      0.00000
     32      11.5329      0.00000
     33      11.5497      0.00000
     34      11.9088      0.00000
     35      12.2349      0.00000
     36      12.3396      0.00000

 k-point    10 :       0.3750    0.3750    0.0000
  band No.  band energies     occupation 
      1      -2.1573      1.00000
      2      -1.7851      1.00000
      3      -1.5756      1.00000
      4      -1.4838      1.00000
      5      -1.4687      1.00000
      6      -1.2417      1.00000
      7      -1.2044      1.00000
      8      -1.0661      1.00000
      9      -0.8882      1.00000
     10      -0.5051      1.00000
     11      -0.3982      1.00000
     12       0.2474      1.00000
     13       0.3099      1.00000
     14       1.0191      1.00000
     15       1.0527      1.00000
     16       1.1420      1.00000
     17       1.1509      1.00000
     18       1.1790      1.00000
     19       1.3218      1.00000
     20       1.4043      1.00000
     21       1.4946      1.00000
     22       1.5319      1.00000
     23       1.5386      1.00000
     24       1.6710      0.99989
     25       1.8061      0.99806
     26       2.7602      0.00388
     27       4.1577      0.00000
     28       5.9044      0.00000
     29       7.1597      0.00000
     30       7.9658      0.00000
     31       8.6708      0.00000
     32      10.1637      0.00000
     33      10.8290      0.00000
     34      11.8771      0.00000
     35      12.0352      0.00000
     36      12.7497      0.00000

 k-point    11 :       0.2500    0.2500    0.0000
  band No.  band energies     occupation 
      1      -3.4720      1.00000
      2      -2.5654      1.00000
      3      -1.5628      1.00000
      4      -1.2793      1.00000
      5      -0.9700      1.00000
      6      -0.9442      1.00000
      7      -0.8001      1.00000
      8      -0.7688      1.00000
      9      -0.7153      1.00000
     10      -0.6212      1.00000
     11      -0.3092      1.00000
     12      -0.2046      1.00000
     13       0.0135      1.00000
     14       0.4348      1.00000
     15       0.4693      1.00000
     16       0.5451      1.00000
     17       0.6586      1.00000
     18       0.7900      1.00000
     19       0.8126      1.00000
     20       0.8770      1.00000
     21       0.9732      1.00000
     22       0.9860      1.00000
     23       1.0220      1.00000
     24       1.3536      1.00000
     25       1.4493      1.00000
     26       1.7646      0.99906
     27       1.8431      0.99678
     28       2.8635      0.00082
     29       4.5275      0.00000
     30       6.6239      0.00000
     31       8.4987      0.00000
     32       9.6260      0.00000
     33      10.4438      0.00000
     34      11.4182      0.00000
     35      11.7490      0.00000
     36      12.2886      0.00000

 k-point    12 :       0.1250    0.1250    0.0000
  band No.  band energies     occupation 
      1      -5.4836      1.00000
      2      -4.3496      1.00000
      3      -2.7736      1.00000
      4      -1.8280      1.00000
      5      -1.7211      1.00000
      6      -1.4579      1.00000
      7      -1.1625      1.00000
      8      -0.7421      1.00000
      9      -0.4273      1.00000
     10       0.0036      1.00000
     11       0.0350      1.00000
     12       0.0513      1.00000
     13       0.0650      1.00000
     14       0.1463      1.00000
     15       0.3843      1.00000
     16       0.5398      1.00000
     17       0.7417      1.00000
     18       0.7974      1.00000
     19       0.8334      1.00000
     20       0.9402      1.00000
     21       0.9448      1.00000
     22       1.1077      1.00000
     23       1.2300      1.00000
     24       1.3650      1.00000
     25       1.4107      1.00000
     26       1.4815      1.00000
     27       1.6284      0.99996
     28       1.7831      0.99867
     29       2.4701     -0.04101
     30       4.1575      0.00000
     31       5.7146      0.00000
     32       7.4037      0.00000
     33       8.9438      0.00000
     34      10.5267      0.00000
     35      13.7667      0.00000
     36      14.1916      0.00000

 k-point    13 :       0.0000    0.0000    0.0000
  band No.  band energies     occupation 
      1      -6.2635      1.00000
      2      -5.0798      1.00000
      3      -3.4014      1.00000
      4      -2.2805      1.00000
      5      -2.2010      1.00000
      6      -1.7119      1.00000
      7      -1.3605      1.00000
      8      -0.8368      1.00000
      9      -0.3703      1.00000
     10      -0.1224      1.00000
     11       0.0292      1.00000
     12       0.0292      1.00000
     13       0.4011      1.00000
     14       0.4011      1.00000
     15       0.5018      1.00000
     16       0.7590      1.00000
     17       0.9475      1.00000
     18       0.9853      1.00000
     19       0.9853      1.00000
     20       1.0058      1.00000
     21       1.0944      1.00000
     22       1.1688      1.00000
     23       1.4315      1.00000
     24       1.5141      1.00000
     25       1.5141      1.00000
     26       1.6159      0.99998
     27       1.6800      0.99986
     28       1.7945      0.99839
     29       1.7945      0.99839
     30       2.8509      0.00104
     31       4.2138      0.00000
     32       6.6488      0.00000
     33       8.0922      0.00000
     34       9.8924      0.00000
     35      13.0630      0.00000
     36      13.7506      0.00000
 Fermi energy:         2.3103711785

 spin component 2

 k-point     1 :       0.0000    0.0000    0.0000
  band No.  band energies     occupation 
      1      -6.3061      1.00000
      2      -5.1138      1.00000
      3      -3.3955      1.00000
      4      -2.0728      1.00000
      5      -1.8857      1.00000
      6      -1.1758      1.00000
      7      -0.7955      1.00000
      8      -0.2043      1.00000
      9       0.2870      1.00000
     10       0.5344      1.00000
     11       0.7165      1.00000
     12       0.7165      1.00000
     13       1.0500      1.00000
     14       1.1205      1.00000
     15       1.1205      1.00000
     16       1.3556      1.00000
     17       1.3770      1.00000
     18       1.5688      0.99999
     19       1.6736      0.99988
     20       1.7351      0.99948
     21       1.7351      0.99948
     22       1.8682      0.99585
     23       2.1372      1.04832
     24       2.3130      0.48622
     25       2.3130      0.48622
     26       2.4074      0.06983
     27       2.4422     -0.00890
     28       2.5866     -0.02068
     29       2.5866     -0.02068
     30       2.9080      0.00032
     31       4.1998      0.00000
     32       7.0082      0.00000
     33       8.2312      0.00000
     34      10.1731      0.00000
     35      13.3060      0.00000
     36      13.9522      0.00000

 k-point     2 :       0.1250    0.0000    0.0000
  band No.  band energies     occupation 
      1      -5.9109      1.00000
      2      -4.7412      1.00000
      3      -3.0661      1.00000
      4      -1.7971      1.00000
      5      -1.6525      1.00000
      6      -1.0573      1.00000
      7      -0.6983      1.00000
      8      -0.1487      1.00000
      9       0.2910      1.00000
     10       0.6204      1.00000
     11       0.6763      1.00000
     12       0.7662      1.00000
     13       0.7670      1.00000
     14       0.8869      1.00000
     15       1.0628      1.00000
     16       1.4108      1.00000
     17       1.4596      1.00000
     18       1.4727      1.00000
     19       1.5982      0.99999
     20       1.6225      0.99997
     21       1.7347      0.99949
     22       1.8872      0.99530
     23       1.9083      0.99507
     24       1.9863      1.00350
     25       2.3116      0.49350
     26       2.3173      0.46332
     27       2.3834      0.15098
     28       2.4580     -0.03019
     29       2.5928     -0.01793
     30       3.8103      0.00000
     31       5.1922      0.00000
     32       7.3862      0.00000
     33       8.6627      0.00000
     34      10.4879      0.00000
     35      13.6492      0.00000
     36      14.0650      0.00000

 k-point     3 :       0.2500    0.0000    0.0000
  band No.  band energies     occupation 
      1      -4.7896      1.00000
      2      -3.7299      1.00000
      3      -2.2993      1.00000
      4      -1.2748      1.00000
      5      -1.1029      1.00000
      6      -0.7849      1.00000
      7      -0.3745      1.00000
      8       0.0996      1.00000
      9       0.2109      1.00000
     10       0.5163      1.00000
     11       0.6307      1.00000
     12       0.7187      1.00000
     13       0.7435      1.00000
     14       0.8322      1.00000
     15       0.8932      1.00000
     16       1.0465      1.00000
     17       1.1430      1.00000
     18       1.1821      1.00000
     19       1.3589      1.00000
     20       1.7110      0.99970
     21       1.7422      0.99940
     22       1.8145      0.99779
     23       1.8496      0.99653
     24       2.0124      1.01168
     25       2.1419      1.04628
     26       2.3516      0.28895
     27       2.4960     -0.05130
     28       2.5269     -0.04722
     29       3.2578      0.00000
     30       5.1476      0.00000
     31       6.8980      0.00000
     32       8.4773      0.00000
     33       9.9359      0.00000
     34      10.1801      0.00000
     35      11.4924      0.00000
     36      11.5334      0.00000

 k-point     4 :       0.3750    0.0000    0.0000
  band No.  band energies     occupation 
      1      -3.1986      1.00000
      2      -2.5350      1.00000
      3      -1.8019      1.00000
      4      -1.1877      1.00000
      5      -0.8274      1.00000
      6      -0.3894      1.00000
      7       0.1278      1.00000
      8       0.1696      1.00000
      9       0.4202      1.00000
     10       0.5324      1.00000
     11       0.5602      1.00000
     12       0.6980      1.00000
     13       0.7054      1.00000
     14       0.7563      1.00000
     15       0.8155      1.00000
     16       1.0604      1.00000
     17       1.1058      1.00000
     18       1.1920      1.00000
     19       1.3717      1.00000
     20       1.5037      1.00000
     21       1.7805      0.99873
     22       2.1918      0.98445
     23       2.2247      0.89445
     24       2.2959      0.57647
     25       2.3583      0.25729
     26       2.4341      0.00527
     27       2.4795     -0.04663
     28       2.4815     -0.04750
     29       4.1311      0.00000
     30       5.8097      0.00000
     31       7.3888      0.00000
     32       7.6285      0.00000
     33       9.4436      0.00000
     34       9.7139      0.00000
     35      10.3970      0.00000
     36      11.2636      0.00000

 k-point     5 :       0.5000    0.0000    0.0000
  band No.  band energies     occupation 
      1      -2.0285      1.00000
      2      -1.9664      1.00000
      3      -1.8046      1.00000
      4      -1.3009      1.00000
      5      -1.1056      1.00000
      6       0.0755      1.00000
      7       0.1427      1.00000
      8       0.2190      1.00000
      9       0.3775      1.00000
     10       0.5240      1.00000
     11       0.6071      1.00000
     12       0.6279      1.00000
     13       0.7028      1.00000
     14       0.7213      1.00000
     15       0.7401      1.00000
     16       0.9428      1.00000
     17       1.0731      1.00000
     18       1.4048      1.00000
     19       1.5704      0.99999
     20       1.8958      0.99514
     21       2.1146      1.05149
     22       2.3119      0.49203
     23       2.3323      0.38509
     24       2.3618      0.24167
     25       2.4708     -0.04152
     26       2.5110     -0.05099
     27       3.2912      0.00000
     28       3.4869      0.00000
     29       3.7240      0.00000
     30       3.7347      0.00000
     31       6.9641      0.00000
     32       7.0976      0.00000
     33       9.1935      0.00000
     34       9.7647      0.00000
     35      10.8110      0.00000
     36      11.9415      0.00000

 k-point     6 :       0.5000    0.1250    0.0000
  band No.  band energies     occupation 
      1      -1.7668      1.00000
      2      -1.7379      1.00000
      3      -1.5934      1.00000
      4      -1.1572      1.00000
      5      -1.0020      1.00000
      6      -0.1436      1.00000
      7      -0.0735      1.00000
      8       0.0381      1.00000
      9       0.1625      1.00000
     10       0.2891      1.00000
     11       0.4389      1.00000
     12       0.4837      1.00000
     13       0.6158      1.00000
     14       0.8285      1.00000
     15       0.9579      1.00000
     16       0.9795      1.00000
     17       1.1853      1.00000
     18       1.3469      1.00000
     19       1.5727      0.99999
     20       1.8669      0.99590
     21       2.0012      1.00778
     22       2.0761      1.04034
     23       2.3010      0.54933
     24       2.3177      0.46121
     25       2.4754     -0.04447
     26       3.8239      0.00000
     27       3.9698      0.00000
     28       3.9913      0.00000
     29       4.0234      0.00000
     30       4.0434      0.00000
     31       7.2061      0.00000
     32       7.4292      0.00000
     33       9.3389      0.00000
     34      10.0132      0.00000
     35      11.0690      0.00000
     36      12.2798      0.00000

 k-point     7 :       0.5000    0.2500    0.0000
  band No.  band energies     occupation 
      1      -1.4613      1.00000
      2      -1.4364      1.00000
      3      -1.1691      1.00000
      4      -1.0503      1.00000
      5      -0.9363      1.00000
      6      -0.6276      1.00000
      7      -0.5445      1.00000
      8      -0.3155      1.00000
      9      -0.1083      1.00000
     10       0.0008      1.00000
     11       0.4715      1.00000
     12       0.5030      1.00000
     13       0.6807      1.00000
     14       1.2766      1.00000
     15       1.3062      1.00000
     16       1.3204      1.00000
     17       1.3727      1.00000
     18       1.4918      1.00000
     19       1.8484      0.99658
     20       1.8967      0.99513
     21       2.1194      1.05162
     22       2.1586      1.03439
     23       2.3861      0.14084
     24       2.4868     -0.04941
     25       2.5123     -0.05080
     26       4.3870      0.00000
     27       4.5026      0.00000
     28       5.2364      0.00000
     29       5.2369      0.00000
     30       5.9228      0.00000
     31       7.8532      0.00000
     32       8.4682      0.00000
     33       9.8798      0.00000
     34      10.8796      0.00000
     35      11.8623      0.00000
     36      13.2503      0.00000

 k-point     8 :       0.5000    0.3750    0.0000
  band No.  band energies     occupation 
      1      -1.6830      1.00000
      2      -1.6130      1.00000
      3      -1.2024      1.00000
      4      -1.0280      1.00000
      5      -1.0211      1.00000
      6      -0.8476      1.00000
      7      -0.6999      1.00000
      8      -0.5720      1.00000
      9      -0.4819      1.00000
     10       0.0107      1.00000
     11       0.3082      1.00000
     12       1.0449      1.00000
     13       1.1209      1.00000
     14       1.6766      0.99987
     15       1.7364      0.99947
     16       2.0122      1.01160
     17       2.0220      1.01542
     18       2.0612      1.03345
     19       2.1398      1.04727
     20       2.1433      1.04561
     21       2.3337      0.37768
     22       2.3627      0.23752
     23       2.4402     -0.00564
     24       2.5776     -0.02480
     25       2.6951      0.00460
     26       5.0858      0.00000
     27       5.1247      0.00000
     28       6.5534      0.00000
     29       6.5851      0.00000
     30       8.1365      0.00000
     31       8.8697      0.00000
     32      10.2903      0.00000
     33      11.0698      0.00000
     34      12.4857      0.00000
     35      13.1203      0.00000
     36      13.3019      0.00000

 k-point     9 :       0.5000    0.5000    0.0000
  band No.  band energies     occupation 
      1      -1.7981      1.00000
      2      -1.7170      1.00000
      3      -1.3349      1.00000
      4      -1.1239      1.00000
      5      -1.1239      1.00000
      6      -0.9546      1.00000
      7      -0.6909      1.00000
      8      -0.6335      1.00000
      9      -0.6335      1.00000
     10       0.2060      1.00000
     11       0.2060      1.00000
     12       1.2852      1.00000
     13       1.2852      1.00000
     14       1.7370      0.99946
     15       1.8319      0.99719
     16       2.1533      1.03904
     17       2.2036      0.95685
     18       2.2800      0.65775
     19       2.2800      0.65775
     20       2.3466      0.31303
     21       2.5406     -0.04206
     22       2.6020     -0.01410
     23       2.6347     -0.00345
     24       2.8602      0.00087
     25       2.9099      0.00030
     26       5.5193      0.00000
     27       5.5193      0.00000
     28       7.3961      0.00000
     29       7.3961      0.00000
     30       9.7927      0.00000
     31       9.7927      0.00000
     32      11.7941      0.00000
     33      11.7963      0.00000
     34      12.1444      0.00000
     35      12.4258      0.00000
     36      12.4433      0.00000

 k-point    10 :       0.3750    0.3750    0.0000
  band No.  band energies     occupation 
      1      -1.8604      1.00000
      2      -1.3765      1.00000
      3      -1.2074      1.00000
      4      -0.9433      1.00000
      5      -0.8947      1.00000
      6      -0.7633      1.00000
      7      -0.7063      1.00000
      8      -0.4827      1.00000
      9      -0.3525      1.00000
     10       0.0723      1.00000
     11       0.1774      1.00000
     12       0.8303      1.00000
     13       0.8854      1.00000
     14       1.6534      0.99993
     15       1.6927      0.99980
     16       1.8363      0.99703
     17       1.8622      0.99607
     18       1.9043      0.99507
     19       1.9645      0.99901
     20       2.0794      1.04178
     21       2.2023      0.96025
     22       2.2173      0.91830
     23       2.2612      0.74803
     24       2.4554     -0.02722
     25       2.6042     -0.01324
     26       3.0589      0.00000
     27       4.4686      0.00000
     28       6.1502      0.00000
     29       7.2990      0.00000
     30       8.1323      0.00000
     31       8.8149      0.00000
     32      10.2714      0.00000
     33      10.9561      0.00000
     34      12.0987      0.00000
     35      12.1566      0.00000
     36      12.9055      0.00000

 k-point    11 :       0.2500    0.2500    0.0000
  band No.  band energies     occupation 
      1      -3.4637      1.00000
      2      -2.5047      1.00000
      3      -1.3426      1.00000
      4      -0.8552      1.00000
      5      -0.5782      1.00000
      6      -0.3362      1.00000
      7      -0.2385      1.00000
      8      -0.2334      1.00000
      9      -0.1712      1.00000
     10      -0.0572      1.00000
     11       0.2463      1.00000
     12       0.4045      1.00000
     13       0.6200      1.00000
     14       1.1504      1.00000
     15       1.1919      1.00000
     16       1.2252      1.00000
     17       1.2515      1.00000
     18       1.4066      1.00000
     19       1.4812      1.00000
     20       1.5023      1.00000
     21       1.6293      0.99996
     22       1.6629      0.99991
     23       1.7444      0.99937
     24       2.0117      1.01142
     25       2.2316      0.87019
     26       2.4753     -0.04443
     27       2.5503     -0.03780
     28       3.3855      0.00000
     29       4.8552      0.00000
     30       6.8046      0.00000
     31       8.6190      0.00000
     32       9.9665      0.00000
     33      10.5935      0.00000
     34      11.5800      0.00000
     35      11.9066      0.00000
     36      12.5377      0.00000

 k-point    12 :       0.1250    0.1250    0.0000
  band No.  band energies     occupation 
      1      -5.5230      1.00000
      2      -4.3746      1.00000
      3      -2.7412      1.00000
      4      -1.5292      1.00000
      5      -1.4354      1.00000
      6      -0.9264      1.00000
      7      -0.6047      1.00000
      8      -0.1227      1.00000
      9       0.2169      1.00000
     10       0.5742      1.00000
     11       0.6652      1.00000
     12       0.7249      1.00000
     13       0.7271      1.00000
     14       0.8219      1.00000
     15       1.0964      1.00000
     16       1.1891      1.00000
     17       1.3825      1.00000
     18       1.4017      1.00000
     19       1.4744      1.00000
     20       1.5920      0.99999
     21       1.6884      0.99982
     22       1.7777      0.99880
     23       1.8209      0.99758
     24       2.0727      1.03881
     25       2.1368      1.04849
     26       2.2746      0.68436
     27       2.3245      0.42551
     28       2.5722     -0.02735
     29       2.9620      0.00008
     30       4.3981      0.00000
     31       5.8583      0.00000
     32       7.7625      0.00000
     33       9.0921      0.00000
     34      10.8032      0.00000
     35      13.9987      0.00000
     36      14.3733      0.00000

 k-point    13 :       0.0000    0.0000    0.0000
  band No.  band energies     occupation 
      1      -6.3061      1.00000
      2      -5.1138      1.00000
      3      -3.3955      1.00000
      4      -2.0728      1.00000
      5      -1.8857      1.00000
      6      -1.1758      1.00000
      7      -0.7955      1.00000
      8      -0.2043      1.00000
      9       0.2870      1.00000
     10       0.5344      1.00000
     11       0.7165      1.00000
     12       0.7165      1.00000
     13       1.0500      1.00000
     14       1.1205      1.00000
     15       1.1205      1.00000
     16       1.3556      1.00000
     17       1.3770      1.00000
     18       1.5688      0.99999
     19       1.6736      0.99988
     20       1.7351      0.99948
     21       1.7351      0.99948
     22       1.8682      0.99585
     23       2.1372      1.04832
     24       2.3130      0.48622
     25       2.3130      0.48622
     26       2.4074      0.06983
     27       2.4422     -0.00890
     28       2.5866     -0.02068
     29       2.5866     -0.02068
     30       2.9080      0.00032
     31       4.1998      0.00000
     32       7.0082      0.00000
     33       8.2312      0.00000
     34      10.1731      0.00000
     35      13.3060      0.00000
     36      13.9522      0.00000


--------------------------------------------------------------------------------------------------------


 soft charge-density along one line, spin component           1
         0         1         2         3         4         5         6         7         8         9
 total charge-density along one line
 
 soft charge-density along one line, spin component           2
         0         1         2         3         4         5         6         7         8         9
 total charge-density along one line
 
 pseudopotential strength for first ion, spin component:           1
 -5.489  -0.000   0.000  -0.000   0.000  -5.961  -0.000   0.000
 -0.000  -5.401  -0.000  -0.000  -0.000  -0.000  -5.878  -0.000
  0.000  -0.000  -5.343  -0.000  -0.000   0.000  -0.000  -5.822
 -0.000  -0.000  -0.000  -5.401  -0.000  -0.000   0.000  -0.000
  0.000  -0.000  -0.000  -0.000  -5.484   0.000  -0.000  -0.000
 -5.961  -0.000   0.000  -0.000   0.000  -6.370  -0.000   0.000
 -0.000  -5.878  -0.000   0.000  -0.000  -0.000  -6.291  -0.000
  0.000  -0.000  -5.822  -0.000  -0.000   0.000  -0.000  -6.237
 -0.000   0.000  -0.000  -5.878  -0.000  -0.000   0.000  -0.000
  0.000  -0.000  -0.000  -0.000  -5.955   0.000  -0.000  -0.000
  0.000   0.000  -0.018   0.000  -0.000   0.000   0.000  -0.017
  0.000   0.000  -0.031   0.000  -0.000   0.000   0.000  -0.030
  0.000  -0.012   0.000   0.000   0.000   0.000  -0.011   0.000
  0.000  -0.000  -0.014   0.000  -0.000   0.000  -0.000  -0.013
 -0.000   0.000  -0.000  -0.012   0.000  -0.000   0.000  -0.000
  0.000  -0.012   0.000   0.000   0.000   0.000  -0.011   0.000
  0.000  -0.000  -0.014   0.000  -0.000   0.000  -0.000  -0.013
 -0.000   0.000  -0.000  -0.012   0.000  -0.000   0.000  -0.000
 pseudopotential strength for first ion, spin component:           2
 -4.853  -0.000   0.000  -0.000   0.000  -5.355  -0.000   0.000
 -0.000  -4.762   0.000   0.000   0.000  -0.000  -5.267   0.000
  0.000   0.000  -4.784  -0.000   0.000   0.000   0.000  -5.290
 -0.000   0.000  -0.000  -4.762  -0.000  -0.000   0.000  -0.000
  0.000   0.000   0.000  -0.000  -4.849   0.000   0.000   0.000
 -5.355  -0.000   0.000  -0.000   0.000  -5.792  -0.000   0.000
 -0.000  -5.267   0.000   0.000   0.000  -0.000  -5.708   0.000
  0.000   0.000  -5.290  -0.000   0.000   0.000   0.000  -5.731
 -0.000   0.000  -0.000  -5.267  -0.000  -0.000   0.000  -0.000
  0.000   0.000   0.000  -0.000  -5.351   0.000   0.000   0.000
  0.000   0.000  -0.011   0.000   0.000   0.000   0.000  -0.010
  0.000   0.000  -0.018   0.000   0.000   0.000   0.000  -0.018
  0.000  -0.013   0.000   0.000   0.000   0.000  -0.012   0.000
  0.000  -0.000  -0.016   0.000  -0.000   0.000  -0.000  -0.014
 -0.000   0.000  -0.000  -0.013   0.000  -0.000   0.000  -0.000
  0.000  -0.014   0.000   0.000   0.000   0.000  -0.012   0.000
  0.000  -0.000  -0.016   0.000  -0.000   0.000  -0.000  -0.015
 -0.000   0.000  -0.000  -0.014   0.000  -0.000   0.000  -0.000
 total augmentation occupancy for first ion, spin component:           1
  1.800   0.000   0.000   0.000   0.000   0.000   0.000   0.000   0.000   0.000   0.000   0.000   0.000   0.000   0.000   0.000
  0.000   1.800   0.000   0.000   0.000   0.000   0.000   0.000   0.000   0.000   0.000   0.000   0.000   0.000   0.000   0.000
  0.000   0.000   1.800   0.000   0.000   0.000   0.000   0.000   0.000   0.000   0.000   0.000   0.000   0.000   0.000   0.000
  0.000   0.000   0.000   1.800   0.000   0.000   0.000   0.000   0.000   0.000   0.000   0.000   0.000   0.000   0.000   0.000
  0.000   0.000   0.000   0.000   1.800   0.000   0.000   0.000   0.000   0.000   0.000   0.000   0.000   0.000   0.000   0.000
  0.000   0.000   0.000   0.000   0.000   0.000   0.000   0.000   0.000   0.000   0.000   0.000   0.000   0.000   0.000   0.000
  0.000   0.000   0.000   0.000   0.000   0.000   0.000   0.000   0.000   0.000   0.000   0.000   0.000   0.000   0.000   0.000
  0.000   0.000   0.000   0.000   0.000   0.000   0.000   0.000   0.000   0.000   0.000   0.000   0.000   0.000   0.000   0.000
  0.000   0.000   0.000   0.000   0.000   0.000   0.000   0.000   0.000   0.000   0.000   0.000   0.000   0.000   0.000   0.000
  0.000   0.000   0.000   0.000   0.000   0.000   0.000   0.000   0.000   0.000   0.000   0.000   0.000   0.000   0.000   0.000
  0.000   0.000   0.000   0.000   0.000   0.000   0.000   0.000   0.000   0.000   1.000   0.000   0.000   0.000   0.000   0.000
  0.000   0.000   0.000   0.000   0.000   0.000   0.000   0.000   0.000   0.000   0.000   0.000   0.000   0.000   0.000   0.000
  0.000   0.000   0.000   0.000   0.000   0.000   0.000   0.000   0.000   0.000   0.000   0.000   0.000   0.000   0.000   0.000
  0.000   0.000   0.000   0.000   0.000   0.000   0.000   0.000   0.000   0.000   0.000   0.000   0.000   0.000   0.000   0.000
  0.000   0.000   0.000   0.000   0.000   0.000   0.000   0.000   0.000   0.000   0.000   0.000   0.000   0.000   0.000   0.000
  0.000   0.000   0.000   0.000   0.000   0.000   0.000   0.000   0.000   0.000   0.000   0.000   0.000   0.000   0.000   0.000
  0.000   0.000   0.000   0.000   0.000   0.000   0.000   0.000   0.000   0.000   0.000   0.000   0.000   0.000   0.000   0.000
  0.000   0.000   0.000   0.000   0.000   0.000   0.000   0.000   0.000   0.000   0.000   0.000   0.000   0.000   0.000   0.000
 total augmentation occupancy for first ion, spin component:           2
  0.180   0.000   0.000   0.000   0.000   0.000   0.000   0.000   0.000   0.000   0.000   0.000   0.000   0.000   0.000   0.000
  0.000   0.180   0.000   0.000   0.000   0.000   0.000   0.000   0.000   0.000   0.000   0.000   0.000   0.000   0.000   0.000
  0.000   0.000   0.180   0.000   0.000   0.000   0.000   0.000   0.000   0.000   0.000   0.000   0.000   0.000   0.000   0.000
  0.000   0.000   0.000   0.180   0.000   0.000   0.000   0.000   0.000   0.000   0.000   0.000   0.000   0.000   0.000   0.000
  0.000   0.000   0.000   0.000   0.180   0.000   0.000   0.000   0.000   0.000   0.000   0.000   0.000   0.000   0.000   0.000
  0.000   0.000   0.000   0.000   0.000   0.000   0.000   0.000   0.000   0.000   0.000   0.000   0.000   0.000   0.000   0.000
  0.000   0.000   0.000   0.000   0.000   0.000   0.000   0.000   0.000   0.000   0.000   0.000   0.000   0.000   0.000   0.000
  0.000   0.000   0.000   0.000   0.000   0.000   0.000   0.000   0.000   0.000   0.000   0.000   0.000   0.000   0.000   0.000
  0.000   0.000   0.000   0.000   0.000   0.000   0.000   0.000   0.000   0.000   0.000   0.000   0.000   0.000   0.000   0.000
  0.000   0.000   0.000   0.000   0.000   0.000   0.000   0.000   0.000   0.000   0.000   0.000   0.000   0.000   0.000   0.000
  0.000   0.000   0.000   0.000   0.000   0.000   0.000   0.000   0.000   0.000   0.100   0.000   0.000   0.000   0.000   0.000
  0.000   0.000   0.000   0.000   0.000   0.000   0.000   0.000   0.000   0.000   0.000   0.000   0.000   0.000   0.000   0.000
  0.000   0.000   0.000   0.000   0.000   0.000   0.000   0.000   0.000   0.000   0.000   0.000   0.000   0.000   0.000   0.000
  0.000   0.000   0.000   0.000   0.000   0.000   0.000   0.000   0.000   0.000   0.000   0.000   0.000   0.000   0.000   0.000
  0.000   0.000   0.000   0.000   0.000   0.000   0.000   0.000   0.000   0.000   0.000   0.000   0.000   0.000   0.000   0.000
  0.000   0.000   0.000   0.000   0.000   0.000   0.000   0.000   0.000   0.000   0.000   0.000   0.000   0.000   0.000   0.000
  0.000   0.000   0.000   0.000   0.000   0.000   0.000   0.000   0.000   0.000   0.000   0.000   0.000   0.000   0.000   0.000
  0.000   0.000   0.000   0.000   0.000   0.000   0.000   0.000   0.000   0.000   0.000   0.000   0.000   0.000   0.000   0.000


------------------------ aborting loop because EDIFF is reached ----------------------------------------





 total charge

# of ion       s       p       d       tot
------------------------------------------
    1        0.503   0.258   8.300   9.062
    2        0.511   0.420   8.410   9.341
    3        0.510   0.430   8.411   9.351
    4        0.519   0.443   8.406   9.367
    5        0.513   0.280   8.314   9.107
--------------------------------------------------
tot          2.555   1.831  41.842  46.227



 magnetization (x)

# of ion       s       p       d       tot
------------------------------------------
    1       -0.003  -0.015   0.865   0.848
    2       -0.008  -0.024   0.673   0.641
    3       -0.008  -0.024   0.674   0.641
    4       -0.008  -0.025   0.684   0.651
    5       -0.003  -0.016   0.848   0.829
--------------------------------------------------
tot         -0.030  -0.105   3.745   3.610
 
    CHARGE:  cpu time      0.0238: real time      0.0239
    FORLOC:  cpu time      0.0006: real time      0.0007
    FORNL :  cpu time      0.1251: real time      0.1256
    STRESS:  cpu time      0.2023: real time      0.2029
    FORCOR:  cpu time      0.0139: real time      0.0139
    FORHAR:  cpu time      0.0018: real time      0.0018
    OFIELD:  cpu time      0.0001: real time      0.0001

  FORCE on cell =-STRESS in cart. coord.  units (eV):
  Direction    XX          YY          ZZ          XY          YZ          ZX
  --------------------------------------------------------------------------------------
  Alpha Z   115.94205   115.94205   115.94205
  Ewald   12520.52130 12520.52130-15587.95298     0.00000    -0.00000     0.00000
  Hartree 14044.63502 14044.63502-13244.89251    -0.00000    -0.00000     0.00000
  E(xc)    -274.06867  -274.06867  -274.94726    -0.00000     0.00000     0.00000
  Local  -27621.25650-27621.25650 27757.58208     0.00000     0.00000    -0.00000
  n-local   -37.34602   -38.30111   -33.94553   -12.42863     0.00001     0.00005
  augment   884.85395   884.85395   893.62471     0.00000    -0.00000    -0.00000
  Kinetic   382.31004   385.84614   394.21472     4.13208    -0.00001    -0.00004
  Fock        0.00000     0.00000     0.00000     0.00000     0.00000     0.00000
  -------------------------------------------------------------------------------------
  Total      16.88168    16.88168    19.62528     0.00000     0.00000    -0.00000
  in kB     245.95871   245.95871   285.93173     0.00000     0.00000    -0.00000
  external pressure =      259.28 kB  Pullay stress =        0.00 kB


 VOLUME and BASIS-vectors are now :
 -----------------------------------------------------------------------------
  energy-cutoff  :      270.00
  volume of cell :      109.97
      direct lattice vectors                 reciprocal lattice vectors
     1.765000000  1.765000000  0.000000000     0.283286119  0.283286119  0.000000000
    -1.765000000  1.765000000  0.000000000    -0.283286119  0.283286119  0.000000000
     0.000000000  0.000000000 17.650000000     0.000000000  0.000000000  0.056657224

  length of vectors
     2.496086938  2.496086938 17.650000000     0.400627071  0.400627071  0.056657224


 FORCES acting on ions
    electron-ion (+dipol)            ewald-force                    non-local-force                 convergence-correction
 -----------------------------------------------------------------------------------------------
   -.216E-12 0.232E-12 0.287E+04   0.910E-14 0.238E-14 -.286E+04   -.112E-21 0.112E-21 -.215E+01   -.675E-13 0.117E-12 -.302E+01
   0.777E-13 -.254E-12 0.148E+04   -.119E-13 -.189E-13 -.147E+04   0.198E-20 0.140E-20 -.744E+00   -.633E-13 0.264E-12 -.122E+02
   -.477E-14 0.521E-13 0.122E+02   0.420E-14 0.935E-14 -.131E+02   -.122E-20 -.902E-21 0.191E-01   -.117E-12 0.509E-13 0.840E+00
   -.590E-13 -.208E-12 -.146E+04   -.107E-13 -.133E-13 0.145E+04   0.125E-22 0.934E-22 0.763E+00   0.137E-11 -.185E-12 0.125E+02
   -.708E-13 0.157E-12 -.289E+04   0.918E-14 -.713E-14 0.289E+04   -.109E-20 -.181E-21 0.190E+01   -.450E-13 -.405E-13 0.205E+01
 -----------------------------------------------------------------------------------------------
   -.273E-12 -.218E-13 0.190E-01   -.934E-16 -.275E-13 0.455E-12   -.421E-21 0.527E-21 -.214E+00   0.108E-11 0.207E-12 0.167E+00
 
 
 POSITION                                       TOTAL-FORCE (eV/Angst)
 -----------------------------------------------------------------------------------
      0.00000      0.00000      0.00000         0.000000     -0.000000     -0.052513
      0.00000      1.76500      1.76500        -0.000000     -0.000000     -0.323434
      0.00000      0.00000      3.53000        -0.000000     -0.000000     -0.021668
      0.00000      1.76500      5.29871         0.000000      0.000000     -0.036166
      0.00000      0.00000      6.98070        -0.000000     -0.000000      0.433781
 -----------------------------------------------------------------------------------
    total drift:                                0.000000      0.000000     -0.027630


--------------------------------------------------------------------------------------------------------



  FREE ENERGIE OF THE ION-ELECTRON SYSTEM (eV)
  ---------------------------------------------------
  free  energy   TOTEN  =       -26.68131214 eV

  energy  without entropy=      -26.67589256  energy(sigma->0) =      -26.67995725
 


--------------------------------------------------------------------------------------------------------


    POTLOK:  cpu time      0.0230: real time      0.0231


--------------------------------------------------------------------------------------------------------


 writing wavefunctions
     LOOP+:  cpu time      3.3701: real time      3.6687
    4ORBIT:  cpu time      0.0000: real time      0.0000



 total charge

# of ion       s       p       d       tot
------------------------------------------
    1        0.503   0.258   8.300   9.062
    2        0.511   0.420   8.410   9.341
    3        0.510   0.430   8.411   9.351
    4        0.519   0.443   8.406   9.367
    5        0.513   0.280   8.314   9.107
--------------------------------------------------
tot          2.555   1.831  41.842  46.227



 magnetization (x)

# of ion       s       p       d       tot
------------------------------------------
    1       -0.003  -0.015   0.865   0.848
    2       -0.008  -0.024   0.673   0.641
    3       -0.008  -0.024   0.674   0.641
    4       -0.008  -0.025   0.684   0.651
    5       -0.003  -0.016   0.848   0.829
--------------------------------------------------
tot         -0.030  -0.105   3.745   3.610
 

 total amount of memory used by VASP MPI-rank0    39093. kBytes
=======================================================================

   base      :      30000. kBytes
   nonl-proj :       2209. kBytes
   fftplans  :        520. kBytes
   grid      :       1627. kBytes
   one-center:        155. kBytes
   wavefun   :       4582. kBytes
 
  
  
 General timing and accounting informations for this job:
 ========================================================
  
                  Total CPU time used (sec):        4.111
                            User time (sec):        3.740
                          System time (sec):        0.372
                         Elapsed time (sec):        4.458
  
                   Maximum memory used (kb):       66896.
                   Average memory used (kb):          N/A
  
                          Minor page faults:        16607
                          Major page faults:            0
                 Voluntary context switches:         2218
