PROCAR lm decomposed
# of k-points:   13         # of bands:   36         # of ions:    5

 k-point     1 :    0.00000000 0.00000000 0.00000000     weight = 0.07692308

band     1 # energy   -6.26353780 # occ.  1.00000000
 
ion      s     py     pz     px    dxy    dyz    dz2    dxz  x2-y2    tot
    1  0.040  0.000  0.006  0.000  0.000  0.000  0.000  0.000  0.000  0.046
    2  0.161  0.000  0.003  0.000  0.000  0.000  0.000  0.000  0.000  0.165
    3  0.247  0.000  0.000  0.000  0.000  0.000  0.000  0.000  0.000  0.247
    4  0.196  0.000  0.002  0.000  0.000  0.000  0.000  0.000  0.000  0.199
    5  0.058  0.000  0.009  0.000  0.000  0.000  0.000  0.000  0.000  0.067
tot    0.702  0.000  0.021  0.000  0.000  0.000  0.001  0.000  0.000  0.723
 
band     2 # energy   -5.07982097 # occ.  1.00000000
 
ion      s     py     pz     px    dxy    dyz    dz2    dxz  x2-y2    tot
    1  0.133  0.000  0.012  0.000  0.000  0.000  0.001  0.000  0.000  0.146
    2  0.192  0.000  0.005  0.000  0.000  0.000  0.006  0.000  0.000  0.203
    3  0.001  0.000  0.037  0.000  0.000  0.000  0.000  0.000  0.000  0.038
    4  0.167  0.000  0.008  0.000  0.000  0.000  0.006  0.000  0.000  0.181
    5  0.136  0.000  0.011  0.000  0.000  0.000  0.001  0.000  0.000  0.149
tot    0.630  0.000  0.073  0.000  0.000  0.000  0.014  0.000  0.000  0.717
 
band     3 # energy   -3.40142809 # occ.  1.00000000
 
ion      s     py     pz     px    dxy    dyz    dz2    dxz  x2-y2    tot
    1  0.156  0.000  0.001  0.000  0.000  0.000  0.021  0.000  0.000  0.178
    2  0.004  0.000  0.060  0.000  0.000  0.000  0.003  0.000  0.000  0.067
    3  0.162  0.000  0.000  0.000  0.000  0.000  0.066  0.000  0.000  0.228
    4  0.003  0.000  0.061  0.000  0.000  0.000  0.003  0.000  0.000  0.066
    5  0.144  0.000  0.001  0.000  0.000  0.000  0.023  0.000  0.000  0.168
tot    0.468  0.000  0.123  0.000  0.000  0.000  0.116  0.000  0.000  0.707
 
band     4 # energy   -2.28048991 # occ.  1.00000000
 
ion      s     py     pz     px    dxy    dyz    dz2    dxz  x2-y2    tot
    1  0.022  0.000  0.001  0.000  0.000  0.000  0.020  0.000  0.000  0.042
    2  0.008  0.000  0.009  0.000  0.000  0.000  0.005  0.000  0.000  0.023
    3  0.003  0.000  0.021  0.000  0.000  0.000  0.059  0.000  0.000  0.084
    4  0.045  0.000  0.010  0.000  0.000  0.000  0.312  0.000  0.000  0.368
    5  0.084  0.000  0.010  0.000  0.000  0.000  0.193  0.000  0.000  0.288
tot    0.162  0.000  0.052  0.000  0.000  0.000  0.590  0.000  0.000  0.804
 
band     5 # energy   -2.20102543 # occ.  1.00000000
 
ion      s     py     pz     px    dxy    dyz    dz2    dxz  x2-y2    tot
    1  0.072  0.000  0.008  0.000  0.000  0.000  0.160  0.000  0.000  0.240
    2  0.043  0.000  0.004  0.000  0.000  0.000  0.326  0.000  0.000  0.373
    3  0.008  0.000  0.009  0.000  0.000  0.000  0.159  0.000  0.000  0.176
    4  0.000  0.000  0.004  0.000  0.000  0.000  0.032  0.000  0.000  0.036
    5  0.000  0.000  0.000  0.000  0.000  0.000  0.002  0.000  0.000  0.003
tot    0.123  0.000  0.026  0.000  0.000  0.000  0.679  0.000  0.000  0.827
 
band     6 # energy   -1.71188140 # occ.  1.00000000
 
ion      s     py     pz     px    dxy    dyz    dz2    dxz  x2-y2    tot
    1  0.000  0.000  0.000  0.000  0.031  0.000  0.000  0.000  0.000  0.031
    2  0.000  0.000  0.000  0.000  0.166  0.000  0.000  0.000  0.000  0.166
    3  0.000  0.000  0.000  0.000  0.307  0.000  0.000  0.000  0.000  0.307
    4  0.000  0.000  0.000  0.000  0.334  0.000  0.000  0.000  0.000  0.334
    5  0.000  0.000  0.000  0.000  0.103  0.000  0.000  0.000  0.000  0.103
tot    0.000  0.000  0.000  0.000  0.941  0.000  0.000  0.000  0.000  0.941
 
band     7 # energy   -1.36054611 # occ.  1.00000000
 
ion      s     py     pz     px    dxy    dyz    dz2    dxz  x2-y2    tot
    1  0.000  0.000  0.000  0.000  0.169  0.000  0.000  0.000  0.000  0.169
    2  0.000  0.000  0.000  0.000  0.361  0.000  0.000  0.000  0.000  0.361
    3  0.000  0.000  0.000  0.000  0.023  0.000  0.000  0.000  0.000  0.023
    4  0.000  0.000  0.000  0.000  0.214  0.000  0.000  0.000  0.000  0.214
    5  0.000  0.000  0.000  0.000  0.178  0.000  0.000  0.000  0.000  0.178
tot    0.000  0.000  0.000  0.000  0.945  0.000  0.000  0.000  0.000  0.945
 
band     8 # energy   -0.83684388 # occ.  1.00000000
 
ion      s     py     pz     px    dxy    dyz    dz2    dxz  x2-y2    tot
    1  0.000  0.000  0.000  0.000  0.329  0.000  0.000  0.000  0.000  0.329
    2  0.000  0.000  0.000  0.000  0.018  0.000  0.000  0.000  0.000  0.018
    3  0.000  0.000  0.000  0.000  0.370  0.000  0.000  0.000  0.000  0.370
    4  0.000  0.000  0.000  0.000  0.002  0.000  0.000  0.000  0.000  0.002
    5  0.000  0.000  0.000  0.000  0.234  0.000  0.000  0.000  0.000  0.234
tot    0.000  0.000  0.000  0.000  0.954  0.000  0.000  0.000  0.000  0.954
 
band     9 # energy   -0.37028326 # occ.  1.00000000
 
ion      s     py     pz     px    dxy    dyz    dz2    dxz  x2-y2    tot
    1  0.000  0.000  0.000  0.000  0.315  0.000  0.000  0.000  0.000  0.315
    2  0.000  0.000  0.000  0.000  0.206  0.000  0.000  0.000  0.000  0.206
    3  0.000  0.000  0.000  0.000  0.002  0.000  0.000  0.000  0.000  0.002
    4  0.000  0.000  0.000  0.000  0.164  0.000  0.000  0.000  0.000  0.164
    5  0.000  0.000  0.000  0.000  0.278  0.000  0.000  0.000  0.000  0.278
tot    0.000  0.000  0.000  0.000  0.965  0.000  0.000  0.000  0.000  0.965
 
band    10 # energy   -0.12242937 # occ.  1.00000000
 
ion      s     py     pz     px    dxy    dyz    dz2    dxz  x2-y2    tot
    1  0.000  0.000  0.000  0.000  0.112  0.000  0.000  0.000  0.000  0.112
    2  0.000  0.000  0.000  0.000  0.203  0.000  0.000  0.000  0.000  0.203
    3  0.000  0.000  0.000  0.000  0.253  0.000  0.000  0.000  0.000  0.253
    4  0.000  0.000  0.000  0.000  0.242  0.000  0.000  0.000  0.000  0.242
    5  0.000  0.000  0.000  0.000  0.164  0.000  0.000  0.000  0.000  0.164
tot    0.000  0.000  0.000  0.000  0.973  0.000  0.000  0.000  0.000  0.973
 
band    11 # energy    0.02918462 # occ.  1.00000000
 
ion      s     py     pz     px    dxy    dyz    dz2    dxz  x2-y2    tot
    1  0.000  0.000  0.000  0.000  0.000  0.028  0.000  0.001  0.000  0.029
    2  0.000  0.000  0.000  0.000  0.000  0.187  0.000  0.009  0.000  0.197
    3  0.000  0.000  0.000  0.000  0.000  0.331  0.000  0.016  0.000  0.347
    4  0.000  0.000  0.000  0.000  0.000  0.316  0.000  0.016  0.000  0.332
    5  0.000  0.001  0.000  0.000  0.000  0.067  0.000  0.003  0.000  0.072
tot    0.000  0.002  0.000  0.000  0.000  0.929  0.000  0.046  0.000  0.977
 
band    12 # energy    0.02918462 # occ.  1.00000000
 
ion      s     py     pz     px    dxy    dyz    dz2    dxz  x2-y2    tot
    1  0.000  0.000  0.000  0.000  0.000  0.001  0.000  0.028  0.000  0.029
    2  0.000  0.000  0.000  0.000  0.000  0.009  0.000  0.187  0.000  0.197
    3  0.000  0.000  0.000  0.000  0.000  0.016  0.000  0.331  0.000  0.347
    4  0.000  0.000  0.000  0.000  0.000  0.016  0.000  0.316  0.000  0.332
    5  0.000  0.000  0.000  0.001  0.000  0.003  0.000  0.067  0.000  0.072
tot    0.000  0.000  0.000  0.002  0.000  0.046  0.000  0.929  0.000  0.977
 
band    13 # energy    0.40106239 # occ.  1.00000000
 
ion      s     py     pz     px    dxy    dyz    dz2    dxz  x2-y2    tot
    1  0.000  0.000  0.000  0.001  0.000  0.051  0.000  0.091  0.000  0.143
    2  0.000  0.000  0.000  0.000  0.000  0.137  0.000  0.247  0.000  0.384
    3  0.000  0.001  0.000  0.002  0.000  0.005  0.000  0.009  0.000  0.017
    4  0.000  0.000  0.000  0.001  0.000  0.099  0.000  0.178  0.000  0.278
    5  0.000  0.000  0.000  0.001  0.000  0.055  0.000  0.100  0.000  0.157
tot    0.000  0.002  0.000  0.004  0.000  0.347  0.000  0.625  0.000  0.978
 
band    14 # energy    0.40106239 # occ.  1.00000000
 
ion      s     py     pz     px    dxy    dyz    dz2    dxz  x2-y2    tot
    1  0.000  0.001  0.000  0.000  0.000  0.091  0.000  0.051  0.000  0.143
    2  0.000  0.000  0.000  0.000  0.000  0.247  0.000  0.137  0.000  0.384
    3  0.000  0.002  0.000  0.001  0.000  0.009  0.000  0.005  0.000  0.017
    4  0.000  0.001  0.000  0.000  0.000  0.178  0.000  0.099  0.000  0.278
    5  0.000  0.001  0.000  0.000  0.000  0.100  0.000  0.055  0.000  0.157
tot    0.000  0.004  0.000  0.002  0.000  0.625  0.000  0.347  0.000  0.978
 
band    15 # energy    0.50183718 # occ.  1.00000000
 
ion      s     py     pz     px    dxy    dyz    dz2    dxz  x2-y2    tot
    1  0.013  0.000  0.000  0.000  0.000  0.000  0.258  0.000  0.000  0.271
    2  0.000  0.000  0.010  0.000  0.000  0.000  0.004  0.000  0.000  0.014
    3  0.014  0.000  0.000  0.000  0.000  0.000  0.394  0.000  0.000  0.408
    4  0.000  0.000  0.010  0.000  0.000  0.000  0.029  0.000  0.000  0.039
    5  0.015  0.000  0.000  0.000  0.000  0.000  0.157  0.000  0.000  0.173
tot    0.043  0.000  0.020  0.000  0.000  0.000  0.842  0.000  0.000  0.904
 
band    16 # energy    0.75900725 # occ.  1.00000000
 
ion      s     py     pz     px    dxy    dyz    dz2    dxz  x2-y2    tot
    1  0.000  0.000  0.000  0.000  0.000  0.000  0.262  0.000  0.000  0.262
    2  0.003  0.000  0.000  0.000  0.000  0.000  0.295  0.000  0.000  0.298
    3  0.000  0.000  0.003  0.000  0.000  0.000  0.018  0.000  0.000  0.021
    4  0.002  0.000  0.000  0.000  0.000  0.000  0.137  0.000  0.000  0.138
    5  0.002  0.000  0.000  0.000  0.000  0.000  0.237  0.000  0.000  0.239
tot    0.006  0.000  0.003  0.000  0.000  0.000  0.949  0.000  0.000  0.958
 
band    17 # energy    0.94745244 # occ.  1.00000000
 
ion      s     py     pz     px    dxy    dyz    dz2    dxz  x2-y2    tot
    1  0.001  0.000  0.000  0.000  0.000  0.000  0.117  0.000  0.000  0.118
    2  0.000  0.000  0.000  0.000  0.000  0.000  0.134  0.000  0.000  0.135
    3  0.000  0.000  0.001  0.000  0.000  0.000  0.205  0.000  0.000  0.206
    4  0.000  0.000  0.000  0.000  0.000  0.000  0.287  0.000  0.000  0.288
    5  0.001  0.000  0.000  0.000  0.000  0.000  0.218  0.000  0.000  0.219
tot    0.002  0.000  0.002  0.000  0.000  0.000  0.961  0.000  0.000  0.965
 
band    18 # energy    0.98525804 # occ.  1.00000000
 
ion      s     py     pz     px    dxy    dyz    dz2    dxz  x2-y2    tot
    1  0.000  0.000  0.000  0.000  0.000  0.269  0.000  0.029  0.000  0.299
    2  0.000  0.003  0.000  0.000  0.000  0.031  0.000  0.003  0.000  0.038
    3  0.000  0.000  0.000  0.000  0.000  0.343  0.000  0.037  0.000  0.380
    4  0.000  0.004  0.000  0.000  0.000  0.009  0.000  0.001  0.000  0.014
    5  0.000  0.000  0.000  0.000  0.000  0.225  0.000  0.024  0.000  0.249
tot    0.000  0.007  0.000  0.001  0.000  0.877  0.000  0.095  0.000  0.980
 
band    19 # energy    0.98525805 # occ.  1.00000000
 
ion      s     py     pz     px    dxy    dyz    dz2    dxz  x2-y2    tot
    1  0.000  0.000  0.000  0.000  0.000  0.029  0.000  0.269  0.000  0.299
    2  0.000  0.000  0.000  0.003  0.000  0.003  0.000  0.031  0.000  0.038
    3  0.000  0.000  0.000  0.000  0.000  0.037  0.000  0.343  0.000  0.380
    4  0.000  0.000  0.000  0.004  0.000  0.001  0.000  0.009  0.000  0.014
    5  0.000  0.000  0.000  0.000  0.000  0.024  0.000  0.225  0.000  0.249
tot    0.000  0.001  0.000  0.007  0.000  0.095  0.000  0.877  0.000  0.980
 
band    20 # energy    1.00578220 # occ.  1.00000000
 
ion      s     py     pz     px    dxy    dyz    dz2    dxz  x2-y2    tot
    1  0.000  0.000  0.000  0.000  0.000  0.000  0.000  0.000  0.015  0.015
    2  0.000  0.000  0.000  0.000  0.000  0.000  0.000  0.000  0.130  0.130
    3  0.000  0.000  0.000  0.000  0.000  0.000  0.000  0.000  0.276  0.276
    4  0.000  0.000  0.000  0.000  0.000  0.000  0.000  0.000  0.461  0.461
    5  0.000  0.000  0.000  0.000  0.000  0.000  0.000  0.000  0.107  0.107
tot    0.000  0.000  0.000  0.000  0.000  0.000  0.000  0.000  0.988  0.988
 
band    21 # energy    1.09440531 # occ.  1.00000000
 
ion      s     py     pz     px    dxy    dyz    dz2    dxz  x2-y2    tot
    1  0.039  0.000  0.019  0.000  0.000  0.000  0.081  0.000  0.000  0.139
    2  0.037  0.000  0.017  0.000  0.000  0.000  0.136  0.000  0.000  0.189
    3  0.000  0.000  0.067  0.000  0.000  0.000  0.001  0.000  0.000  0.068
    4  0.036  0.000  0.018  0.000  0.000  0.000  0.096  0.000  0.000  0.149
    5  0.039  0.000  0.019  0.000  0.000  0.000  0.087  0.000  0.000  0.145
tot    0.151  0.000  0.140  0.000  0.000  0.000  0.401  0.000  0.000  0.691
 
band    22 # energy    1.16879484 # occ.  1.00000000
 
ion      s     py     pz     px    dxy    dyz    dz2    dxz  x2-y2    tot
    1  0.000  0.000  0.000  0.000  0.000  0.000  0.000  0.000  0.120  0.120
    2  0.000  0.000  0.000  0.000  0.000  0.000  0.000  0.000  0.487  0.487
    3  0.000  0.000  0.000  0.000  0.000  0.000  0.000  0.000  0.058  0.058
    4  0.000  0.000  0.000  0.000  0.000  0.000  0.000  0.000  0.209  0.209
    5  0.000  0.000  0.000  0.000  0.000  0.000  0.000  0.000  0.115  0.115
tot    0.000  0.000  0.000  0.000  0.000  0.000  0.000  0.000  0.989  0.989
 
band    23 # energy    1.43148229 # occ.  0.99999996
 
ion      s     py     pz     px    dxy    dyz    dz2    dxz  x2-y2    tot
    1  0.000  0.000  0.000  0.000  0.000  0.000  0.000  0.000  0.258  0.258
    2  0.000  0.000  0.000  0.000  0.000  0.000  0.000  0.000  0.065  0.065
    3  0.000  0.000  0.000  0.000  0.000  0.000  0.000  0.000  0.461  0.461
    4  0.000  0.000  0.000  0.000  0.000  0.000  0.000  0.000  0.007  0.007
    5  0.000  0.000  0.000  0.000  0.000  0.000  0.000  0.000  0.200  0.200
tot    0.000  0.000  0.000  0.000  0.000  0.000  0.000  0.000  0.991  0.991
 
band    24 # energy    1.51411168 # occ.  0.99999908
 
ion      s     py     pz     px    dxy    dyz    dz2    dxz  x2-y2    tot
    1  0.000  0.000  0.000  0.000  0.000  0.093  0.000  0.259  0.000  0.352
    2  0.000  0.000  0.000  0.001  0.000  0.041  0.000  0.116  0.000  0.158
    3  0.000  0.001  0.000  0.001  0.000  0.000  0.000  0.000  0.000  0.002
    4  0.000  0.000  0.000  0.001  0.000  0.039  0.000  0.108  0.000  0.148
    5  0.000  0.000  0.000  0.000  0.000  0.085  0.000  0.238  0.000  0.323
tot    0.000  0.001  0.000  0.004  0.000  0.258  0.000  0.721  0.000  0.984
 
band    25 # energy    1.51411168 # occ.  0.99999908
 
ion      s     py     pz     px    dxy    dyz    dz2    dxz  x2-y2    tot
    1  0.000  0.000  0.000  0.000  0.000  0.259  0.000  0.093  0.000  0.352
    2  0.000  0.001  0.000  0.000  0.000  0.116  0.000  0.041  0.000  0.158
    3  0.000  0.001  0.000  0.001  0.000  0.000  0.000  0.000  0.000  0.002
    4  0.000  0.001  0.000  0.000  0.000  0.108  0.000  0.039  0.000  0.148
    5  0.000  0.000  0.000  0.000  0.000  0.238  0.000  0.085  0.000  0.323
tot    0.000  0.004  0.000  0.001  0.000  0.721  0.000  0.258  0.000  0.984
 
band    26 # energy    1.61586676 # occ.  0.99997525
 
ion      s     py     pz     px    dxy    dyz    dz2    dxz  x2-y2    tot
    1  0.000  0.000  0.000  0.000  0.000  0.000  0.000  0.000  0.372  0.372
    2  0.000  0.000  0.000  0.000  0.000  0.000  0.000  0.000  0.116  0.116
    3  0.000  0.000  0.000  0.000  0.000  0.000  0.000  0.000  0.000  0.000
    4  0.000  0.000  0.000  0.000  0.000  0.000  0.000  0.000  0.142  0.142
    5  0.000  0.000  0.000  0.000  0.000  0.000  0.000  0.000  0.361  0.361
tot    0.000  0.000  0.000  0.000  0.000  0.000  0.000  0.000  0.992  0.992
 
band    27 # energy    1.67995555 # occ.  0.99985732
 
ion      s     py     pz     px    dxy    dyz    dz2    dxz  x2-y2    tot
    1  0.000  0.000  0.000  0.000  0.000  0.000  0.000  0.000  0.226  0.226
    2  0.000  0.000  0.000  0.000  0.000  0.000  0.000  0.000  0.192  0.192
    3  0.000  0.000  0.000  0.000  0.000  0.000  0.000  0.000  0.195  0.195
    4  0.000  0.000  0.000  0.000  0.000  0.000  0.000  0.000  0.171  0.171
    5  0.000  0.000  0.000  0.000  0.000  0.000  0.000  0.000  0.208  0.208
tot    0.000  0.000  0.000  0.000  0.000  0.000  0.000  0.000  0.993  0.993
 
band    28 # energy    1.79445509 # occ.  0.99838909
 
ion      s     py     pz     px    dxy    dyz    dz2    dxz  x2-y2    tot
    1  0.000  0.000  0.000  0.000  0.000  0.020  0.000  0.137  0.000  0.157
    2  0.000  0.000  0.000  0.000  0.000  0.026  0.000  0.179  0.000  0.205
    3  0.000  0.000  0.000  0.000  0.000  0.030  0.000  0.206  0.000  0.236
    4  0.000  0.000  0.000  0.000  0.000  0.027  0.000  0.185  0.000  0.212
    5  0.000  0.000  0.000  0.001  0.000  0.023  0.000  0.157  0.000  0.181
tot    0.000  0.000  0.000  0.001  0.000  0.127  0.000  0.863  0.000  0.991
 
band    29 # energy    1.79445509 # occ.  0.99838909
 
ion      s     py     pz     px    dxy    dyz    dz2    dxz  x2-y2    tot
    1  0.000  0.000  0.000  0.000  0.000  0.137  0.000  0.020  0.000  0.157
    2  0.000  0.000  0.000  0.000  0.000  0.179  0.000  0.026  0.000  0.205
    3  0.000  0.000  0.000  0.000  0.000  0.206  0.000  0.030  0.000  0.236
    4  0.000  0.000  0.000  0.000  0.000  0.185  0.000  0.027  0.000  0.212
    5  0.000  0.001  0.000  0.000  0.000  0.157  0.000  0.023  0.000  0.181
tot    0.000  0.001  0.000  0.000  0.000  0.863  0.000  0.127  0.000  0.991
 
band    30 # energy    2.85094035 # occ.  0.00104084
 
ion      s     py     pz     px    dxy    dyz    dz2    dxz  x2-y2    tot
    1  0.004  0.000  0.107  0.000  0.000  0.000  0.000  0.000  0.000  0.111
    2  0.022  0.000  0.044  0.000  0.000  0.000  0.031  0.000  0.000  0.096
    3  0.037  0.000  0.001  0.000  0.000  0.000  0.040  0.000  0.000  0.077
    4  0.026  0.000  0.027  0.000  0.000  0.000  0.042  0.000  0.000  0.095
    5  0.004  0.000  0.088  0.000  0.000  0.000  0.001  0.000  0.000  0.092
tot    0.092  0.000  0.266  0.000  0.000  0.000  0.114  0.000  0.000  0.472
 
band    31 # energy    4.21375873 # occ.  0.00000000
 
ion      s     py     pz     px    dxy    dyz    dz2    dxz  x2-y2    tot
    1  0.004  0.000  0.068  0.000  0.000  0.000  0.011  0.000  0.000  0.082
    2  0.002  0.000  0.093  0.000  0.000  0.000  0.001  0.000  0.000  0.096
    3  0.000  0.000  0.111  0.000  0.000  0.000  0.000  0.000  0.000  0.111
    4  0.000  0.000  0.110  0.000  0.000  0.000  0.000  0.000  0.000  0.110
    5  0.004  0.000  0.087  0.000  0.000  0.000  0.017  0.000  0.000  0.108
tot    0.010  0.000  0.468  0.000  0.000  0.000  0.030  0.000  0.000  0.508
 
band    32 # energy    6.64882143 # occ.  0.00000000
 
ion      s     py     pz     px    dxy    dyz    dz2    dxz  x2-y2    tot
    1  0.006  0.000  0.008  0.000  0.000  0.000  0.005  0.000  0.000  0.019
    2  0.004  0.000  0.002  0.000  0.000  0.000  0.003  0.000  0.000  0.009
    3  0.003  0.000  0.000  0.000  0.000  0.000  0.003  0.000  0.000  0.006
    4  0.004  0.000  0.002  0.000  0.000  0.000  0.003  0.000  0.000  0.009
    5  0.005  0.000  0.009  0.000  0.000  0.000  0.004  0.000  0.000  0.018
tot    0.023  0.000  0.020  0.000  0.000  0.000  0.017  0.000  0.000  0.060
 
band    33 # energy    8.09217906 # occ.  0.00000000
 
ion      s     py     pz     px    dxy    dyz    dz2    dxz  x2-y2    tot
    1  0.009  0.000  0.026  0.000  0.000  0.000  0.007  0.000  0.000  0.042
    2  0.002  0.000  0.016  0.000  0.000  0.000  0.001  0.000  0.000  0.019
    3  0.000  0.000  0.014  0.000  0.000  0.000  0.000  0.000  0.000  0.014
    4  0.002  0.000  0.016  0.000  0.000  0.000  0.002  0.000  0.000  0.020
    5  0.007  0.000  0.029  0.000  0.000  0.000  0.005  0.000  0.000  0.041
tot    0.020  0.000  0.101  0.000  0.000  0.000  0.015  0.000  0.000  0.136
 
band    34 # energy    9.89241415 # occ.  0.00000000
 
ion      s     py     pz     px    dxy    dyz    dz2    dxz  x2-y2    tot
    1  0.025  0.000  0.005  0.000  0.000  0.000  0.027  0.000  0.000  0.058
    2  0.018  0.000  0.001  0.000  0.000  0.000  0.018  0.000  0.000  0.037
    3  0.016  0.000  0.000  0.000  0.000  0.000  0.015  0.000  0.000  0.031
    4  0.017  0.000  0.001  0.000  0.000  0.000  0.017  0.000  0.000  0.035
    5  0.023  0.000  0.008  0.000  0.000  0.000  0.024  0.000  0.000  0.055
tot    0.100  0.000  0.015  0.000  0.000  0.000  0.101  0.000  0.000  0.215
 
band    35 # energy   13.06301037 # occ.  0.00000000
 
ion      s     py     pz     px    dxy    dyz    dz2    dxz  x2-y2    tot
    1  0.024  0.000  0.006  0.000  0.000  0.000  0.039  0.000  0.000  0.069
    2  0.009  0.000  0.014  0.000  0.000  0.000  0.014  0.000  0.000  0.036
    3  0.000  0.000  0.018  0.000  0.000  0.000  0.000  0.000  0.000  0.019
    4  0.005  0.000  0.016  0.000  0.000  0.000  0.008  0.000  0.000  0.028
    5  0.018  0.000  0.014  0.000  0.000  0.000  0.029  0.000  0.000  0.061
tot    0.055  0.000  0.068  0.000  0.000  0.000  0.090  0.000  0.000  0.213
 
band    36 # energy   13.75056237 # occ.  0.00000000
 
ion      s     py     pz     px    dxy    dyz    dz2    dxz  x2-y2    tot
    1  0.012  0.000  0.031  0.000  0.000  0.000  0.025  0.000  0.000  0.068
    2  0.039  0.000  0.010  0.000  0.000  0.000  0.071  0.000  0.000  0.120
    3  0.053  0.000  0.000  0.000  0.000  0.000  0.097  0.000  0.000  0.149
    4  0.038  0.000  0.012  0.000  0.000  0.000  0.068  0.000  0.000  0.118
    5  0.016  0.000  0.019  0.000  0.000  0.000  0.034  0.000  0.000  0.069
tot    0.157  0.000  0.072  0.000  0.000  0.000  0.294  0.000  0.000  0.524
 

 k-point     2 :    0.12500000 0.00000000 0.00000000     weight = 0.07692308

band     1 # energy   -5.86968547 # occ.  1.00000000
 
ion      s     py     pz     px    dxy    dyz    dz2    dxz  x2-y2    tot
    1  0.038  0.001  0.006  0.001  0.000  0.000  0.000  0.000  0.000  0.046
    2  0.155  0.003  0.003  0.003  0.000  0.000  0.000  0.000  0.000  0.165
    3  0.238  0.005  0.000  0.005  0.000  0.000  0.000  0.000  0.000  0.248
    4  0.189  0.004  0.002  0.004  0.000  0.000  0.000  0.000  0.000  0.199
    5  0.055  0.001  0.008  0.001  0.000  0.000  0.000  0.000  0.000  0.067
tot    0.675  0.013  0.020  0.013  0.001  0.001  0.000  0.001  0.000  0.724
 
band     2 # energy   -4.71168692 # occ.  1.00000000
 
ion      s     py     pz     px    dxy    dyz    dz2    dxz  x2-y2    tot
    1  0.126  0.002  0.012  0.002  0.000  0.001  0.000  0.001  0.000  0.145
    2  0.186  0.004  0.005  0.004  0.001  0.000  0.005  0.000  0.000  0.203
    3  0.001  0.000  0.036  0.000  0.000  0.003  0.000  0.003  0.000  0.043
    4  0.161  0.003  0.008  0.003  0.001  0.001  0.005  0.001  0.000  0.182
    5  0.129  0.002  0.011  0.002  0.000  0.001  0.001  0.001  0.000  0.148
tot    0.603  0.012  0.072  0.012  0.002  0.005  0.011  0.005  0.000  0.721
 
band     3 # energy   -3.08638692 # occ.  1.00000000
 
ion      s     py     pz     px    dxy    dyz    dz2    dxz  x2-y2    tot
    1  0.145  0.003  0.002  0.003  0.001  0.000  0.018  0.000  0.000  0.172
    2  0.004  0.000  0.058  0.000  0.000  0.007  0.004  0.007  0.000  0.079
    3  0.152  0.003  0.000  0.003  0.003  0.000  0.064  0.000  0.000  0.225
    4  0.003  0.000  0.058  0.000  0.000  0.007  0.003  0.007  0.000  0.078
    5  0.135  0.003  0.001  0.003  0.001  0.000  0.020  0.000  0.000  0.163
tot    0.439  0.009  0.119  0.009  0.005  0.014  0.108  0.014  0.000  0.717
 
band     4 # energy   -2.04409537 # occ.  1.00000000
 
ion      s     py     pz     px    dxy    dyz    dz2    dxz  x2-y2    tot
    1  0.005  0.000  0.000  0.000  0.000  0.000  0.001  0.000  0.000  0.006
    2  0.001  0.000  0.005  0.000  0.000  0.000  0.006  0.000  0.000  0.014
    3  0.004  0.001  0.013  0.001  0.002  0.001  0.114  0.001  0.000  0.136
    4  0.035  0.002  0.007  0.002  0.012  0.002  0.338  0.002  0.000  0.398
    5  0.070  0.002  0.009  0.002  0.008  0.001  0.185  0.001  0.000  0.278
tot    0.114  0.005  0.034  0.005  0.022  0.004  0.645  0.004  0.000  0.832
 
band     5 # energy   -1.96692649 # occ.  1.00000000
 
ion      s     py     pz     px    dxy    dyz    dz2    dxz  x2-y2    tot
    1  0.082  0.003  0.007  0.003  0.007  0.001  0.175  0.001  0.000  0.278
    2  0.041  0.002  0.007  0.002  0.010  0.002  0.321  0.002  0.000  0.387
    3  0.003  0.000  0.017  0.000  0.002  0.002  0.101  0.002  0.000  0.127
    4  0.003  0.000  0.007  0.000  0.000  0.001  0.001  0.001  0.000  0.012
    5  0.008  0.000  0.000  0.000  0.001  0.000  0.005  0.000  0.000  0.014
tot    0.137  0.005  0.038  0.005  0.020  0.005  0.604  0.005  0.000  0.818
 
band     6 # energy   -1.58722272 # occ.  1.00000000
 
ion      s     py     pz     px    dxy    dyz    dz2    dxz  x2-y2    tot
    1  0.000  0.000  0.000  0.000  0.028  0.000  0.000  0.000  0.000  0.030
    2  0.000  0.001  0.000  0.001  0.159  0.000  0.002  0.000  0.000  0.164
    3  0.000  0.002  0.000  0.002  0.297  0.000  0.005  0.000  0.000  0.307
    4  0.000  0.003  0.000  0.003  0.325  0.000  0.006  0.000  0.000  0.336
    5  0.000  0.001  0.000  0.001  0.096  0.001  0.002  0.001  0.000  0.102
tot    0.000  0.007  0.000  0.007  0.905  0.002  0.014  0.002  0.000  0.938
 
band     7 # energy   -1.25307768 # occ.  1.00000000
 
ion      s     py     pz     px    dxy    dyz    dz2    dxz  x2-y2    tot
    1  0.000  0.001  0.000  0.001  0.149  0.002  0.004  0.002  0.000  0.159
    2  0.000  0.003  0.000  0.003  0.347  0.000  0.008  0.000  0.000  0.361
    3  0.000  0.000  0.000  0.000  0.025  0.003  0.000  0.003  0.000  0.033
    4  0.000  0.002  0.000  0.002  0.203  0.001  0.006  0.001  0.000  0.215
    5  0.000  0.001  0.000  0.001  0.161  0.002  0.005  0.002  0.000  0.173
tot    0.001  0.007  0.001  0.007  0.885  0.008  0.024  0.008  0.000  0.941
 
band     8 # energy   -0.76882887 # occ.  1.00000000
 
ion      s     py     pz     px    dxy    dyz    dz2    dxz  x2-y2    tot
    1  0.001  0.002  0.000  0.002  0.291  0.002  0.002  0.002  0.000  0.302
    2  0.000  0.000  0.001  0.000  0.025  0.010  0.000  0.010  0.000  0.047
    3  0.001  0.002  0.000  0.002  0.345  0.000  0.002  0.000  0.000  0.352
    4  0.000  0.000  0.001  0.000  0.002  0.013  0.000  0.013  0.000  0.029
    5  0.001  0.001  0.000  0.001  0.210  0.002  0.002  0.002  0.000  0.219
tot    0.002  0.006  0.002  0.006  0.873  0.027  0.006  0.027  0.000  0.949
 
band     9 # energy   -0.35644962 # occ.  1.00000000
 
ion      s     py     pz     px    dxy    dyz    dz2    dxz  x2-y2    tot
    1  0.000  0.001  0.000  0.001  0.253  0.001  0.000  0.001  0.000  0.257
    2  0.000  0.001  0.000  0.001  0.136  0.027  0.000  0.027  0.000  0.193
    3  0.000  0.000  0.001  0.000  0.000  0.053  0.000  0.053  0.000  0.106
    4  0.000  0.001  0.000  0.001  0.123  0.036  0.000  0.036  0.000  0.197
    5  0.000  0.001  0.000  0.001  0.201  0.002  0.000  0.002  0.000  0.208
tot    0.001  0.004  0.001  0.004  0.713  0.118  0.000  0.118  0.000  0.960
 
band    10 # energy   -0.04122886 # occ.  1.00000000
 
ion      s     py     pz     px    dxy    dyz    dz2    dxz  x2-y2    tot
    1  0.000  0.000  0.000  0.000  0.137  0.006  0.006  0.006  0.000  0.157
    2  0.000  0.000  0.000  0.000  0.180  0.007  0.001  0.007  0.000  0.196
    3  0.000  0.001  0.000  0.001  0.187  0.000  0.000  0.000  0.000  0.188
    4  0.000  0.001  0.000  0.001  0.200  0.007  0.000  0.007  0.000  0.215
    5  0.000  0.000  0.000  0.000  0.185  0.010  0.007  0.010  0.000  0.213
tot    0.001  0.002  0.000  0.002  0.889  0.030  0.015  0.030  0.000  0.969
 
band    11 # energy   -0.00491975 # occ.  1.00000000
 
ion      s     py     pz     px    dxy    dyz    dz2    dxz  x2-y2    tot
    1  0.000  0.000  0.000  0.000  0.073  0.020  0.007  0.020  0.000  0.120
    2  0.000  0.000  0.000  0.000  0.047  0.070  0.002  0.070  0.000  0.188
    3  0.000  0.000  0.002  0.000  0.004  0.092  0.003  0.092  0.000  0.193
    4  0.000  0.000  0.000  0.000  0.020  0.130  0.000  0.130  0.000  0.280
    5  0.000  0.000  0.000  0.000  0.078  0.044  0.021  0.044  0.000  0.189
tot    0.001  0.000  0.002  0.000  0.222  0.356  0.034  0.356  0.000  0.970
 
band    12 # energy    0.07811297 # occ.  1.00000000
 
ion      s     py     pz     px    dxy    dyz    dz2    dxz  x2-y2    tot
    1  0.000  0.000  0.000  0.000  0.000  0.010  0.000  0.010  0.004  0.024
    2  0.000  0.000  0.000  0.000  0.000  0.089  0.000  0.089  0.006  0.184
    3  0.000  0.000  0.000  0.000  0.000  0.175  0.000  0.175  0.001  0.351
    4  0.000  0.000  0.000  0.000  0.000  0.170  0.000  0.170  0.004  0.345
    5  0.000  0.001  0.000  0.001  0.000  0.030  0.000  0.030  0.011  0.073
tot    0.000  0.001  0.000  0.001  0.000  0.474  0.000  0.474  0.026  0.977
 
band    13 # energy    0.13382948 # occ.  1.00000000
 
ion      s     py     pz     px    dxy    dyz    dz2    dxz  x2-y2    tot
    1  0.001  0.000  0.000  0.000  0.003  0.022  0.097  0.022  0.000  0.146
    2  0.000  0.000  0.000  0.000  0.009  0.115  0.002  0.115  0.000  0.241
    3  0.002  0.000  0.000  0.000  0.065  0.010  0.184  0.010  0.000  0.272
    4  0.000  0.000  0.002  0.000  0.028  0.067  0.021  0.067  0.000  0.186
    5  0.004  0.000  0.000  0.000  0.000  0.021  0.066  0.021  0.000  0.113
tot    0.008  0.001  0.003  0.001  0.105  0.235  0.369  0.235  0.000  0.958
 
band    14 # energy    0.36033582 # occ.  1.00000000
 
ion      s     py     pz     px    dxy    dyz    dz2    dxz  x2-y2    tot
    1  0.000  0.000  0.000  0.000  0.000  0.053  0.000  0.053  0.009  0.116
    2  0.000  0.000  0.000  0.000  0.000  0.180  0.000  0.180  0.004  0.365
    3  0.000  0.001  0.000  0.001  0.000  0.010  0.000  0.010  0.066  0.088
    4  0.000  0.000  0.000  0.000  0.000  0.122  0.000  0.122  0.025  0.271
    5  0.000  0.001  0.000  0.001  0.000  0.065  0.000  0.065  0.006  0.137
tot    0.000  0.003  0.000  0.003  0.000  0.431  0.000  0.431  0.111  0.977
 
band    15 # energy    0.36347334 # occ.  1.00000000
 
ion      s     py     pz     px    dxy    dyz    dz2    dxz  x2-y2    tot
    1  0.015  0.000  0.002  0.000  0.000  0.048  0.008  0.048  0.000  0.121
    2  0.011  0.000  0.009  0.000  0.017  0.022  0.134  0.022  0.000  0.216
    3  0.000  0.000  0.024  0.000  0.000  0.153  0.003  0.153  0.000  0.335