mpprun info: Starting impi run on 1 node ( 4 rank X 1 th ) for job ID 18781775
 ----------------------------------------------------
    OOO  PPPP  EEEEE N   N M   M PPPP
   O   O P   P E     NN  N MM MM P   P
   O   O PPPP  EEEEE N N N M M M PPPP   -- VERSION
   O   O P     E     N  NN M   M P
    OOO  P     EEEEE N   N M   M P
 ----------------------------------------------------
 running    4 mpi-ranks, with    1 threads/rank
 distrk:  each k-point on    4 cores,    1 groups
 distr:  one band on    1 cores,    4 groups
 vasp.6.3.0 20Jan22 (build Feb 01 2022 16:52:37) complex                        
  
 POSCAR found type information on POSCAR Ni
 POSCAR found :  1 types and       5 ions
 scaLAPACK will be used
 LDA part: xc-table for Pade appr. of Perdew
 WARNING: stress and forces are not correct
 POSCAR, INCAR and KPOINTS ok, starting setup
 FFT: planning ... GRIDC
 FFT: planning ... GRID_SOFT
 FFT: planning ... GRID
 WAVECAR not read
 charge-density read from file: clean                                   
 magnetization density read from file 1
 entering main loop
       N       E                     dE             d eps       ncg     rms          rms(c)
DAV:   1     0.247115143676E+03    0.24712E+03   -0.15699E+04  1872   0.102E+03
DAV:   2    -0.117078702743E+02   -0.25882E+03   -0.24333E+03  1912   0.258E+02
DAV:   3    -0.265069072071E+02   -0.14799E+02   -0.14200E+02  2020   0.820E+01
DAV:   4    -0.266767250705E+02   -0.16982E+00   -0.16969E+00  2144   0.894E+00
DAV:   5    -0.266811183515E+02   -0.43933E-02   -0.43932E-02  2256   0.107E+00
DAV:   6    -0.266813106955E+02   -0.19234E-03   -0.19234E-03  2436   0.201E-01
DAV:   7    -0.266813121442E+02   -0.14487E-05   -0.14488E-05  1224   0.216E-02
   1 F= -.26681312E+02 E0= -.26679957E+02  d E =-.541958E-02  mag=     3.1321
 writing wavefunctions
mpprun info: Elapsed time (h:m:s):  0:00:05.418962
