<?xml version="1.0" encoding="ISO-8859-1"?>
<modeling>
 <generator>
  <i name="program" type="string">vasp </i>
  <i name="version" type="string">6.3.0  </i>
  <i name="subversion" type="string">20Jan22 (build Feb 01 2022 16:52:37) complex                          parallel </i>
  <i name="platform" type="string">TETRA_NSC1 </i>
  <i name="date" type="string">2022 02 23 </i>
  <i name="time" type="string">16:06:58 </i>
 </generator>
 <incar>
  <i type="string" name="SYSTEM">clean (100) nickel surface</i>
  <i type="string" name="ALGO">Normal</i>
  <i type="int" name="ISPIN">     2</i>
  <i type="int" name="ICHARG">    11</i>
  <i name="ENMAX">    270.00000000</i>
  <v name="MAGMOM">      1.00000000      1.00000000      1.00000000      1.00000000      1.00000000</v>
  <i type="int" name="ISMEAR">     2</i>
  <i name="SIGMA">      0.20000000</i>
  <i type="int" name="LORBIT">    11</i>
 </incar>
 <primitive_cell>
  <structure name="primitive_cell" >
   <crystal>
    <varray name="basis" >
     <v>       1.76500000       1.76500000       0.00000000 </v>
     <v>      -1.76500000       1.76500000       0.00000000 </v>
     <v>       0.00000000       0.00000000      17.65000000 </v>
    </varray>
    <i name="volume">    109.96744250 </i>
    <varray name="rec_basis" >
     <v>       0.28328612       0.28328612       0.00000000 </v>
     <v>      -0.28328612       0.28328612       0.00000000 </v>
     <v>       0.00000000       0.00000000       0.05665722 </v>
    </varray>
   </crystal>
   <varray name="positions" >
    <v>       0.00000000       0.00000000       0.00000000 </v>
    <v>       0.50000000       0.50000000       0.10000000 </v>
    <v>       0.00000000       0.00000000       0.20000000 </v>
    <v>       0.50000000       0.50000000       0.30020998 </v>
    <v>       0.00000000       0.00000000       0.39550725 </v>
   </varray>
  </structure>
  <varray name="primitive_index" >
   <v type="int" >        1 </v>
   <v type="int" >        2 </v>
   <v type="int" >        3 </v>
   <v type="int" >        4 </v>
   <v type="int" >        5 </v>
  </varray>
 </primitive_cell>
 <kpoints>
  <varray name="kpointlist" >
   <v>       0.00000000       0.00000000       0.00000000 </v>
   <v>       0.12500000       0.00000000       0.00000000 </v>
   <v>       0.25000000       0.00000000       0.00000000 </v>
   <v>       0.37500000       0.00000000       0.00000000 </v>
   <v>       0.50000000       0.00000000       0.00000000 </v>
   <v>       0.50000000       0.12500000       0.00000000 </v>
   <v>       0.50000000       0.25000000       0.00000000 </v>
   <v>       0.50000000       0.37500000       0.00000000 </v>
   <v>       0.50000000       0.50000000       0.00000000 </v>
   <v>       0.37500000       0.37500000       0.00000000 </v>
   <v>       0.25000000       0.25000000       0.00000000 </v>
   <v>       0.12500000       0.12500000       0.00000000 </v>
   <v>       0.00000000       0.00000000       0.00000000 </v>
  </varray>
  <varray name="weights" >
   <v>       0.07692308 </v>
   <v>       0.07692308 </v>
   <v>       0.07692308 </v>
   <v>       0.07692308 </v>
   <v>       0.07692308 </v>
   <v>       0.07692308 </v>
   <v>       0.07692308 </v>
   <v>       0.07692308 </v>
   <v>       0.07692308 </v>
   <v>       0.07692308 </v>
   <v>       0.07692308 </v>
   <v>       0.07692308 </v>
   <v>       0.07692308 </v>
  </varray>
 </kpoints>
 <parameters>
  <separator name="general" >
   <i type="string" name="SYSTEM">clean (100) nickel surface</i>
   <i type="logical" name="LCOMPAT"> F  </i>
  </separator>
  <separator name="electronic" >
   <i type="string" name="PREC">normal</i>
   <i name="ENMAX">    270.00000000</i>
   <i name="ENAUG">    544.56500000</i>
   <i name="EDIFF">      0.00010000</i>
   <i type="int" name="IALGO">    38</i>
   <i type="int" name="IWAVPR">    10</i>
   <i type="int" name="NBANDS">    36</i>
   <i type="int" name="NBANDSLOW">    -1</i>
   <i type="int" name="NBANDSHIGH">    -1</i>
   <i name="NELECT">     50.00000000</i>
   <i type="int" name="TURBO">     0</i>
   <i type="int" name="IRESTART">     0</i>
   <i type="int" name="NREBOOT">     0</i>
   <i type="int" name="NMIN">     0</i>
   <i name="EREF">      0.00000000</i>
   <separator name="electronic smearing" >
    <i type="int" name="ISMEAR">     2</i>
    <i name="SIGMA">      0.20000000</i>
    <i name="KSPACING">      0.50000000</i>
    <i type="logical" name="KGAMMA"> T  </i>
    <i type="logical" name="KBLOWUP"> T  </i>
   </separator>
   <separator name="electronic projectors" >
    <i type="logical" name="LREAL"> F  </i>
    <v name="ROPT">      0.00000000</v>
    <i type="int" name="LMAXPAW">  -100</i>
    <i type="int" name="LMAXMIX">     2</i>
    <i type="logical" name="NLSPLINE"> F  </i>
   </separator>
   <separator name="electronic startup" >
    <i type="int" name="ISTART">     0</i>
    <i type="int" name="ICHARG">    11</i>
    <i type="int" name="INIWAV">     1</i>
   </separator>
   <separator name="electronic spin" >
    <i type="int" name="ISPIN">     2</i>
    <i type="logical" name="LNONCOLLINEAR"> F  </i>
    <v name="MAGMOM">      1.00000000      1.00000000      1.00000000      1.00000000      1.00000000</v>
    <i name="NUPDOWN">     -1.00000000</i>
    <i type="logical" name="LSORBIT"> F  </i>
    <v name="SAXIS">      0.00000000      0.00000000      1.00000000</v>
    <i type="logical" name="LSPIRAL"> F  </i>
    <v name="QSPIRAL">      0.00000000      0.00000000      0.00000000</v>
    <i type="logical" name="LZEROZ"> F  </i>
   </separator>
   <separator name="electronic exchange-correlation" >
    <i type="logical" name="LASPH"> F  </i>
    <i type="logical" name="LMETAGGA"> F  </i>
   </separator>
   <separator name="electronic convergence" >
    <i type="int" name="NELM">    60</i>
    <i type="int" name="NELMDL">    -5</i>
    <i type="int" name="NELMIN">     2</i>
    <i name="ENINI">    270.00000000</i>
    <separator name="electronic convergence detail" >
     <i type="logical" name="LDIAG"> T  </i>
     <i type="logical" name="LSUBROT"> F  </i>
     <i name="WEIMIN">      0.00000000</i>
     <i name="EBREAK">      0.00000069</i>
     <i name="DEPER">      0.30000000</i>
     <i type="int" name="NRMM">     4</i>
     <i name="TIME">      0.40000000</i>
    </separator>
   </separator>
   <separator name="electronic mixer" >
    <i name="AMIX">      0.40000000</i>
    <i name="BMIX">      1.00000000</i>
    <i name="AMIN">      0.10000000</i>
    <i name="AMIX_MAG">      1.60000000</i>
    <i name="BMIX_MAG">      1.00000000</i>
    <separator name="electronic mixer details" >
     <i type="int" name="IMIX">     4</i>
     <i type="logical" name="MIXFIRST"> F  </i>
     <i type="int" name="MAXMIX">   -45</i>
     <i name="WC">    100.00000000</i>
     <i type="int" name="INIMIX">     1</i>
     <i type="int" name="MIXPRE">     1</i>
     <i type="int" name="MREMOVE">     5</i>
    </separator>
   </separator>
   <separator name="electronic dipolcorrection" >
    <i type="logical" name="LDIPOL"> F  </i>
    <i type="logical" name="LMONO"> F  </i>
    <i type="int" name="IDIPOL">     0</i>
    <i name="EPSILON">      1.00000000</i>
    <v name="DIPOL">   -100.00000000   -100.00000000   -100.00000000</v>
    <i name="EFIELD">      0.00000000</i>
   </separator>
  </separator>
  <separator name="grids" >
   <i type="int" name="NGX">    10</i>
   <i type="int" name="NGY">    10</i>
   <i type="int" name="NGZ">    72</i>
   <i type="int" name="NGXF">    20</i>
   <i type="int" name="NGYF">    20</i>
   <i type="int" name="NGZF">   144</i>
   <i type="logical" name="ADDGRID"> F  </i>
  </separator>
  <separator name="ionic" >
   <i type="int" name="NSW">     0</i>
   <i type="int" name="IBRION">    -1</i>
   <i type="int" name="MDALGO">     0</i>
   <i type="int" name="ISIF">     2</i>
   <i name="PSTRESS">      0.00000000</i>
   <i name="EDIFFG">      0.00100000</i>
   <i type="int" name="NFREE">     0</i>
   <i name="POTIM">      0.50000000</i>
   <i name="SMASS">     -3.00000000</i>
   <i name="SCALEE">      1.00000000</i>
  </separator>
  <separator name="ionic md" >
   <i name="TEBEG">      0.00010000</i>
   <i name="TEEND">      0.00010000</i>
   <i type="int" name="NBLOCK">     1</i>
   <i type="int" name="KBLOCK">     1</i>
   <i type="int" name="NPACO">   256</i>
   <i name="APACO">     10.00000000</i>
  </separator>
  <separator name="symmetry" >
   <i type="int" name="ISYM">     2</i>
   <i name="SYMPREC">      0.00001000</i>
  </separator>
  <separator name="dos" >
   <i type="int" name="LORBIT">    11</i>
   <v name="RWIGS">     -1.00000000</v>
   <i type="int" name="NEDOS">   301</i>
   <i name="EMIN">     10.00000000</i>
   <i name="EMAX">    -10.00000000</i>
   <i name="EFERMI">      0.00000000</i>
  </separator>
  <separator name="writing" >
   <i type="int" name="NWRITE">     2</i>
   <i type="logical" name="LWAVE"> T  </i>
   <i type="logical" name="LDOWNSAMPLE"> F  </i>
   <i type="logical" name="LCHARG"> T  </i>
   <i type="logical" name="LPARD"> F  </i>
   <i type="logical" name="LVTOT"> F  </i>
   <i type="logical" name="LVHAR"> F  </i>
   <i type="logical" name="LELF"> F  </i>
   <i type="logical" name="LOPTICS"> F  </i>
   <v name="STM">      0.00000000      0.00000000      0.00000000      0.00000000      0.00000000      0.00000000      0.00000000</v>
  </separator>
  <separator name="performance" >
   <i type="int" name="NPAR">     4</i>
   <i type="int" name="NSIM">     4</i>
   <i type="int" name="NBLK">    -1</i>
   <i type="logical" name="LPLANE"> T  </i>
   <i type="logical" name="LSCALAPACK"> T  </i>
   <i type="logical" name="LSCAAWARE"> F  </i>
   <i type="logical" name="LSCALU"> F  </i>
   <i type="logical" name="LASYNC"> F  </i>
   <i type="logical" name="LORBITALREAL"> F  </i>
  </separator>
  <separator name="miscellaneous" >
   <i type="int" name="IDIOT">     3</i>
   <i type="int" name="PHON_NSTRUCT">    -1</i>
   <i type="logical" name="LMUSIC"> F  </i>
   <v name="POMASS">     58.69000000</v>
   <v name="DARWINR">      0.00000000</v>
   <v name="DARWINV">      1.00000000</v>
   <i type="logical" name="LCORR"> T  </i>
  </separator>
  <i type="logical" name="GGA_COMPAT"> T  </i>
  <i type="logical" name="LBERRY"> F  </i>
  <i type="int" name="ICORELEVEL">     0</i>
  <i type="logical" name="LDAU"> F  </i>
  <i type="int" name="I_CONSTRAINED_M">     0</i>
  <separator name="electronic exchange-correlation" >
   <i type="string" name="GGA">--</i>
   <i type="int" name="VOSKOWN">     0</i>
   <i type="logical" name="LHFCALC"> F  </i>
   <i type="string" name="PRECFOCK"></i>
   <i type="logical" name="LSYMGRAD"> F  </i>
   <i type="logical" name="LHFONE"> F  </i>
   <i type="logical" name="LRHFCALC"> F  </i>
   <i type="logical" name="LTHOMAS"> F  </i>
   <i type="logical" name="LMODELHF"> F  </i>
   <i type="logical" name="LFOCKACE"> F  </i>
   <i name="ENCUT4O">     -1.00000000</i>
   <i type="int" name="EXXOEP">     0</i>
   <i type="int" name="FOURORBIT">     0</i>
   <i name="AEXX">      0.00000000</i>
   <i name="HFALPHA">      0.00000000</i>
   <i name="MCALPHA">      0.00000000</i>
   <i name="ALDAX">      1.00000000</i>
   <i name="AGGAX">      1.00000000</i>
   <i name="ALDAC">      1.00000000</i>
   <i name="AGGAC">      1.00000000</i>
   <i type="int" name="NKREDX">     1</i>
   <i type="int" name="NKREDY">     1</i>
   <i type="int" name="NKREDZ">     1</i>
   <i type="logical" name="SHIFTRED"> F  </i>
   <i type="logical" name="ODDONLY"> F  </i>
   <i type="logical" name="EVENONLY"> F  </i>
   <i type="int" name="LMAXFOCK">     0</i>
   <i type="int" name="NMAXFOCKAE">     0</i>
   <i type="logical" name="LFOCKAEDFT"> F  </i>
   <i name="HFSCREEN">      0.00000000</i>
   <i name="HFSCREENC">      0.00000000</i>
   <i type="int" name="NBANDSGWLOW">     0</i>
  </separator>
  <separator name="vdW DFT" >
   <i type="logical" name="LUSE_VDW"> F  </i>
   <i name="Zab_VDW">     -0.84910000</i>
   <i name="PARAM1">      0.12340000</i>
   <i name="PARAM2">      1.00000000</i>
   <i name="PARAM3">      0.00000000</i>
  </separator>
  <separator name="model GW" >
   <i type="int" name="MODEL_GW">     0</i>
   <i name="MODEL_EPS0">     13.19609310</i>
   <i name="MODEL_ALPHA">      1.00000000</i>
  </separator>
  <separator name="linear response parameters" >
   <i type="logical" name="LEPSILON"> F  </i>
   <i type="logical" name="LRPA"> F  </i>
   <i type="logical" name="LNABLA"> F  </i>
   <i type="logical" name="LVEL"> F  </i>
   <i name="CSHIFT">      0.10000000</i>
   <i name="OMEGAMAX">     -1.00000000</i>
   <i name="DEG_THRESHOLD">      0.00200000</i>
   <i name="RTIME">     -0.10000000</i>
   <i name="WPLASMAI">      0.00000000</i>
   <v name="DFIELD">      0.00000000      0.00000000      0.00000000</v>
   <v name="WPLASMA">      0.00000000      0.00000000      0.00000000      0.00000000      0.00000000      0.00000000      0.00000000      0.00000000      0.00000000</v>
  </separator>
  <separator name="orbital magnetization" >
   <i type="logical" name="NUCIND"> F  </i>
   <v name="MAGPOS">      0.00000000      0.00000000      0.00000000</v>
   <i type="logical" name="LNICSALL"> T  </i>
   <i type="logical" name="ORBITALMAG"> F  </i>
   <i type="logical" name="LMAGBLOCH"> F  </i>
   <i type="logical" name="LCHIMAG"> F  </i>
   <i type="logical" name="LGAUGE"> T  </i>
   <i type="int" name="MAGATOM">     0</i>
   <v name="MAGDIPOL">      0.00000000      0.00000000      0.00000000</v>
   <v name="AVECCONST">      0.00000000      0.00000000      0.00000000</v>
  </separator>
  <separator name="response functions" >
   <i type="logical" name="LFINITE_TEMPERATURE"> F  </i>
   <i type="logical" name="LADDER"> F  </i>
   <i type="logical" name="LRPAFORCE"> F  </i>
   <i type="logical" name="LFXC"> F  </i>
   <i type="logical" name="LHARTREE"> T  </i>
   <i type="int" name="IBSE">     0</i>
   <v type="int" name="KPOINT">    -1     0     0     0</v>
   <i type="logical" name="LTCTC"> F  </i>
   <i type="logical" name="LTCTE"> F  </i>
   <i type="logical" name="LTETE"> F  </i>
   <i type="logical" name="LTRIPLET"> F  </i>
   <i type="logical" name="LFXCEPS"> F  </i>
   <i type="logical" name="LFXHEG"> F  </i>
   <i type="int" name="NATURALO">     2</i>
   <i type="logical" name="LHOLEGF"> F  </i>
   <i type="logical" name="L2ORDER"> F  </i>
   <i type="logical" name="LDMP1"> F  </i>
   <i type="logical" name="LMP2LT"> F  </i>
   <i type="logical" name="LSMP2LT"> F  </i>
   <i type="logical" name="LGWLF"> F  </i>
   <i name="ENCUTGW">     -2.00000000</i>
   <i name="ENCUTGWSOFT">     -2.00000000</i>
   <i name="ENCUTLF">     -1.00000000</i>
   <i type="logical" name="LESF_SPLINES"> F  </i>
   <i type="int" name="LMAXMP2">    -1</i>
   <i name="SCISSOR">      0.00000000</i>
   <i type="int" name="NOMEGA">     0</i>
   <i type="int" name="NOMEGAR">     0</i>
   <i type="int" name="NBANDSGW">    -1</i>
   <i type="int" name="NBANDSO">    -1</i>
   <i type="int" name="NBANDSV">    -1</i>
   <i type="int" name="NELMGW">     1</i>
   <i type="int" name="NELMHF">     1</i>
   <i type="int" name="DIM">     3</i>
   <i type="int" name="IESPILON">     4</i>
   <i type="int" name="ANTIRES">     0</i>
   <i name="OMEGAMAX">    -30.00000000</i>
   <i name="OMEGAMIN">    -30.00000000</i>
   <i name="OMEGATL">   -200.00000000</i>
   <i type="int" name="OMEGAGRID">     0</i>
   <i name="CSHIFT">     -0.10000000</i>
   <i type="logical" name="LSELFENERGY"> F  </i>
   <i type="logical" name="LSPECTRAL"> F  </i>
   <i type="logical" name="LSPECTRALGW"> F  </i>
   <i type="logical" name="LSINGLES"> F  </i>
   <i type="logical" name="LFERMIGW"> F  </i>
   <i type="logical" name="ODDONLYGW"> F  </i>
   <i type="logical" name="EVENONLYGW"> F  </i>
   <i type="int" name="NKREDLFX">     1</i>
   <i type="int" name="NKREDLFY">     1</i>
   <i type="int" name="NKREDLFZ">     1</i>
   <i type="int" name="MAXMEM">  2800</i>
   <i type="int" name="TELESCOPE">     0</i>
   <i type="int" name="NTAUPAR">    -1</i>
   <i type="int" name="NOMEGAPAR">    -1</i>
   <i name="DAMP_NEWTON">      0.80000001</i>
   <i name="LAMBDA">      1.00000000</i>
  </separator>
  <separator name="External order field" >
   <i name="OFIELD_KAPPA">      0.00000000</i>
   <v name="OFIELD_K">      0.00000000      0.00000000      0.00000000</v>
   <i name="OFIELD_Q6_NEAR">      0.00000000</i>
   <i name="OFIELD_Q6_FAR">      0.00000000</i>
   <i name="OFIELD_A">      0.00000000</i>
  </separator>
  <separator name="optional k-points parameters" >
   <i type="int" name="KPOINTS_OPT_MODE">     1</i>
   <i type="logical" name="LKPOINTS_OPT"> F  </i>
  </separator>
 </parameters>
 <atominfo>
  <atoms>       5 </atoms>
  <types>       1 </types>
  <array name="atoms" >
   <dimension dim="1">ion</dimension>
   <field type="string">element</field>
   <field type="int">atomtype</field>
   <set>
    <rc><c>Ni</c><c>   1</c></rc>
    <rc><c>Ni</c><c>   1</c></rc>
    <rc><c>Ni</c><c>   1</c></rc>
    <rc><c>Ni</c><c>   1</c></rc>
    <rc><c>Ni</c><c>   1</c></rc>
   </set>
  </array>
  <array name="atomtypes" >
   <dimension dim="1">type</dimension>
   <field type="int">atomspertype</field>
   <field type="string">element</field>
   <field>mass</field>
   <field>valence</field>
   <field type="string">pseudopotential</field>
   <set>
    <rc><c>   5</c><c>Ni</c><c>     58.69000000</c><c>     10.00000000</c><c>  PAW_PBE Ni 02Aug2007                  </c></rc>
   </set>
  </array>
 </atominfo>
 <structure name="initialpos" >
  <crystal>
   <varray name="basis" >
    <v>       1.76500000       1.76500000       0.00000000 </v>
    <v>      -1.76500000       1.76500000       0.00000000 </v>
    <v>       0.00000000       0.00000000      17.65000000 </v>
   </varray>
   <i name="volume">    109.96744250 </i>
   <varray name="rec_basis" >
    <v>       0.28328612       0.28328612       0.00000000 </v>
    <v>      -0.28328612       0.28328612       0.00000000 </v>
    <v>       0.00000000       0.00000000       0.05665722 </v>
   </varray>
  </crystal>
  <varray name="positions" >
   <v>       0.00000000       0.00000000       0.00000000 </v>
   <v>       0.50000000       0.50000000       0.10000000 </v>
   <v>       0.00000000       0.00000000       0.20000000 </v>
   <v>       0.50000000       0.50000000       0.30020998 </v>
   <v>       0.00000000       0.00000000       0.39550725 </v>
  </varray>
  <varray name="selective"  type="logical" >
   <v type="logical" >  F  F  F </v>
   <v type="logical" >  F  F  F </v>
   <v type="logical" >  F  F  F </v>
   <v type="logical" >  T  T  T </v>
   <v type="logical" >  T  T  T </v>
  </varray>
  <nose>
   <v>      -3.00000000       0.00000000       0.00010000       0.00010000 </v>
  </nose>
 </structure>
 <calculation>
  <scstep>
   <time name="dav">    0.39    0.39</time>
   <time name="total">    0.41    0.42</time>
   <energy>
    <i name="alphaZ">    115.94204576 </i>
    <i name="ewald">   9453.09366082 </i>
    <i name="hartreedc"> -14802.13141136 </i>
    <i name="XCdc">    152.65703717 </i>
    <i name="pawpsdc">   5573.37830148 </i>
    <i name="pawaedc">  -5914.67299622 </i>
    <i name="eentropy">     -0.00287111 </i>
    <i name="bandstr">    280.67100380 </i>
    <i name="atom">   5388.18037335 </i>
    <i name="e_fr_energy">    247.11514368 </i>
    <i name="e_wo_entrp">    247.11801479 </i>
    <i name="e_0_energy">    247.11586145 </i>
   </energy>
  </scstep>
  <scstep>
   <time name="dav">    0.37    0.38</time>
   <time name="total">    0.38    0.38</time>
   <energy>
    <i name="e_fr_energy">    -11.70787027 </i>
    <i name="e_wo_entrp">    -11.70283185 </i>
    <i name="e_0_energy">    -11.70661067 </i>
   </energy>
  </scstep>
  <scstep>
   <time name="dav">    0.39    0.60</time>
   <time name="total">    0.40    0.61</time>
   <energy>
    <i name="e_fr_energy">    -26.50690721 </i>
    <i name="e_wo_entrp">    -26.50158169 </i>
    <i name="e_0_energy">    -26.50557583 </i>
   </energy>
  </scstep>
  <scstep>
   <time name="dav">    0.41    0.41</time>
   <time name="total">    0.41    0.42</time>
   <energy>
    <i name="e_fr_energy">    -26.67672507 </i>
    <i name="e_wo_entrp">    -26.67131280 </i>
    <i name="e_0_energy">    -26.67537200 </i>
   </energy>
  </scstep>
  <scstep>
   <time name="dav">    0.43    0.43</time>
   <time name="total">    0.43    0.43</time>
   <energy>
    <i name="e_fr_energy">    -26.68111835 </i>
    <i name="e_wo_entrp">    -26.67569927 </i>
    <i name="e_0_energy">    -26.67976358 </i>
   </energy>
  </scstep>
  <scstep>
   <time name="dav">    0.46    0.46</time>
   <time name="total">    0.46    0.46</time>
   <energy>
    <i name="e_fr_energy">    -26.68131070 </i>
    <i name="e_wo_entrp">    -26.67589115 </i>
    <i name="e_0_energy">    -26.67995581 </i>
   </energy>
  </scstep>
  <scstep>
   <time name="dav">    0.28    0.29</time>
   <time name="total">    0.29    0.29</time>
   <energy>
    <i name="alphaZ">    115.94204576 </i>
    <i name="ewald">   9453.09366082 </i>
    <i name="hartreedc"> -14802.13141136 </i>
    <i name="XCdc">    152.65703717 </i>
    <i name="pawpsdc">   5573.37830148 </i>
    <i name="pawaedc">  -5914.67299622 </i>
    <i name="eentropy">     -0.00541958 </i>
    <i name="bandstr">      6.87709645 </i>
    <i name="atom">   5388.18037335 </i>
    <i name="e_fr_energy">    -26.68131214 </i>
    <i name="e_wo_entrp">    -26.67589256 </i>
    <i name="e_0_energy">    -26.67995725 </i>
   </energy>
  </scstep>
  <structure>
   <crystal>
    <varray name="basis" >
     <v>       1.76500000       1.76500000       0.00000000 </v>
     <v>      -1.76500000       1.76500000       0.00000000 </v>
     <v>       0.00000000       0.00000000      17.65000000 </v>
    </varray>
    <i name="volume">    109.96744250 </i>
    <varray name="rec_basis" >
     <v>       0.28328612       0.28328612       0.00000000 </v>
     <v>      -0.28328612       0.28328612       0.00000000 </v>
     <v>       0.00000000       0.00000000       0.05665722 </v>
    </varray>
   </crystal>
   <varray name="positions" >
    <v>       0.00000000       0.00000000       0.00000000 </v>
    <v>       0.50000000       0.50000000       0.10000000 </v>
    <v>       0.00000000       0.00000000       0.20000000 </v>
    <v>       0.50000000       0.50000000       0.30020998 </v>
    <v>       0.00000000       0.00000000       0.39550725 </v>
   </varray>
  </structure>
  <varray name="forces" >
   <v>       0.00000000      -0.00000000      -0.05251292 </v>
   <v>      -0.00000000      -0.00000000      -0.32343443 </v>
   <v>      -0.00000000      -0.00000000      -0.02166812 </v>
   <v>       0.00000000       0.00000000      -0.03616578 </v>
   <v>      -0.00000000      -0.00000000       0.43378124 </v>
  </varray>
  <varray name="stress" >
   <v>     245.95871490       0.00000000      -0.00000000 </v>
   <v>       0.00000000     245.95871490      -0.00000000 </v>
   <v>       0.00000000       0.00000000     285.93173094 </v>
  </varray>
  <energy>
   <i name="e_fr_energy">    -26.68131214 </i>
   <i name="e_wo_entrp">    -26.67589256 </i>
   <i name="e_0_energy">    -26.67995725 </i>
  </energy>
  <time name="totalsc">    3.37    3.67</time>
  <eigenvalues>
   <array>
    <dimension dim="1">band</dimension>
    <dimension dim="2">kpoint</dimension>
    <dimension dim="3">spin</dimension>
    <field>eigene</field>
    <field>occ</field>
    <set>
     <set comment="spin 1">
      <set comment="kpoint 1">
       <r>   -6.2635    1.0000 </r>
       <r>   -5.0798    1.0000 </r>
       <r>   -3.4014    1.0000 </r>
       <r>   -2.2805    1.0000 </r>
       <r>   -2.2010    1.0000 </r>
       <r>   -1.7119    1.0000 </r>
       <r>   -1.3605    1.0000 </r>
       <r>   -0.8368    1.0000 </r>
       <r>   -0.3703    1.0000 </r>
       <r>   -0.1224    1.0000 </r>
       <r>    0.0292    1.0000 </r>
       <r>    0.0292    1.0000 </r>
       <r>    0.4011    1.0000 </r>
       <r>    0.4011    1.0000 </r>
       <r>    0.5018    1.0000 </r>
       <r>    0.7590    1.0000 </r>
       <r>    0.9475    1.0000 </r>
       <r>    0.9853    1.0000 </r>
       <r>    0.9853    1.0000 </r>
       <r>    1.0058    1.0000 </r>
       <r>    1.0944    1.0000 </r>
       <r>    1.1688    1.0000 </r>
       <r>    1.4315    1.0000 </r>
       <r>    1.5141    1.0000 </r>
       <r>    1.5141    1.0000 </r>
       <r>    1.6159    1.0000 </r>
       <r>    1.6800    0.9999 </r>
       <r>    1.7945    0.9984 </r>
       <r>    1.7945    0.9984 </r>
       <r>    2.8509    0.0010 </r>
       <r>    4.2138    0.0000 </r>
       <r>    6.6488    0.0000 </r>
       <r>    8.0922    0.0000 </r>
       <r>    9.8924    0.0000 </r>
       <r>   13.0630    0.0000 </r>
       <r>   13.7506    0.0000 </r>
      </set>
      <set comment="kpoint 2">
       <r>   -5.8697    1.0000 </r>
       <r>   -4.7117    1.0000 </r>
       <r>   -3.0864    1.0000 </r>
       <r>   -2.0441    1.0000 </r>
       <r>   -1.9669    1.0000 </r>
       <r>   -1.5872    1.0000 </r>
       <r>   -1.2531    1.0000 </r>
       <r>   -0.7688    1.0000 </r>
       <r>   -0.3564    1.0000 </r>
       <r>   -0.0412    1.0000 </r>
       <r>   -0.0049    1.0000 </r>
       <r>    0.0781    1.0000 </r>
       <r>    0.1338    1.0000 </r>
       <r>    0.3603    1.0000 </r>
       <r>    0.3635    1.0000 </r>
       <r>    0.7458    1.0000 </r>
       <r>    0.7642    1.0000 </r>
       <r>    0.8435    1.0000 </r>
       <r>    0.9393    1.0000 </r>
       <r>    0.9710    1.0000 </r>
       <r>    1.1616    1.0000 </r>
       <r>    1.2065    1.0000 </r>
       <r>    1.2139    1.0000 </r>
       <r>    1.2414    1.0000 </r>
       <r>    1.5269    1.0000 </r>
       <r>    1.5395    1.0000 </r>
       <r>    1.6930    0.9998 </r>
       <r>    1.8005    0.9982 </r>
       <r>    1.9305    0.9956 </r>
       <r>    3.5909    0.0000 </r>
       <r>    5.0708    0.0000 </r>
       <r>    7.0269    0.0000 </r>
       <r>    8.5188    0.0000 </r>
       <r>   10.2091    0.0000 </r>
       <r>   13.4121    0.0000 </r>
       <r>   13.8931    0.0000 </r>
      </set>
      <set comment="kpoint 3">
       <r>   -4.7607    1.0000 </r>
       <r>   -3.7373    1.0000 </r>
       <r>   -2.4327    1.0000 </r>
       <r>   -1.6394    1.0000 </r>
       <r>   -1.5168    1.0000 </r>
       <r>   -1.2507    1.0000 </r>
       <r>   -0.8306    1.0000 </r>
       <r>   -0.4155    1.0000 </r>
       <r>   -0.3799    1.0000 </r>
       <r>   -0.0292    1.0000 </r>
       <r>   -0.0006    1.0000 </r>
       <r>    0.0620    1.0000 </r>
       <r>    0.1029    1.0000 </r>
       <r>    0.1540    1.0000 </r>
       <r>    0.2275    1.0000 </r>
       <r>    0.4123    1.0000 </r>
       <r>    0.4872    1.0000 </r>
       <r>    0.5078    1.0000 </r>
       <r>    0.6763    1.0000 </r>
       <r>    1.0310    1.0000 </r>
       <r>    1.0872    1.0000 </r>
       <r>    1.1003    1.0000 </r>
       <r>    1.1660    1.0000 </r>
       <r>    1.3693    1.0000 </r>
       <r>    1.4501    1.0000 </r>
       <r>    1.5820    1.0000 </r>
       <r>    1.7117    0.9997 </r>
       <r>    1.7472    0.9993 </r>
       <r>    2.9026    0.0004 </r>
       <r>    4.9463    0.0000 </r>
       <r>    6.7507    0.0000 </r>
       <r>    8.1300    0.0000 </r>
       <r>    9.7827    0.0000 </r>
       <r>    9.9968    0.0000 </r>
       <r>   11.2753    0.0000 </r>
       <r>   11.3252    0.0000 </r>
      </set>
      <set comment="kpoint 4">
       <r>   -3.2433    1.0000 </r>
       <r>   -2.7120    1.0000 </r>
       <r>   -2.1447    1.0000 </r>
       <r>   -1.6184    1.0000 </r>
       <r>   -1.2715    1.0000 </r>
       <r>   -0.8097    1.0000 </r>
       <r>   -0.3978    1.0000 </r>
       <r>   -0.3698    1.0000 </r>
       <r>   -0.0640    1.0000 </r>
       <r>   -0.0533    1.0000 </r>
       <r>   -0.0057    1.0000 </r>
       <r>    0.0556    1.0000 </r>
       <r>    0.0615    1.0000 </r>
       <r>    0.1567    1.0000 </r>
       <r>    0.1990    1.0000 </r>
       <r>    0.3892    1.0000 </r>
       <r>    0.4078    1.0000 </r>
       <r>    0.6993    1.0000 </r>
       <r>    0.8063    1.0000 </r>
       <r>    0.9532    1.0000 </r>
       <r>    1.0265    1.0000 </r>
       <r>    1.4209    1.0000 </r>
       <r>    1.5154    1.0000 </r>
       <r>    1.5593    1.0000 </r>
       <r>    1.6617    0.9999 </r>
       <r>    1.7014    0.9998 </r>
       <r>    1.7710    0.9989 </r>
       <r>    1.9617    0.9986 </r>
       <r>    3.9240    0.0000 </r>
       <r>    5.5972    0.0000 </r>
       <r>    7.1824    0.0000 </r>
       <r>    7.4126    0.0000 </r>
       <r>    9.2607    0.0000 </r>
       <r>    9.4752    0.0000 </r>
       <r>   10.0548    0.0000 </r>
       <r>   11.1205    0.0000 </r>
      </set>
      <set comment="kpoint 5">
       <r>   -2.3708    1.0000 </r>
       <r>   -2.3235    1.0000 </r>
       <r>   -2.0619    1.0000 </r>
       <r>   -1.6943    1.0000 </r>
       <r>   -1.3925    1.0000 </r>
       <r>   -0.4837    1.0000 </r>
       <r>   -0.3643    1.0000 </r>
       <r>   -0.3320    1.0000 </r>
       <r>   -0.1724    1.0000 </r>
       <r>   -0.0838    1.0000 </r>
       <r>   -0.0282    1.0000 </r>
       <r>   -0.0050    1.0000 </r>
       <r>    0.0769    1.0000 </r>
       <r>    0.1569    1.0000 </r>
       <r>    0.2975    1.0000 </r>
       <r>    0.3565    1.0000 </r>
       <r>    0.3693    1.0000 </r>
       <r>    0.7034    1.0000 </r>
       <r>    1.0702    1.0000 </r>
       <r>    1.1443    1.0000 </r>
       <r>    1.3417    1.0000 </r>
       <r>    1.5321    1.0000 </r>
       <r>    1.5959    1.0000 </r>
       <r>    1.6095    1.0000 </r>
       <r>    1.6943    0.9998 </r>
       <r>    2.5189   -0.0495 </r>
       <r>    2.8671    0.0008 </r>
       <r>    3.1950    0.0000 </r>
       <r>    3.2142    0.0000 </r>
       <r>    3.2960    0.0000 </r>
       <r>    6.7065    0.0000 </r>
       <r>    6.9027    0.0000 </r>
       <r>    8.9263    0.0000 </r>
       <r>    9.5575    0.0000 </r>
       <r>   10.6984    0.0000 </r>
       <r>   11.8941    0.0000 </r>
      </set>
      <set comment="kpoint 6">
       <r>   -2.1248    1.0000 </r>
       <r>   -2.1078    1.0000 </r>
       <r>   -1.8632    1.0000 </r>
       <r>   -1.5669    1.0000 </r>
       <r>   -1.3192    1.0000 </r>
       <r>   -0.7058    1.0000 </r>
       <r>   -0.5843    1.0000 </r>
       <r>   -0.4564    1.0000 </r>
       <r>   -0.3856    1.0000 </r>
       <r>   -0.2591    1.0000 </r>
       <r>   -0.1733    1.0000 </r>
       <r>   -0.0817    1.0000 </r>
       <r>    0.0711    1.0000 </r>
       <r>    0.1833    1.0000 </r>
       <r>    0.3271    1.0000 </r>
       <r>    0.3429    1.0000 </r>
       <r>    0.5362    1.0000 </r>
       <r>    0.7398    1.0000 </r>
       <r>    0.9232    1.0000 </r>
       <r>    1.2373    1.0000 </r>
       <r>    1.2399    1.0000 </r>
       <r>    1.3598    1.0000 </r>
       <r>    1.5830    1.0000 </r>
       <r>    1.5924    1.0000 </r>
       <r>    1.7151    0.9997 </r>
       <r>    3.4004    0.0000 </r>
       <r>    3.4696    0.0000 </r>
       <r>    3.5752    0.0000 </r>
       <r>    3.7474    0.0000 </r>
       <r>    3.8271    0.0000 </r>
       <r>    6.9462    0.0000 </r>
       <r>    7.2442    0.0000 </r>
       <r>    9.0936    0.0000 </r>
       <r>    9.8304    0.0000 </r>
       <r>   10.9673    0.0000 </r>
       <r>   12.2369    0.0000 </r>
      </set>
      <set comment="kpoint 7">
       <r>   -1.8157    1.0000 </r>
       <r>   -1.7577    1.0000 </r>
       <r>   -1.6030    1.0000 </r>
       <r>   -1.5328    1.0000 </r>
       <r>   -1.4155    1.0000 </r>
       <r>   -1.0848    1.0000 </r>
       <r>   -1.0833    1.0000 </r>
       <r>   -0.8582    1.0000 </r>
       <r>   -0.6490    1.0000 </r>
       <r>   -0.5687    1.0000 </r>
       <r>   -0.0811    1.0000 </r>
       <r>   -0.0125    1.0000 </r>
       <r>    0.1363    1.0000 </r>
       <r>    0.6303    1.0000 </r>
       <r>    0.6505    1.0000 </r>
       <r>    0.6563    1.0000 </r>
       <r>    0.6806    1.0000 </r>
       <r>    0.8361    1.0000 </r>
       <r>    1.1431    1.0000 </r>
       <r>    1.1863    1.0000 </r>
       <r>    1.4388    1.0000 </r>
       <r>    1.4882    1.0000 </r>
       <r>    1.6709    0.9999 </r>
       <r>    1.7299    0.9995 </r>
       <r>    1.7509    0.9993 </r>
       <r>    4.0577    0.0000 </r>
       <r>    4.0993    0.0000 </r>
       <r>    4.8979    0.0000 </r>
       <r>    4.9880    0.0000 </r>
       <r>    5.7267    0.0000 </r>
       <r>    7.6096    0.0000 </r>
       <r>    8.3109    0.0000 </r>
       <r>    9.6960    0.0000 </r>
       <r>   10.7480    0.0000 </r>
       <r>   11.7917    0.0000 </r>
       <r>   13.1425    0.0000 </r>
      </set>
      <set comment="kpoint 8">
       <r>   -2.0755    1.0000 </r>
       <r>   -1.9814    1.0000 </r>
       <r>   -1.6541    1.0000 </r>
       <r>   -1.5826    1.0000 </r>
       <r>   -1.5489    1.0000 </r>
       <r>   -1.3371    1.0000 </r>
       <r>   -1.2537    1.0000 </r>
       <r>   -1.1067    1.0000 </r>
       <r>   -1.0356    1.0000 </r>
       <r>   -0.5640    1.0000 </r>
       <r>   -0.2769    1.0000 </r>
       <r>    0.4476    1.0000 </r>
       <r>    0.4938    1.0000 </r>
       <r>    1.0341    1.0000 </r>
       <r>    1.1085    1.0000 </r>
       <r>    1.3028    1.0000 </r>
       <r>    1.3620    1.0000 </r>
       <r>    1.3720    1.0000 </r>
       <r>    1.4128    1.0000 </r>
       <r>    1.4402    1.0000 </r>
       <r>    1.6408    0.9999 </r>
       <r>    1.6529    0.9999 </r>
       <r>    1.7204    0.9996 </r>
       <r>    1.7972    0.9983 </r>
       <r>    1.8894    0.9953 </r>
       <r>    4.9244    0.0000 </r>
       <r>    4.9287    0.0000 </r>
       <r>    6.3500    0.0000 </r>
       <r>    6.4136    0.0000 </r>
       <r>    7.9828    0.0000 </r>
       <r>    8.6957    0.0000 </r>
       <r>   10.1623    0.0000 </r>
       <r>   10.9566    0.0000 </r>
       <r>   12.3831    0.0000 </r>
       <r>   13.0029    0.0000 </r>
       <r>   13.1185    0.0000 </r>
      </set>
      <set comment="kpoint 9">
       <r>   -2.2033    1.0000 </r>
       <r>   -2.0968    1.0000 </r>
       <r>   -1.7614    1.0000 </r>
       <r>   -1.6845    1.0000 </r>
       <r>   -1.6845    1.0000 </r>
       <r>   -1.4582    1.0000 </r>
       <r>   -1.2098    1.0000 </r>
       <r>   -1.2098    1.0000 </r>
       <r>   -1.2029    1.0000 </r>
       <r>   -0.3841    1.0000 </r>
       <r>   -0.3841    1.0000 </r>
       <r>    0.6327    1.0000 </r>
       <r>    0.6327    1.0000 </r>
       <r>    1.0922    1.0000 </r>
       <r>    1.2045    1.0000 </r>
       <r>    1.4696    1.0000 </r>
       <r>    1.5339    1.0000 </r>
       <r>    1.5339    1.0000 </r>
       <r>    1.5558    1.0000 </r>
       <r>    1.6539    0.9999 </r>
       <r>    1.8204    0.9976 </r>
       <r>    1.8751    0.9956 </r>
       <r>    1.8770    0.9956 </r>
       <r>    2.0280    1.0179 </r>
       <r>    2.0660    1.0357 </r>
       <r>    5.4909    0.0000 </r>
       <r>    5.4909    0.0000 </r>
       <r>    7.3054    0.0000 </r>
       <r>    7.3054    0.0000 </r>
       <r>    9.6912    0.0000 </r>
       <r>    9.6912    0.0000 </r>
       <r>   11.5329    0.0000 </r>
       <r>   11.5497    0.0000 </r>
       <r>   11.9088    0.0000 </r>
       <r>   12.2349    0.0000 </r>
       <r>   12.3396    0.0000 </r>
      </set>
      <set comment="kpoint 10">
       <r>   -2.1573    1.0000 </r>
       <r>   -1.7851    1.0000 </r>
       <r>   -1.5756    1.0000 </r>
       <r>   -1.4838    1.0000 </r>
       <r>   -1.4687    1.0000 </r>
       <r>   -1.2417    1.0000 </r>
       <r>   -1.2044    1.0000 </r>
       <r>   -1.0661    1.0000 </r>
       <r>   -0.8882    1.0000 </r>
       <r>   -0.5051    1.0000 </r>
       <r>   -0.3982    1.0000 </r>
       <r>    0.2474    1.0000 </r>
       <r>    0.3099    1.0000 </r>
       <r>    1.0191    1.0000 </r>
       <r>    1.0527    1.0000 </r>
       <r>    1.1420    1.0000 </r>
       <r>    1.1509    1.0000 </r>
       <r>    1.1790    1.0000 </r>
       <r>    1.3218    1.0000 </r>
       <r>    1.4043    1.0000 </r>
       <r>    1.4946    1.0000 </r>
       <r>    1.5319    1.0000 </r>
       <r>    1.5386    1.0000 </r>
       <r>    1.6710    0.9999 </r>
       <r>    1.8061    0.9981 </r>
       <r>    2.7602    0.0039 </r>
       <r>    4.1577    0.0000 </r>
       <r>    5.9044    0.0000 </r>
       <r>    7.1597    0.0000 </r>
       <r>    7.9658    0.0000 </r>
       <r>    8.6708    0.0000 </r>
       <r>   10.1637    0.0000 </r>
       <r>   10.8290    0.0000 </r>
       <r>   11.8771    0.0000 </r>
       <r>   12.0352    0.0000 </r>
       <r>   12.7497    0.0000 </r>
      </set>
      <set comment="kpoint 11">
       <r>   -3.4720    1.0000 </r>
       <r>   -2.5654    1.0000 </r>
       <r>   -1.5628    1.0000 </r>
       <r>   -1.2793    1.0000 </r>
       <r>   -0.9700    1.0000 </r>
       <r>   -0.9442    1.0000 </r>
       <r>   -0.8001    1.0000 </r>
       <r>   -0.7688    1.0000 </r>
       <r>   -0.7153    1.0000 </r>
       <r>   -0.6212    1.0000 </r>
       <r>   -0.3092    1.0000 </r>
       <r>   -0.2046    1.0000 </r>
       <r>    0.0135    1.0000 </r>
       <r>    0.4348    1.0000 </r>
       <r>    0.4693    1.0000 </r>
       <r>    0.5451    1.0000 </r>
       <r>    0.6586    1.0000 </r>
       <r>    0.7900    1.0000 </r>
       <r>    0.8126    1.0000 </r>
       <r>    0.8770    1.0000 </r>
       <r>    0.9732    1.0000 </r>
       <r>    0.9860    1.0000 </r>
       <r>    1.0220    1.0000 </r>
       <r>    1.3536    1.0000 </r>
       <r>    1.4493    1.0000 </r>
       <r>    1.7646    0.9991 </r>
       <r>    1.8431    0.9968 </r>
       <r>    2.8635    0.0008 </r>
       <r>    4.5275    0.0000 </r>
       <r>    6.6239    0.0000 </r>
       <r>    8.4987    0.0000 </r>
       <r>    9.6260    0.0000 </r>
       <r>   10.4438    0.0000 </r>
       <r>   11.4182    0.0000 </r>
       <r>   11.7490    0.0000 </r>
       <r>   12.2886    0.0000 </r>
      </set>
      <set comment="kpoint 12">
       <r>   -5.4836    1.0000 </r>
       <r>   -4.3496    1.0000 </r>
       <r>   -2.7736    1.0000 </r>
       <r>   -1.8280    1.0000 </r>
       <r>   -1.7211    1.0000 </r>
       <r>   -1.4579    1.0000 </r>
       <r>   -1.1625    1.0000 </r>
       <r>   -0.7421    1.0000 </r>
       <r>   -0.4273    1.0000 </r>
       <r>    0.0036    1.0000 </r>
       <r>    0.0350    1.0000 </r>
       <r>    0.0513    1.0000 </r>
       <r>    0.0650    1.0000 </r>
       <r>    0.1463    1.0000 </r>
       <r>    0.3843    1.0000 </r>
       <r>    0.5398    1.0000 </r>
       <r>    0.7417    1.0000 </r>
       <r>    0.7974    1.0000 </r>
       <r>    0.8334    1.0000 </r>
       <r>    0.9402    1.0000 </r>
       <r>    0.9448    1.0000 </r>
       <r>    1.1077    1.0000 </r>
       <r>    1.2300    1.0000 </r>
       <r>    1.3650    1.0000 </r>
       <r>    1.4107    1.0000 </r>
       <r>    1.4815    1.0000 </r>
       <r>    1.6284    1.0000 </r>
       <r>    1.7831    0.9987 </r>
       <r>    2.4701   -0.0410 </r>
       <r>    4.1575    0.0000 </r>
       <r>    5.7146    0.0000 </r>
       <r>    7.4037    0.0000 </r>
       <r>    8.9438    0.0000 </r>
       <r>   10.5267    0.0000 </r>
       <r>   13.7667    0.0000 </r>
       <r>   14.1916    0.0000 </r>
      </set>
      <set comment="kpoint 13">
       <r>   -6.2635    1.0000 </r>
       <r>   -5.0798    1.0000 </r>
       <r>   -3.4014    1.0000 </r>
       <r>   -2.2805    1.0000 </r>
       <r>   -2.2010    1.0000 </r>
       <r>   -1.7119    1.0000 </r>
       <r>   -1.3605    1.0000 </r>
       <r>   -0.8368    1.0000 </r>
       <r>   -0.3703    1.0000 </r>
       <r>   -0.1224    1.0000 </r>
       <r>    0.0292    1.0000 </r>
       <r>    0.0292    1.0000 </r>
       <r>    0.4011    1.0000 </r>
       <r>    0.4011    1.0000 </r>
       <r>    0.5018    1.0000 </r>
       <r>    0.7590    1.0000 </r>
       <r>    0.9475    1.0000 </r>
       <r>    0.9853    1.0000 </r>
       <r>    0.9853    1.0000 </r>
       <r>    1.0058    1.0000 </r>
       <r>    1.0944    1.0000 </r>
       <r>    1.1688    1.0000 </r>
       <r>    1.4315    1.0000 </r>
       <r>    1.5141    1.0000 </r>
       <r>    1.5141    1.0000 </r>
       <r>    1.6159    1.0000 </r>
       <r>    1.6800    0.9999 </r>
       <r>    1.7945    0.9984 </r>
       <r>    1.7945    0.9984 </r>
       <r>    2.8509    0.0010 </r>
       <r>    4.2138    0.0000 </r>
       <r>    6.6488    0.0000 </r>
       <r>    8.0922    0.0000 </r>
       <r>    9.8924    0.0000 </r>
       <r>   13.0630    0.0000 </r>
       <r>   13.7506    0.0000 </r>
      </set>
     </set>
     <set comment="spin 2">
      <set comment="kpoint 1">
       <r>   -6.3061    1.0000 </r>
       <r>   -5.1138    1.0000 </r>
       <r>   -3.3955    1.0000 </r>
       <r>   -2.0728    1.0000 </r>
       <r>   -1.8857    1.0000 </r>
       <r>   -1.1758    1.0000 </r>
       <r>   -0.7955    1.0000 </r>
       <r>   -0.2043    1.0000 </r>
       <r>    0.2870    1.0000 </r>
       <r>    0.5344    1.0000 </r>
       <r>    0.7165    1.0000 </r>
       <r>    0.7165    1.0000 </r>
       <r>    1.0500    1.0000 </r>
       <r>    1.1205    1.0000 </r>
       <r>    1.1205    1.0000 </r>
       <r>    1.3556    1.0000 </r>
       <r>    1.3770    1.0000 </r>
       <r>    1.5688    1.0000 </r>
       <r>    1.6736    0.9999 </r>
       <r>    1.7351    0.9995 </r>
       <r>    1.7351    0.9995 </r>
       <r>    1.8682    0.9959 </r>
       <r>    2.1372    1.0483 </r>
       <r>    2.3130    0.4862 </r>
       <r>    2.3130    0.4862 </r>
       <r>    2.4074    0.0698 </r>
       <r>    2.4422   -0.0089 </r>
       <r>    2.5866   -0.0207 </r>
       <r>    2.5866   -0.0207 </r>
       <r>    2.9080    0.0003 </r>
       <r>    4.1998    0.0000 </r>
       <r>    7.0082    0.0000 </r>
       <r>    8.2312    0.0000 </r>
       <r>   10.1731    0.0000 </r>
       <r>   13.3060    0.0000 </r>
       <r>   13.9522    0.0000 </r>
      </set>
      <set comment="kpoint 2">
       <r>   -5.9109    1.0000 </r>
       <r>   -4.7412    1.0000 </r>
       <r>   -3.0661    1.0000 </r>
       <r>   -1.7971    1.0000 </r>
       <r>   -1.6525    1.0000 </r>
       <r>   -1.0573    1.0000 </r>
       <r>   -0.6983    1.0000 </r>
       <r>   -0.1487    1.0000 </r>
       <r>    0.2910    1.0000 </r>
       <r>    0.6204    1.0000 </r>
       <r>    0.6763    1.0000 </r>
       <r>    0.7662    1.0000 </r>
       <r>    0.7670    1.0000 </r>
       <r>    0.8869    1.0000 </r>
       <r>    1.0628    1.0000 </r>
       <r>    1.4108    1.0000 </r>
       <r>    1.4596    1.0000 </r>
       <r>    1.4727    1.0000 </r>
       <r>    1.5982    1.0000 </r>
       <r>    1.6225    1.0000 </r>
       <r>    1.7347    0.9995 </r>
       <r>    1.8872    0.9953 </r>
       <r>    1.9083    0.9951 </r>
       <r>    1.9863    1.0035 </r>
       <r>    2.3116    0.4935 </r>
       <r>    2.3173    0.4633 </r>
       <r>    2.3834    0.1510 </r>
       <r>    2.4580   -0.0302 </r>
       <r>    2.5928   -0.0179 </r>
       <r>    3.8103    0.0000 </r>
       <r>    5.1922    0.0000 </r>
       <r>    7.3862    0.0000 </r>
       <r>    8.6627    0.0000 </r>
       <r>   10.4879    0.0000 </r>
       <r>   13.6492    0.0000 </r>
       <r>   14.0650    0.0000 </r>
      </set>
      <set comment="kpoint 3">
       <r>   -4.7896    1.0000 </r>
       <r>   -3.7299    1.0000 </r>
       <r>   -2.2993    1.0000 </r>
       <r>   -1.2748    1.0000 </r>
       <r>   -1.1029    1.0000 </r>
       <r>   -0.7849    1.0000 </r>
       <r>   -0.3745    1.0000 </r>
       <r>    0.0996    1.0000 </r>
       <r>    0.2109    1.0000 </r>
       <r>    0.5163    1.0000 </r>
       <r>    0.6307    1.0000 </r>
       <r>    0.7187    1.0000 </r>
       <r>    0.7435    1.0000 </r>
       <r>    0.8322    1.0000 </r>
       <r>    0.8932    1.0000 </r>
       <r>    1.0465    1.0000 </r>
       <r>    1.1430    1.0000 </r>
       <r>    1.1821    1.0000 </r>
       <r>    1.3589    1.0000 </r>
       <r>    1.7110    0.9997 </r>
       <r>    1.7422    0.9994 </r>
       <r>    1.8145    0.9978 </r>
       <r>    1.8496    0.9965 </r>
       <r>    2.0124    1.0117 </r>
       <r>    2.1419    1.0463 </r>
       <r>    2.3516    0.2890 </r>
       <r>    2.4960   -0.0513 </r>
       <r>    2.5269   -0.0472 </r>
       <r>    3.2578    0.0000 </r>
       <r>    5.1476    0.0000 </r>
       <r>    6.8980    0.0000 </r>
       <r>    8.4773    0.0000 </r>
       <r>    9.9359    0.0000 </r>
       <r>   10.1801    0.0000 </r>
       <r>   11.4924    0.0000 </r>
       <r>   11.5334    0.0000 </r>
      </set>
      <set comment="kpoint 4">
       <r>   -3.1986    1.0000 </r>
       <r>   -2.5350    1.0000 </r>
       <r>   -1.8019    1.0000 </r>
       <r>   -1.1877    1.0000 </r>
       <r>   -0.8274    1.0000 </r>
       <r>   -0.3894    1.0000 </r>
       <r>    0.1278    1.0000 </r>
       <r>    0.1696    1.0000 </r>
       <r>    0.4202    1.0000 </r>
       <r>    0.5324    1.0000 </r>
       <r>    0.5602    1.0000 </r>
       <r>    0.6980    1.0000 </r>
       <r>    0.7054    1.0000 </r>
       <r>    0.7563    1.0000 </r>
       <r>    0.8155    1.0000 </r>
       <r>    1.0604    1.0000 </r>
       <r>    1.1058    1.0000 </r>
       <r>    1.1920    1.0000 </r>
       <r>    1.3717    1.0000 </r>
       <r>    1.5037    1.0000 </r>
       <r>    1.7805    0.9987 </r>
       <r>    2.1918    0.9844 </r>
       <r>    2.2247    0.8945 </r>
       <r>    2.2959    0.5765 </r>
       <r>    2.3583    0.2573 </r>
       <r>    2.4341    0.0053 </r>
       <r>    2.4795   -0.0466 </r>
       <r>    2.4815   -0.0475 </r>
       <r>    4.1311    0.0000 </r>
       <r>    5.8097    0.0000 </r>
       <r>    7.3888    0.0000 </r>
       <r>    7.6285    0.0000 </r>
       <r>    9.4436    0.0000 </r>
       <r>    9.7139    0.0000 </r>
       <r>   10.3970    0.0000 </r>
       <r>   11.2636    0.0000 </r>
      </set>
      <set comment="kpoint 5">
       <r>   -2.0285    1.0000 </r>
       <r>   -1.9664    1.0000 </r>
       <r>   -1.8046    1.0000 </r>
       <r>   -1.3009    1.0000 </r>
       <r>   -1.1056    1.0000 </r>
       <r>    0.0755    1.0000 </r>
       <r>    0.1427    1.0000 </r>
       <r>    0.2190    1.0000 </r>
       <r>    0.3775    1.0000 </r>
       <r>    0.5240    1.0000 </r>
       <r>    0.6071    1.0000 </r>
       <r>    0.6279    1.0000 </r>
       <r>    0.7028    1.0000 </r>
       <r>    0.7213    1.0000 </r>
       <r>    0.7401    1.0000 </r>
       <r>    0.9428    1.0000 </r>
       <r>    1.0731    1.0000 </r>
       <r>    1.4048    1.0000 </r>
       <r>    1.5704    1.0000 </r>
       <r>    1.8958    0.9951 </r>
       <r>    2.1146    1.0515 </r>
       <r>    2.3119    0.4920 </r>
       <r>    2.3323    0.3851 </r>
       <r>    2.3618    0.2417 </r>
       <r>    2.4708   -0.0415 </r>
       <r>    2.5110   -0.0510 </r>
       <r>    3.2912    0.0000 </r>
       <r>    3.4869    0.0000 </r>
       <r>    3.7240    0.0000 </r>
       <r>    3.7347    0.0000 </r>
       <r>    6.9641    0.0000 </r>
       <r>    7.0976    0.0000 </r>
       <r>    9.1935    0.0000 </r>
       <r>    9.7647    0.0000 </r>
       <r>   10.8110    0.0000 </r>
       <r>   11.9415    0.0000 </r>
      </set>
      <set comment="kpoint 6">
       <r>   -1.7668    1.0000 </r>
       <r>   -1.7379    1.0000 </r>
       <r>   -1.5934    1.0000 </r>
       <r>   -1.1572    1.0000 </r>
       <r>   -1.0020    1.0000 </r>
       <r>   -0.1436    1.0000 </r>
       <r>   -0.0735    1.0000 </r>
       <r>    0.0381    1.0000 </r>
       <r>    0.1625    1.0000 </r>
       <r>    0.2891    1.0000 </r>
       <r>    0.4389    1.0000 </r>
       <r>    0.4837    1.0000 </r>
       <r>    0.6158    1.0000 </r>
       <r>    0.8285    1.0000 </r>
       <r>    0.9579    1.0000 </r>
       <r>    0.9795    1.0000 </r>
       <r>    1.1853    1.0000 </r>
       <r>    1.3469    1.0000 </r>
       <r>    1.5727    1.0000 </r>
       <r>    1.8669    0.9959 </r>
       <r>    2.0012    1.0078 </r>
       <r>    2.0761    1.0403 </r>
       <r>    2.3010    0.5493 </r>
       <r>    2.3177    0.4612 </r>
       <r>    2.4754   -0.0445 </r>
       <r>    3.8239    0.0000 </r>
       <r>    3.9698    0.0000 </r>
       <r>    3.9913    0.0000 </r>
       <r>    4.0234    0.0000 </r>
       <r>    4.0434    0.0000 </r>
       <r>    7.2061    0.0000 </r>
       <r>    7.4292    0.0000 </r>
       <r>    9.3389    0.0000 </r>
       <r>   10.0132    0.0000 </r>
       <r>   11.0690    0.0000 </r>
       <r>   12.2798    0.0000 </r>
      </set>
      <set comment="kpoint 7">
       <r>   -1.4613    1.0000 </r>
       <r>   -1.4364    1.0000 </r>
       <r>   -1.1691    1.0000 </r>
       <r>   -1.0503    1.0000 </r>
       <r>   -0.9363    1.0000 </r>
       <r>   -0.6276    1.0000 </r>
       <r>   -0.5445    1.0000 </r>
       <r>   -0.3155    1.0000 </r>
       <r>   -0.1083    1.0000 </r>
       <r>    0.0008    1.0000 </r>
       <r>    0.4715    1.0000 </r>
       <r>    0.5030    1.0000 </r>
       <r>    0.6807    1.0000 </r>
       <r>    1.2766    1.0000 </r>
       <r>    1.3062    1.0000 </r>
       <r>    1.3204    1.0000 </r>
       <r>    1.3727    1.0000 </r>
       <r>    1.4918    1.0000 </r>
       <r>    1.8484    0.9966 </r>
       <r>    1.8967    0.9951 </r>
       <r>    2.1194    1.0516 </r>
       <r>    2.1586    1.0344 </r>
       <r>    2.3861    0.1408 </r>
       <r>    2.4868   -0.0494 </r>
       <r>    2.5123   -0.0508 </r>
       <r>    4.3870    0.0000 </r>
       <r>    4.5026    0.0000 </r>
       <r>    5.2364    0.0000 </r>
       <r>    5.2369    0.0000 </r>
       <r>    5.9228    0.0000 </r>
       <r>    7.8532    0.0000 </r>
       <r>    8.4682    0.0000 </r>
       <r>    9.8798    0.0000 </r>
       <r>   10.8796    0.0000 </r>
       <r>   11.8623    0.0000 </r>
       <r>   13.2503    0.0000 </r>
      </set>
      <set comment="kpoint 8">
       <r>   -1.6830    1.0000 </r>
       <r>   -1.6130    1.0000 </r>
       <r>   -1.2024    1.0000 </r>
       <r>   -1.0280    1.0000 </r>
       <r>   -1.0211    1.0000 </r>
       <r>   -0.8476    1.0000 </r>
       <r>   -0.6999    1.0000 </r>
       <r>   -0.5720    1.0000 </r>
       <r>   -0.4819    1.0000 </r>
       <r>    0.0107    1.0000 </r>
       <r>    0.3082    1.0000 </r>
       <r>    1.0449    1.0000 </r>
       <r>    1.1209    1.0000 </r>
       <r>    1.6766    0.9999 </r>
       <r>    1.7364    0.9995 </r>
       <r>    2.0122    1.0116 </r>
       <r>    2.0220    1.0154 </r>
       <r>    2.0612    1.0334 </r>
       <r>    2.1398    1.0473 </r>
       <r>    2.1433    1.0456 </r>
       <r>    2.3337    0.3777 </r>
       <r>    2.3627    0.2375 </r>
       <r>    2.4402   -0.0056 </r>
       <r>    2.5776   -0.0248 </r>
       <r>    2.6951    0.0046 </r>
       <r>    5.0858    0.0000 </r>
       <r>    5.1247    0.0000 </r>
       <r>    6.5534    0.0000 </r>
       <r>    6.5851    0.0000 </r>
       <r>    8.1365    0.0000 </r>
       <r>    8.8697    0.0000 </r>
       <r>   10.2903    0.0000 </r>
       <r>   11.0698    0.0000 </r>
       <r>   12.4857    0.0000 </r>
       <r>   13.1203    0.0000 </r>
       <r>   13.3019    0.0000 </r>
      </set>
      <set comment="kpoint 9">
       <r>   -1.7981    1.0000 </r>
       <r>   -1.7170    1.0000 </r>
       <r>   -1.3349    1.0000 </r>
       <r>   -1.1239    1.0000 </r>
       <r>   -1.1239    1.0000 </r>
       <r>   -0.9546    1.0000 </r>
       <r>   -0.6909    1.0000 </r>
       <r>   -0.6335    1.0000 </r>
       <r>   -0.6335    1.0000 </r>
       <r>    0.2060    1.0000 </r>
       <r>    0.2060    1.0000 </r>
       <r>    1.2852    1.0000 </r>
       <r>    1.2852    1.0000 </r>
       <r>    1.7370    0.9995 </r>
       <r>    1.8319    0.9972 </r>
       <r>    2.1533    1.0390 </r>
       <r>    2.2036    0.9569 </r>
       <r>    2.2800    0.6578 </r>
       <r>    2.2800    0.6578 </r>
       <r>    2.3466    0.3130 </r>
       <r>    2.5406   -0.0421 </r>
       <r>    2.6020   -0.0141 </r>
       <r>    2.6347   -0.0034 </r>
       <r>    2.8602    0.0009 </r>
       <r>    2.9099    0.0003 </r>
       <r>    5.5193    0.0000 </r>
       <r>    5.5193    0.0000 </r>
       <r>    7.3961    0.0000 </r>
       <r>    7.3961    0.0000 </r>
       <r>    9.7927    0.0000 </r>
       <r>    9.7927    0.0000 </r>
       <r>   11.7941    0.0000 </r>
       <r>   11.7963    0.0000 </r>
       <r>   12.1444    0.0000 </r>
       <r>   12.4258    0.0000 </r>
       <r>   12.4433    0.0000 </r>
      </set>
      <set comment="kpoint 10">
       <r>   -1.8604    1.0000 </r>
       <r>   -1.3765    1.0000 </r>
       <r>   -1.2074    1.0000 </r>
       <r>   -0.9433    1.0000 </r>
       <r>   -0.8947    1.0000 </r>
       <r>   -0.7633    1.0000 </r>
       <r>   -0.7063    1.0000 </r>
       <r>   -0.4827    1.0000 </r>
       <r>   -0.3525    1.0000 </r>
       <r>    0.0723    1.0000 </r>
       <r>    0.1774    1.0000 </r>
       <r>    0.8303    1.0000 </r>
       <r>    0.8854    1.0000 </r>
       <r>    1.6534    0.9999 </r>
       <r>    1.6927    0.9998 </r>
       <r>    1.8363    0.9970 </r>
       <r>    1.8622    0.9961 </r>
       <r>    1.9043    0.9951 </r>
       <r>    1.9645    0.9990 </r>
       <r>    2.0794    1.0418 </r>
       <r>    2.2023    0.9603 </r>
       <r>    2.2173    0.9183 </r>
       <r>    2.2612    0.7480 </r>
       <r>    2.4554   -0.0272 </r>
       <r>    2.6042   -0.0132 </r>
       <r>    3.0589    0.0000 </r>
       <r>    4.4686    0.0000 </r>
       <r>    6.1502    0.0000 </r>
       <r>    7.2990    0.0000 </r>
       <r>    8.1323    0.0000 </r>
       <r>    8.8149    0.0000 </r>
       <r>   10.2714    0.0000 </r>
       <r>   10.9561    0.0000 </r>
       <r>   12.0987    0.0000 </r>
       <r>   12.1566    0.0000 </r>
       <r>   12.9055    0.0000 </r>
      </set>
      <set comment="kpoint 11">
       <r>   -3.4637    1.0000 </r>
       <r>   -2.5047    1.0000 </r>
       <r>   -1.3426    1.0000 </r>
       <r>   -0.8552    1.0000 </r>
       <r>   -0.5782    1.0000 </r>
       <r>   -0.3362    1.0000 </r>
       <r>   -0.2385    1.0000 </r>
       <r>   -0.2334    1.0000 </r>
       <r>   -0.1712    1.0000 </r>
       <r>   -0.0572    1.0000 </r>
       <r>    0.2463    1.0000 </r>
       <r>    0.4045    1.0000 </r>
       <r>    0.6200    1.0000 </r>
       <r>    1.1504    1.0000 </r>
       <r>    1.1919    1.0000 </r>
       <r>    1.2252    1.0000 </r>
       <r>    1.2515    1.0000 </r>
       <r>    1.4066    1.0000 </r>
       <r>    1.4812    1.0000 </r>
       <r>    1.5023    1.0000 </r>
       <r>    1.6293    1.0000 </r>
       <r>    1.6629    0.9999 </r>
       <r>    1.7444    0.9994 </r>
       <r>    2.0117    1.0114 </r>
       <r>    2.2316    0.8702 </r>
       <r>    2.4753   -0.0444 </r>
       <r>    2.5503   -0.0378 </r>
       <r>    3.3855    0.0000 </r>
       <r>    4.8552    0.0000 </r>
       <r>    6.8046    0.0000 </r>
       <r>    8.6190    0.0000 </r>
       <r>    9.9665    0.0000 </r>
       <r>   10.5935    0.0000 </r>
       <r>   11.5800    0.0000 </r>
       <r>   11.9066    0.0000 </r>
       <r>   12.5377    0.0000 </r>
      </set>
      <set comment="kpoint 12">
       <r>   -5.5230    1.0000 </r>
       <r>   -4.3746    1.0000 </r>
       <r>   -2.7412    1.0000 </r>
       <r>   -1.5292    1.0000 </r>
       <r>   -1.4354    1.0000 </r>
       <r>   -0.9264    1.0000 </r>
       <r>   -0.6047    1.0000 </r>
       <r>   -0.1227    1.0000 </r>
       <r>    0.2169    1.0000 </r>
       <r>    0.5742    1.0000 </r>
       <r>    0.6652    1.0000 </r>
       <r>    0.7249    1.0000 </r>
       <r>    0.7271    1.0000 </r>
       <r>    0.8219    1.0000 </r>
       <r>    1.0964    1.0000 </r>
       <r>    1.1891    1.0000 </r>
       <r>    1.3825    1.0000 </r>
       <r>    1.4017    1.0000 </r>
       <r>    1.4744    1.0000 </r>
       <r>    1.5920    1.0000 </r>
       <r>    1.6884    0.9998 </r>
       <r>    1.7777    0.9988 </r>
       <r>    1.8209    0.9976 </r>
       <r>    2.0727    1.0388 </r>
       <r>    2.1368    1.0485 </r>
       <r>    2.2746    0.6844 </r>
       <r>    2.3245    0.4255 </r>
       <r>    2.5722   -0.0273 </r>
       <r>    2.9620    0.0001 </r>
       <r>    4.3981    0.0000 </r>
       <r>    5.8583    0.0000 </r>
       <r>    7.7625    0.0000 </r>
       <r>    9.0921    0.0000 </r>
       <r>   10.8032    0.0000 </r>
       <r>   13.9987    0.0000 </r>
       <r>   14.3733    0.0000 </r>
      </set>
      <set comment="kpoint 13">
       <r>   -6.3061    1.0000 </r>
       <r>   -5.1138    1.0000 </r>
       <r>   -3.3955    1.0000 </r>
       <r>   -2.0728    1.0000 </r>
       <r>   -1.8857    1.0000 </r>
       <r>   -1.1758    1.0000 </r>
       <r>   -0.7955    1.0000 </r>
       <r>   -0.2043    1.0000 </r>
       <r>    0.2870    1.0000 </r>
       <r>    0.5344    1.0000 </r>
       <r>    0.7165    1.0000 </r>
       <r>    0.7165    1.0000 </r>
       <r>    1.0500    1.0000 </r>
       <r>    1.1205    1.0000 </r>
       <r>    1.1205    1.0000 </r>
       <r>    1.3556    1.0000 </r>
       <r>    1.3770    1.0000 </r>
       <r>    1.5688    1.0000 </r>
       <r>    1.6736    0.9999 </r>
       <r>    1.7351    0.9995 </r>
       <r>    1.7351    0.9995 </r>
       <r>    1.8682    0.9959 </r>
       <r>    2.1372    1.0483 </r>
       <r>    2.3130    0.4862 </r>
       <r>    2.3130    0.4862 </r>
       <r>    2.4074    0.0698 </r>
       <r>    2.4422   -0.0089 </r>
       <r>    2.5866   -0.0207 </r>
       <r>    2.5866   -0.0207 </r>
       <r>    2.9080    0.0003 </r>
       <r>    4.1998    0.0000 </r>
       <r>    7.0082    0.0000 </r>
       <r>    8.2312    0.0000 </r>
       <r>   10.1731    0.0000 </r>
       <r>   13.3060    0.0000 </r>
       <r>   13.9522    0.0000 </r>
      </set>
     </set>
    </set>
   </array>
  </eigenvalues>
  <separator name="orbital magnetization" >
   <v name="MAGDIPOLOUT">      0.00000000      0.00000000      0.00000000</v>
  </separator>
  <dos>
   <i name="efermi">      2.31037118 </i>
   <total>
    <array>
     <dimension dim="1">gridpoints</dimension>
     <dimension dim="2">spin</dimension>
     <field>energy</field>
     <field>total</field>
     <field>integrated</field>
     <set>
      <set comment="spin 1">
       <r>    -8.3061     0.0000     0.0000 </r>
       <r>    -8.2239     0.0000     0.0000 </r>
       <r>    -8.1416     0.0000     0.0000 </r>
       <r>    -8.0593     0.0000     0.0000 </r>
       <r>    -7.9771     0.0000     0.0000 </r>
       <r>    -7.8948     0.0000     0.0000 </r>
       <r>    -7.8125     0.0000     0.0000 </r>
       <r>    -7.7303     0.0000     0.0000 </r>
       <r>    -7.6480     0.0000     0.0000 </r>
       <r>    -7.5657     0.0000     0.0000 </r>
       <r>    -7.4835     0.0000     0.0000 </r>
       <r>    -7.4012     0.0000     0.0000 </r>
       <r>    -7.3189     0.0000     0.0000 </r>
       <r>    -7.2367     0.0000     0.0000 </r>
       <r>    -7.1544     0.0000     0.0000 </r>
       <r>    -7.0722     0.0000     0.0000 </r>
       <r>    -6.9899     0.0000     0.0000 </r>
       <r>    -6.9076     0.0002     0.0000 </r>
       <r>    -6.8254     0.0011     0.0001 </r>
       <r>    -6.7431     0.0039     0.0004 </r>
       <r>    -6.6608     0.0040     0.0008 </r>
       <r>    -6.5786    -0.0203    -0.0009 </r>
       <r>    -6.4963    -0.0654    -0.0063 </r>
       <r>    -6.4140     0.0155    -0.0050 </r>
       <r>    -6.3318     0.3818     0.0264 </r>
       <r>    -6.2495     0.7567     0.0886 </r>
       <r>    -6.1672     0.6471     0.1419 </r>
       <r>    -6.0850     0.1948     0.1579 </r>
       <r>    -6.0027    -0.0059     0.1574 </r>
       <r>    -5.9204     0.1883     0.1729 </r>
       <r>    -5.8382     0.3821     0.2043 </r>
       <r>    -5.7559     0.2725     0.2268 </r>
       <r>    -5.6736     0.0486     0.2308 </r>
       <r>    -5.5914     0.0597     0.2357 </r>
       <r>    -5.5091     0.2893     0.2595 </r>
       <r>    -5.4269     0.3811     0.2908 </r>
       <r>    -5.3446     0.1743     0.3051 </r>
       <r>    -5.2623    -0.0191     0.3036 </r>
       <r>    -5.1801     0.1798     0.3184 </r>
       <r>    -5.0978     0.6281     0.3700 </r>
       <r>    -5.0155     0.7242     0.4296 </r>
       <r>    -4.9333     0.3544     0.4588 </r>
       <r>    -4.8510     0.1810     0.4737 </r>
       <r>    -4.7687     0.5008     0.5149 </r>
       <r>    -4.6865     0.7310     0.5750 </r>
       <r>    -4.6042     0.4542     0.6124 </r>
       <r>    -4.5219     0.0747     0.6185 </r>
       <r>    -4.4397     0.0722     0.6244 </r>
       <r>    -4.3574     0.3123     0.6501 </r>
       <r>    -4.2751     0.3711     0.6807 </r>
       <r>    -4.1929     0.1793     0.6954 </r>
       <r>    -4.1106     0.0017     0.6955 </r>
       <r>    -4.0284    -0.0478     0.6916 </r>
       <r>    -3.9461    -0.0378     0.6885 </r>
       <r>    -3.8638     0.0549     0.6930 </r>
       <r>    -3.7816     0.2495     0.7135 </r>
       <r>    -3.6993     0.3332     0.7410 </r>
       <r>    -3.6170     0.2230     0.7593 </r>
       <r>    -3.5348     0.3172     0.7854 </r>
       <r>    -3.4525     0.7946     0.8508 </r>
       <r>    -3.3702     1.1095     0.9420 </r>
       <r>    -3.2880     0.9079     1.0167 </r>
       <r>    -3.2057     0.5835     1.0647 </r>
       <r>    -3.1234     0.4677     1.1032 </r>
       <r>    -3.0412     0.3788     1.1344 </r>
       <r>    -2.9589     0.1712     1.1484 </r>
       <r>    -2.8766     0.1140     1.1578 </r>
       <r>    -2.7944     0.4101     1.1916 </r>
       <r>    -2.7121     0.7289     1.2515 </r>
       <r>    -2.6299     0.7103     1.3099 </r>
       <r>    -2.5476     0.5283     1.3534 </r>
       <r>    -2.4653     0.5645     1.3998 </r>
       <r>    -2.3831     0.9821     1.4806 </r>
       <r>    -2.3008     1.7736     1.6265 </r>
       <r>    -2.2185     2.8529     1.8612 </r>
       <r>    -2.1363     3.7566     2.1703 </r>
       <r>    -2.0540     3.6411     2.4698 </r>
       <r>    -1.9717     2.4617     2.6723 </r>
       <r>    -1.8895     1.5998     2.8039 </r>
       <r>    -1.8072     2.2876     2.9921 </r>
       <r>    -1.7249     4.0847     3.3281 </r>
       <r>    -1.6427     5.6043     3.7892 </r>
       <r>    -1.5604     5.9257     4.2767 </r>
       <r>    -1.4781     5.1055     4.6967 </r>
       <r>    -1.3959     4.2092     5.0429 </r>
       <r>    -1.3136     4.3185     5.3982 </r>
       <r>    -1.2313     4.9203     5.8030 </r>
       <r>    -1.1491     4.5991     6.1813 </r>
       <r>    -1.0668     3.2819     6.4513 </r>
       <r>    -0.9846     2.2522     6.6366 </r>
       <r>    -0.9023     2.4994     6.8422 </r>
       <r>    -0.8200     3.5796     7.1367 </r>
       <r>    -0.7378     3.9733     7.4635 </r>
       <r>    -0.6555     3.1632     7.7237 </r>
       <r>    -0.5732     2.4791     7.9277 </r>
       <r>    -0.4910     3.4422     8.2109 </r>
       <r>    -0.4087     5.5939     8.6710 </r>
       <r>    -0.3264     6.2632     9.1863 </r>
       <r>    -0.2442     4.4202     9.5499 </r>
       <r>    -0.1619     3.1558     9.8095 </r>
       <r>    -0.0796     5.3692    10.2512 </r>
       <r>     0.0026     9.3118    11.0172 </r>
       <r>     0.0849    10.6074    11.8899 </r>
       <r>     0.1672     7.9933    12.5474 </r>
       <r>     0.2494     5.0636    12.9640 </r>
       <r>     0.3317     5.2402    13.3951 </r>
       <r>     0.4139     7.1257    13.9812 </r>
       <r>     0.4962     7.3060    14.5823 </r>
       <r>     0.5785     5.9034    15.0679 </r>
       <r>     0.6607     5.4227    15.5140 </r>
       <r>     0.7430     5.9943    16.0071 </r>
       <r>     0.8253     6.2734    16.5232 </r>
       <r>     0.9075     6.9607    17.0958 </r>
       <r>     0.9898     8.9784    17.8344 </r>
       <r>     1.0721    10.7037    18.7150 </r>
       <r>     1.1543    10.2658    19.5595 </r>
       <r>     1.2366     8.0481    20.2216 </r>
       <r>     1.3189     6.4471    20.7519 </r>
       <r>     1.4011     7.5644    21.3742 </r>
       <r>     1.4834    10.3442    22.2252 </r>
       <r>     1.5657    12.0299    23.2148 </r>
       <r>     1.6479    11.9603    24.1987 </r>
       <r>     1.7302    11.1036    25.1122 </r>
       <r>     1.8125     9.3059    25.8777 </r>
       <r>     1.8947     6.1644    26.3848 </r>
       <r>     1.9770     2.9919    26.6310 </r>
       <r>     2.0592     1.1783    26.7279 </r>
       <r>     2.1415     0.4468    26.7646 </r>
       <r>     2.2238     0.0612    26.7697 </r>
       <r>     2.3060    -0.0739    26.7636 </r>
       <r>     2.3883     0.1731    26.7778 </r>
       <r>     2.4706     0.5988    26.8271 </r>
       <r>     2.5528     0.6714    26.8823 </r>
       <r>     2.6351     0.3297    26.9095 </r>
       <r>     2.7174     0.3870    26.9413 </r>
       <r>     2.7996     1.3057    27.0487 </r>
       <r>     2.8819     2.0907    27.2207 </r>
       <r>     2.9642     1.6123    27.3533 </r>
       <r>     3.0464     0.5143    27.3956 </r>
       <r>     3.1287     0.1990    27.4120 </r>
       <r>     3.2110     0.6953    27.4692 </r>
       <r>     3.2932     1.0612    27.5565 </r>
       <r>     3.3755     1.0094    27.6395 </r>
       <r>     3.4577     0.9452    27.7173 </r>
       <r>     3.5400     1.0059    27.8001 </r>
       <r>     3.6223     0.9602    27.8790 </r>
       <r>     3.7045     0.7964    27.9446 </r>
       <r>     3.7868     0.7330    28.0049 </r>
       <r>     3.8691     0.7194    28.0640 </r>
       <r>     3.9513     0.6595    28.1183 </r>
       <r>     4.0336     0.8875    28.1913 </r>
       <r>     4.1159     1.5540    28.3191 </r>
       <r>     4.1981     1.9358    28.4784 </r>
       <r>     4.2804     1.3731    28.5914 </r>
       <r>     4.3627     0.4347    28.6271 </r>
       <r>     4.4449     0.0784    28.6336 </r>
       <r>     4.5272     0.2641    28.6553 </r>
       <r>     4.6095     0.3029    28.6802 </r>
       <r>     4.6917     0.0222    28.6820 </r>
       <r>     4.7740    -0.0065    28.6815 </r>
       <r>     4.8562     0.7364    28.7421 </r>
       <r>     4.9385     1.7609    28.8869 </r>
       <r>     5.0208     1.9474    29.0472 </r>
       <r>     5.1030     1.1502    29.1418 </r>
       <r>     5.1853     0.2663    29.1637 </r>
       <r>     5.2676    -0.1321    29.1528 </r>
       <r>     5.3498    -0.0551    29.1483 </r>
       <r>     5.4321     0.3774    29.1793 </r>
       <r>     5.5144     0.8678    29.2507 </r>
       <r>     5.5966     1.0726    29.3389 </r>
       <r>     5.6789     1.0349    29.4241 </r>
       <r>     5.7612     0.9041    29.4985 </r>
       <r>     5.8434     0.6895    29.5552 </r>
       <r>     5.9257     0.4631    29.5933 </r>
       <r>     6.0080     0.2483    29.6137 </r>
       <r>     6.0902     0.0316    29.6163 </r>
       <r>     6.1725    -0.0668    29.6108 </r>
       <r>     6.2548     0.1026    29.6193 </r>
       <r>     6.3370     0.4618    29.6572 </r>
       <r>     6.4193     0.6267    29.7088 </r>
       <r>     6.5015     0.5579    29.7547 </r>
       <r>     6.5838     0.8432    29.8241 </r>
       <r>     6.6661     1.4710    29.9451 </r>
       <r>     6.7483     1.5787    30.0749 </r>
       <r>     6.8306     1.1000    30.1654 </r>
       <r>     6.9129     0.8117    30.2322 </r>
       <r>     6.9951     0.8326    30.3007 </r>
       <r>     7.0774     0.8587    30.3713 </r>
       <r>     7.1597     1.0450    30.4573 </r>
       <r>     7.2419     1.4661    30.5779 </r>
       <r>     7.3242     1.7165    30.7191 </r>
       <r>     7.4065     1.4768    30.8406 </r>
       <r>     7.4887     0.9211    30.9164 </r>
       <r>     7.5710     0.4962    30.9572 </r>
       <r>     7.6533     0.3169    30.9833 </r>
       <r>     7.7355     0.1334    30.9943 </r>
       <r>     7.8178    -0.0115    30.9933 </r>
       <r>     7.9000     0.2350    31.0127 </r>
       <r>     7.9823     0.8936    31.0862 </r>
       <r>     8.0646     1.4583    31.2061 </r>
       <r>     8.1468     1.4142    31.3225 </r>
       <r>     8.2291     0.8665    31.3937 </r>
       <r>     8.3114     0.4069    31.4272 </r>
       <r>     8.3936     0.3648    31.4572 </r>
       <r>     8.4759     0.6147    31.5078 </r>
       <r>     8.5582     0.8767    31.5799 </r>
       <r>     8.6404     0.9516    31.6582 </r>
       <r>     8.7227     0.7883    31.7231 </r>
       <r>     8.8050     0.5402    31.7675 </r>
       <r>     8.8872     0.5469    31.8125 </r>
       <r>     8.9695     0.7583    31.8749 </r>
       <r>     9.0518     0.7665    31.9379 </r>
       <r>     9.1340     0.5768    31.9854 </r>
       <r>     9.2163     0.4464    32.0221 </r>
       <r>     9.2986     0.3642    32.0520 </r>
       <r>     9.3808     0.2838    32.0754 </r>
       <r>     9.4631     0.3905    32.1075 </r>
       <r>     9.5453     0.8179    32.1748 </r>
       <r>     9.6276     1.4229    32.2919 </r>
       <r>     9.7099     1.8613    32.4450 </r>
       <r>     9.7921     1.8929    32.6007 </r>
       <r>     9.8744     1.6385    32.7355 </r>
       <r>     9.9567     1.3282    32.8448 </r>
       <r>    10.0389     1.1651    32.9406 </r>
       <r>    10.1212     1.2592    33.0442 </r>
       <r>    10.2035     1.2653    33.1483 </r>
       <r>    10.2857     0.8350    33.2170 </r>
       <r>    10.3680     0.3949    33.2495 </r>
       <r>    10.4503     0.4210    33.2841 </r>
       <r>    10.5325     0.5973    33.3332 </r>
       <r>    10.6148     0.6191    33.3842 </r>
       <r>    10.6971     0.7112    33.4427 </r>
       <r>    10.7793     0.9066    33.5172 </r>
       <r>    10.8616     0.9909    33.5988 </r>
       <r>    10.9438     0.9719    33.6787 </r>
       <r>    11.0261     0.8561    33.7491 </r>
       <r>    11.1084     0.6299    33.8010 </r>
       <r>    11.1906     0.5215    33.8439 </r>
       <r>    11.2729     0.6798    33.8998 </r>
       <r>    11.3552     0.9012    33.9739 </r>
       <r>    11.4374     0.9934    34.0556 </r>
       <r>    11.5197     0.9561    34.1343 </r>
       <r>    11.6020     0.7491    34.1959 </r>
       <r>    11.6842     0.5620    34.2422 </r>
       <r>    11.7665     0.8271    34.3102 </r>
       <r>    11.8488     1.3944    34.4249 </r>
       <r>    11.9310     1.5475    34.5522 </r>
       <r>    12.0133     1.0413    34.6379 </r>
       <r>    12.0956     0.4817    34.6775 </r>
       <r>    12.1778     0.5843    34.7256 </r>
       <r>    12.2601     1.2511    34.8285 </r>
       <r>    12.3423     1.6057    34.9606 </r>
       <r>    12.4246     1.1448    35.0548 </r>
       <r>    12.5069     0.3602    35.0844 </r>
       <r>    12.5891    -0.0343    35.0816 </r>
       <r>    12.6714     0.0839    35.0885 </r>
       <r>    12.7537     0.2946    35.1127 </r>
       <r>    12.8359     0.2482    35.1331 </r>
       <r>    12.9182     0.2576    35.1543 </r>
       <r>    13.0005     0.8393    35.2234 </r>
       <r>    13.0827     1.5866    35.3539 </r>
       <r>    13.1650     1.5390    35.4805 </r>
       <r>    13.2473     0.7536    35.5425 </r>
       <r>    13.3295     0.2160    35.5603 </r>
       <r>    13.4118     0.2326    35.5794 </r>
       <r>    13.4941     0.2383    35.5990 </r>
       <r>    13.5763     0.0848    35.6060 </r>
       <r>    13.6586     0.3033    35.6309 </r>
       <r>    13.7409     0.9642    35.7102 </r>
       <r>    13.8231     1.3122    35.8182 </r>
       <r>    13.9054     0.9381    35.8954 </r>
       <r>    13.9876     0.3330    35.9228 </r>
       <r>    14.0699     0.0769    35.9291 </r>
       <r>    14.1522     0.2187    35.9471 </r>
       <r>    14.2344     0.3724    35.9777 </r>
       <r>    14.3167     0.2621    35.9993 </r>
       <r>    14.3990     0.0533    36.0037 </r>
       <r>    14.4812    -0.0309    36.0011 </r>
       <r>    14.5635    -0.0173    35.9997 </r>
       <r>    14.6458     0.0002    35.9997 </r>
       <r>    14.7280     0.0024    35.9999 </r>
       <r>    14.8103     0.0009    36.0000 </r>
       <r>    14.8926     0.0002    36.0000 </r>
       <r>    14.9748     0.0000    36.0000 </r>
       <r>    15.0571     0.0000    36.0000 </r>
       <r>    15.1394     0.0000    36.0000 </r>
       <r>    15.2216     0.0000    36.0000 </r>
       <r>    15.3039     0.0000    36.0000 </r>
       <r>    15.3861     0.0000    36.0000 </r>
       <r>    15.4684     0.0000    36.0000 </r>
       <r>    15.5507     0.0000    36.0000 </r>
       <r>    15.6329     0.0000    36.0000 </r>
       <r>    15.7152     0.0000    36.0000 </r>
       <r>    15.7975     0.0000    36.0000 </r>
       <r>    15.8797     0.0000    36.0000 </r>
       <r>    15.9620     0.0000    36.0000 </r>
       <r>    16.0443     0.0000    36.0000 </r>
       <r>    16.1265     0.0000    36.0000 </r>
       <r>    16.2088     0.0000    36.0000 </r>
       <r>    16.2911     0.0000    36.0000 </r>
       <r>    16.3733     0.0000    36.0000 </r>
      </set>
      <set comment="spin 2">
       <r>    -8.3061     0.0000     0.0000 </r>
       <r>    -8.2239     0.0000     0.0000 </r>
       <r>    -8.1416     0.0000     0.0000 </r>
       <r>    -8.0593     0.0000     0.0000 </r>
       <r>    -7.9771     0.0000     0.0000 </r>
       <r>    -7.8948     0.0000     0.0000 </r>
       <r>    -7.8125     0.0000     0.0000 </r>
       <r>    -7.7303     0.0000     0.0000 </r>
       <r>    -7.6480     0.0000     0.0000 </r>
       <r>    -7.5657     0.0000     0.0000 </r>
       <r>    -7.4835     0.0000     0.0000 </r>
       <r>    -7.4012     0.0000     0.0000 </r>
       <r>    -7.3189     0.0000     0.0000 </r>
       <r>    -7.2367     0.0000     0.0000 </r>
       <r>    -7.1544     0.0000     0.0000 </r>
       <r>    -7.0722     0.0000     0.0000 </r>
       <r>    -6.9899     0.0001     0.0000 </r>
       <r>    -6.9076     0.0005     0.0000 </r>
       <r>    -6.8254     0.0023     0.0002 </r>
       <r>    -6.7431     0.0052     0.0007 </r>
       <r>    -6.6608    -0.0039     0.0003 </r>
       <r>    -6.5786    -0.0460    -0.0034 </r>
       <r>    -6.4963    -0.0543    -0.0079 </r>
       <r>    -6.4140     0.1731     0.0063 </r>
       <r>    -6.3318     0.6120     0.0567 </r>
       <r>    -6.2495     0.7724     0.1202 </r>
       <r>    -6.1672     0.4171     0.1545 </r>
       <r>    -6.0850     0.0320     0.1572 </r>
       <r>    -6.0027     0.0602     0.1621 </r>
       <r>    -5.9204     0.3154     0.1881 </r>
       <r>    -5.8382     0.3649     0.2181 </r>
       <r>    -5.7559     0.1491     0.2304 </r>
       <r>    -5.6736     0.0114     0.2313 </r>
       <r>    -5.5914     0.1616     0.2446 </r>
       <r>    -5.5091     0.3726     0.2752 </r>
       <r>    -5.4269     0.3122     0.3009 </r>
       <r>    -5.3446     0.0511     0.3051 </r>
       <r>    -5.2623     0.0032     0.3054 </r>
       <r>    -5.1801     0.3686     0.3357 </r>
       <r>    -5.0978     0.7427     0.3968 </r>
       <r>    -5.0155     0.6005     0.4462 </r>
       <r>    -4.9333     0.2087     0.4634 </r>
       <r>    -4.8510     0.2486     0.4838 </r>
       <r>    -4.7687     0.6349     0.5361 </r>
       <r>    -4.6865     0.6878     0.5927 </r>
       <r>    -4.6042     0.2971     0.6171 </r>
       <r>    -4.5219     0.0170     0.6185 </r>
       <r>    -4.4397     0.1411     0.6301 </r>
       <r>    -4.3574     0.3649     0.6601 </r>
       <r>    -4.2751     0.3289     0.6872 </r>
       <r>    -4.1929     0.1119     0.6964 </r>
       <r>    -4.1106    -0.0207     0.6947 </r>
       <r>    -4.0284    -0.0396     0.6914 </r>
       <r>    -3.9461    -0.0335     0.6887 </r>
       <r>    -3.8638     0.0420     0.6921 </r>
       <r>    -3.7816     0.2313     0.7111 </r>
       <r>    -3.6993     0.3343     0.7386 </r>
       <r>    -3.6170     0.2323     0.7577 </r>
       <r>    -3.5348     0.3013     0.7825 </r>
       <r>    -3.4525     0.7611     0.8451 </r>
       <r>    -3.3702     1.0636     0.9326 </r>
       <r>    -3.2880     0.8301     1.0009 </r>
       <r>    -3.2057     0.5279     1.0444 </r>
       <r>    -3.1234     0.5102     1.0863 </r>
       <r>    -3.0412     0.4957     1.1271 </r>
       <r>    -2.9589     0.2754     1.1498 </r>
       <r>    -2.8766     0.0893     1.1571 </r>
       <r>    -2.7944     0.1565     1.1700 </r>
       <r>    -2.7121     0.3205     1.1963 </r>
       <r>    -2.6299     0.4577     1.2340 </r>
       <r>    -2.5476     0.6514     1.2876 </r>
       <r>    -2.4653     0.7409     1.3485 </r>
       <r>    -2.3831     0.5645     1.3950 </r>
       <r>    -2.3008     0.3361     1.4226 </r>
       <r>    -2.2185     0.2749     1.4452 </r>
       <r>    -2.1363     0.5153     1.4876 </r>
       <r>    -2.0540     1.0097     1.5707 </r>
       <r>    -1.9717     1.5371     1.6971 </r>
       <r>    -1.8895     2.2689     1.8838 </r>
       <r>    -1.8072     3.2060     2.1475 </r>
       <r>    -1.7249     3.5313     2.4380 </r>
       <r>    -1.6427     2.8698     2.6741 </r>
       <r>    -1.5604     2.0083     2.8393 </r>
       <r>    -1.4781     1.7375     2.9823 </r>
       <r>    -1.3959     1.9990     3.1467 </r>
       <r>    -1.3136     2.5030     3.3526 </r>
       <r>    -1.2313     3.4154     3.6336 </r>
       <r>    -1.1491     4.5223     4.0056 </r>
       <r>    -1.0668     4.8762     4.4067 </r>
       <r>    -0.9846     4.3342     4.7633 </r>
       <r>    -0.9023     3.7883     5.0749 </r>
       <r>    -0.8200     3.7314     5.3819 </r>
       <r>    -0.7378     3.9740     5.7088 </r>
       <r>    -0.6555     4.1241     6.0481 </r>
       <r>    -0.5732     3.7285     6.3548 </r>
       <r>    -0.4910     2.8069     6.5857 </r>
       <r>    -0.4087     2.1386     6.7617 </r>
       <r>    -0.3264     2.2652     6.9480 </r>
       <r>    -0.2442     2.9222     7.1884 </r>
       <r>    -0.1619     3.4788     7.4746 </r>
       <r>    -0.0796     3.4050     7.7547 </r>
       <r>     0.0026     3.0653     8.0068 </r>
       <r>     0.0849     3.5426     8.2983 </r>
       <r>     0.1672     4.8502     8.6973 </r>
       <r>     0.2494     5.4602     9.1465 </r>
       <r>     0.3317     4.5433     9.5202 </r>
       <r>     0.4139     3.5083     9.8088 </r>
       <r>     0.4962     4.0017    10.1380 </r>
       <r>     0.5785     5.9966    10.6313 </r>
       <r>     0.6607     8.4647    11.3277 </r>
       <r>     0.7430     9.6021    12.1176 </r>
       <r>     0.8253     7.8893    12.7666 </r>
       <r>     0.9075     4.8639    13.1668 </r>
       <r>     0.9898     3.8863    13.4865 </r>
       <r>     1.0721     5.5635    13.9441 </r>
       <r>     1.1543     7.1453    14.5319 </r>
       <r>     1.2366     7.0771    15.1141 </r>
       <r>     1.3189     6.8941    15.6813 </r>
       <r>     1.4011     7.2248    16.2756 </r>
       <r>     1.4834     6.8020    16.8352 </r>
       <r>     1.5657     6.1106    17.3379 </r>
       <r>     1.6479     6.8739    17.9034 </r>
       <r>     1.7302     8.5987    18.6107 </r>
       <r>     1.8125     9.2085    19.3683 </r>
       <r>     1.8947     8.0095    20.0272 </r>
       <r>     1.9770     6.3442    20.5491 </r>
       <r>     2.0592     5.8964    21.0341 </r>
       <r>     2.1415     6.8994    21.6017 </r>
       <r>     2.2238     8.6619    22.3143 </r>
[...]
        <r>  0.0179  0.0063  0.0042  0.0000  0.0000  0.0003  0.0440  0.0000  0.0003 </r>
        <r>  0.0072  0.0032  0.0134  0.0000  0.0000  0.0018  0.0194  0.0000  0.0001 </r>
        <r>  0.0004  0.0002  0.0201  0.0000  0.0000  0.0030  0.0012  0.0000  0.0000 </r>
        <r>  0.0024  0.0011  0.0179  0.0000  0.0000  0.0026  0.0066  0.0000  0.0001 </r>
        <r>  0.0117  0.0034  0.0161  0.0000  0.0000  0.0013  0.0260  0.0000  0.0001 </r>
       </set>
       <set comment="band 36">
        <r>  0.0018  0.0061  0.0298  0.0004  0.0002  0.0046  0.0178  0.0001  0.0006 </r>
        <r>  0.0117  0.0177  0.0109  0.0013  0.0006  0.0020  0.0625  0.0000  0.0012 </r>
        <r>  0.0175  0.0256  0.0001  0.0018  0.0008  0.0000  0.0929  0.0000  0.0018 </r>
        <r>  0.0121  0.0213  0.0087  0.0014  0.0006  0.0013  0.0711  0.0000  0.0015 </r>
        <r>  0.0050  0.0111  0.0158  0.0005  0.0002  0.0035  0.0364  0.0001  0.0010 </r>
       </set>
      </set>
      <set comment="kpoint 13">
       <set comment="band 1">
        <r>  0.0397  0.0000  0.0062  0.0000  0.0000  0.0000  0.0000  0.0000  0.0000 </r>
        <r>  0.1619  0.0000  0.0033  0.0000  0.0000  0.0000  0.0002  0.0000  0.0000 </r>
        <r>  0.2473  0.0000  0.0001  0.0000  0.0000  0.0000  0.0002  0.0000  0.0000 </r>
        <r>  0.1954  0.0000  0.0024  0.0000  0.0000  0.0000  0.0004  0.0000  0.0000 </r>
        <r>  0.0574  0.0000  0.0087  0.0000  0.0000  0.0000  0.0000  0.0000  0.0000 </r>
       </set>
       <set comment="band 2">
        <r>  0.1334  0.0000  0.0119  0.0000  0.0000  0.0000  0.0008  0.0000  0.0000 </r>
        <r>  0.1920  0.0000  0.0051  0.0000  0.0000  0.0000  0.0050  0.0000  0.0000 </r>
        <r>  0.0010  0.0000  0.0375  0.0000  0.0000  0.0000  0.0000  0.0000  0.0000 </r>
        <r>  0.1678  0.0000  0.0080  0.0000  0.0000  0.0000  0.0055  0.0000  0.0000 </r>
        <r>  0.1364  0.0000  0.0115  0.0000  0.0000  0.0000  0.0011  0.0000  0.0000 </r>
       </set>
       <set comment="band 3">
        <r>  0.1609  0.0000  0.0013  0.0000  0.0000  0.0000  0.0185  0.0000  0.0000 </r>
        <r>  0.0032  0.0000  0.0621  0.0000  0.0000  0.0000  0.0020  0.0000  0.0000 </r>
        <r>  0.1632  0.0000  0.0000  0.0000  0.0000  0.0000  0.0506  0.0000  0.0000 </r>
        <r>  0.0025  0.0000  0.0627  0.0000  0.0000  0.0000  0.0016  0.0000  0.0000 </r>
        <r>  0.1493  0.0000  0.0009  0.0000  0.0000  0.0000  0.0201  0.0000  0.0000 </r>
       </set>
       <set comment="band 4">
        <r>  0.0632  0.0000  0.0042  0.0000  0.0000  0.0000  0.0672  0.0000  0.0000 </r>
        <r>  0.0311  0.0000  0.0150  0.0000  0.0000  0.0000  0.0690  0.0000  0.0000 </r>
        <r>  0.0004  0.0000  0.0369  0.0000  0.0000  0.0000  0.0054  0.0000  0.0000 </r>
        <r>  0.0452  0.0000  0.0163  0.0000  0.0000  0.0000  0.1784  0.0000  0.0000 </r>
        <r>  0.0838  0.0000  0.0096  0.0000  0.0000  0.0000  0.1316  0.0000  0.0000 </r>
       </set>
       <set comment="band 5">
        <r>  0.0357  0.0000  0.0075  0.0000  0.0000  0.0000  0.0886  0.0000  0.0000 </r>
        <r>  0.0292  0.0000  0.0001  0.0000  0.0000  0.0000  0.2401  0.0000  0.0000 </r>
        <r>  0.0150  0.0000  0.0014  0.0000  0.0000  0.0000  0.2117  0.0000  0.0000 </r>
        <r>  0.0084  0.0000  0.0009  0.0000  0.0000  0.0000  0.1449  0.0000  0.0000 </r>
        <r>  0.0072  0.0000  0.0040  0.0000  0.0000  0.0000  0.0406  0.0000  0.0000 </r>
       </set>
       <set comment="band 6">
        <r>  0.0000  0.0000  0.0000  0.0000  0.0284  0.0000  0.0000  0.0000  0.0000 </r>
        <r>  0.0000  0.0000  0.0000  0.0000  0.1708  0.0000  0.0000  0.0000  0.0000 </r>
        <r>  0.0000  0.0000  0.0000  0.0000  0.3041  0.0000  0.0000  0.0000  0.0000 </r>
        <r>  0.0000  0.0000  0.0000  0.0000  0.3409  0.0000  0.0000  0.0000  0.0000 </r>
        <r>  0.0000  0.0000  0.0000  0.0000  0.0944  0.0000  0.0000  0.0000  0.0000 </r>
       </set>
       <set comment="band 7">
        <r>  0.0000  0.0000  0.0000  0.0000  0.1515  0.0000  0.0000  0.0000  0.0000 </r>
        <r>  0.0000  0.0000  0.0000  0.0000  0.3781  0.0000  0.0000  0.0000  0.0000 </r>
        <r>  0.0000  0.0000  0.0000  0.0000  0.0223  0.0000  0.0000  0.0000  0.0000 </r>
        <r>  0.0000  0.0000  0.0000  0.0000  0.2289  0.0000  0.0000  0.0000  0.0000 </r>
        <r>  0.0000  0.0000  0.0000  0.0000  0.1627  0.0000  0.0000  0.0000  0.0000 </r>
       </set>
       <set comment="band 8">
        <r>  0.0000  0.0000  0.0000  0.0000  0.3090  0.0000  0.0000  0.0000  0.0000 </r>
        <r>  0.0000  0.0000  0.0000  0.0000  0.0252  0.0000  0.0000  0.0000  0.0000 </r>
        <r>  0.0000  0.0000  0.0000  0.0000  0.3829  0.0000  0.0000  0.0000  0.0000 </r>
        <r>  0.0000  0.0000  0.0000  0.0000  0.0035  0.0000  0.0000  0.0000  0.0000 </r>
        <r>  0.0000  0.0000  0.0000  0.0000  0.2317  0.0000  0.0000  0.0000  0.0000 </r>
       </set>
       <set comment="band 9">
        <r>  0.0000  0.0000  0.0000  0.0000  0.3385  0.0000  0.0000  0.0000  0.0000 </r>
        <r>  0.0000  0.0000  0.0000  0.0000  0.1843  0.0000  0.0000  0.0000  0.0000 </r>
        <r>  0.0000  0.0000  0.0000  0.0000  0.0010  0.0000  0.0000  0.0000  0.0000 </r>
        <r>  0.0000  0.0000  0.0000  0.0000  0.1509  0.0000  0.0000  0.0000  0.0000 </r>
        <r>  0.0000  0.0000  0.0000  0.0000  0.2888  0.0000  0.0000  0.0000  0.0000 </r>
       </set>
       <set comment="band 10">
        <r>  0.0000  0.0000  0.0000  0.0000  0.1273  0.0000  0.0000  0.0000  0.0000 </r>
        <r>  0.0000  0.0000  0.0000  0.0000  0.1952  0.0000  0.0000  0.0000  0.0000 </r>
        <r>  0.0000  0.0000  0.0000  0.0000  0.2428  0.0000  0.0000  0.0000  0.0000 </r>
        <r>  0.0000  0.0000  0.0000  0.0000  0.2298  0.0000  0.0000  0.0000  0.0000 </r>
        <r>  0.0000  0.0000  0.0000  0.0000  0.1773  0.0000  0.0000  0.0000  0.0000 </r>
       </set>
       <set comment="band 11">
        <r>  0.0000  0.0002  0.0000  0.0003  0.0000  0.0087  0.0000  0.0177  0.0000 </r>
        <r>  0.0000  0.0002  0.0000  0.0003  0.0000  0.0655  0.0000  0.1338  0.0000 </r>
        <r>  0.0000  0.0000  0.0000  0.0000  0.0000  0.1196  0.0000  0.2444  0.0000 </r>
        <r>  0.0000  0.0001  0.0000  0.0001  0.0000  0.1060  0.0000  0.2166  0.0000 </r>
        <r>  0.0000  0.0004  0.0000  0.0008  0.0000  0.0204  0.0000  0.0417  0.0000 </r>
       </set>
       <set comment="band 12">
        <r>  0.0000  0.0003  0.0000  0.0002  0.0000  0.0177  0.0000  0.0087  0.0000 </r>
        <r>  0.0000  0.0003  0.0000  0.0002  0.0000  0.1338  0.0000  0.0655  0.0000 </r>
        <r>  0.0000  0.0000  0.0000  0.0000  0.0000  0.2444  0.0000  0.1196  0.0000 </r>
        <r>  0.0000  0.0001  0.0000  0.0001  0.0000  0.2166  0.0000  0.1060  0.0000 </r>
        <r>  0.0000  0.0008  0.0000  0.0004  0.0000  0.0417  0.0000  0.0204  0.0000 </r>
       </set>
       <set comment="band 13">
        <r>  0.0085  0.0000  0.0002  0.0000  0.0000  0.0000  0.2401  0.0000  0.0000 </r>
        <r>  0.0001  0.0000  0.0065  0.0000  0.0000  0.0000  0.0043  0.0000  0.0000 </r>
        <r>  0.0099  0.0000  0.0003  0.0000  0.0000  0.0000  0.3785  0.0000  0.0000 </r>
        <r>  0.0005  0.0000  0.0085  0.0000  0.0000  0.0000  0.0291  0.0000  0.0000 </r>
        <r>  0.0141  0.0000  0.0012  0.0000  0.0000  0.0000  0.1920  0.0000  0.0000 </r>
       </set>
       <set comment="band 14">
        <r>  0.0000  0.0012  0.0000  0.0000  0.0000  0.1257  0.0000  0.0024  0.0000 </r>
        <r>  0.0000  0.0001  0.0000  0.0000  0.0000  0.3788  0.0000  0.0074  0.0000 </r>
        <r>  0.0000  0.0034  0.0000  0.0001  0.0000  0.0125  0.0000  0.0002  0.0000 </r>
        <r>  0.0000  0.0009  0.0000  0.0000  0.0000  0.2875  0.0000  0.0056  0.0000 </r>
        <r>  0.0000  0.0014  0.0000  0.0000  0.0000  0.1472  0.0000  0.0029  0.0000 </r>
       </set>
       <set comment="band 15">
        <r>  0.0000  0.0000  0.0000  0.0012  0.0000  0.0024  0.0000  0.1257  0.0000 </r>
        <r>  0.0000  0.0000  0.0000  0.0001  0.0000  0.0074  0.0000  0.3788  0.0000 </r>
        <r>  0.0000  0.0001  0.0000  0.0034  0.0000  0.0002  0.0000  0.0125  0.0000 </r>
        <r>  0.0000  0.0000  0.0000  0.0009  0.0000  0.0056  0.0000  0.2875  0.0000 </r>
        <r>  0.0000  0.0000  0.0000  0.0014  0.0000  0.0029  0.0000  0.1472  0.0000 </r>
       </set>
       <set comment="band 16">
        <r>  0.0129  0.0000  0.0095  0.0000  0.0000  0.0000  0.0190  0.0000  0.0000 </r>
        <r>  0.0242  0.0000  0.0081  0.0000  0.0000  0.0000  0.4076  0.0000  0.0000 </r>
        <r>  0.0000  0.0000  0.0431  0.0000  0.0000  0.0000  0.0066  0.0000  0.0000 </r>
        <r>  0.0214  0.0000  0.0079  0.0000  0.0000  0.0000  0.2851  0.0000  0.0000 </r>
        <r>  0.0083  0.0000  0.0059  0.0000  0.0000  0.0000  0.0319  0.0000  0.0000 </r>
       </set>
       <set comment="band 17">
        <r>  0.0193  0.0000  0.0095  0.0000  0.0000  0.0000  0.3634  0.0000  0.0000 </r>
        <r>  0.0084  0.0000  0.0064  0.0000  0.0000  0.0000  0.0079  0.0000  0.0000 </r>
        <r>  0.0000  0.0000  0.0189  0.0000  0.0000  0.0000  0.0029  0.0000  0.0000 </r>
        <r>  0.0095  0.0000  0.0061  0.0000  0.0000  0.0000  0.0000  0.0000  0.0000 </r>
        <r>  0.0211  0.0000  0.0118  0.0000  0.0000  0.0000  0.2766  0.0000  0.0000 </r>
       </set>
       <set comment="band 18">
        <r>  0.0002  0.0000  0.0004  0.0000  0.0000  0.0000  0.1080  0.0000  0.0000 </r>
        <r>  0.0000  0.0000  0.0000  0.0000  0.0000  0.0000  0.1624  0.0000  0.0000 </r>
        <r>  0.0001  0.0000  0.0000  0.0000  0.0000  0.0000  0.2352  0.0000  0.0000 </r>
        <r>  0.0000  0.0000  0.0002  0.0000  0.0000  0.0000  0.2401  0.0000  0.0000 </r>
        <r>  0.0009  0.0000  0.0018  0.0000  0.0000  0.0000  0.2079  0.0000  0.0000 </r>
       </set>
       <set comment="band 19">
        <r>  0.0000  0.0000  0.0000  0.0000  0.0000  0.0000  0.0000  0.0000  0.0118 </r>
        <r>  0.0000  0.0000  0.0000  0.0000  0.0000  0.0000  0.0000  0.0000  0.1598 </r>
        <r>  0.0000  0.0000  0.0000  0.0000  0.0000  0.0000  0.0000  0.0000  0.3662 </r>
        <r>  0.0000  0.0000  0.0000  0.0000  0.0000  0.0000  0.0000  0.0000  0.3921 </r>
        <r>  0.0000  0.0000  0.0000  0.0000  0.0000  0.0000  0.0000  0.0000  0.0591 </r>
       </set>
       <set comment="band 20">
        <r>  0.0000  0.0002  0.0000  0.0001  0.0000  0.1970  0.0000  0.0830  0.0000 </r>
        <r>  0.0000  0.0028  0.0000  0.0012  0.0000  0.0342  0.0000  0.0144  0.0000 </r>
        <r>  0.0000  0.0000  0.0000  0.0000  0.0000  0.2708  0.0000  0.1141  0.0000 </r>
        <r>  0.0000  0.0031  0.0000  0.0013  0.0000  0.0106  0.0000  0.0045  0.0000 </r>
        <r>  0.0000  0.0002  0.0000  0.0001  0.0000  0.1699  0.0000  0.0716  0.0000 </r>
       </set>
       <set comment="band 21">
        <r>  0.0000  0.0001  0.0000  0.0002  0.0000  0.0830  0.0000  0.1970  0.0000 </r>
        <r>  0.0000  0.0012  0.0000  0.0028  0.0000  0.0144  0.0000  0.0342  0.0000 </r>
        <r>  0.0000  0.0000  0.0000  0.0000  0.0000  0.1141  0.0000  0.2708  0.0000 </r>
        <r>  0.0000  0.0013  0.0000  0.0031  0.0000  0.0045  0.0000  0.0106  0.0000 </r>
        <r>  0.0000  0.0001  0.0000  0.0002  0.0000  0.0716  0.0000  0.1699  0.0000 </r>
       </set>
       <set comment="band 22">
        <r>  0.0000  0.0000  0.0000  0.0000  0.0000  0.0000  0.0000  0.0000  0.0690 </r>
        <r>  0.0000  0.0000  0.0000  0.0000  0.0000  0.0000  0.0000  0.0000  0.4607 </r>
        <r>  0.0000  0.0000  0.0000  0.0000  0.0000  0.0000  0.0000  0.0000  0.0447 </r>
        <r>  0.0000  0.0000  0.0000  0.0000  0.0000  0.0000  0.0000  0.0000  0.3122 </r>
        <r>  0.0000  0.0000  0.0000  0.0000  0.0000  0.0000  0.0000  0.0000  0.1032 </r>
       </set>
       <set comment="band 23">
        <r>  0.0000  0.0000  0.0000  0.0000  0.0000  0.0000  0.0000  0.0000  0.1441 </r>
        <r>  0.0000  0.0000  0.0000  0.0000  0.0000  0.0000  0.0000  0.0000  0.1741 </r>
        <r>  0.0000  0.0000  0.0000  0.0000  0.0000  0.0000  0.0000  0.0000  0.5006 </r>
        <r>  0.0000  0.0000  0.0000  0.0000  0.0000  0.0000  0.0000  0.0000  0.0456 </r>
        <r>  0.0000  0.0000  0.0000  0.0000  0.0000  0.0000  0.0000  0.0000  0.1269 </r>
       </set>
       <set comment="band 24">
        <r>  0.0000  0.0001  0.0000  0.0001  0.0000  0.1117  0.0000  0.2527  0.0000 </r>
        <r>  0.0000  0.0004  0.0000  0.0009  0.0000  0.0435  0.0000  0.0985  0.0000 </r>
        <r>  0.0000  0.0007  0.0000  0.0015  0.0000  0.0000  0.0000  0.0000  0.0000 </r>
        <r>  0.0000  0.0005  0.0000  0.0011  0.0000  0.0432  0.0000  0.0978  0.0000 </r>
        <r>  0.0000  0.0001  0.0000  0.0002  0.0000  0.1013  0.0000  0.2290  0.0000 </r>
       </set>
       <set comment="band 25">
        <r>  0.0000  0.0001  0.0000  0.0001  0.0000  0.2527  0.0000  0.1117  0.0000 </r>
        <r>  0.0000  0.0009  0.0000  0.0004  0.0000  0.0985  0.0000  0.0435  0.0000 </r>
        <r>  0.0000  0.0015  0.0000  0.0007  0.0000  0.0000  0.0000  0.0000  0.0000 </r>
        <r>  0.0000  0.0011  0.0000  0.0005  0.0000  0.0978  0.0000  0.0432  0.0000 </r>
        <r>  0.0000  0.0002  0.0000  0.0001  0.0000  0.2290  0.0000  0.1013  0.0000 </r>
       </set>
       <set comment="band 26">
        <r>  0.0000  0.0000  0.0000  0.0000  0.0000  0.0000  0.0000  0.0000  0.2974 </r>
        <r>  0.0000  0.0000  0.0000  0.0000  0.0000  0.0000  0.0000  0.0000  0.0438 </r>
        <r>  0.0000  0.0000  0.0000  0.0000  0.0000  0.0000  0.0000  0.0000  0.0051 </r>
        <r>  0.0000  0.0000  0.0000  0.0000  0.0000  0.0000  0.0000  0.0000  0.1462 </r>
        <r>  0.0000  0.0000  0.0000  0.0000  0.0000  0.0000  0.0000  0.0000  0.4994 </r>
       </set>
       <set comment="band 27">
        <r>  0.0000  0.0000  0.0000  0.0000  0.0000  0.0000  0.0000  0.0000  0.4688 </r>
        <r>  0.0000  0.0000  0.0000  0.0000  0.0000  0.0000  0.0000  0.0000  0.1523 </r>
        <r>  0.0000  0.0000  0.0000  0.0000  0.0000  0.0000  0.0000  0.0000  0.0742 </r>
        <r>  0.0000  0.0000  0.0000  0.0000  0.0000  0.0000  0.0000  0.0000  0.0947 </r>
        <r>  0.0000  0.0000  0.0000  0.0000  0.0000  0.0000  0.0000  0.0000  0.2027 </r>
       </set>
       <set comment="band 28">
        <r>  0.0000  0.0002  0.0000  0.0003  0.0000  0.0628  0.0000  0.1153  0.0000 </r>
        <r>  0.0000  0.0000  0.0000  0.0000  0.0000  0.0705  0.0000  0.1294  0.0000 </r>
        <r>  0.0000  0.0000  0.0000  0.0000  0.0000  0.0755  0.0000  0.1386  0.0000 </r>
        <r>  0.0000  0.0000  0.0000  0.0000  0.0000  0.0721  0.0000  0.1323  0.0000 </r>
        <r>  0.0000  0.0002  0.0000  0.0005  0.0000  0.0681  0.0000  0.1250  0.0000 </r>
       </set>
       <set comment="band 29">
        <r>  0.0000  0.0003  0.0000  0.0002  0.0000  0.1153  0.0000  0.0628  0.0000 </r>
        <r>  0.0000  0.0000  0.0000  0.0000  0.0000  0.1294  0.0000  0.0705  0.0000 </r>
        <r>  0.0000  0.0000  0.0000  0.0000  0.0000  0.1386  0.0000  0.0755  0.0000 </r>
        <r>  0.0000  0.0000  0.0000  0.0000  0.0000  0.1323  0.0000  0.0721  0.0000 </r>
        <r>  0.0000  0.0005  0.0000  0.0002  0.0000  0.1250  0.0000  0.0681  0.0000 </r>
       </set>
       <set comment="band 30">
        <r>  0.0027  0.0000  0.1061  0.0000  0.0000  0.0000  0.0017  0.0000  0.0000 </r>
        <r>  0.0190  0.0000  0.0468  0.0000  0.0000  0.0000  0.0376  0.0000  0.0000 </r>
        <r>  0.0346  0.0000  0.0010  0.0000  0.0000  0.0000  0.0453  0.0000  0.0000 </r>
        <r>  0.0239  0.0000  0.0259  0.0000  0.0000  0.0000  0.0556  0.0000  0.0000 </r>
        <r>  0.0027  0.0000  0.0828  0.0000  0.0000  0.0000  0.0036  0.0000  0.0000 </r>
       </set>
       <set comment="band 31">
        <r>  0.0038  0.0000  0.0643  0.0000  0.0000  0.0000  0.0148  0.0000  0.0000 </r>
        <r>  0.0019  0.0000  0.0926  0.0000  0.0000  0.0000  0.0012  0.0000  0.0000 </r>
        <r>  0.0003  0.0000  0.1130  0.0000  0.0000  0.0000  0.0002  0.0000  0.0000 </r>
        <r>  0.0001  0.0000  0.1136  0.0000  0.0000  0.0000  0.0004  0.0000  0.0000 </r>
        <r>  0.0045  0.0000  0.0879  0.0000  0.0000  0.0000  0.0239  0.0000  0.0000 </r>
       </set>
       <set comment="band 32">
        <r>  0.0083  0.0000  0.0117  0.0000  0.0000  0.0000  0.0076  0.0000  0.0000 </r>
        <r>  0.0049  0.0000  0.0028  0.0000  0.0000  0.0000  0.0040  0.0000  0.0000 </r>
        <r>  0.0037  0.0000  0.0001  0.0000  0.0000  0.0000  0.0032  0.0000  0.0000 </r>
        <r>  0.0041  0.0000  0.0010  0.0000  0.0000  0.0000  0.0035  0.0000  0.0000 </r>
        <r>  0.0055  0.0000  0.0078  0.0000  0.0000  0.0000  0.0048  0.0000  0.0000 </r>
       </set>
       <set comment="band 33">
        <r>  0.0076  0.0000  0.0235  0.0000  0.0000  0.0000  0.0069  0.0000  0.0000 </r>
        <r>  0.0014  0.0000  0.0146  0.0000  0.0000  0.0000  0.0011  0.0000  0.0000 </r>
        <r>  0.0001  0.0000  0.0128  0.0000  0.0000  0.0000  0.0001  0.0000  0.0000 </r>
        <r>  0.0029  0.0000  0.0165  0.0000  0.0000  0.0000  0.0028  0.0000  0.0000 </r>
        <r>  0.0091  0.0000  0.0321  0.0000  0.0000  0.0000  0.0076  0.0000  0.0000 </r>
       </set>
       <set comment="band 34">
        <r>  0.0249  0.0000  0.0052  0.0000  0.0000  0.0000  0.0291  0.0000  0.0000 </r>
        <r>  0.0176  0.0000  0.0014  0.0000  0.0000  0.0000  0.0176  0.0000  0.0000 </r>
        <r>  0.0146  0.0000  0.0000  0.0000  0.0000  0.0000  0.0151  0.0000  0.0000 </r>
        <r>  0.0157  0.0000  0.0005  0.0000  0.0000  0.0000  0.0160  0.0000  0.0000 </r>
        <r>  0.0208  0.0000  0.0065  0.0000  0.0000  0.0000  0.0240  0.0000  0.0000 </r>
       </set>
       <set comment="band 35">
        <r>  0.0244  0.0000  0.0050  0.0000  0.0000  0.0000  0.0432  0.0000  0.0000 </r>
        <r>  0.0097  0.0000  0.0129  0.0000  0.0000  0.0000  0.0158  0.0000  0.0000 </r>
        <r>  0.0004  0.0000  0.0176  0.0000  0.0000  0.0000  0.0006  0.0000  0.0000 </r>
        <r>  0.0042  0.0000  0.0154  0.0000  0.0000  0.0000  0.0071  0.0000  0.0000 </r>
        <r>  0.0166  0.0000  0.0141  0.0000  0.0000  0.0000  0.0288  0.0000  0.0000 </r>
       </set>
       <set comment="band 36">
        <r>  0.0108  0.0000  0.0308  0.0000  0.0000  0.0000  0.0230  0.0000  0.0000 </r>
        <r>  0.0382  0.0000  0.0106  0.0000  0.0000  0.0000  0.0715  0.0000  0.0000 </r>
        <r>  0.0526  0.0000  0.0000  0.0000  0.0000  0.0000  0.1004  0.0000  0.0000 </r>
        <r>  0.0384  0.0000  0.0107  0.0000  0.0000  0.0000  0.0720  0.0000  0.0000 </r>
        <r>  0.0167  0.0000  0.0178  0.0000  0.0000  0.0000  0.0360  0.0000  0.0000 </r>
       </set>
      </set>
     </set>
    </set>
   </array>
  </projected>
 </calculation>
 <structure name="finalpos" >
  <crystal>
   <varray name="basis" >
    <v>       1.76500000       1.76500000       0.00000000 </v>
    <v>      -1.76500000       1.76500000       0.00000000 </v>
    <v>       0.00000000       0.00000000      17.65000000 </v>
   </varray>
   <i name="volume">    109.96744250 </i>
   <varray name="rec_basis" >
    <v>       0.28328612       0.28328612       0.00000000 </v>
    <v>      -0.28328612       0.28328612       0.00000000 </v>
    <v>       0.00000000       0.00000000       0.05665722 </v>
   </varray>
  </crystal>
  <varray name="positions" >
   <v>       0.00000000       0.00000000       0.00000000 </v>
   <v>       0.50000000       0.50000000       0.10000000 </v>
   <v>       0.00000000       0.00000000       0.20000000 </v>
   <v>       0.50000000       0.50000000       0.30020998 </v>
   <v>       0.00000000       0.00000000       0.39550725 </v>
  </varray>
  <varray name="selective"  type="logical" >
   <v type="logical" >  F  F  F </v>
   <v type="logical" >  F  F  F </v>
   <v type="logical" >  F  F  F </v>
   <v type="logical" >  T  T  T </v>
   <v type="logical" >  T  T  T </v>
  </varray>
  <nose>
   <v>      -3.00000000       0.00000000       0.00010000       0.00010000 </v>
  </nose>
 </structure>
</modeling>
