clean (100) nickel surface              
           1
     1.765000    1.765000    0.000000
    -1.765000    1.765000    0.000000
     0.000000    0.000000   17.650000
   Ni
     5
Direct configuration=     1
   0.00000000  0.00000000  0.00000000
   0.50000000  0.50000000  0.10000000
   0.00000000  0.00000000  0.20000000
   0.50000000  0.50000000  0.30020998
   0.00000000  0.00000000  0.39550725
