fcc Si                                  
   3.60000000000000     
     0.500000    0.500000    0.000000
     0.000000    0.500000    0.500000
     0.500000    0.000000    0.500000
   Si
     1
Direct
  0.000000  0.000000  0.000000
 
   20   20   20
 -2.0886     -1.5392     -.82458E-01  1.7920      3.5103      4.6511      5.0889      4.9887      4.6761      4.4230    
  4.3287      4.4230      4.6761      4.9887      5.0889      4.6511      3.5103      1.7920     -.82458E-01 -1.5392    
 -1.5392     -.53762      1.1165      2.8810      4.2545      4.9713      5.0669      4.8035      4.5003      4.3204    
  4.3205      4.5003      4.8034      5.0669      4.9713      4.2546      2.8810      1.1163     -.53780     -1.5393    
 -.82458E-01  1.1165      2.6351      3.9853      4.8217      5.0620      4.8725      4.5469      4.2991      4.2079    
  4.2991      4.5469      4.8725      5.0620      4.8217      3.9853      2.6351      1.1164     -.82484E-01 -.53780    
  1.7920      2.8810      3.9853      4.7555      5.0349      4.8959      4.5679      4.2732      4.1048      4.1048    
  4.2732      4.5679      4.8959      5.0349      4.7555      3.9852      2.8810      1.7921      1.1164      1.1163    
  3.5103      4.2545      4.8217      5.0349      4.8995      4.5742      4.2526      4.0278      3.9474      4.0278    
  4.2526      4.5742      4.8995      5.0350      4.8217      4.2546      3.5104      2.8810      2.6351      2.8810    
  4.6511      4.9713      5.0620      4.8959      4.5742      4.2448      3.9871      3.8467      3.8468      3.9872    
  4.2448      4.5741      4.8959      5.0621      4.9713      4.6510      4.2546      3.9852      3.9853      4.2546    
  5.0889      5.0669      4.8725      4.5679      4.2526      3.9871      3.8124      3.7517      3.8124      3.9872    
  4.2526      4.5678      4.8725      5.0669      5.0889      4.9713      4.8217      4.7555      4.8217      4.9713    
  4.9887      4.8035      4.5469      4.2732      4.0278      3.8467      3.7517      3.7517      3.8468      4.0278    
  4.2732      4.5469      4.8034      4.9887      5.0669      5.0621      5.0350      5.0349      5.0620      5.0669    
  4.6761      4.5003      4.2991      4.1048      3.9474      3.8468      3.8124      3.8468      3.9474      4.1048    
  4.2992      4.5003      4.6761      4.8034      4.8725      4.8959      4.8995      4.8959      4.8725      4.8034    
  4.4230      4.3204      4.2079      4.1048      4.0278      3.9872      3.9872      4.0278      4.1048      4.2080    
  4.3205      4.4230      4.5003      4.5469      4.5678      4.5741      4.5742      4.5679      4.5469      4.5003    
  4.3287      4.3205      4.2991      4.2732      4.2526      4.2448      4.2526      4.2732      4.2992      4.3205    
  4.3287      4.3205      4.2992      4.2732      4.2526      4.2448      4.2526      4.2732      4.2991      4.3205    
  4.4230      4.5003      4.5469      4.5679      4.5742      4.5741      4.5678      4.5469      4.5003      4.4230    
  4.3205      4.2080      4.1048      4.0278      3.9872      3.9872      4.0278      4.1048      4.2079      4.3204    
  4.6761      4.8034      4.8725      4.8959      4.8995      4.8959      4.8725      4.8034      4.6761      4.5003    
  4.2992      4.1048      3.9474      3.8468      3.8124      3.8468      3.9474      4.1048      4.2991      4.5003    
  4.9887      5.0669      5.0620      5.0349      5.0350      5.0621      5.0669      4.9887      4.8034      4.5469    
  4.2732      4.0278      3.8468      3.7517      3.7517      3.8467      4.0278      4.2732      4.5469      4.8035    
  5.0889      4.9713      4.8217      4.7555      4.8217      4.9713      5.0889      5.0669      4.8725      4.5678    
  4.2526      3.9872      3.8124      3.7517      3.8124      3.9871      4.2526      4.5679      4.8725      5.0669    
  4.6511      4.2546      3.9853      3.9852      4.2546      4.6510      4.9713      5.0621      4.8959      4.5741    
  4.2448      3.9872      3.8468      3.8467      3.9871      4.2448      4.5742      4.8959      5.0620      4.9713    
  3.5103      2.8810      2.6351      2.8810      3.5104      4.2546      4.8217      5.0350      4.8995      4.5742    
  4.2526      4.0278      3.9474      4.0278      4.2526      4.5742      4.8995      5.0349      4.8217      4.2545    
  1.7920      1.1163      1.1164      1.7921      2.8810      3.9852      4.7555      5.0349      4.8959      4.5679    
  4.2732      4.1048      4.1048      4.2732      4.5679      4.8959      5.0349      4.7555      3.9853      2.8810    
 -.82458E-01 -.53780     -.82484E-01  1.1164      2.6351      3.9853      4.8217      5.0620      4.8725      4.5469    
  4.2991      4.2079      4.2991      4.5469      4.8725      5.0620      4.8217      3.9853      2.6351      1.1165    
 -1.5392     -1.5393     -.53780      1.1163      2.8810      4.2546      4.9713      5.0669      4.8034      4.5003    
  4.3205      4.3204      4.5003      4.8035      5.0669      4.9713      4.2545      2.8810      1.1165     -.53762    
 -1.5392     -.53764      1.1164      2.8810      4.2545      4.9713      5.0669      4.8035      4.5003      4.3204    
  4.3205      4.5003      4.8034      5.0669      4.9713      4.2546      2.8810      1.1163     -.53779     -1.5393    
 -.53764     0.74691      2.3827      3.8527      4.7869      5.0897      4.9275      4.6051      4.3554      4.2630    
  4.3553      4.6051      4.9275      5.0898      4.7871      3.8528      2.3826     0.74667     -.53782     -1.0244    
  1.1164      2.3827      3.6916      4.6456      5.0551      4.9829      4.6702      4.3721      4.1997      4.1997    
  4.3720      4.6702      4.9830      5.0552      4.6456      3.6915      2.3826      1.1164     0.33770     0.33771    
  2.8810      3.8527      4.6456      5.0333      4.9976      4.7021      4.3763      4.1438      4.0599      4.1438    
  4.3763      4.7021      4.9976      5.0333      4.6456      3.8527      2.8810      2.0822      1.7736      2.0822    
  4.2545      4.7869      5.0551      4.9976      4.7111      4.3759      4.1063      3.9572      3.9573      4.1063    
  4.3759      4.7110      4.9976      5.0552      4.7870      4.2546      3.6666      3.2834      3.2834      3.6665    
  4.9713      5.0897      4.9829      4.7021      4.3759      4.0932      3.9038      3.8374      3.9037      4.0932    
  4.3758      4.7021      4.9830      5.0897      4.9713      4.6968      4.4240      4.3110      4.4240      4.6968    
  5.0669      4.9275      4.6702      4.3763      4.1063      3.9038      3.7963      3.7963      3.9038      4.1063    
  4.3763      4.6702      4.9275      5.0669      5.0630      4.9706      4.8875      4.8874      4.9706      5.0629    
  4.8035      4.6051      4.3721      4.1438      3.9572      3.8374      3.7963      3.8374      3.9573      4.1438    
  4.3720      4.6050      4.8034      4.9298      4.9726      4.9656      4.9560      4.9655      4.9726      4.9297    
  4.5003      4.3554      4.1997      4.0599      3.9573      3.9037      3.9038      3.9573      4.0599      4.1997    
  4.3554      4.5003      4.6118      4.6799      4.7095      4.7162      4.7162      4.7095      4.6799      4.6118    
  4.3204      4.2630      4.1997      4.1438      4.1063      4.0932      4.1063      4.1438      4.1997      4.2631    
  4.3205      4.3605      4.3786      4.3793      4.3728      4.3692      4.3728      4.3793      4.3787      4.3605    
  4.3205      4.3553      4.3720      4.3763      4.3759      4.3758      4.3763      4.3720      4.3554      4.3205    
  4.2672      4.2025      4.1382      4.0872      4.0592      4.0592      4.0872      4.1382      4.2025      4.2672    
  4.5003      4.6051      4.6702      4.7021      4.7110      4.7021      4.6702      4.6050      4.5003      4.3605    
  4.2025      4.0504      3.9272      3.8484      3.8214      3.8484      3.9272      4.0504      4.2025      4.3605    
  4.8034      4.9275      4.9830      4.9976      4.9976      4.9830      4.9275      4.8034      4.6118      4.3786    
  4.1382      3.9272      3.7739      3.6942      3.6942      3.7739      3.9272      4.1382      4.3786      4.6118    
  5.0669      5.0898      5.0552      5.0333      5.0552      5.0897      5.0669      4.9298      4.6799      4.3793    
  4.0872      3.8484      3.6942      3.6412      3.6942      3.8484      4.0872      4.3793      4.6799      4.9297    
  4.9713      4.7871      4.6456      4.6456      4.7870      4.9713      5.0630      4.9726      4.7095      4.3728    
  4.0592      3.8214      3.6942      3.6942      3.8214      4.0592      4.3728      4.7095      4.9726      5.0629    
  4.2546      3.8528      3.6915      3.8527      4.2546      4.6968      4.9706      4.9656      4.7162      4.3692    
  4.0592      3.8484      3.7739      3.8484      4.0592      4.3692      4.7162      4.9655      4.9706      4.6969    
  2.8810      2.3826      2.3826      2.8810      3.6666      4.4240      4.8875      4.9560      4.7162      4.3728    
  4.0872      3.9272      3.9272      4.0872      4.3728      4.7162      4.9559      4.8874      4.4240      3.6666    
  1.1163     0.74667      1.1164      2.0822      3.2834      4.3110      4.8874      4.9655      4.7095      4.3793    
  4.1382      4.0504      4.1382      4.3793      4.7095      4.9655      4.8874      4.3110      3.2834      2.0822    
 -.53779     -.53782     0.33770      1.7736      3.2834      4.4240      4.9706      4.9726      4.6799      4.3787    
  4.2025      4.2025      4.3786      4.6799      4.9726      4.9706      4.4240      3.2834      1.7736     0.33773    
 -1.5393     -1.0244     0.33771      2.0822      3.6665      4.6968      5.0629      4.9297      4.6118      4.3605    
  4.2672      4.3605      4.6118      4.9297      5.0629      4.6969      3.6666      2.0822     0.33773     -1.0244    
 -.82486E-01  1.1164      2.6351      3.9853      4.8217      5.0620      4.8726      4.5469      4.2991      4.2079    
  4.2992      4.5469      4.8725      5.0620      4.8217      3.9853      2.6351      1.1164     -.82486E-01 -.53781    
  1.1164      2.3827      3.6916      4.6456      5.0551      4.9829      4.6702      4.3721      4.1997      4.1997    
  4.3720      4.6702      4.9830      5.0552      4.6456      3.6915      2.3826      1.1164     0.33769     0.33770    
  2.6351      3.6916      4.5692      5.0234      5.0271      4.7453      4.4188      4.1840      4.0989      4.1840    
  4.4188      4.7453      5.0271      5.0234      4.5692      3.6915      2.6351      1.7735      1.4417      1.7736    
  3.9853      4.6456      5.0234      5.0367      4.7785      4.4432      4.1685      4.0154      4.0155      4.1686    
  4.4432      4.7784      5.0367      5.0234      4.6457      3.9853      3.2834      2.8331      2.8331      3.2834    
  4.8217      5.0551      5.0271      4.7785      4.4506      4.1594      3.9617      3.8920      3.9617      4.1594    
  4.4506      4.7785      5.0271      5.0551      4.8217      4.4240      4.0562      3.9076      4.0562      4.4240    
  5.0620      4.9829      4.7453      4.4432      4.1594      3.9434      3.8279      3.8279      3.9434      4.1593    
  4.4432      4.7453      4.9830      5.0620      4.9706      4.7919      4.6551      4.6552      4.7919      4.9706    
  4.8726      4.6702      4.4188      4.1685      3.9617      3.8279      3.7819      3.8279      3.9617      4.1685    
  4.4188      4.6702      4.8725      4.9726      4.9701      4.9212      4.8948      4.9212      4.9701      4.9726    
  4.5469      4.3721      4.1840      4.0154      3.8920      3.8279      3.8279      3.8921      4.0155      4.1840    
  4.3720      4.5469      4.6799      4.7550      4.7764      4.7736      4.7736      4.7763      4.7549      4.6799    
  4.2991      4.1997      4.0989      4.0155      3.9617      3.9434      3.9617      4.0155      4.0990      4.1997    
  4.2992      4.3786      4.4272      4.4466      4.4488      4.4475      4.4488      4.4466      4.4272      4.3786    
  4.2079      4.1997      4.1840      4.1686      4.1594      4.1593      4.1685      4.1840      4.1997      4.2080    
  4.2025      4.1820      4.1518      4.1223      4.1041      4.1041      4.1223      4.1519      4.1820      4.2024    
  4.2992      4.3720      4.4188      4.4432      4.4506      4.4432      4.4188      4.3720      4.2992      4.2025    
  4.0921      3.9836      3.8937      3.8349      3.8146      3.8349      3.8937      3.9836      4.0921      4.2025    
  4.5469      4.6702      4.7453      4.7784      4.7785      4.7453      4.6702      4.5469      4.3786      4.1820    
  3.9836      3.8118      3.6879      3.6238      3.6238      3.6879      3.8117      3.9836      4.1820      4.3787    
  4.8725      4.9830      5.0271      5.0367      5.0271      4.9830      4.8725      4.6799      4.4272      4.1518    
  3.8937      3.6879      3.5575      3.5131      3.5575      3.6879      3.8937      4.1518      4.4272      4.6799    
  5.0620      5.0552      5.0234      5.0234      5.0551      5.0620      4.9726      4.7550      4.4466      4.1223    
  3.8349      3.6238      3.5131      3.5130      3.6238      3.8350      4.1223      4.4466      4.7549      4.9725    
  4.8217      4.6456      4.5692      4.6457      4.8217      4.9706      4.9701      4.7764      4.4488      4.1041    
  3.8146      3.6238      3.5575      3.6238      3.8146      4.1041      4.4488      4.7764      4.9701      4.9706    
  3.9853      3.6915      3.6915      3.9853      4.4240      4.7919      4.9212      4.7736      4.4475      4.1041    
  3.8349      3.6879      3.6879      3.8350      4.1041      4.4474      4.7736      4.9213      4.7919      4.4240    
  2.6351      2.3826      2.6351      3.2834      4.0562      4.6551      4.8948      4.7736      4.4488      4.1223    
  3.8937      3.8117      3.8937      4.1223      4.4488      4.7736      4.8948      4.6551      4.0562      3.2834    
  1.1164      1.1164      1.7735      2.8331      3.9076      4.6552      4.9212      4.7763      4.4466      4.1519    
  3.9836      3.9836      4.1518      4.4466      4.7764      4.9213      4.6551      3.9075      2.8331      1.7736    
 -.82486E-01 0.33769      1.4417      2.8331      4.0562      4.7919      4.9701      4.7549      4.4272      4.1820    
  4.0921      4.1820      4.4272      4.7549      4.9701      4.7919      4.0562      2.8331      1.4417     0.33771    
 -.53781     0.33770      1.7736      3.2834      4.4240      4.9706      4.9726      4.6799      4.3786      4.2024    
  4.2025      4.3787      4.6799      4.9725      4.9706      4.4240      3.2834      1.7736     0.33771     -.53781    
  1.7920      2.8810      3.9853      4.7556      5.0349      4.8959      4.5679      4.2733      4.1048      4.1048    
  4.2732      4.5679      4.8959      5.0349      4.7555      3.9853      2.8810      1.7921      1.1164      1.1163    
  2.8810      3.8528      4.6456      5.0333      4.9976      4.7021      4.3763      4.1438      4.0599      4.1438    
  4.3763      4.7021      4.9975      5.0333      4.6456      3.8527      2.8810      2.0822      1.7736      2.0822    
  3.9853      4.6456      5.0234      5.0367      4.7784      4.4432      4.1685      4.0154      4.0155      4.1686    
  4.4432      4.7784      5.0366      5.0234      4.6457      3.9853      3.2834      2.8331      2.8331      3.2834    
  4.7556      5.0333      5.0367      4.8024      4.4754      4.1818      3.9817      3.9109      3.9817      4.1819    
  4.4755      4.8024      5.0366      5.0333      4.7556      4.3111      3.9076      3.7456      3.9075      4.3110    
  5.0349      4.9976      4.7784      4.4754      4.1860      3.9640      3.8446      3.8446      3.9639      4.1860    
  4.4755      4.7785      4.9975      5.0349      4.8875      4.6552      4.4856      4.4856      4.6551      4.8874    
  4.8959      4.7021      4.4432      4.1818      3.9640      3.8221      3.7732      3.8221      3.9639      4.1818    
  4.4432      4.7022      4.8959      4.9655      4.9212      4.8364      4.7959      4.8365      4.9212      4.9655    
  4.5679      4.3763      4.1685      3.9817      3.8446      3.7732      3.7732      3.8446      3.9817      4.1685    
  4.3763      4.5679      4.7095      4.7763      4.7801      4.7637      4.7637      4.7802      4.7764      4.7095    
  4.2733      4.1438      4.0154      3.9109      3.8446      3.8221      3.8446      3.9110      4.0155      4.1438    
  4.2732      4.3793      4.4466      4.4754      4.4793      4.4775      4.4793      4.4755      4.4466      4.3794    
  4.1048      4.0599      4.0155      3.9817      3.9639      3.9639      3.9817      4.0155      4.0599      4.1049    
  4.1382      4.1518      4.1462      4.1305      4.1181      4.1181      4.1306      4.1462      4.1518      4.1382    
  4.1048      4.1438      4.1686      4.1819      4.1860      4.1818      4.1685      4.1438      4.1049      4.0505    
  3.9837      3.9126      3.8492      3.8054      3.7898      3.8055      3.8493      3.9126      3.9836      4.0504    
  4.2732      4.3763      4.4432      4.4755      4.4755      4.4432      4.3763      4.2732      4.1382      3.9837    
  3.8285      3.6934      3.5952      3.5440      3.5440      3.5952      3.6934      3.8285      3.9836      4.1382    
  4.5679      4.7021      4.7784      4.8024      4.7785      4.7022      4.5679      4.3793      4.1518      3.9126    
  3.6934      3.5213      3.4132      3.3766      3.4132      3.5213      3.6934      3.9126      4.1519      4.3794    
  4.8959      4.9975      5.0366      5.0366      4.9975      4.8959      4.7095      4.4466      4.1462      3.8492    
  3.5952      3.4132      3.3192      3.3192      3.4132      3.5952      3.8492      4.1462      4.4466      4.7095    
  5.0349      5.0333      5.0234      5.0333      5.0349      4.9655      4.7763      4.4754      4.1305      3.8054    
  3.5440      3.3766      3.3192      3.3766      3.5440      3.8054      4.1305      4.4754      4.7763      4.9655    
  4.7555      4.6456      4.6457      4.7556      4.8875      4.9212      4.7801      4.4793      4.1181      3.7898    
  3.5440      3.4132      3.4132      3.5440      3.7898      4.1181      4.4794      4.7802      4.9212      4.8874    
  3.9853      3.8527      3.9853      4.3111      4.6552      4.8364      4.7637      4.4775      4.1181      3.8055    
  3.5952      3.5213      3.5952      3.8054      4.1181      4.4775      4.7638      4.8365      4.6552      4.3111    
  2.8810      2.8810      3.2834      3.9076      4.4856      4.7959      4.7637      4.4793      4.1306      3.8493    
  3.6934      3.6934      3.8492      4.1305      4.4794      4.7638      4.7959      4.4856      3.9076      3.2834    
  1.7921      2.0822      2.8331      3.7456      4.4856      4.8365      4.7802      4.4755      4.1462      3.9126    
  3.8285      3.9126      4.1462      4.4754      4.7802      4.8365      4.4856      3.7456      2.8331      2.0822    
  1.1164      1.7736      2.8331      3.9075      4.6551      4.9212      4.7764      4.4466      4.1518      3.9836    
  3.9836      4.1519      4.4466      4.7763      4.9212      4.6552      3.9076      2.8331      1.7735      1.1164    
  1.1163      2.0822      3.2834      4.3110      4.8874      4.9655      4.7095      4.3794      4.1382      4.0504    
  4.1382      4.3794      4.7095      4.9655      4.8874      4.3111      3.2834      2.0822      1.1164     0.74668    
  3.5103      4.2545      4.8217      5.0349      4.8995      4.5742      4.2526      4.0278      3.9473      4.0278    
  4.2526      4.5742      4.8995      5.0350      4.8217      4.2546      3.5103      2.8810      2.6351      2.8810    
  4.2545      4.7870      5.0551      4.9976      4.7111      4.3759      4.1063      3.9572      3.9572      4.1063    
  4.3759      4.7110      4.9975      5.0552      4.7870      4.2546      3.6665      3.2834      3.2834      3.6665    
  4.8217      5.0551      5.0271      4.7784      4.4506      4.1594      3.9617      3.8920      3.9617      4.1594    
  4.4506      4.7784      5.0271      5.0551      4.8217      4.4240      4.0562      3.9076      4.0562      4.4240    
  5.0349      4.9976      4.7784      4.4754      4.1859      3.9639      3.8446      3.8446      3.9639      4.1860    
  4.4755      4.7785      4.9975      5.0349      4.8875      4.6552      4.4856      4.4856      4.6551      4.8874    
  4.8995      4.7111      4.4506      4.1859      3.9647      3.8203      3.7705      3.8203      3.9647      4.1860    
  4.4506      4.7111      4.8995      4.9559      4.8948      4.7959      4.7499      4.7959      4.8947      4.9559    
  4.5742      4.3759      4.1594      3.9639      3.8203      3.7454      3.7454      3.8203      3.9639      4.1593    
  4.3759      4.5742      4.7162      4.7735      4.7637      4.7377      4.7377      4.7638      4.7735      4.7161    
  4.2526      4.1063      3.9617      3.8446      3.7705      3.7454      3.7705      3.8446      3.9617      4.1063    
  4.2526      4.3728      4.4488      4.4793      4.4799      4.4760      4.4799      4.4794      4.4488      4.3728    
  4.0278      3.9572      3.8920      3.8446      3.8203      3.8203      3.8446      3.8921      3.9573      4.0278    
  4.0872      4.1223      4.1306      4.1216      4.1113      4.1113      4.1216      4.1306      4.1223      4.0872    
  3.9473      3.9572      3.9617      3.9639      3.9647      3.9639      3.9617      3.9573      3.9474      3.9272    
  3.8937      3.8492      3.8030      3.7677      3.7545      3.7677      3.8030      3.8492      3.8937      3.9272    
  4.0278      4.1063      4.1594      4.1860      4.1860      4.1593      4.1063      4.0278      3.9272      3.8118    
  3.6934      3.5870      3.5069      3.4641      3.4641      3.5069      3.5870      3.6934      3.8117      3.9272    
  4.2526      4.3759      4.4506      4.4755      4.4506      4.3759      4.2526      4.0872      3.8937      3.6934    
  3.5107      3.3668      3.2760      3.2450      3.2760      3.3668      3.5107      3.6934      3.8937      4.0872    
  4.5742      4.7110      4.7784      4.7785      4.7111      4.5742      4.3728      4.1223      3.8492      3.5870    
  3.3668      3.2111      3.1312      3.1312      3.2110      3.3668      3.5870      3.8493      4.1223      4.3728    
  4.8995      4.9975      5.0271      4.9975      4.8995      4.7162      4.4488      4.1306      3.8030      3.5069    
  3.2760      3.1312      3.0821      3.1312      3.2760      3.5069      3.8030      4.1306      4.4488      4.7162    
  5.0350      5.0552      5.0551      5.0349      4.9559      4.7735      4.4793      4.1216      3.7677      3.4641    
  3.2450      3.1312      3.1312      3.2451      3.4641      3.7677      4.1216      4.4793      4.7736      4.9559    
  4.8217      4.7870      4.8217      4.8875      4.8948      4.7637      4.4799      4.1113      3.7545      3.4641    
  3.2760      3.2110      3.2760      3.4641      3.7545      4.1113      4.4799      4.7637      4.8948      4.8875    
  4.2546      4.2546      4.4240      4.6552      4.7959      4.7377      4.4760      4.1113      3.7677      3.5069    
  3.3668      3.3668      3.5069      3.7677      4.1113      4.4761      4.7377      4.7959      4.6552      4.4240    
  3.5103      3.6665      4.0562      4.4856      4.7499      4.7377      4.4799      4.1216      3.8030      3.5870    
  3.5107      3.5870      3.8030      4.1216      4.4799      4.7377      4.7499      4.4856      4.0562      3.6665    
  2.8810      3.2834      3.9076      4.4856      4.7959      4.7638      4.4794      4.1306      3.8492      3.6934    
  3.6934      3.8493      4.1306      4.4793      4.7637      4.7959      4.4856      3.9076      3.2834      2.8810    
  2.6351      3.2834      4.0562      4.6551      4.8947      4.7735      4.4488      4.1223      3.8937      3.8117    
  3.8937      4.1223      4.4488      4.7736      4.8948      4.6552      4.0562      3.2834      2.6351      2.3826    
  2.8810      3.6665      4.4240      4.8874      4.9559      4.7161      4.3728      4.0872      3.9272      3.9272    
  4.0872      4.3728      4.7162      4.9559      4.8875      4.4240      3.6665      2.8810      2.3826      2.3826    
  4.6510      4.9713      5.0620      4.8959      4.5741      4.2448      3.9872      3.8467      3.8467      3.9872    
  4.2448      4.5741      4.8959      5.0621      4.9713      4.6510      4.2545      3.9853      3.9853      4.2546    
  4.9713      5.0897      4.9829      4.7021      4.3759      4.0932      3.9038      3.8374      3.9037      4.0932    
  4.3759      4.7021      4.9829      5.0897      4.9713      4.6968      4.4240      4.3110      4.4240      4.6968    
  5.0620      4.9829      4.7453      4.4432      4.1594      3.9434      3.8279      3.8278      3.9434      4.1593    
  4.4432      4.7453      4.9829      5.0620      4.9706      4.7919      4.6551      4.6552      4.7919      4.9706    
  4.8959      4.7021      4.4432      4.1818      3.9639      3.8221      3.7732      3.8221      3.9639      4.1818    
  4.4432      4.7022      4.8959      4.9655      4.9212      4.8364      4.7959      4.8365      4.9213      4.9655    
  4.5741      4.3759      4.1594      3.9639      3.8203      3.7454      3.7454      3.8203      3.9639      4.1593    
  4.3759      4.5742      4.7162      4.7736      4.7637      4.7377      4.7377      4.7638      4.7735      4.7161    
  4.2448      4.0932      3.9434      3.8221      3.7454      3.7194      3.7454      3.8221      3.9434      4.0932    
  4.2448      4.3692      4.4475      4.4775      4.4760      4.4711      4.4761      4.4775      4.4474      4.3692    
  3.9872      3.9038      3.8279      3.7732      3.7454      3.7454      3.7732      3.8279      3.9038      3.9872    
  4.0592      4.1041      4.1181      4.1113      4.1013      4.1013      4.1113      4.1181      4.1041      4.0592    
  3.8467      3.8374      3.8278      3.8221      3.8203      3.8221      3.8279      3.8374      3.8467      3.8484    
  3.8349      3.8054      3.7678      3.7361      3.7237      3.7360      3.7677      3.8054      3.8350      3.8484    
  3.8467      3.9037      3.9434      3.9639      3.9639      3.9434      3.9038      3.8467      3.7739      3.6879    
  3.5952      3.5069      3.4370      3.3983      3.3983      3.4370      3.5069      3.5952      3.6879      3.7739    
  3.9872      4.0932      4.1593      4.1818      4.1593      4.0932      3.9872      3.8484      3.6879      3.5213    
  3.3668      3.2424      3.1622      3.1345      3.1622      3.2424      3.3668      3.5213      3.6879      3.8484    
  4.2448      4.3759      4.4432      4.4432      4.3759      4.2448      4.0592      3.8349      3.5952      3.3668    
  3.1751      3.0388      2.9685      2.9685      3.0388      3.1751      3.3668      3.5952      3.8349      4.0592    
  4.5741      4.7021      4.7453      4.7022      4.5742      4.3692      4.1041      3.8054      3.5069      3.2424    
  3.0388      2.9120      2.8692      2.9120      3.0388      3.2424      3.5069      3.8055      4.1041      4.3692    
  4.8959      4.9829      4.9829      4.8959      4.7162      4.4475      4.1181      3.7678      3.4370      3.1622    
  2.9685      2.8692      2.8693      2.9685      3.1622      3.4370      3.7677      4.1181      4.4475      4.7162    
  5.0621      5.0897      5.0620      4.9655      4.7736      4.4775      4.1113      3.7361      3.3983      3.1345    
  2.9685      2.9120      2.9685      3.1345      3.3983      3.7360      4.1113      4.4775      4.7736      4.9656    
  4.9713      4.9713      4.9706      4.9212      4.7637      4.4760      4.1013      3.7237      3.3983      3.1622    
  3.0388      3.0388      3.1622      3.3983      3.7237      4.1013      4.4760      4.7637      4.9212      4.9707    
  4.6510      4.6968      4.7919      4.8364      4.7377      4.4711      4.1013      3.7360      3.4370      3.2424    
  3.1751      3.2424      3.4370      3.7360      4.1013      4.4711      4.7377      4.8365      4.7919      4.6968    
  4.2545      4.4240      4.6551      4.7959      4.7377      4.4761      4.1113      3.7677      3.5069      3.3668    
  3.3668      3.5069      3.7677      4.1113      4.4760      4.7377      4.7960      4.6552      4.4240      4.2546    
  3.9853      4.3110      4.6552      4.8365      4.7638      4.4775      4.1181      3.8054      3.5952      3.5213    
  3.5952      3.8055      4.1181      4.4775      4.7637      4.8365      4.6552      4.3111      3.9853      3.8528    
  3.9853      4.4240      4.7919      4.9213      4.7735      4.4474      4.1041      3.8350      3.6879      3.6879    
  3.8349      4.1041      4.4475      4.7736      4.9212      4.7919      4.4240      3.9853      3.6915      3.6915    
  4.2546      4.6968      4.9706      4.9655      4.7161      4.3692      4.0592      3.8484      3.7739      3.8484    
  4.0592      4.3692      4.7162      4.9656      4.9707      4.6968      4.2546      3.8528      3.6915      3.8528    
  5.0889      5.0669      4.8726      4.5679      4.2526      3.9872      3.8124      3.7517      3.8124      3.9872    
  4.2526      4.5679      4.8725      5.0669      5.0890      4.9713      4.8217      4.7555      4.8217      4.9713    
  5.0669      4.9275      4.6702      4.3763      4.1063      3.9038      3.7964      3.7963      3.9037      4.1063    
  4.3763      4.6702      4.9274      5.0669      5.0630      4.9706      4.8874      4.8874      4.9706      5.0629    
  4.8726      4.6702      4.4188      4.1685      3.9617      3.8279      3.7819      3.8279      3.9617      4.1685    