fcc Si                                  
   3.60000000000000     
     0.500000    0.500000    0.000000
     0.000000    0.500000    0.500000
     0.500000    0.000000    0.500000
   Si
     1
Direct
  0.000000  0.000000  0.000000
 
   20   20   20
 -.20886067738E+01 -.15391806611E+01 -.82457784648E-01 0.17919848759E+01 0.35103254664E+01
 0.46510507611E+01 0.50889352526E+01 0.49886893446E+01 0.46761183569E+01 0.44230204673E+01
 0.43286910787E+01 0.44230204673E+01 0.46761183569E+01 0.49886893446E+01 0.50889352526E+01
 0.46510507611E+01 0.35103254664E+01 0.17919848759E+01 -.82457784648E-01 -.15391806611E+01
 -.15391806611E+01 -.53761690375E+00 0.11164537121E+01 0.28809744606E+01 0.42545342202E+01
 0.49712865467E+01 0.50669358067E+01 0.48034850991E+01 0.45003130640E+01 0.43204428485E+01
 0.43204631984E+01 0.45003313203E+01 0.48034472628E+01 0.50668772204E+01 0.49712902239E+01
 0.42545975025E+01 0.28809884133E+01 0.11163362397E+01 -.53780011039E+00 -.15392692041E+01
 -.82457784648E-01 0.11164537121E+01 0.26351332010E+01 0.39852974949E+01 0.48217012387E+01
 0.50620266637E+01 0.48725465823E+01 0.45469033964E+01 0.42991445002E+01 0.42079167698E+01
 0.42991418763E+01 0.45468878864E+01 0.48725262198E+01 0.50620193169E+01 0.48216981344E+01
 0.39852693613E+01 0.26350781481E+01 0.11164017143E+01 -.82484074677E-01 -.53780011039E+00
 0.17919848759E+01 0.28809744606E+01 0.39852974949E+01 0.47555450940E+01 0.50349308497E+01
 0.48959131932E+01 0.45678793643E+01 0.42732471869E+01 0.41048300698E+01 0.41048160970E+01
 0.42732239947E+01 0.45678812309E+01 0.48959403978E+01 0.50349343013E+01 0.47554936747E+01
 0.39852478891E+01 0.28810163091E+01 0.17921030524E+01 0.11164017143E+01 0.11163362397E+01
 0.35103254664E+01 0.42545342202E+01 0.48217012387E+01 0.50349308497E+01 0.48995088491E+01
 0.45741601457E+01 0.42526102225E+01 0.40278008013E+01 0.39473616881E+01 0.40278068182E+01
 0.42526059132E+01 0.45741522354E+01 0.48995229029E+01 0.50349649011E+01 0.48217297237E+01
 0.42545539155E+01 0.35103528475E+01 0.28810163091E+01 0.26350781481E+01 0.28809884133E+01
 0.46510507611E+01 0.49712865467E+01 0.50620266637E+01 0.48959131932E+01 0.45741601457E+01
 0.42448200550E+01 0.39871433245E+01 0.38467408696E+01 0.38467593819E+01 0.39871663452E+01
 0.42448085574E+01 0.45741382159E+01 0.48959325037E+01 0.50620818013E+01 0.49713205847E+01
 0.46510327809E+01 0.42545539155E+01 0.39852478891E+01 0.39852693613E+01 0.42545975025E+01
 0.50889352526E+01 0.50669358067E+01 0.48725465823E+01 0.45678793643E+01 0.42526102225E+01
 0.39871433245E+01 0.38123964580E+01 0.37517169732E+01 0.38124196001E+01 0.39871587154E+01
 0.42525984251E+01 0.45678495295E+01 0.48725159048E+01 0.50669168584E+01 0.50889389430E+01
 0.49713205847E+01 0.48217297237E+01 0.47554936747E+01 0.48216981344E+01 0.49712902239E+01
 0.49886893446E+01 0.48034850991E+01 0.45469033964E+01 0.42732471869E+01 0.40278008013E+01
 0.38467408696E+01 0.37517169732E+01 0.37517229920E+01 0.38467515248E+01 0.40277990407E+01
 0.42732225368E+01 0.45468591585E+01 0.48034409765E+01 0.49886789602E+01 0.50669168584E+01
 0.50620818013E+01 0.50349649011E+01 0.50349343013E+01 0.50620193169E+01 0.50668772204E+01
 0.46761183569E+01 0.45003130640E+01 0.42991445002E+01 0.41048300698E+01 0.39473616881E+01
 0.38467593819E+01 0.38124196001E+01 0.38467515248E+01 0.39473548679E+01 0.41048314769E+01
 0.42991512827E+01 0.45003199696E+01 0.46761195406E+01 0.48034409765E+01 0.48725159048E+01
 0.48959325037E+01 0.48995229029E+01 0.48959403978E+01 0.48725262198E+01 0.48034472628E+01
 0.44230204673E+01 0.43204428485E+01 0.42079167698E+01 0.41048160970E+01 0.40278068182E+01
 0.39871663452E+01 0.39871587154E+01 0.40277990407E+01 0.41048314769E+01 0.42079535955E+01
 0.43204768108E+01 0.44230328267E+01 0.45003199696E+01 0.45468591585E+01 0.45678495295E+01
 0.45741382159E+01 0.45741522354E+01 0.45678812309E+01 0.45468878864E+01 0.45003313203E+01
 0.43286910787E+01 0.43204631984E+01 0.42991418763E+01 0.42732239947E+01 0.42526059132E+01
 0.42448085574E+01 0.42525984251E+01 0.42732225368E+01 0.42991512827E+01 0.43204768108E+01
 0.43287041228E+01 0.43204768108E+01 0.42991512827E+01 0.42732225368E+01 0.42525984251E+01
 0.42448085574E+01 0.42526059132E+01 0.42732239947E+01 0.42991418763E+01 0.43204631984E+01
 0.44230204673E+01 0.45003313203E+01 0.45468878864E+01 0.45678812309E+01 0.45741522354E+01
 0.45741382159E+01 0.45678495295E+01 0.45468591585E+01 0.45003199696E+01 0.44230328267E+01
 0.43204768108E+01 0.42079535955E+01 0.41048314769E+01 0.40277990407E+01 0.39871587154E+01
 0.39871663452E+01 0.40278068182E+01 0.41048160970E+01 0.42079167698E+01 0.43204428485E+01
 0.46761183569E+01 0.48034472628E+01 0.48725262198E+01 0.48959403978E+01 0.48995229029E+01
 0.48959325037E+01 0.48725159048E+01 0.48034409765E+01 0.46761195406E+01 0.45003199696E+01
 0.42991512827E+01 0.41048314769E+01 0.39473548679E+01 0.38467515248E+01 0.38124196001E+01
 0.38467593819E+01 0.39473616881E+01 0.41048300698E+01 0.42991445002E+01 0.45003130640E+01
 0.49886893446E+01 0.50668772204E+01 0.50620193169E+01 0.50349343013E+01 0.50349649011E+01
 0.50620818013E+01 0.50669168584E+01 0.49886789602E+01 0.48034409765E+01 0.45468591585E+01
 0.42732225368E+01 0.40277990407E+01 0.38467515248E+01 0.37517229920E+01 0.37517169732E+01
 0.38467408696E+01 0.40278008013E+01 0.42732471869E+01 0.45469033964E+01 0.48034850991E+01
 0.50889352526E+01 0.49712902239E+01 0.48216981344E+01 0.47554936747E+01 0.48217297237E+01
 0.49713205847E+01 0.50889389430E+01 0.50669168584E+01 0.48725159048E+01 0.45678495295E+01
 0.42525984251E+01 0.39871587154E+01 0.38124196001E+01 0.37517169732E+01 0.38123964580E+01
 0.39871433245E+01 0.42526102225E+01 0.45678793643E+01 0.48725465823E+01 0.50669358067E+01
 0.46510507611E+01 0.42545975025E+01 0.39852693613E+01 0.39852478891E+01 0.42545539155E+01
 0.46510327809E+01 0.49713205847E+01 0.50620818013E+01 0.48959325037E+01 0.45741382159E+01
 0.42448085574E+01 0.39871663452E+01 0.38467593819E+01 0.38467408696E+01 0.39871433245E+01
 0.42448200550E+01 0.45741601457E+01 0.48959131932E+01 0.50620266637E+01 0.49712865467E+01
 0.35103254664E+01 0.28809884133E+01 0.26350781481E+01 0.28810163091E+01 0.35103528475E+01
 0.42545539155E+01 0.48217297237E+01 0.50349649011E+01 0.48995229029E+01 0.45741522354E+01
 0.42526059132E+01 0.40278068182E+01 0.39473616881E+01 0.40278008013E+01 0.42526102225E+01
 0.45741601457E+01 0.48995088491E+01 0.50349308497E+01 0.48217012387E+01 0.42545342202E+01
 0.17919848759E+01 0.11163362397E+01 0.11164017143E+01 0.17921030524E+01 0.28810163091E+01
 0.39852478891E+01 0.47554936747E+01 0.50349343013E+01 0.48959403978E+01 0.45678812309E+01
 0.42732239947E+01 0.41048160970E+01 0.41048300698E+01 0.42732471869E+01 0.45678793643E+01
 0.48959131932E+01 0.50349308497E+01 0.47555450940E+01 0.39852974949E+01 0.28809744606E+01
 -.82457784648E-01 -.53780011039E+00 -.82484074677E-01 0.11164017143E+01 0.26350781481E+01
 0.39852693613E+01 0.48216981344E+01 0.50620193169E+01 0.48725262198E+01 0.45468878864E+01
 0.42991418763E+01 0.42079167698E+01 0.42991445002E+01 0.45469033964E+01 0.48725465823E+01
 0.50620266637E+01 0.48217012387E+01 0.39852974949E+01 0.26351332010E+01 0.11164537121E+01
 -.15391806611E+01 -.15392692041E+01 -.53780011039E+00 0.11163362397E+01 0.28809884133E+01
 0.42545975025E+01 0.49712902239E+01 0.50668772204E+01 0.48034472628E+01 0.45003313203E+01
 0.43204631984E+01 0.43204428485E+01 0.45003130640E+01 0.48034850991E+01 0.50669358067E+01
 0.49712865467E+01 0.42545342202E+01 0.28809744606E+01 0.11164537121E+01 -.53761690375E+00
 -.15391934098E+01 -.53763704042E+00 0.11164425428E+01 0.28809722631E+01 0.42545304403E+01
 0.49712828029E+01 0.50669403709E+01 0.48034925560E+01 0.45003123905E+01 0.43204387660E+01
 0.43204673131E+01 0.45003393970E+01 0.48034475525E+01 0.50668738745E+01 0.49712959139E+01
 0.42546098803E+01 0.28809959091E+01 0.11163396622E+01 -.53779389348E+00 -.15392670317E+01
 -.53763704042E+00 0.74690942918E+00 0.23827133861E+01 0.38527451159E+01 0.47869494036E+01
 0.50897174403E+01 0.49275305279E+01 0.46051378217E+01 0.43553661348E+01 0.42630208376E+01
 0.43553340337E+01 0.46050642078E+01 0.49274697355E+01 0.50897524344E+01 0.47870562449E+01
 0.38527801744E+01 0.23825787822E+01 0.74666962886E+00 -.53781761818E+00 -.10244438208E+01
 0.11164425428E+01 0.23827133861E+01 0.36915776522E+01 0.46456082392E+01 0.50551098009E+01
 0.49829287060E+01 0.46702108664E+01 0.43720639962E+01 0.41996852880E+01 0.41996529110E+01
 0.43719902735E+01 0.46701615039E+01 0.49829602513E+01 0.50551878615E+01 0.46456260437E+01
 0.36914889725E+01 0.23825919491E+01 0.11163725632E+01 0.33769825656E+00 0.33771478496E+00
 0.28809722631E+01 0.38527451159E+01 0.46456082392E+01 0.50333066273E+01 0.49975580330E+01
 0.47021362752E+01 0.43762839200E+01 0.41438061956E+01 0.40598949910E+01 0.41438243973E+01
 0.43762875376E+01 0.47021217188E+01 0.49975526470E+01 0.50333115874E+01 0.46456056430E+01
 0.38527498354E+01 0.28810138669E+01 0.20822225984E+01 0.17735703802E+01 0.20821713763E+01
 0.42545304403E+01 0.47869494036E+01 0.50551098009E+01 0.49975580330E+01 0.47110872152E+01
 0.43758717170E+01 0.41062667458E+01 0.39572324986E+01 0.39572628754E+01 0.41063072458E+01
 0.43758535765E+01 0.47110353901E+01 0.49975525264E+01 0.50551688294E+01 0.47870193814E+01
 0.42545662378E+01 0.36665512442E+01 0.32834343150E+01 0.32834350776E+01 0.36665452135E+01
 0.49712828029E+01 0.50897174403E+01 0.49829287060E+01 0.47021362752E+01 0.43758717170E+01
 0.40931950093E+01 0.39037528922E+01 0.38373582699E+01 0.39037477657E+01 0.40931714314E+01
 0.43758417001E+01 0.47021316774E+01 0.49829552026E+01 0.50897429385E+01 0.49712866642E+01
 0.46968364012E+01 0.44239860795E+01 0.43110384653E+01 0.44239899484E+01 0.46968435300E+01
 0.50669403709E+01 0.49275305279E+01 0.46702108664E+01 0.43762839200E+01 0.41062667458E+01
 0.39037528922E+01 0.37963351599E+01 0.37963332534E+01 0.39037513490E+01 0.41062666044E+01
 0.43762713458E+01 0.46701632059E+01 0.49274569281E+01 0.50668949721E+01 0.50629578350E+01
 0.49706466899E+01 0.48874554035E+01 0.48874129732E+01 0.49705670619E+01 0.50629280270E+01
 0.48034925560E+01 0.46051378217E+01 0.43720639962E+01 0.41438061956E+01 0.39572324986E+01
 0.38373582699E+01 0.37963332534E+01 0.38373960089E+01 0.39572712013E+01 0.41437996825E+01
 0.43719973084E+01 0.46050459818E+01 0.48034369221E+01 0.49297578484E+01 0.49726329689E+01
 0.49655642013E+01 0.49559523672E+01 0.49654958786E+01 0.49725543896E+01 0.49297360669E+01
 0.45003123905E+01 0.43553661348E+01 0.41996852880E+01 0.40598949910E+01 0.39572628754E+01
 0.39037477657E+01 0.39037513490E+01 0.39572712013E+01 0.40599019482E+01 0.41996842988E+01
 0.43553602683E+01 0.45003127838E+01 0.46117575896E+01 0.46799185330E+01 0.47094599616E+01
 0.47162075598E+01 0.47162144354E+01 0.47094710516E+01 0.46799198065E+01 0.46117515927E+01
 0.43204387660E+01 0.42630208376E+01 0.41996529110E+01 0.41438243973E+01 0.41063072458E+01
 0.40931714314E+01 0.41062666044E+01 0.41437996825E+01 0.41996842988E+01 0.42630861048E+01
 0.43204855921E+01 0.43604662518E+01 0.43786234369E+01 0.43793071461E+01 0.43727849273E+01
 0.43692225903E+01 0.43728095467E+01 0.43793442947E+01 0.43786529874E+01 0.43604635800E+01
 0.43204673131E+01 0.43553340337E+01 0.43719902735E+01 0.43762875376E+01 0.43758535765E+01
 0.43758417001E+01 0.43762713458E+01 0.43719973084E+01 0.43553602683E+01 0.43204855921E+01
 0.42672158034E+01 0.42024812899E+01 0.41382239558E+01 0.40871920061E+01 0.40591597360E+01
 0.40591521154E+01 0.40871774984E+01 0.41382187921E+01 0.42024880547E+01 0.42672174500E+01
 0.45003393970E+01 0.46050642078E+01 0.46701615039E+01 0.47021217188E+01 0.47110353901E+01
 0.47021316774E+01 0.46701632059E+01 0.46050459818E+01 0.45003127838E+01 0.43604662518E+01
 0.42024812899E+01 0.40504374058E+01 0.39271948192E+01 0.38483646061E+01 0.38214374634E+01
 0.38483593874E+01 0.39271755921E+01 0.40504071755E+01 0.42024624780E+01 0.43604757391E+01
 0.48034475525E+01 0.49274697355E+01 0.49829602513E+01 0.49975526470E+01 0.49975525264E+01
 0.49829552026E+01 0.49274569281E+01 0.48034369221E+01 0.46117575896E+01 0.43786234369E+01
 0.41382239558E+01 0.39271948192E+01 0.37738889185E+01 0.36942305037E+01 0.36942392452E+01
 0.37739070022E+01 0.39272042638E+01 0.41382166467E+01 0.43786082407E+01 0.46117525560E+01
 0.50668738745E+01 0.50897524344E+01 0.50551878615E+01 0.50333115874E+01 0.50551688294E+01
 0.50897429385E+01 0.50668949721E+01 0.49297578484E+01 0.46799185330E+01 0.43793071461E+01
 0.40871920061E+01 0.38483646061E+01 0.36942305037E+01 0.36412392483E+01 0.36942101732E+01
 0.38483645056E+01 0.40872285588E+01 0.43793426335E+01 0.46799155742E+01 0.49297252641E+01
 0.49712959139E+01 0.47870562449E+01 0.46456260437E+01 0.46456056430E+01 0.47870193814E+01
 0.49712866642E+01 0.50629578350E+01 0.49726329689E+01 0.47094599616E+01 0.43727849273E+01
 0.40591597360E+01 0.38214374634E+01 0.36942392452E+01 0.36942101732E+01 0.38213906042E+01
 0.40591556180E+01 0.43728190698E+01 0.47094762385E+01 0.49726073033E+01 0.50629291528E+01
 0.42546098803E+01 0.38527801744E+01 0.36914889725E+01 0.38527498354E+01 0.42545662378E+01
 0.46968364012E+01 0.49706466899E+01 0.49655642013E+01 0.47162075598E+01 0.43692225903E+01
 0.40591521154E+01 0.38483593874E+01 0.37739070022E+01 0.38483645056E+01 0.40591556180E+01
 0.43692069856E+01 0.47161626504E+01 0.49655112626E+01 0.49706254165E+01 0.46968596516E+01
 0.28809959091E+01 0.23825787822E+01 0.23825919491E+01 0.28810138669E+01 0.36665512442E+01
 0.44239860795E+01 0.48874554035E+01 0.49559523672E+01 0.47162144354E+01 0.43728095467E+01
 0.40871774984E+01 0.39271755921E+01 0.39272042638E+01 0.40872285588E+01 0.43728190698E+01
 0.47161626504E+01 0.49558859369E+01 0.48874284474E+01 0.44239966702E+01 0.36665564891E+01
 0.11163396622E+01 0.74666962886E+00 0.11163725632E+01 0.20822225984E+01 0.32834343150E+01
 0.43110384653E+01 0.48874129732E+01 0.49654958786E+01 0.47094710516E+01 0.43793442947E+01
 0.41382187921E+01 0.40504071755E+01 0.41382166467E+01 0.43793426335E+01 0.47094762385E+01
 0.49655112626E+01 0.48874284474E+01 0.43110350062E+01 0.32834035248E+01 0.20821769964E+01
 -.53779389348E+00 -.53781761818E+00 0.33769825656E+00 0.17735703802E+01 0.32834350776E+01
 0.44239899484E+01 0.49705670619E+01 0.49725543896E+01 0.46799198065E+01 0.43786529874E+01
 0.42024880547E+01 0.42024624780E+01 0.43786082407E+01 0.46799155742E+01 0.49726073033E+01
 0.49706254165E+01 0.44239966702E+01 0.32834035248E+01 0.17735626741E+01 0.33773217119E+00
 -.15392670317E+01 -.10244438208E+01 0.33771478496E+00 0.20821713763E+01 0.36665452135E+01
 0.46968435300E+01 0.50629280270E+01 0.49297360669E+01 0.46117515927E+01 0.43604635800E+01
 0.42672174500E+01 0.43604757391E+01 0.46117525560E+01 0.49297252641E+01 0.50629291528E+01
 0.46968596516E+01 0.36665564891E+01 0.20821769964E+01 0.33773217119E+00 -.10244215118E+01
 -.82486021464E-01 0.11164270547E+01 0.26351309879E+01 0.39853074131E+01 0.48217022153E+01
 0.50620266046E+01 0.48725595759E+01 0.45469162006E+01 0.42991413772E+01 0.42079120708E+01
 0.42991528450E+01 0.45469005736E+01 0.48725230967E+01 0.50620147349E+01 0.48217111280E+01
 0.39852866885E+01 0.26350791247E+01 0.11163942463E+01 -.82486287742E-01 -.53780938156E+00
 0.11164270547E+01 0.23827068654E+01 0.36915866085E+01 0.46456203548E+01 0.50551145574E+01
 0.49829323908E+01 0.46702192957E+01 0.43720693434E+01 0.41996828384E+01 0.41996522945E+01
 0.43719971275E+01 0.46701661145E+01 0.49829568385E+01 0.50551866254E+01 0.46456333473E+01
 0.36914939218E+01 0.23825854300E+01 0.11163616726E+01 0.33768982658E+00 0.33770334141E+00
 0.26351309879E+01 0.36915866085E+01 0.45691598752E+01 0.50233965398E+01 0.50270562172E+01
 0.47452940471E+01 0.44188048715E+01 0.41839840372E+01 0.40989443831E+01 0.41839753335E+01
 0.44187782219E+01 0.47452758388E+01 0.50270826336E+01 0.50234412739E+01 0.45691568341E+01
 0.36915240523E+01 0.26350659734E+01 0.17735246536E+01 0.14417451096E+01 0.17735542441E+01
 0.39853074131E+01 0.46456203548E+01 0.50233965398E+01 0.50366657002E+01 0.47784502213E+01
 0.44432223871E+01 0.41685182738E+01 0.40154373949E+01 0.40154687177E+01 0.41685701816E+01
 0.44432327430E+01 0.47784261700E+01 0.50366562293E+01 0.50234169483E+01 0.46456514827E+01
 0.39853382086E+01 0.32834393956E+01 0.28331217848E+01 0.28331081344E+01 0.32834100204E+01
 0.48217022153E+01 0.50551145574E+01 0.50270562172E+01 0.47784502213E+01 0.44506090991E+01
 0.41593699734E+01 0.39617330410E+01 0.38920442454E+01 0.39617407144E+01 0.41593692163E+01
 0.44506015942E+01 0.47784570115E+01 0.50270838116E+01 0.50551462420E+01 0.48217304686E+01
 0.44240190049E+01 0.40562297546E+01 0.39075984780E+01 0.40562067620E+01 0.44239901510E+01
 0.50620266046E+01 0.49829323908E+01 0.47452940471E+01 0.44432223871E+01 0.41593699734E+01
 0.39434333840E+01 0.38278774799E+01 0.38278541875E+01 0.39433834768E+01 0.41593365876E+01
 0.44432316082E+01 0.47453292450E+01 0.49829542742E+01 0.50620135371E+01 0.49705798783E+01
 0.47918983073E+01 0.46551496040E+01 0.46551586841E+01 0.47919247436E+01 0.49706129796E+01
 0.48725595759E+01 0.46702192957E+01 0.44188048715E+01 0.41685182738E+01 0.39617330410E+01
 0.38278774799E+01 0.37818641421E+01 0.38278821645E+01 0.39617364050E+01 0.41685088990E+01
 0.44187759602E+01 0.46701752496E+01 0.48725173105E+01 0.49725877550E+01 0.49701205784E+01
 0.49212278496E+01 0.48947782118E+01 0.49212309183E+01 0.49701322216E+01 0.49726146069E+01
 0.45469162006E+01 0.43720693434E+01 0.41839840372E+01 0.40154373949E+01 0.38920442454E+01
 0.38278541875E+01 0.38278821645E+01 0.38921020197E+01 0.40154693416E+01 0.41839529797E+01
 0.43719943184E+01 0.45468523141E+01 0.46799139429E+01 0.47549604438E+01 0.47763597561E+01
 0.47735933647E+01 0.47735834187E+01 0.47763347013E+01 0.47549410480E+01 0.46799317242E+01
 0.42991413772E+01 0.41996828384E+01 0.40989443831E+01 0.40154687177E+01 0.39617407144E+01
 0.39433834768E+01 0.39617364050E+01 0.40154693416E+01 0.40989539162E+01 0.41996955116E+01
 0.42991522024E+01 0.43786126437E+01 0.44271903529E+01 0.44465761708E+01 0.44487673383E+01
 0.44474945972E+01 0.44487841800E+01 0.44465918550E+01 0.44271920141E+01 0.43786048278E+01
 0.42079120708E+01 0.41996522945E+01 0.41839753335E+01 0.41685701816E+01 0.41593692163E+01
 0.41593365876E+01 0.41685088990E+01 0.41839529797E+01 0.41996955116E+01 0.42079859001E+01
 0.42024997556E+01 0.41819836517E+01 0.41518285838E+01 0.41222682744E+01 0.41040978119E+01
 0.41041148258E+01 0.41223080431E+01 0.41518635058E+01 0.41819826778E+01 0.42024497023E+01
 0.42991528450E+01 0.43719971275E+01 0.44187782219E+01 0.44432327430E+01 0.44506015942E+01
 0.44432316082E+01 0.44187759602E+01 0.43719943184E+01 0.42991522024E+01 0.42024997556E+01
 0.40920900682E+01 0.39836411982E+01 0.38936669991E+01 0.38349306977E+01 0.38146227644E+01
 0.38349273857E+01 0.38936598359E+01 0.39836312693E+01 0.40920805211E+01 0.42024949087E+01
 0.45469005736E+01 0.46701661145E+01 0.47452758388E+01 0.47784261700E+01 0.47784570115E+01
 0.47453292450E+01 0.46701752496E+01 0.45468523141E+01 0.43786126437E+01 0.41819836517E+01
 0.39836411982E+01 0.38117719143E+01 0.36879060104E+01 0.36238417694E+01 0.36238370410E+01
 0.36878872404E+01 0.38117381394E+01 0.39836155936E+01 0.41820000640E+01 0.43786697572E+01
 0.48725230967E+01 0.49829568385E+01 0.50270826336E+01 0.50366562293E+01 0.50270838116E+01
 0.49829542742E+01 0.48725173105E+01 0.46799139429E+01 0.44271903529E+01 0.41518285838E+01
 0.38936669991E+01 0.36879060104E+01 0.35574657567E+01 0.35130591548E+01 0.35574622705E+01
 0.36879081535E+01 0.38936763037E+01 0.41518361274E+01 0.44271920141E+01 0.46799173569E+01
 0.50620147349E+01 0.50551866254E+01 0.50234412739E+01 0.50234169483E+01 0.50551462420E+01
 0.50620135371E+01 0.49725877550E+01 0.47549604438E+01 0.44465761708E+01 0.41222682744E+01
 0.38349306977E+01 0.36238417694E+01 0.35130591548E+01 0.35130417069E+01 0.36238209272E+01
 0.38349531446E+01 0.41223180356E+01 0.44465938533E+01 0.47549236617E+01 0.49725423506E+01
 0.48217111280E+01 0.46456333473E+01 0.45691568341E+01 0.46456514827E+01 0.48217304686E+01
 0.49705798783E+01 0.49701205784E+01 0.47763597561E+01 0.44487673383E+01 0.41040978119E+01
 0.38146227644E+01 0.36238370410E+01 0.35574622705E+01 0.36238209272E+01 0.38146043832E+01
 0.41040909758E+01 0.44487765651E+01 0.47763766178E+01 0.49701322216E+01 0.49705754912E+01
 0.39852866885E+01 0.36914939218E+01 0.36915240523E+01 0.39853382086E+01 0.44240190049E+01
 0.47918983073E+01 0.49212278496E+01 0.47735933647E+01 0.44474945972E+01 0.41041148258E+01
 0.38349273857E+01 0.36878872404E+01 0.36879081535E+01 0.38349531446E+01 0.41040909758E+01
 0.44474352439E+01 0.47735658467E+01 0.49212614075E+01 0.47919421298E+01 0.44240110194E+01
 0.26350791247E+01 0.23825854300E+01 0.26350659734E+01 0.32834393956E+01 0.40562297546E+01
 0.46551496040E+01 0.48947782118E+01 0.47735834187E+01 0.44487841800E+01 0.41223080431E+01
 0.38936598359E+01 0.38117381394E+01 0.38936763037E+01 0.41223180356E+01 0.44487765651E+01
 0.47735658467E+01 0.48947555319E+01 0.46551198592E+01 0.40562067620E+01 0.32834398341E+01
 0.11163942463E+01 0.11163616726E+01 0.17735246536E+01 0.28331217848E+01 0.39075984780E+01
 0.46551586841E+01 0.49212309183E+01 0.47763347013E+01 0.44465918550E+01 0.41518635058E+01
 0.39836312693E+01 0.39836155936E+01 0.41518361274E+01 0.44465938533E+01 0.47763766178E+01
 0.49212614075E+01 0.46551198592E+01 0.39075184606E+01 0.28330907482E+01 0.17735651096E+01
 -.82486287742E-01 0.33768982658E+00 0.14417451096E+01 0.28331081344E+01 0.40562067620E+01
 0.47919247436E+01 0.49701322216E+01 0.47549410480E+01 0.44271920141E+01 0.41819826778E+01
 0.40920805211E+01 0.41820000640E+01 0.44271920141E+01 0.47549236617E+01 0.49701322216E+01
 0.47919421298E+01 0.40562067620E+01 0.28330907482E+01 0.14417451096E+01 0.33770721281E+00
 -.53780938156E+00 0.33770334141E+00 0.17735542441E+01 0.32834100204E+01 0.44239901510E+01
 0.49706129796E+01 0.49726146069E+01 0.46799317242E+01 0.43786048278E+01 0.42024497023E+01
 0.42024949087E+01 0.43786697572E+01 0.46799173569E+01 0.49725423506E+01 0.49705754912E+01
 0.44240110194E+01 0.32834398341E+01 0.17735651096E+01 0.33770721281E+00 -.53780675268E+00
 0.17919625325E+01 0.28809626684E+01 0.39853133065E+01 0.47555624812E+01 0.50349287508E+01
 0.48959116065E+01 0.45678946489E+01 0.42732578056E+01 0.41048207650E+01 0.41048102091E+01
 0.42732377041E+01 0.45678911129E+01 0.48959301296E+01 0.50349277937E+01 0.47555078336E+01
 0.39852581099E+01 0.28810029346E+01 0.17920868903E+01 0.11164001397E+01 0.11163300676E+01
 0.28809626684E+01 0.38527534604E+01 0.46456352201E+01 0.50333262119E+01 0.49975597140E+01
 0.47021384323E+01 0.43762946404E+01 0.41438093573E+01 0.40598863596E+01 0.41438225918E+01
 0.43762971323E+01 0.47021235242E+01 0.49975420890E+01 0.50333084257E+01 0.46456141120E+01
 0.38527476783E+01 0.28809929966E+01 0.20822030137E+01 0.17735625886E+01 0.20821630318E+01
 0.39853133065E+01 0.46456352201E+01 0.50234145644E+01 0.50366731692E+01 0.47784471458E+01
 0.44432208595E+01 0.41685205649E+01 0.40154352094E+01 0.40154625358E+01 0.41685689926E+01
 0.44432354836E+01 0.47784233649E+01 0.50366490841E+01 0.50234150227E+01 0.46456526481E+01
 0.39853311022E+01 0.32834250445E+01 0.28331130907E+01 0.28331087728E+01 0.32834131195E+01
 0.47555624812E+01 0.50333262119E+01 0.50366731692E+01 0.48024150188E+01 0.44754415048E+01
 0.41818092986E+01 0.39816601667E+01 0.39109327060E+01 0.39816797395E+01 0.41818517190E+01
 0.44754906475E+01 0.48024339412E+01 0.50366454278E+01 0.50332897644E+01 0.47555820796E+01
 0.43111350897E+01 0.39076260107E+01 0.37455931633E+01 0.39075433158E+01 0.43110489707E+01
 0.50349287508E+01 0.49975597140E+01 0.47784471458E+01 0.44754415048E+01 0.41859501727E+01
 0.39639517218E+01 0.38445904955E+01 0.38445793371E+01 0.39639441155E+01 0.41859816674E+01
 0.44754931970E+01 0.47784659987E+01 0.49975340635E+01 0.50349085513E+01 0.48874533917E+01
 0.46551864851E+01 0.44856469147E+01 0.44856111981E+01 0.46551167837E+01 0.48874188527E+01
 0.48959116065E+01 0.47021384323E+01 0.44432208595E+01 0.41818092986E+01 0.39639517218E+01
 0.38221045364E+01 0.37731821315E+01 0.38220875203E+01 0.39639351898E+01 0.41818066882E+01
 0.44432333201E+01 0.47021580828E+01 0.48959246912E+01 0.49654800723E+01 0.49211910857E+01
 0.48364415721E+01 0.47959321542E+01 0.48364899826E+01 0.49212424937E+01 0.49654972980E+01
 0.45678946489E+01 0.43762946404E+01 0.41685205649E+01 0.39816601667E+01 0.38445904955E+01
 0.37731821315E+01 0.37731853237E+01 0.38445982896E+01 0.39816656290E+01 0.41685144100E+01
 0.43762799825E+01 0.45678787677E+01 0.47094608358E+01 0.47763295407E+01 0.47801056044E+01
 0.47637124787E+01 0.47637425657E+01 0.47801683007E+01 0.47763789089E+01 0.47094858332E+01
 0.42732578056E+01 0.41438093573E+01 0.40154352094E+01 0.39109327060E+01 0.38445793371E+01
 0.38220875203E+01 0.38445982896E+01 0.39109674559E+01 0.40154650361E+01 0.41438056644E+01
 0.42732182255E+01 0.43793105500E+01 0.44465828164E+01 0.44754456816E+01 0.44793427080E+01
 0.44774635938E+01 0.44793392051E+01 0.44754501401E+01 0.44466090540E+01 0.43793565980E+01
 0.41048207650E+01 0.40598863596E+01 0.40154625358E+01 0.39816797395E+01 0.39639441155E+01
 0.39639351898E+01 0.39816656290E+01 0.40154650361E+01 0.40599112434E+01 0.41048533346E+01
 0.41382285785E+01 0.41518322843E+01 0.41461508269E+01 0.41305435360E+01 0.41181095517E+01
 0.41181183174E+01 0.41305626206E+01 0.41461649627E+01 0.41518299456E+01 0.41382070520E+01
 0.41048102091E+01 0.41438225918E+01 0.41685689926E+01 0.41818517190E+01 0.41859816674E+01
 0.41818066882E+01 0.41685144100E+01 0.41438056644E+01 0.41048533346E+01 0.40504713260E+01
 0.39836542864E+01 0.39126217447E+01 0.38492153139E+01 0.38054046989E+01 0.37897926767E+01
 0.38054510513E+01 0.38492642526E+01 0.39126234665E+01 0.39835970184E+01 0.40503932109E+01
 0.42732377041E+01 0.43762971323E+01 0.44432354836E+01 0.44754906475E+01 0.44754931970E+01
 0.44432333201E+01 0.43762799825E+01 0.42732182255E+01 0.41382285785E+01 0.39836542864E+01
 0.38285002620E+01 0.36934154124E+01 0.35951819405E+01 0.35439602424E+01 0.35439668048E+01
 0.35951935736E+01 0.36934158681E+01 0.38284826042E+01 0.39836340100E+01 0.41382283868E+01
 0.45678911129E+01 0.47021235242E+01 0.47784233649E+01 0.48024339412E+01 0.47784659987E+01
 0.47021580828E+01 0.45678787677E+01 0.43793105500E+01 0.41518322843E+01 0.39126217447E+01
 0.36934154124E+01 0.35212908282E+01 0.34132072055E+01 0.33765821917E+01 0.34131841183E+01
 0.35212624029E+01 0.36934028293E+01 0.39126392365E+01 0.41518780868E+01 0.43793582593E+01
 0.48959301296E+01 0.49975420890E+01 0.50366490841E+01 0.50366454278E+01 0.49975340635E+01
 0.48959246912E+01 0.47094608358E+01 0.44465828164E+01 0.41461508269E+01 0.38492153139E+01
 0.35951819405E+01 0.34132072055E+01 0.33192359249E+01 0.33192274322E+01 0.34131956681E+01
 0.35951866950E+01 0.38492339441E+01 0.41461639994E+01 0.44465847099E+01 0.47094614570E+01
 0.50349277937E+01 0.50333084257E+01 0.50234150227E+01 0.50332897644E+01 0.50349085513E+01
 0.49654800723E+01 0.47763295407E+01 0.44754456816E+01 0.41305435360E+01 0.38054046989E+01
 0.35439602424E+01 0.33765821917E+01 0.33192274322E+01 0.33765921905E+01 0.35439772339E+01
 0.38054198251E+01 0.41305448058E+01 0.44754330138E+01 0.47763153895E+01 0.49654819140E+01
 0.47555078336E+01 0.46456141120E+01 0.46456526481E+01 0.47555820796E+01 0.48874533917E+01
 0.49211910857E+01 0.47801056044E+01 0.44793427080E+01 0.41181095517E+01 0.37897926767E+01
 0.35439668048E+01 0.34131841183E+01 0.34131956681E+01 0.35439772339E+01 0.37897722101E+01
 0.41180830685E+01 0.44793610295E+01 0.47801671750E+01 0.49212320837E+01 0.48874225679E+01
 0.39852581099E+01 0.38527476783E+01 0.39853311022E+01 0.43111350897E+01 0.46551864851E+01
 0.48364415721E+01 0.47637124787E+01 0.44774635938E+01 0.41181183174E+01 0.38054510513E+01
 0.35951935736E+01 0.35212624029E+01 0.35951866950E+01 0.38054198251E+01 0.41180830685E+01
 0.44774778084E+01 0.47637831061E+01 0.48365017901E+01 0.46551689640E+01 0.43110524299E+01
 0.28810029346E+01 0.28809929966E+01 0.32834250445E+01 0.39076260107E+01 0.44856469147E+01
 0.47959321542E+01 0.47637425657E+01 0.44793392051E+01 0.41305626206E+01 0.38492642526E+01
 0.36934158681E+01 0.36934028293E+01 0.38492339441E+01 0.41305448058E+01 0.44793610295E+01
 0.47637831061E+01 0.47959349545E+01 0.44855999224E+01 0.39075841269E+01 0.32834247203E+01
 0.17920868903E+01 0.20822030137E+01 0.28331130907E+01 0.37455931633E+01 0.44856111981E+01
 0.48364899826E+01 0.47801683007E+01 0.44754501401E+01 0.41461649627E+01 0.39126234665E+01
 0.38284826042E+01 0.39126392365E+01 0.41461639994E+01 0.44754330138E+01 0.47801671750E+01
 0.48365017901E+01 0.44855999224E+01 0.37455596141E+01 0.28330957045E+01 0.20822086338E+01
 0.11164001397E+01 0.17735625886E+01 0.28331087728E+01 0.39075433158E+01 0.46551167837E+01
 0.49212424937E+01 0.47763789089E+01 0.44466090540E+01 0.41518299456E+01 0.39835970184E+01
 0.39836340100E+01 0.41518780868E+01 0.44465847099E+01 0.47763153895E+01 0.49212320837E+01
 0.46551689640E+01 0.39075841269E+01 0.28330957045E+01 0.17735252921E+01 0.11163821579E+01
 0.11163300676E+01 0.20821630318E+01 0.32834131195E+01 0.43110489707E+01 0.48874188527E+01
 0.49654972980E+01 0.47094858332E+01 0.43793565980E+01 0.41382070520E+01 0.40503932109E+01
 0.41382283868E+01 0.43793582593E+01 0.47094614570E+01 0.49654819140E+01 0.48874225679E+01
 0.43110524299E+01 0.32834247203E+01 0.20822086338E+01 0.11163821579E+01 0.74668359343E+00
 0.35103108597E+01 0.42545285823E+01 0.48217158454E+01 0.50349364875E+01 0.48994942423E+01
 0.45741545079E+01 0.42526248293E+01 0.40278064391E+01 0.39473470814E+01 0.40278011803E+01
 0.42526205200E+01 0.45741578732E+01 0.48995082961E+01 0.50349592633E+01 0.48217443304E+01
 0.42545595533E+01 0.35103382407E+01 0.28810106713E+01 0.26350927548E+01 0.28809940511E+01
 0.42545285823E+01 0.47869639024E+01 0.50551355770E+01 0.49975658684E+01 0.47110763883E+01
 0.43758698230E+01 0.41062767882E+01 0.39572306794E+01 0.39572489422E+01 0.41063056905E+01