   1   1   0   0
  0.1166400E+02  0.2545584E-09  0.2545584E-09  0.2545584E-09  0.5000000E-15
  1.000000000000000E-004
  CAR 
 fcc Si                                  
     45.57156690     -5.65955512  301     13.27867495      1.00000000
     -5.660  0.0000E+00  0.0000E+00
     -5.489  0.0000E+00  0.0000E+00
     -5.318  0.0000E+00  0.0000E+00
     -5.147  0.0000E+00  0.0000E+00
     -4.976  0.0000E+00  0.0000E+00
     -4.806  0.0000E+00  0.0000E+00
     -4.635  0.0000E+00  0.0000E+00
     -4.464  0.0000E+00  0.0000E+00
     -4.293  0.0000E+00  0.0000E+00
     -4.123  0.0000E+00  0.0000E+00
     -3.952  0.0000E+00  0.0000E+00
     -3.781  0.8482E-12  0.1449E-12
     -3.610  0.3411E-06  0.5825E-07
     -3.440  0.5467E-03  0.9341E-04
     -3.269  0.6660E-02  0.1231E-02
     -3.098  0.2121E-01  0.4853E-02
     -2.927  0.8384E-01  0.1917E-01
     -2.756  0.2058E-01  0.2268E-01
     -2.586  0.5418E-01  0.3194E-01
     -2.415  0.6555E-01  0.4313E-01
     -2.244  0.1866E+00  0.7499E-01
     -2.073  0.7864E-01  0.8842E-01
     -1.903  0.1377E-01  0.9077E-01
     -1.732  0.4091E-01  0.9776E-01
     -1.561  0.1511E+00  0.1236E+00
     -1.390  0.2502E+00  0.1663E+00
     -1.220  0.3607E-01  0.1724E+00
     -1.049  0.1608E+00  0.1999E+00
     -0.878  0.1209E+00  0.2205E+00
     -0.707  0.1876E+00  0.2526E+00
     -0.536  0.9652E-02  0.2542E+00
     -0.366  0.6246E-01  0.2649E+00
     -0.195  0.9302E-01  0.2808E+00
     -0.024  0.4511E+00  0.3578E+00
      0.147  0.1818E+00  0.3889E+00
      0.317  0.7685E-01  0.4020E+00
      0.488  0.1394E+00  0.4258E+00
      0.659  0.2024E+00  0.4603E+00
      0.830  0.2078E+00  0.4958E+00
      1.000  0.2036E-01  0.4993E+00
      1.171  0.5718E-01  0.5091E+00
      1.342  0.2384E+00  0.5498E+00
      1.513  0.3672E+00  0.6125E+00
      1.684  0.5518E-01  0.6219E+00
      1.854  0.3161E+00  0.6759E+00
      2.025  0.2701E+00  0.7220E+00
      2.196  0.4255E+00  0.7947E+00
      2.367  0.2000E-01  0.7981E+00
      2.537  0.3434E-01  0.8040E+00
      2.708  0.5388E-01  0.8132E+00
      2.879  0.3918E+00  0.8801E+00
      3.050  0.2048E+00  0.9151E+00
      3.221  0.1493E+00  0.9406E+00
      3.391  0.1974E+00  0.9743E+00
      3.562  0.4469E+00  0.1051E+01
      3.733  0.2230E+00  0.1089E+01
      3.904  0.7059E-01  0.1101E+01
      4.074  0.1623E+00  0.1128E+01
      4.245  0.5405E+00  0.1221E+01
      4.416  0.4790E+00  0.1303E+01
      4.587  0.5323E-01  0.1312E+01
      4.757  0.1709E+00  0.1341E+01
      4.928  0.2885E+00  0.1390E+01
      5.099  0.1390E+00  0.1414E+01
      5.270  0.2442E-01  0.1418E+01
      5.441  0.1669E+00  0.1446E+01
      5.611  0.3274E+00  0.1502E+01
      5.782  0.5466E+00  0.1596E+01
      5.953  0.1507E+00  0.1621E+01
      6.124  0.4465E+00  0.1698E+01
      6.294  0.3736E+00  0.1762E+01
      6.465  0.5766E+00  0.1860E+01
      6.636  0.4532E-01  0.1868E+01
      6.807  0.1471E-02  0.1868E+01
      6.977  0.2083E+00  0.1904E+01
      7.148  0.7510E+00  0.2032E+01
      7.319  0.2997E+00  0.2083E+01
      7.490  0.3061E+00  0.2135E+01
      7.661  0.1352E+00  0.2158E+01
      7.831  0.2751E+00  0.2205E+01
      8.002  0.3105E-01  0.2211E+01
      8.173  0.6222E-01  0.2221E+01
      8.344  0.1976E+00  0.2255E+01
      8.514  0.8047E+00  0.2392E+01
      8.685  0.2611E+00  0.2437E+01
      8.856  0.3094E+00  0.2490E+01
      9.027  0.3176E+00  0.2544E+01
      9.197  0.7769E+00  0.2677E+01
      9.368  0.1623E+00  0.2704E+01
      9.539  0.2259E+00  0.2743E+01
      9.710  0.2312E+00  0.2783E+01
      9.881  0.2010E+00  0.2817E+01
     10.051  0.8289E-01  0.2831E+01
     10.222  0.4701E+00  0.2911E+01
     10.393  0.2591E+00  0.2956E+01
     10.564  0.4169E+00  0.3027E+01
     10.734  0.2080E+00  0.3062E+01
     10.905  0.1548E+00  0.3089E+01
     11.076  0.1589E+00  0.3116E+01
     11.247  0.6157E+00  0.3221E+01
     11.417  0.4458E+00  0.3297E+01
     11.588  0.5271E+00  0.3387E+01
     11.759  0.5655E+00  0.3484E+01
     11.930  0.4731E+00  0.3564E+01
     12.101  0.1572E+00  0.3591E+01
     12.271  0.1557E+00  0.3618E+01
     12.442  0.2781E-01  0.3623E+01
     12.613  0.4428E+00  0.3698E+01
     12.784  0.4228E+00  0.3770E+01
     12.954  0.4878E+00  0.3854E+01
     13.125  0.4344E+00  0.3928E+01
     13.296  0.4797E+00  0.4010E+01
     13.467  0.3722E+00  0.4073E+01
     13.638  0.3280E+00  0.4129E+01
     13.808  0.1786E+00  0.4160E+01
     13.979  0.1656E+00  0.4188E+01
     14.150  0.5965E-01  0.4198E+01
     14.321  0.7363E+00  0.4324E+01
     14.491  0.6743E+00  0.4439E+01
     14.662  0.5097E+00  0.4526E+01
     14.833  0.1612E+00  0.4554E+01
     15.004  0.5856E+00  0.4654E+01
     15.174  0.2180E+00  0.4691E+01
     15.345  0.3456E+00  0.4750E+01
     15.516  0.3522E+00  0.4810E+01
     15.687  0.5463E+00  0.4904E+01
     15.858  0.3427E+00  0.4962E+01
     16.028  0.5218E+00  0.5051E+01
     16.199  0.6680E+00  0.5165E+01
     16.370  0.4530E+00  0.5243E+01
     16.541  0.4345E-01  0.5250E+01
     16.711  0.4503E+00  0.5327E+01
     16.882  0.4200E+00  0.5399E+01
     17.053  0.6191E+00  0.5504E+01
     17.224  0.1884E+00  0.5537E+01
     17.394  0.5293E+00  0.5627E+01
     17.565  0.4498E+00  0.5704E+01
     17.736  0.7903E+00  0.5839E+01
     17.907  0.2727E+00  0.5885E+01
     18.078  0.3857E+00  0.5951E+01
     18.248  0.5659E+00  0.6048E+01
     18.419  0.5347E+00  0.6139E+01
     18.590  0.4926E+00  0.6223E+01
     18.761  0.4916E+00  0.6307E+01
     18.931  0.4306E+00  0.6381E+01
     19.102  0.2088E+00  0.6416E+01
     19.273  0.1984E+00  0.6450E+01
     19.444  0.3063E+00  0.6503E+01
     19.614  0.6643E+00  0.6616E+01
     19.785  0.5256E+00  0.6706E+01
     19.956  0.4971E+00  0.6791E+01
     20.127  0.4497E+00  0.6867E+01
     20.298  0.5520E+00  0.6962E+01
     20.468  0.2352E+00  0.7002E+01
     20.639  0.5669E+00  0.7099E+01
     20.810  0.4008E+00  0.7167E+01
     20.981  0.5382E+00  0.7259E+01
     21.151  0.3029E+00  0.7311E+01
     21.322  0.1285E+00  0.7333E+01
     21.493  0.4501E+00  0.7410E+01
     21.664  0.4873E+00  0.7493E+01
     21.834  0.5927E+00  0.7594E+01
     22.005  0.1576E+00  0.7621E+01
     22.176  0.2959E+00  0.7671E+01
     22.347  0.5313E+00  0.7762E+01
     22.518  0.8274E+00  0.7903E+01
     22.688  0.2076E+00  0.7939E+01
     22.859  0.4247E+00  0.8011E+01
     23.030  0.3677E+00  0.8074E+01
     23.201  0.4967E+00  0.8159E+01
     23.371  0.4218E+00  0.8231E+01
     23.542  0.2872E+00  0.8280E+01
     23.713  0.6952E+00  0.8399E+01
     23.884  0.4271E+00  0.8472E+01
     24.054  0.8119E+00  0.8610E+01
     24.225  0.8662E+00  0.8758E+01
     24.396  0.4964E+00  0.8843E+01
     24.567  0.3792E+00  0.8908E+01
     24.738  0.4682E+00  0.8988E+01
     24.908  0.3958E+00  0.9055E+01
     25.079  0.4844E+00  0.9138E+01
     25.250  0.4314E+00  0.9212E+01
     25.421  0.5296E+00  0.9302E+01
     25.591  0.4056E+00  0.9372E+01
     25.762  0.7128E+00  0.9493E+01
     25.933  0.5070E+00  0.9580E+01
     26.104  0.6085E+00  0.9684E+01
     26.275  0.5486E+00  0.9777E+01
     26.445  0.4002E+00  0.9846E+01
     26.616  0.6312E+00  0.9954E+01
     26.787  0.2245E+00  0.9992E+01
     26.958  0.6056E+00  0.1010E+02
     27.128  0.5163E+00  0.1018E+02
     27.299  0.4960E+00  0.1027E+02
     27.470  0.5273E+00  0.1036E+02
     27.641  0.5151E+00  0.1045E+02
     27.811  0.4565E+00  0.1052E+02
     27.982  0.5600E+00  0.1062E+02
     28.153  0.9056E+00  0.1077E+02
     28.324  0.5067E+00  0.1086E+02
     28.495  0.3024E+00  0.1091E+02
     28.665  0.7892E+00  0.1105E+02
     28.836  0.3870E+00  0.1111E+02
     29.007  0.2024E+00  0.1115E+02
     29.178  0.6524E+00  0.1126E+02
     29.348  0.6858E+00  0.1138E+02
     29.519  0.4342E+00  0.1145E+02
     29.690  0.5861E+00  0.1155E+02
     29.861  0.4334E+00  0.1162E+02
     30.031  0.5587E+00  0.1172E+02
     30.202  0.3953E+00  0.1179E+02
     30.373  0.4568E+00  0.1187E+02
     30.544  0.6695E+00  0.1198E+02
     30.715  0.4936E+00  0.1206E+02
     30.885  0.8444E+00  0.1221E+02
     31.056  0.9023E+00  0.1236E+02
     31.227  0.6009E+00  0.1247E+02
     31.398  0.3393E+00  0.1252E+02
     31.568  0.3348E+00  0.1258E+02
     31.739  0.3408E+00  0.1264E+02
     31.910  0.2304E+00  0.1268E+02
     32.081  0.8838E+00  0.1283E+02
     32.251  0.6790E+00  0.1294E+02
     32.422  0.8889E+00  0.1310E+02
     32.593  0.2935E+00  0.1315E+02
     32.764  0.3086E+00  0.1320E+02
     32.935  0.8474E+00  0.1334E+02
     33.105  0.7846E+00  0.1348E+02
     33.276  0.3859E+00  0.1354E+02
     33.447  0.9036E+00  0.1370E+02
     33.618  0.7536E+00  0.1383E+02
     33.788  0.3837E+00  0.1389E+02
     33.959  0.5753E+00  0.1399E+02
     34.130  0.3547E+00  0.1405E+02
     34.301  0.3157E+00  0.1411E+02
     34.471  0.2954E+00  0.1416E+02
     34.642  0.4065E+00  0.1423E+02
     34.813  0.3349E+00  0.1428E+02
     34.984  0.5755E-01  0.1429E+02
     35.155  0.4561E+00  0.1437E+02
     35.325  0.3262E+00  0.1443E+02
     35.496  0.6275E+00  0.1453E+02
     35.667  0.3429E+00  0.1459E+02
     35.838  0.3101E+00  0.1464E+02
     36.008  0.1914E+00  0.1468E+02
     36.179  0.7266E+00  0.1480E+02
     36.350  0.4699E+00  0.1488E+02
     36.521  0.6486E+00  0.1499E+02
     36.692  0.4870E+00  0.1508E+02
     36.862  0.5057E+00  0.1516E+02
     37.033  0.5211E-01  0.1517E+02
     37.204  0.5890E-01  0.1518E+02
     37.375  0.4714E+00  0.1526E+02
     37.545  0.6561E+00  0.1537E+02
     37.716  0.1304E+00  0.1540E+02
     37.887  0.6521E+00  0.1551E+02
     38.058  0.1119E+00  0.1553E+02
     38.228  0.3118E-01  0.1553E+02
     38.399  0.9133E-01  0.1555E+02
     38.570  0.1744E+00  0.1558E+02
     38.741  0.1556E+00  0.1560E+02
     38.912  0.2410E+00  0.1564E+02
     39.082  0.1799E+00  0.1568E+02
     39.253  0.7346E-01  0.1569E+02
     39.424  0.1536E+00  0.1571E+02
     39.595  0.3803E-01  0.1572E+02
     39.765  0.3242E-01  0.1573E+02
     39.936  0.3209E+00  0.1578E+02
     40.107  0.7054E-01  0.1579E+02
     40.278  0.7340E-01  0.1581E+02
     40.448  0.1329E+00  0.1583E+02
     40.619  0.1502E-01  0.1583E+02
     40.790  0.1103E+00  0.1585E+02
     40.961  0.1970E+00  0.1588E+02
     41.132  0.2080E+00  0.1592E+02
     41.302  0.6573E-01  0.1593E+02
     41.473  0.1864E+00  0.1596E+02
     41.644  0.6654E-01  0.1597E+02
     41.815  0.2929E-03  0.1597E+02
     41.985  0.6546E-08  0.1597E+02
     42.156  0.3442E-04  0.1597E+02
     42.327  0.1687E-01  0.1598E+02
     42.498  0.8048E-01  0.1599E+02
     42.668  0.8192E-02  0.1599E+02
     42.839  0.6598E-05  0.1599E+02
     43.010  0.2614E-04  0.1599E+02
     43.181  0.1000E-01  0.1599E+02
     43.352  0.3949E-01  0.1600E+02
     43.522  0.3280E-02  0.1600E+02
     43.693  0.2047E-05  0.1600E+02
     43.864  0.5089E-11  0.1600E+02
     44.035  0.0000E+00  0.1600E+02
     44.205  0.0000E+00  0.1600E+02
     44.376  0.0000E+00  0.1600E+02
     44.547  0.0000E+00  0.1600E+02
     44.718  0.0000E+00  0.1600E+02
     44.888  0.0000E+00  0.1600E+02
     45.059  0.0000E+00  0.1600E+02
     45.230  0.0000E+00  0.1600E+02
     45.401  0.0000E+00  0.1600E+02
     45.572  0.0000E+00  0.1600E+02
