    1    1    1    1
  0.1166400E+02  0.2545584E-09  0.2545584E-09  0.2545584E-09  0.5000000E-15
  1.000000000000000E-004
  CAR 
 fcc Si                                  
      4     56      8
 
  0.0000000E+00  0.0000000E+00  0.0000000E+00  0.7513148E-03
      1         -3.330868   1.000000
      2         26.199446   0.000000
      3         26.199524   0.000000
      4         26.199524   0.000000
      5         27.289982   0.000000
      6         27.290113   0.000000
      7         27.290114   0.000000
      8         31.953937   0.000000
 
  0.9090909E-01  0.5067495E-17  0.1200639E-16  0.6010518E-02
      1         -3.052464   1.000000
      2         22.465856   0.000000
      3         25.197345   0.000000
      4         25.197572   0.000000
      5         28.674715   0.000000
      6         28.690641   0.000000
      7         28.690836   0.000000
      8         33.169024   0.000000
 
  0.1818182E+00  0.5971654E-17 -0.7906134E-17  0.6010518E-02
      1         -2.219840   1.000000
      2         17.973027   0.000000
      3         24.237952   0.000000
      4         24.238186   0.000000
      5         28.702243   0.000000
      6         29.776375   0.000000
      7         29.777039   0.000000
      8         32.245669   0.000000
 
  0.2727273E+00 -0.7569702E-18 -0.7569702E-18  0.6010518E-02
      1         -0.841882   1.000000
      2         13.705567   0.000000
      3         23.695358   0.000000
      4         23.695600   0.000000
      5         28.114219   0.000000
      6         28.114750   0.000000
      7         28.560931   0.000000
      8         33.826473   0.000000
 
  0.3636364E+00  0.1749442E-16 -0.1026115E-16  0.6010518E-02
      1          1.070386   1.000000
      2          9.848799   1.000000
      3         23.606492   0.000000
      4         23.606723   0.000000
      5         26.401903   0.000000
      6         26.402395   0.000000
      7         28.708564   0.000000
      8         31.989703   0.000000
 
  0.4545455E+00  0.5214684E-17  0.5214684E-17  0.6010518E-02
      1          3.500657   1.000000
      2          6.436284   1.000000
      3         23.902923   0.000000
      4         23.903074   0.000000
      5         25.178872   0.000000
      6         25.179432   0.000000
      7         29.177155   0.000000
      8         30.603771   0.000000
 
  0.9090909E-01  0.9090909E-01  0.1994143E-17  0.4507889E-02
      1         -2.959758   1.000000
      2         23.591397   0.000000
      3         23.591450   0.000000
      4         24.381894   0.000000
      5         26.560909   0.000000
      6         30.446399   0.000000
      7         30.446486   0.000000
      8         30.932743   0.000000
 
  0.1818182E+00  0.9090909E-01 -0.6728624E-17  0.1803156E-01
      1         -2.312340   1.000000
      2         19.613390   0.000000
      3         22.421160   0.000000
      4         24.347126   0.000000
      5         26.905090   0.000000
      6         28.675477   0.000000
      7         31.238303   0.000000
      8         32.094678   0.000000
 
  0.2727273E+00  0.9090909E-01  0.1984944E-16  0.1803156E-01
      1         -1.116832   1.000000
      2         15.286278   0.000000
      3         21.715746   0.000000
      4         23.861986   0.000000
      5         25.415734   0.000000
      6         29.979835   0.000000
      7         31.120396   0.000000
      8         31.424809   0.000000
 
  0.3636364E+00  0.9090909E-01 -0.7569702E-18  0.1803156E-01
      1          0.616617   1.000000
      2         11.309567   1.000000
      3         21.494968   0.000000
      4         23.235262   0.000000
      5         23.930634   0.000000
      6         29.422384   0.000000
      7         30.836129   0.000000
      8         33.354167   0.000000
 
  0.4545455E+00  0.9090909E-01 -0.1581227E-16  0.1803156E-01
      1          2.873293   1.000000
      2          7.751420   1.000000
      3         21.729574   0.000000
      4         21.810289   0.000000
      5         24.101955   0.000000
      6         27.973880   0.000000
      7         31.034311   0.000000
      8         32.964395   0.000000
 
 -0.4545455E+00  0.9090909E-01  0.1513940E-17  0.1803156E-01
      1          4.656407   1.000000
      2          5.642438   1.000000
      3         20.754891   0.000000
      4         22.436315   0.000000
      5         24.859937   0.000000
      6         26.975498   0.000000
      7         30.783657   0.000000
      8         32.931281   0.000000
 
 -0.3636364E+00  0.9090909E-01  0.1698978E-16  0.1803156E-01
      1          2.064020   1.000000
      2          8.883241   1.000000
      3         20.178167   0.000000
      4         23.586138   0.000000
      5         26.106385   0.000000
      6         26.462616   0.000000
      7         30.264301   0.000000
      8         33.926707   0.000000
 
 -0.2727273E+00  0.9090909E-01  0.1026115E-16  0.1803156E-01
      1         -0.020019   1.000000
      2         12.583060   1.000000
      3         20.086350   0.000000
      4         25.047967   0.000000
      5         26.545195   0.000000
      6         27.783267   0.000000
      7         29.982164   0.000000
      8         33.497436   0.000000
 
 -0.1818182E+00  0.9090909E-01  0.7569702E-18  0.1803156E-01
      1         -1.575502   1.000000
      2         16.670566   0.000000
      3         20.518860   0.000000
      4         26.256298   0.000000
      5         27.606459   0.000000
      6         29.779881   0.000000
      7         29.907513   0.000000
      8         30.698996   0.000000
 
 -0.9090909E-01  0.9090909E-01  0.9672398E-18  0.9015778E-02
      1         -2.589422   1.000000
      2         20.694009   0.000000
      3         21.753098   0.000000
      4         26.966723   0.000000
      5         27.526949   0.000000
      6         29.506652   0.000000
      7         30.762281   0.000000
      8         30.798072   0.000000
 
  0.1818182E+00  0.1818182E+00 -0.9889501E-17  0.4507889E-02
      1         -1.851449   1.000000
      2         21.082963   0.000000
      3         21.083015   0.000000
      4         21.753650   0.000000
      5         24.494863   0.000000
      6         25.728473   0.000000
      7         34.407647   0.000000
      8         34.407740   0.000000
 
  0.2727273E+00  0.1818182E+00 -0.6728624E-17  0.1803156E-01
      1         -0.842090   1.000000
      2         17.278338   0.000000
      3         20.203097   0.000000
      4         22.141731   0.000000
      5         22.329986   0.000000
      6         26.007598   0.000000
      7         34.458263   0.000000
      8         35.328114   0.000000
 
  0.3636364E+00  0.1818182E+00  0.1013499E-16  0.1803156E-01
      1          0.707076   1.000000
      2         13.242459   0.695735
      3         19.810223   0.000000
      4         20.014737   0.000000
      5         22.233181   0.000000
      6         28.596083   0.000000
      7         32.874202   0.000000
      8         35.425652   0.000000
 
  0.4545455E+00  0.1818182E+00 -0.3532528E-17  0.1803156E-01
      1          2.781130   1.000000
      2          9.571051   1.000000
      3         18.263200   0.000000
      4         19.893526   0.000000
      5         22.440241   0.000000
      6         31.382839   0.000000
      7         31.675856   0.000000
      8         35.368835   0.000000
 
 -0.4545455E+00  0.1818182E+00  0.8242565E-17  0.1803156E-01
      1          5.355940   1.000000
      2          6.348655   1.000000
      3         16.995695   0.000000
      4         20.457500   0.000000
      5         23.078775   0.000000
      6         30.273622   0.000000
      7         33.276981   0.000000
      8         36.495819   0.000000
 
 -0.3636364E+00  0.1818182E+00  0.1513940E-17  0.1803156E-01
      1          3.589167   1.000000
      2          8.424500   1.000000
      3         16.255722   0.000000
      4         21.494565   0.000000
      5         24.218044   0.000000
      6         29.595526   0.000000
      7         32.911849   0.000000
      8         36.505388   0.000000
 
 -0.2727273E+00  0.1818182E+00 -0.5214684E-17  0.1803156E-01
      1          1.341470   1.000000
      2         11.898131   1.000000
      3         16.073209   0.000000
      4         22.979139   0.000000
      5         25.819467   0.000000
      6         29.359347   0.000000
      7         32.348506   0.000000
      8         32.908181   0.000000
 
 -0.1818182E+00  0.1818182E+00 -0.1194331E-16  0.9015778E-02
      1         -0.384850   1.000000
      2         15.253491   0.000000
      3         16.934448   0.000000
      4         24.875950   0.000000
      5         27.804604   0.000000
      6         29.192839   0.000000
      7         30.168173   0.000000
      8         31.492271   0.000000
 
  0.2727273E+00  0.2727273E+00  0.4594652E-17  0.4507889E-02
      1         -0.020969   1.000000
      2         19.167220   0.000000
      3         19.167280   0.000000
      4         19.369750   0.000000
      5         19.607454   0.000000
      6         23.693192   0.000000
      7         37.408865   0.000000
      8         38.072456   0.000000
 
  0.3636364E+00  0.2727273E+00  0.2985827E-17  0.1803156E-01
      1          1.339373   1.000000
      2         15.585192   0.000000
      3         16.950095   0.000000
      4         18.612191   0.000000
      5         20.594365   0.000000
      6         24.556940   0.000000
      7         36.548691   0.000000
      8         38.877770   0.000000
 
  0.4545455E+00  0.2727273E+00  0.4583875E-17  0.1803156E-01
      1          3.223046   1.000000
      2         11.862864   1.000000
      3         14.987032   0.000000
      4         18.534763   0.000000
      5         20.917630   0.000000
      6         27.473490   0.000000
      7         35.117606   0.000000
      8         38.411198   0.000000
 
 -0.4545455E+00  0.2727273E+00  0.2052230E-16  0.1803156E-01
      1          5.604532   1.000000
      2          8.522645   1.000000
      3         13.553646   0.000050
      4         18.934564   0.000000
      5         21.458979   0.000000
      6         31.076924   0.000000
      7         33.927373   0.000000
      8         37.397137   0.000000
 
 -0.3636364E+00  0.2727273E+00  0.2691450E-17  0.1803156E-01
      1          5.628864   1.000000
      2          8.428236   1.000000
      3         12.692874   1.000000
      4         19.811442   0.000000
      5         22.464474   0.000000
      6         33.129040   0.000000
      7         34.538613   0.000000
      8         36.314835   0.000000
 
 -0.2727273E+00  0.2727273E+00  0.1513940E-17  0.9015778E-02
      1          3.231087   1.000000
      2         11.113775   1.000000
      3         12.958529   0.999997
      4         21.174865   0.000000
      5         23.943365   0.000000
      6         32.719253   0.000000
      7         32.874846   0.000000
      8         34.487901   0.000000
 
  0.3636364E+00  0.3636364E+00  0.1907880E-16  0.4507889E-02
      1          2.505549   1.000000
      2         14.291506   0.000000
      3         17.894295   0.000000
      4         17.894361   0.000000
      5         18.175289   0.000000
      6         22.469416   0.000000
      7         39.450837   0.000000
      8         41.133291   0.000000
 
  0.4545455E+00  0.3636364E+00 -0.1177509E-17  0.1803156E-01
      1          4.187095   1.000000
      2         12.157060   1.000000
      3         14.560044   0.000000
      4         17.657495   0.000000
      5         19.551231   0.000000
      6         23.627971   0.000000
      7         38.919628   0.000000
      8         41.430924   0.000000
 
 -0.4545455E+00  0.3636364E+00  0.7721096E-16  0.1803156E-01
      1          6.325186   1.000000
      2         10.556494   1.000000
      3         11.213839   1.000000
      4         17.897309   0.000000
      5         20.215609   0.000000
      6         26.885424   0.000000
      7         37.795565   0.000000
      8         40.305046   0.000000
 
 -0.3636364E+00  0.3636364E+00  0.1497119E-16  0.9015778E-02
      1          8.155418   1.000000
      2          8.354833   1.000000
      3         10.180801   1.000000
      4         18.615615   0.000000
      5         21.122203   0.000000
      6         30.835779   0.000000
      7         36.646591   0.000000
      8         37.424025   0.000000
 
  0.4545455E+00  0.4545455E+00 -0.5294849E-17  0.4507889E-02
      1          5.624014   1.000000
      2          9.891105   1.000000
      3         17.260145   0.000000
      4         17.260189   0.000000
      5         17.480025   0.000000
      6         21.845235   0.000000
      7         41.403853   0.000000
      8         43.242880   0.000000
 
 -0.4545455E+00  0.4545455E+00 -0.1042937E-16  0.9015778E-02
      1          6.981277   1.000000
      2          8.721558   1.000000
      3         14.217782   0.000000
      4         17.338825   0.000000
      5         19.192690   0.000000
      6         23.317193   0.000000
      7         40.710098   0.000000
      8         42.397213   0.000000
 
  0.2727273E+00  0.1818182E+00  0.9090909E-01  0.1803156E-01
      1         -1.483675   1.000000
      2         18.001055   0.000000
      3         19.347658   0.000000
      4         24.967628   0.000000
      5         25.454083   0.000000
      6         27.557143   0.000000
      7         32.090561   0.000000
      8         32.914523   0.000000
 
  0.3636364E+00  0.1818182E+00  0.9090909E-01  0.3606311E-01
      1         -0.111398   1.000000
      2         14.292377   0.000000
      3         18.306486   0.000000
      4         22.767626   0.000000
      5         25.684236   0.000000
      6         29.248423   0.000000
      7         30.536579   0.000000
      8         33.483725   0.000000
 
  0.4545455E+00  0.1818182E+00  0.9090909E-01  0.3606311E-01
      1          1.793240   1.000000
      2         10.514428   1.000000
      3         18.186114   0.000000
      4         20.916770   0.000000
      5         25.716135   0.000000
      6         28.509106   0.000000
      7         32.324433   0.000000
      8         34.180080   0.000000
 
 -0.4545455E+00  0.1818182E+00  0.9090909E-01  0.3606311E-01
      1          4.211852   1.000000
      2          7.131985   1.000000
      3         18.595361   0.000000
      4         19.514139   0.000000
      5         26.084358   0.000000
      6         27.255173   0.000000
      7         33.388679   0.000000
      8         36.145515   0.000000
 
  0.3636364E+00  0.2727273E+00  0.9090909E-01  0.1803156E-01
      1          0.343728   1.000000
      2         15.951279   0.000000
      3         17.434185   0.000000
      4         19.700963   0.000000
      5         23.525967   0.000000
      6         25.908045   0.000000
      7         33.828629   0.000000
      8         37.247556   0.000000
 
  0.4545455E+00  0.2727273E+00  0.9090909E-01  0.3606311E-01
      1          2.061539   1.000000
      2         12.577568   1.000000
      3         16.660982   0.000000
      4         17.615531   0.000000
      5         24.171526   0.000000
      6         28.147876   0.000000
      7         32.263221   0.000000
      8         37.802836   0.000000
 
 -0.4545455E+00  0.2727273E+00  0.9090909E-01  0.3606311E-01
      1          4.294453   1.000000
      2          9.118608   1.000000
      3         15.989320   0.000000
      4         16.890227   0.000000
      5         24.594342   0.000000
      6         30.436844   0.000000
      7         31.979374   0.000000
      8         37.419232   0.000000
 
 -0.3636364E+00  0.2727273E+00  0.9090909E-01  0.3606311E-01
      1          6.060902   1.000000
      2          7.028127   1.000000
      3         14.909512   0.000000
      4         17.619592   0.000000
      5         25.375877   0.000000
      6         29.620979   0.000000
      7         35.095798   0.000000
      8         35.719475   0.000000
 
 -0.2727273E+00  0.2727273E+00  0.9090909E-01  0.3606311E-01
      1          3.497687   1.000000
      2         10.164547   1.000000
      3         14.397449   0.000000
      4         18.864035   0.000000
      5         26.587318   0.000000
      6         29.018875   0.000000
      7         32.590449   0.000000
      8         36.371587   0.000000
 
 -0.1818182E+00  0.2727273E+00  0.9090909E-01  0.1803156E-01
      1          1.431752   1.000000
      2         13.187009   0.902573
      3         14.970498   0.000000
      4         20.601433   0.000000
      5         28.077899   0.000000
      6         28.197943   0.000000
      7         30.071497   0.000000
      8         35.486042   0.000000
 
  0.4545455E+00  0.3636364E+00  0.9090909E-01  0.1803156E-01
      1          2.864598   1.000000
      2         14.570236   0.000000
      3         14.619785   0.000000
      4         16.140605   0.000000
      5         22.172353   0.000000
      6         24.750618   0.000000
      7         36.028360   0.000000
      8         40.867399   0.000000
 
 -0.4545455E+00  0.3636364E+00  0.9090909E-01  0.3606311E-01
      1          4.897346   1.000000
      2         11.528445   1.000000
      3         12.860573   1.000000
      4         15.681995   0.000000
      5         23.193970   0.000000
      6         27.319874   0.000000
      7         34.706018   0.000000
      8         39.867575   0.000000
 
 -0.3636364E+00  0.3636364E+00  0.9090909E-01  0.3606311E-01
      1          7.369351   1.000000
      2          8.421089   1.000000
      3         11.652569   1.000000
      4         16.216579   0.000000
      5         23.969690   0.000000
      6         30.967569   0.000000
      7         33.646640   0.000000
      8         36.747415   0.000000
 
 -0.2727273E+00  0.3636364E+00  0.9090909E-01  0.1803156E-01
      1          5.713037   1.000000
      2          9.731185   1.000000
      3         11.573934   1.000000
      4         17.291395   0.000000
      5         25.095775   0.000000
      6         32.274217   0.000000
      7         33.035496   0.000000
      8         35.502545   0.000000
 
 -0.4545455E+00  0.4545455E+00  0.9090909E-01  0.1803156E-01
      1          5.974805   1.000000
      2         10.238529   1.000000
      3         13.875675   0.000000
      4         15.469506   0.000000
      5         21.492084   0.000000
      6         24.150954   0.000000
      7         38.612868   0.000000
      8         41.052785   0.000000
 
 -0.3636364E+00  0.4545455E+00  0.9090909E-01  0.1803156E-01
      1          7.667919   1.000000
      2          9.427754   1.000000
      3         11.211824   1.000000
      4         15.350428   0.000000
      5         22.872301   0.000000
      6         27.035161   0.000000
      7         37.384217   0.000000
      8         37.793973   0.000000
 
 -0.4545455E+00  0.3636364E+00  0.1818182E+00  0.1803156E-01
      1          3.937858   1.000000
      2         11.802990   1.000000
      3         13.601793   0.000002
      4         15.680224   0.000000
      5         26.932311   0.000000
      6         28.510720   0.000000
      7         30.854063   0.000000
      8         39.282828   0.000000
 
 -0.3636364E+00  0.3636364E+00  0.1818182E+00  0.3606311E-01
      1          6.309698   1.000000
      2          9.122422   1.000000
      3         13.332770   0.222131
      4         14.274925   0.000000
      5         27.959487   0.000000
      6         29.146996   0.000000
      7         31.973716   0.000000
      8         36.071189   0.000000
 
 -0.3636364E+00  0.4545455E+00  0.1818182E+00  0.1803156E-01
      1          7.024962   1.000000
      2         11.109247   1.000000
      3         11.259981   1.000000
      4         12.979161   0.999989
      5         26.270195   0.000000
      6         28.137060   0.000000
      7         33.414139   0.000000
      8         36.786190   0.000000
 
 -0.2727273E+00  0.4545455E+00  0.1818182E+00  0.1803156E-01
      1          8.761044   1.000000
      2          9.043603   1.000000
      3         10.853150   1.000000
      4         13.058932   0.999057
      5         27.748079   0.000000
      6         31.047659   0.000000
      7         31.666132   0.000000
      8         33.963503   0.000000
