       N       E                     dE             d eps       ncg     rms          rms(c)
DAV:   1    -0.398814855098E+01   -0.39881E+01   -0.13752E+03  1032   0.220E+02
DAV:   2    -0.469223289795E+01   -0.70408E+00   -0.69248E+00  1344   0.165E+01
DAV:   3    -0.469350313236E+01   -0.12702E-02   -0.12702E-02  1080   0.661E-01
DAV:   4    -0.469350341629E+01   -0.28393E-06   -0.28511E-06  1376   0.907E-03
DAV:   5    -0.469350341711E+01   -0.81637E-09   -0.17357E-09   952   0.538E-05    0.443E+00
DAV:   6    -0.467358851690E+01    0.19915E-01   -0.33994E-03  1096   0.272E-01    0.249E+00
DAV:   7    -0.466156397261E+01    0.12025E-01   -0.73616E-03  1112   0.403E-01    0.164E-01
DAV:   8    -0.466149312708E+01    0.70846E-04   -0.20837E-05   896   0.303E-02
   1 F= -.46614931E+01 E0= -.46600638E+01  d E =-.285864E-02
