<?xml version="1.0" encoding="ISO-8859-1"?>
<modeling>
 <generator>
  <i name="program" type="string">vasp </i>
  <i name="version" type="string">6.3.0  </i>
  <i name="subversion" type="string">20Jan22 (build Feb 01 2022 16:52:37) complex                          parallel </i>
  <i name="platform" type="string">TETRA_NSC1 </i>
  <i name="date" type="string">2022 02 22 </i>
  <i name="time" type="string">16:07:11 </i>
 </generator>
 <incar>
  <i type="string" name="SYSTEM">fcc Si</i>
  <i type="int" name="ISTART">     0</i>
  <i type="int" name="ICHARG">     2</i>
  <i name="ENCUT">    240.00000000</i>
  <i type="int" name="ISMEAR">     0</i>
  <i name="SIGMA">      0.10000000</i>
 </incar>
 <primitive_cell>
  <structure name="primitive_cell" >
   <crystal>
    <varray name="basis" >
     <v>       1.80000000       1.80000000       0.00000000 </v>
     <v>       0.00000000       1.80000000       1.80000000 </v>
     <v>       1.80000000       0.00000000       1.80000000 </v>
    </varray>
    <i name="volume">     11.66400000 </i>
    <varray name="rec_basis" >
     <v>       0.27777778       0.27777778      -0.27777778 </v>
     <v>      -0.27777778       0.27777778       0.27777778 </v>
     <v>       0.27777778      -0.27777778       0.27777778 </v>
    </varray>
   </crystal>
   <varray name="positions" >
    <v>       0.00000000       0.00000000       0.00000000 </v>
   </varray>
  </structure>
  <varray name="primitive_index" >
   <v type="int" >        1 </v>
  </varray>
 </primitive_cell>
 <kpoints>
  <generation param="Monkhorst-Pack">
   <v type="int" name="divisions">      11       11       11 </v>
   <v name="usershift">      0.00000000       0.00000000       0.00000000 </v>
   <v name="genvec1">      0.09090909       0.00000000       0.00000000 </v>
   <v name="genvec2">      0.00000000       0.09090909      -0.00000000 </v>
   <v name="genvec3">     -0.00000000      -0.00000000       0.09090909 </v>
   <v name="shift">      0.00000000       0.00000000       0.00000000 </v>
  </generation>
  <varray name="kpointlist" >
   <v>       0.00000000       0.00000000       0.00000000 </v>
   <v>       0.09090909       0.00000000       0.00000000 </v>
   <v>       0.18181818       0.00000000      -0.00000000 </v>
   <v>       0.27272727      -0.00000000      -0.00000000 </v>
   <v>       0.36363636       0.00000000      -0.00000000 </v>
   <v>       0.45454545       0.00000000       0.00000000 </v>
   <v>       0.09090909       0.09090909       0.00000000 </v>
   <v>       0.18181818       0.09090909      -0.00000000 </v>
   <v>       0.27272727       0.09090909       0.00000000 </v>
   <v>       0.36363636       0.09090909      -0.00000000 </v>
   <v>       0.45454545       0.09090909      -0.00000000 </v>
   <v>      -0.45454545       0.09090909       0.00000000 </v>
   <v>      -0.36363636       0.09090909       0.00000000 </v>
   <v>      -0.27272727       0.09090909       0.00000000 </v>
   <v>      -0.18181818       0.09090909       0.00000000 </v>
   <v>      -0.09090909       0.09090909       0.00000000 </v>
   <v>       0.18181818       0.18181818      -0.00000000 </v>
   <v>       0.27272727       0.18181818      -0.00000000 </v>
   <v>       0.36363636       0.18181818       0.00000000 </v>
   <v>       0.45454545       0.18181818      -0.00000000 </v>
   <v>      -0.45454545       0.18181818       0.00000000 </v>
   <v>      -0.36363636       0.18181818       0.00000000 </v>
   <v>      -0.27272727       0.18181818      -0.00000000 </v>
   <v>      -0.18181818       0.18181818      -0.00000000 </v>
   <v>       0.27272727       0.27272727       0.00000000 </v>
   <v>       0.36363636       0.27272727       0.00000000 </v>
   <v>       0.45454545       0.27272727       0.00000000 </v>
   <v>      -0.45454545       0.27272727       0.00000000 </v>
   <v>      -0.36363636       0.27272727       0.00000000 </v>
   <v>      -0.27272727       0.27272727       0.00000000 </v>
   <v>       0.36363636       0.36363636       0.00000000 </v>
   <v>       0.45454545       0.36363636      -0.00000000 </v>
   <v>      -0.45454545       0.36363636       0.00000000 </v>
   <v>      -0.36363636       0.36363636       0.00000000 </v>
   <v>       0.45454545       0.45454545      -0.00000000 </v>
   <v>      -0.45454545       0.45454545      -0.00000000 </v>
   <v>       0.27272727       0.18181818       0.09090909 </v>
   <v>       0.36363636       0.18181818       0.09090909 </v>
   <v>       0.45454545       0.18181818       0.09090909 </v>
   <v>      -0.45454545       0.18181818       0.09090909 </v>
   <v>       0.36363636       0.27272727       0.09090909 </v>
   <v>       0.45454545       0.27272727       0.09090909 </v>
   <v>      -0.45454545       0.27272727       0.09090909 </v>
   <v>      -0.36363636       0.27272727       0.09090909 </v>
   <v>      -0.27272727       0.27272727       0.09090909 </v>
   <v>      -0.18181818       0.27272727       0.09090909 </v>
   <v>       0.45454545       0.36363636       0.09090909 </v>
   <v>      -0.45454545       0.36363636       0.09090909 </v>
   <v>      -0.36363636       0.36363636       0.09090909 </v>
   <v>      -0.27272727       0.36363636       0.09090909 </v>
   <v>      -0.45454545       0.45454545       0.09090909 </v>
   <v>      -0.36363636       0.45454545       0.09090909 </v>
   <v>      -0.45454545       0.36363636       0.18181818 </v>
   <v>      -0.36363636       0.36363636       0.18181818 </v>
   <v>      -0.36363636       0.45454545       0.18181818 </v>
   <v>      -0.27272727       0.45454545       0.18181818 </v>
  </varray>
  <varray name="weights" >
   <v>       0.00075131 </v>
   <v>       0.00601052 </v>
   <v>       0.00601052 </v>
   <v>       0.00601052 </v>
   <v>       0.00601052 </v>
   <v>       0.00601052 </v>
   <v>       0.00450789 </v>
   <v>       0.01803156 </v>
   <v>       0.01803156 </v>
   <v>       0.01803156 </v>
   <v>       0.01803156 </v>
   <v>       0.01803156 </v>
   <v>       0.01803156 </v>
   <v>       0.01803156 </v>
   <v>       0.01803156 </v>
   <v>       0.00901578 </v>
   <v>       0.00450789 </v>
   <v>       0.01803156 </v>
   <v>       0.01803156 </v>
   <v>       0.01803156 </v>
   <v>       0.01803156 </v>
   <v>       0.01803156 </v>
   <v>       0.01803156 </v>
   <v>       0.00901578 </v>
   <v>       0.00450789 </v>
   <v>       0.01803156 </v>
   <v>       0.01803156 </v>
   <v>       0.01803156 </v>
   <v>       0.01803156 </v>
   <v>       0.00901578 </v>
   <v>       0.00450789 </v>
   <v>       0.01803156 </v>
   <v>       0.01803156 </v>
   <v>       0.00901578 </v>
   <v>       0.00450789 </v>
   <v>       0.00901578 </v>
   <v>       0.01803156 </v>
   <v>       0.03606311 </v>
   <v>       0.03606311 </v>
   <v>       0.03606311 </v>
   <v>       0.01803156 </v>
   <v>       0.03606311 </v>
   <v>       0.03606311 </v>
   <v>       0.03606311 </v>
   <v>       0.03606311 </v>
   <v>       0.01803156 </v>
   <v>       0.01803156 </v>
   <v>       0.03606311 </v>
   <v>       0.03606311 </v>
   <v>       0.01803156 </v>
   <v>       0.01803156 </v>
   <v>       0.01803156 </v>
   <v>       0.01803156 </v>
   <v>       0.03606311 </v>
   <v>       0.01803156 </v>
   <v>       0.01803156 </v>
  </varray>
 </kpoints>
 <parameters>
  <separator name="general" >
   <i type="string" name="SYSTEM">fcc Si</i>
   <i type="logical" name="LCOMPAT"> F  </i>
  </separator>
  <separator name="electronic" >
   <i type="string" name="PREC">normal</i>
   <i name="ENMAX">    240.00000000</i>
   <i name="ENAUG">    322.06900000</i>
   <i name="EDIFF">      0.00010000</i>
   <i type="int" name="IALGO">    38</i>
   <i type="int" name="IWAVPR">    10</i>
   <i type="int" name="NBANDS">     8</i>
   <i type="int" name="NBANDSLOW">    -1</i>
   <i type="int" name="NBANDSHIGH">    -1</i>
   <i name="NELECT">      4.00000000</i>
   <i type="int" name="TURBO">     0</i>
   <i type="int" name="IRESTART">     0</i>
   <i type="int" name="NREBOOT">     0</i>
   <i type="int" name="NMIN">     0</i>
   <i name="EREF">      0.00000000</i>
   <separator name="electronic smearing" >
    <i type="int" name="ISMEAR">     0</i>
    <i name="SIGMA">      0.10000000</i>
    <i name="KSPACING">      0.50000000</i>
    <i type="logical" name="KGAMMA"> T  </i>
    <i type="logical" name="KBLOWUP"> T  </i>
   </separator>
   <separator name="electronic projectors" >
    <i type="logical" name="LREAL"> F  </i>
    <v name="ROPT">      0.00000000</v>
    <i type="int" name="LMAXPAW">  -100</i>
    <i type="int" name="LMAXMIX">     2</i>
    <i type="logical" name="NLSPLINE"> F  </i>
   </separator>
   <separator name="electronic startup" >
    <i type="int" name="ISTART">     0</i>
    <i type="int" name="ICHARG">     2</i>
    <i type="int" name="INIWAV">     1</i>
   </separator>
   <separator name="electronic spin" >
    <i type="int" name="ISPIN">     1</i>
    <i type="logical" name="LNONCOLLINEAR"> F  </i>
    <v name="MAGMOM">      1.00000000</v>
    <i name="NUPDOWN">     -1.00000000</i>
    <i type="logical" name="LSORBIT"> F  </i>
    <v name="SAXIS">      0.00000000      0.00000000      1.00000000</v>
    <i type="logical" name="LSPIRAL"> F  </i>
    <v name="QSPIRAL">      0.00000000      0.00000000      0.00000000</v>
    <i type="logical" name="LZEROZ"> F  </i>
   </separator>
   <separator name="electronic exchange-correlation" >
    <i type="logical" name="LASPH"> F  </i>
    <i type="logical" name="LMETAGGA"> F  </i>
   </separator>
   <separator name="electronic convergence" >
    <i type="int" name="NELM">    60</i>
    <i type="int" name="NELMDL">    -5</i>
    <i type="int" name="NELMIN">     2</i>
    <i name="ENINI">    240.00000000</i>
    <separator name="electronic convergence detail" >
     <i type="logical" name="LDIAG"> T  </i>
     <i type="logical" name="LSUBROT"> F  </i>
     <i name="WEIMIN">      0.00000000</i>
     <i name="EBREAK">      0.00000313</i>
     <i name="DEPER">      0.30000000</i>
     <i type="int" name="NRMM">     4</i>
     <i name="TIME">      0.40000000</i>
    </separator>
   </separator>
   <separator name="electronic mixer" >
    <i name="AMIX">      0.40000000</i>
    <i name="BMIX">      1.00000000</i>
    <i name="AMIN">      0.10000000</i>
    <i name="AMIX_MAG">      1.60000000</i>
    <i name="BMIX_MAG">      1.00000000</i>
    <separator name="electronic mixer details" >
     <i type="int" name="IMIX">     4</i>
     <i type="logical" name="MIXFIRST"> F  </i>
     <i type="int" name="MAXMIX">   -45</i>
     <i name="WC">    100.00000000</i>
     <i type="int" name="INIMIX">     1</i>
     <i type="int" name="MIXPRE">     1</i>
     <i type="int" name="MREMOVE">     5</i>
    </separator>
   </separator>
   <separator name="electronic dipolcorrection" >
    <i type="logical" name="LDIPOL"> F  </i>
    <i type="logical" name="LMONO"> F  </i>
    <i type="int" name="IDIPOL">     0</i>
    <i name="EPSILON">      1.00000000</i>
    <v name="DIPOL">   -100.00000000   -100.00000000   -100.00000000</v>
    <i name="EFIELD">      0.00000000</i>
   </separator>
  </separator>
  <separator name="grids" >
   <i type="int" name="NGX">    10</i>
   <i type="int" name="NGY">    10</i>
   <i type="int" name="NGZ">    10</i>
   <i type="int" name="NGXF">    20</i>
   <i type="int" name="NGYF">    20</i>
   <i type="int" name="NGZF">    20</i>
   <i type="logical" name="ADDGRID"> F  </i>
  </separator>
  <separator name="ionic" >
   <i type="int" name="NSW">     0</i>
   <i type="int" name="IBRION">    -1</i>
   <i type="int" name="MDALGO">     0</i>
   <i type="int" name="ISIF">     2</i>
   <i name="PSTRESS">      0.00000000</i>
   <i name="EDIFFG">      0.00100000</i>
   <i type="int" name="NFREE">     0</i>
   <i name="POTIM">      0.50000000</i>
   <i name="SMASS">     -3.00000000</i>
   <i name="SCALEE">      1.00000000</i>
  </separator>
  <separator name="ionic md" >
   <i name="TEBEG">      0.00010000</i>
   <i name="TEEND">      0.00010000</i>
   <i type="int" name="NBLOCK">     1</i>
   <i type="int" name="KBLOCK">     1</i>
   <i type="int" name="NPACO">   256</i>
   <i name="APACO">     10.00000000</i>
  </separator>
  <separator name="symmetry" >
   <i type="int" name="ISYM">     2</i>
   <i name="SYMPREC">      0.00001000</i>
  </separator>
  <separator name="dos" >
   <i type="int" name="LORBIT">     0</i>
   <v name="RWIGS">     -1.00000000</v>
   <i type="int" name="NEDOS">   301</i>
   <i name="EMIN">     10.00000000</i>
   <i name="EMAX">    -10.00000000</i>
   <i name="EFERMI">      0.00000000</i>
  </separator>
  <separator name="writing" >
   <i type="int" name="NWRITE">     2</i>
   <i type="logical" name="LWAVE"> T  </i>
   <i type="logical" name="LDOWNSAMPLE"> F  </i>
   <i type="logical" name="LCHARG"> T  </i>
   <i type="logical" name="LPARD"> F  </i>
   <i type="logical" name="LVTOT"> F  </i>
   <i type="logical" name="LVHAR"> F  </i>
   <i type="logical" name="LELF"> F  </i>
   <i type="logical" name="LOPTICS"> F  </i>
   <v name="STM">      0.00000000      0.00000000      0.00000000      0.00000000      0.00000000      0.00000000      0.00000000</v>
  </separator>
  <separator name="performance" >
   <i type="int" name="NPAR">     4</i>
   <i type="int" name="NSIM">     4</i>
   <i type="int" name="NBLK">    -1</i>
   <i type="logical" name="LPLANE"> T  </i>
   <i type="logical" name="LSCALAPACK"> T  </i>
   <i type="logical" name="LSCAAWARE"> F  </i>
   <i type="logical" name="LSCALU"> F  </i>
   <i type="logical" name="LASYNC"> F  </i>
   <i type="logical" name="LORBITALREAL"> F  </i>
  </separator>
  <separator name="miscellaneous" >
   <i type="int" name="IDIOT">     3</i>
   <i type="int" name="PHON_NSTRUCT">    -1</i>
   <i type="logical" name="LMUSIC"> F  </i>
   <v name="POMASS">     28.08500000</v>
   <v name="DARWINR">      0.00000000</v>
   <v name="DARWINV">      1.00000000</v>
   <i type="logical" name="LCORR"> T  </i>
  </separator>
  <i type="logical" name="GGA_COMPAT"> T  </i>
  <i type="logical" name="LBERRY"> F  </i>
  <i type="int" name="ICORELEVEL">     0</i>
  <i type="logical" name="LDAU"> F  </i>
  <i type="int" name="I_CONSTRAINED_M">     0</i>
  <separator name="electronic exchange-correlation" >
   <i type="string" name="GGA">--</i>
   <i type="int" name="VOSKOWN">     0</i>
   <i type="logical" name="LHFCALC"> F  </i>
   <i type="string" name="PRECFOCK"></i>
   <i type="logical" name="LSYMGRAD"> F  </i>
   <i type="logical" name="LHFONE"> F  </i>
   <i type="logical" name="LRHFCALC"> F  </i>
   <i type="logical" name="LTHOMAS"> F  </i>
   <i type="logical" name="LMODELHF"> F  </i>
   <i type="logical" name="LFOCKACE"> F  </i>
   <i name="ENCUT4O">     -1.00000000</i>
   <i type="int" name="EXXOEP">     0</i>
   <i type="int" name="FOURORBIT">     0</i>
   <i name="AEXX">      0.00000000</i>
   <i name="HFALPHA">      0.00000000</i>
   <i name="MCALPHA">      0.00000000</i>
   <i name="ALDAX">      1.00000000</i>
   <i name="AGGAX">      1.00000000</i>
   <i name="ALDAC">      1.00000000</i>
   <i name="AGGAC">      1.00000000</i>
   <i type="int" name="NKREDX">     1</i>
   <i type="int" name="NKREDY">     1</i>
   <i type="int" name="NKREDZ">     1</i>
   <i type="logical" name="SHIFTRED"> F  </i>
   <i type="logical" name="ODDONLY"> F  </i>
   <i type="logical" name="EVENONLY"> F  </i>
   <i type="int" name="LMAXFOCK">     0</i>
   <i type="int" name="NMAXFOCKAE">     0</i>
   <i type="logical" name="LFOCKAEDFT"> F  </i>
   <i name="HFSCREEN">      0.00000000</i>
   <i name="HFSCREENC">      0.00000000</i>
   <i type="int" name="NBANDSGWLOW">     0</i>
  </separator>
  <separator name="vdW DFT" >
   <i type="logical" name="LUSE_VDW"> F  </i>
   <i name="Zab_VDW">     -0.84910000</i>
   <i name="PARAM1">      0.12340000</i>
   <i name="PARAM2">      1.00000000</i>
   <i name="PARAM3">      0.00000000</i>
  </separator>
  <separator name="model GW" >
   <i type="int" name="MODEL_GW">     0</i>
   <i name="MODEL_EPS0">      6.99840000</i>
   <i name="MODEL_ALPHA">      1.00000000</i>
  </separator>
  <separator name="linear response parameters" >
   <i type="logical" name="LEPSILON"> F  </i>
   <i type="logical" name="LRPA"> F  </i>
   <i type="logical" name="LNABLA"> F  </i>
   <i type="logical" name="LVEL"> F  </i>
   <i name="CSHIFT">      0.10000000</i>
   <i name="OMEGAMAX">     -1.00000000</i>
   <i name="DEG_THRESHOLD">      0.00200000</i>
   <i name="RTIME">     -0.10000000</i>
   <i name="WPLASMAI">      0.00000000</i>
   <v name="DFIELD">      0.00000000      0.00000000      0.00000000</v>
   <v name="WPLASMA">      0.00000000      0.00000000      0.00000000      0.00000000      0.00000000      0.00000000      0.00000000      0.00000000      0.00000000</v>
  </separator>
  <separator name="orbital magnetization" >
   <i type="logical" name="NUCIND"> F  </i>
   <v name="MAGPOS">      0.00000000      0.00000000      0.00000000</v>
   <i type="logical" name="LNICSALL"> T  </i>
   <i type="logical" name="ORBITALMAG"> F  </i>
   <i type="logical" name="LMAGBLOCH"> F  </i>
   <i type="logical" name="LCHIMAG"> F  </i>
   <i type="logical" name="LGAUGE"> T  </i>
   <i type="int" name="MAGATOM">     0</i>
   <v name="MAGDIPOL">      0.00000000      0.00000000      0.00000000</v>
   <v name="AVECCONST">      0.00000000      0.00000000      0.00000000</v>
  </separator>
  <separator name="response functions" >
   <i type="logical" name="LFINITE_TEMPERATURE"> F  </i>
   <i type="logical" name="LADDER"> F  </i>
   <i type="logical" name="LRPAFORCE"> F  </i>
   <i type="logical" name="LFXC"> F  </i>
   <i type="logical" name="LHARTREE"> T  </i>
   <i type="int" name="IBSE">     0</i>
   <v type="int" name="KPOINT">    -1     0     0     0</v>
   <i type="logical" name="LTCTC"> F  </i>
   <i type="logical" name="LTCTE"> F  </i>
   <i type="logical" name="LTETE"> F  </i>
   <i type="logical" name="LTRIPLET"> F  </i>
   <i type="logical" name="LFXCEPS"> F  </i>
   <i type="logical" name="LFXHEG"> F  </i>
   <i type="int" name="NATURALO">     2</i>
   <i type="logical" name="LHOLEGF"> F  </i>
   <i type="logical" name="L2ORDER"> F  </i>
   <i type="logical" name="LDMP1"> F  </i>
   <i type="logical" name="LMP2LT"> F  </i>
   <i type="logical" name="LSMP2LT"> F  </i>
   <i type="logical" name="LGWLF"> F  </i>
   <i name="ENCUTGW">     -2.00000000</i>
   <i name="ENCUTGWSOFT">     -2.00000000</i>
   <i name="ENCUTLF">     -1.00000000</i>
   <i type="logical" name="LESF_SPLINES"> F  </i>
   <i type="int" name="LMAXMP2">    -1</i>
   <i name="SCISSOR">      0.00000000</i>
   <i type="int" name="NOMEGA">     0</i>
   <i type="int" name="NOMEGAR">     0</i>
   <i type="int" name="NBANDSGW">    -1</i>
   <i type="int" name="NBANDSO">    -1</i>
   <i type="int" name="NBANDSV">    -1</i>
   <i type="int" name="NELMGW">     1</i>
   <i type="int" name="NELMHF">     1</i>
   <i type="int" name="DIM">     3</i>
   <i type="int" name="IESPILON">     4</i>
   <i type="int" name="ANTIRES">     0</i>
   <i name="OMEGAMAX">    -30.00000000</i>
   <i name="OMEGAMIN">    -30.00000000</i>
   <i name="OMEGATL">   -200.00000000</i>
   <i type="int" name="OMEGAGRID">     0</i>
   <i name="CSHIFT">     -0.10000000</i>
   <i type="logical" name="LSELFENERGY"> F  </i>
   <i type="logical" name="LSPECTRAL"> F  </i>
   <i type="logical" name="LSPECTRALGW"> F  </i>
   <i type="logical" name="LSINGLES"> F  </i>
   <i type="logical" name="LFERMIGW"> F  </i>
   <i type="logical" name="ODDONLYGW"> F  </i>
   <i type="logical" name="EVENONLYGW"> F  </i>
   <i type="int" name="NKREDLFX">     1</i>
   <i type="int" name="NKREDLFY">     1</i>
   <i type="int" name="NKREDLFZ">     1</i>
   <i type="int" name="MAXMEM">  2800</i>
   <i type="int" name="TELESCOPE">     0</i>
   <i type="int" name="NTAUPAR">    -1</i>
   <i type="int" name="NOMEGAPAR">    -1</i>
   <i name="DAMP_NEWTON">      0.80000001</i>
   <i name="LAMBDA">      1.00000000</i>
  </separator>
  <separator name="External order field" >
   <i name="OFIELD_KAPPA">      0.00000000</i>
   <v name="OFIELD_K">      0.00000000      0.00000000      0.00000000</v>
   <i name="OFIELD_Q6_NEAR">      0.00000000</i>
   <i name="OFIELD_Q6_FAR">      0.00000000</i>
   <i name="OFIELD_A">      0.00000000</i>
  </separator>
  <separator name="optional k-points parameters" >
   <i type="int" name="KPOINTS_OPT_MODE">     1</i>
   <i type="logical" name="LKPOINTS_OPT"> F  </i>
  </separator>
 </parameters>
 <atominfo>
  <atoms>       1 </atoms>
  <types>       1 </types>
  <array name="atoms" >
   <dimension dim="1">ion</dimension>
   <field type="string">element</field>
   <field type="int">atomtype</field>
   <set>
    <rc><c>Si</c><c>   1</c></rc>
   </set>
  </array>
  <array name="atomtypes" >
   <dimension dim="1">type</dimension>
   <field type="int">atomspertype</field>
   <field type="string">element</field>
   <field>mass</field>
   <field>valence</field>
   <field type="string">pseudopotential</field>
   <set>
    <rc><c>   1</c><c>Si</c><c>     28.08500000</c><c>      4.00000000</c><c>  PAW_PBE Si 05Jan2001                  </c></rc>
   </set>
  </array>
 </atominfo>
 <structure name="initialpos" >
  <crystal>
   <varray name="basis" >
    <v>       1.80000000       1.80000000       0.00000000 </v>
    <v>       0.00000000       1.80000000       1.80000000 </v>
    <v>       1.80000000       0.00000000       1.80000000 </v>
   </varray>
   <i name="volume">     11.66400000 </i>
   <varray name="rec_basis" >
    <v>       0.27777778       0.27777778      -0.27777778 </v>
    <v>      -0.27777778       0.27777778       0.27777778 </v>
    <v>       0.27777778      -0.27777778       0.27777778 </v>
   </varray>
  </crystal>
  <varray name="positions" >
   <v>       0.00000000       0.00000000       0.00000000 </v>
  </varray>
 </structure>
 <calculation>
  <scstep>
   <time name="dav">    0.04    0.04</time>
   <time name="total">    0.04    0.04</time>
   <energy>
    <i name="alphaZ">      2.88607088 </i>
    <i name="ewald">   -146.71341788 </i>
    <i name="hartreedc">     -0.27098807 </i>
    <i name="XCdc">     -8.19950162 </i>
    <i name="pawpsdc">     88.12379961 </i>
    <i name="pawaedc">    -70.53051779 </i>
    <i name="eentropy">     -0.00072969 </i>
    <i name="bandstr">     27.65635942 </i>
    <i name="atom">    103.06077658 </i>
    <i name="e_fr_energy">     -3.98814855 </i>
    <i name="e_wo_entrp">     -3.98741887 </i>
    <i name="e_0_energy">     -3.98778371 </i>
   </energy>
  </scstep>
  <scstep>
   <time name="dav">    0.05    0.05</time>
   <time name="total">    0.05    0.05</time>
   <energy>
    <i name="e_fr_energy">     -4.69223290 </i>
    <i name="e_wo_entrp">     -4.68945233 </i>
    <i name="e_0_energy">     -4.69084261 </i>
   </energy>
  </scstep>
  <scstep>
   <time name="dav">    0.04    0.04</time>
   <time name="total">    0.04    0.04</time>
   <energy>
    <i name="e_fr_energy">     -4.69350313 </i>
    <i name="e_wo_entrp">     -4.69071096 </i>
    <i name="e_0_energy">     -4.69210704 </i>
   </energy>
  </scstep>
  <scstep>
   <time name="dav">    0.05    0.05</time>
   <time name="total">    0.05    0.05</time>
   <energy>
    <i name="e_fr_energy">     -4.69350342 </i>
    <i name="e_wo_entrp">     -4.69071123 </i>
    <i name="e_0_energy">     -4.69210733 </i>
   </energy>
  </scstep>
  <scstep>
   <time name="dav">    0.03    0.03</time>
   <time name="total">    0.03    0.03</time>
   <energy>
    <i name="e_fr_energy">     -4.69350342 </i>
    <i name="e_wo_entrp">     -4.69071124 </i>
    <i name="e_0_energy">     -4.69210733 </i>
   </energy>
  </scstep>
  <scstep>
   <time name="dav">    0.04    0.04</time>
   <time name="total">    0.04    0.04</time>
   <energy>
    <i name="e_fr_energy">     -4.67358852 </i>
    <i name="e_wo_entrp">     -4.67078530 </i>
    <i name="e_0_energy">     -4.67218691 </i>
   </energy>
  </scstep>
  <scstep>
   <time name="dav">    0.04    0.04</time>
   <time name="total">    0.04    0.04</time>
   <energy>
    <i name="e_fr_energy">     -4.66156397 </i>
    <i name="e_wo_entrp">     -4.65871529 </i>
    <i name="e_0_energy">     -4.66013963 </i>
   </energy>
  </scstep>
  <scstep>
   <time name="dav">    0.03    0.03</time>
   <time name="total">    0.03    0.03</time>
   <energy>
    <i name="alphaZ">      2.88607088 </i>
    <i name="ewald">   -146.71341788 </i>
    <i name="hartreedc">     -0.26656558 </i>
    <i name="XCdc">     -8.07084569 </i>
    <i name="pawpsdc">    574.65529684 </i>
    <i name="pawaedc">   -557.12275475 </i>
    <i name="eentropy">     -0.00285864 </i>
    <i name="bandstr">     26.91280511 </i>
    <i name="atom">    103.06077658 </i>
    <i name="e_fr_energy">     -4.66149313 </i>
    <i name="e_wo_entrp">     -4.65863449 </i>
    <i name="e_0_energy">     -4.66006381 </i>
   </energy>
  </scstep>
  <structure>
   <crystal>
    <varray name="basis" >
     <v>       1.80000000       1.80000000       0.00000000 </v>
     <v>       0.00000000       1.80000000       1.80000000 </v>
     <v>       1.80000000       0.00000000       1.80000000 </v>
    </varray>
    <i name="volume">     11.66400000 </i>
    <varray name="rec_basis" >
     <v>       0.27777778       0.27777778      -0.27777778 </v>
     <v>      -0.27777778       0.27777778       0.27777778 </v>
     <v>       0.27777778      -0.27777778       0.27777778 </v>
    </varray>
   </crystal>
   <varray name="positions" >
    <v>       0.00000000       0.00000000       0.00000000 </v>
   </varray>
  </structure>
  <varray name="forces" >
   <v>      -0.00000000       0.00000000       0.00000000 </v>
  </varray>
  <varray name="stress" >
   <v>     287.15389922       0.00000000      -0.00000000 </v>
   <v>       0.00000000     287.15389922       0.00000000 </v>
   <v>      -0.00000000      -0.00000000     287.15389922 </v>
  </varray>
  <energy>
   <i name="e_fr_energy">     -4.66149313 </i>
   <i name="e_wo_entrp">     -4.65863449 </i>
   <i name="e_0_energy">     -4.66006381 </i>
  </energy>
  <time name="totalsc">    0.35    0.36</time>
  <eigenvalues>
   <array>
    <dimension dim="1">band</dimension>
    <dimension dim="2">kpoint</dimension>
    <dimension dim="3">spin</dimension>
    <field>eigene</field>
    <field>occ</field>
    <set>
     <set comment="spin 1">
      <set comment="kpoint 1">
       <r>   -3.3309    1.0000 </r>
       <r>   26.1994    0.0000 </r>
       <r>   26.1995    0.0000 </r>
       <r>   26.1995    0.0000 </r>
       <r>   27.2900    0.0000 </r>
       <r>   27.2901    0.0000 </r>
       <r>   27.2901    0.0000 </r>
       <r>   31.9539    0.0000 </r>
      </set>
      <set comment="kpoint 2">
       <r>   -3.0525    1.0000 </r>
       <r>   22.4659    0.0000 </r>
       <r>   25.1973    0.0000 </r>
       <r>   25.1976    0.0000 </r>
       <r>   28.6747    0.0000 </r>
       <r>   28.6906    0.0000 </r>
       <r>   28.6908    0.0000 </r>
       <r>   33.1690    0.0000 </r>
      </set>
      <set comment="kpoint 3">
       <r>   -2.2198    1.0000 </r>
       <r>   17.9730    0.0000 </r>
       <r>   24.2380    0.0000 </r>
       <r>   24.2382    0.0000 </r>
       <r>   28.7022    0.0000 </r>
       <r>   29.7764    0.0000 </r>
       <r>   29.7770    0.0000 </r>
       <r>   32.2457    0.0000 </r>
      </set>
      <set comment="kpoint 4">
       <r>   -0.8419    1.0000 </r>
       <r>   13.7056    0.0000 </r>
       <r>   23.6954    0.0000 </r>
       <r>   23.6956    0.0000 </r>
       <r>   28.1142    0.0000 </r>
       <r>   28.1148    0.0000 </r>
       <r>   28.5609    0.0000 </r>
       <r>   33.8265    0.0000 </r>
      </set>
      <set comment="kpoint 5">
       <r>    1.0704    1.0000 </r>
       <r>    9.8488    1.0000 </r>
       <r>   23.6065    0.0000 </r>
       <r>   23.6067    0.0000 </r>
       <r>   26.4019    0.0000 </r>
       <r>   26.4024    0.0000 </r>
       <r>   28.7086    0.0000 </r>
       <r>   31.9897    0.0000 </r>
      </set>
      <set comment="kpoint 6">
       <r>    3.5007    1.0000 </r>
       <r>    6.4363    1.0000 </r>
       <r>   23.9029    0.0000 </r>
       <r>   23.9031    0.0000 </r>
       <r>   25.1789    0.0000 </r>
       <r>   25.1794    0.0000 </r>
       <r>   29.1772    0.0000 </r>
       <r>   30.6038    0.0000 </r>
      </set>
      <set comment="kpoint 7">
       <r>   -2.9598    1.0000 </r>
       <r>   23.5914    0.0000 </r>
       <r>   23.5915    0.0000 </r>
       <r>   24.3819    0.0000 </r>
       <r>   26.5609    0.0000 </r>
       <r>   30.4464    0.0000 </r>
       <r>   30.4465    0.0000 </r>
       <r>   30.9327    0.0000 </r>
      </set>
      <set comment="kpoint 8">
       <r>   -2.3123    1.0000 </r>
       <r>   19.6134    0.0000 </r>
       <r>   22.4212    0.0000 </r>
       <r>   24.3471    0.0000 </r>
       <r>   26.9051    0.0000 </r>
       <r>   28.6755    0.0000 </r>
       <r>   31.2383    0.0000 </r>
       <r>   32.0947    0.0000 </r>
      </set>
      <set comment="kpoint 9">
       <r>   -1.1168    1.0000 </r>
       <r>   15.2863    0.0000 </r>
       <r>   21.7157    0.0000 </r>
       <r>   23.8620    0.0000 </r>
       <r>   25.4157    0.0000 </r>
       <r>   29.9798    0.0000 </r>
       <r>   31.1204    0.0000 </r>
       <r>   31.4248    0.0000 </r>
      </set>
      <set comment="kpoint 10">
       <r>    0.6166    1.0000 </r>
       <r>   11.3096    1.0000 </r>
       <r>   21.4950    0.0000 </r>
       <r>   23.2353    0.0000 </r>
       <r>   23.9306    0.0000 </r>
       <r>   29.4224    0.0000 </r>
       <r>   30.8361    0.0000 </r>
       <r>   33.3542    0.0000 </r>
      </set>
      <set comment="kpoint 11">
       <r>    2.8733    1.0000 </r>
       <r>    7.7514    1.0000 </r>
       <r>   21.7296    0.0000 </r>
       <r>   21.8103    0.0000 </r>
       <r>   24.1020    0.0000 </r>
       <r>   27.9739    0.0000 </r>
       <r>   31.0343    0.0000 </r>
       <r>   32.9644    0.0000 </r>
      </set>
      <set comment="kpoint 12">
       <r>    4.6564    1.0000 </r>
       <r>    5.6424    1.0000 </r>
       <r>   20.7549    0.0000 </r>
       <r>   22.4363    0.0000 </r>
       <r>   24.8599    0.0000 </r>
       <r>   26.9755    0.0000 </r>
       <r>   30.7837    0.0000 </r>
       <r>   32.9313    0.0000 </r>
      </set>
      <set comment="kpoint 13">
       <r>    2.0640    1.0000 </r>
       <r>    8.8832    1.0000 </r>
       <r>   20.1782    0.0000 </r>
       <r>   23.5861    0.0000 </r>
       <r>   26.1064    0.0000 </r>
       <r>   26.4626    0.0000 </r>
       <r>   30.2643    0.0000 </r>
       <r>   33.9267    0.0000 </r>
      </set>
      <set comment="kpoint 14">
       <r>   -0.0200    1.0000 </r>
       <r>   12.5831    1.0000 </r>
       <r>   20.0863    0.0000 </r>
       <r>   25.0480    0.0000 </r>
       <r>   26.5452    0.0000 </r>
       <r>   27.7833    0.0000 </r>
       <r>   29.9822    0.0000 </r>
       <r>   33.4974    0.0000 </r>
      </set>
      <set comment="kpoint 15">
       <r>   -1.5755    1.0000 </r>
       <r>   16.6706    0.0000 </r>
       <r>   20.5189    0.0000 </r>
       <r>   26.2563    0.0000 </r>
       <r>   27.6065    0.0000 </r>
       <r>   29.7799    0.0000 </r>
       <r>   29.9075    0.0000 </r>
       <r>   30.6990    0.0000 </r>
      </set>
      <set comment="kpoint 16">
       <r>   -2.5894    1.0000 </r>
       <r>   20.6940    0.0000 </r>
       <r>   21.7531    0.0000 </r>
       <r>   26.9667    0.0000 </r>
       <r>   27.5269    0.0000 </r>
       <r>   29.5067    0.0000 </r>
       <r>   30.7623    0.0000 </r>
       <r>   30.7981    0.0000 </r>
      </set>
      <set comment="kpoint 17">
       <r>   -1.8514    1.0000 </r>
       <r>   21.0830    0.0000 </r>
       <r>   21.0830    0.0000 </r>
       <r>   21.7537    0.0000 </r>
       <r>   24.4949    0.0000 </r>
       <r>   25.7285    0.0000 </r>
       <r>   34.4076    0.0000 </r>
       <r>   34.4077    0.0000 </r>
      </set>
      <set comment="kpoint 18">
       <r>   -0.8421    1.0000 </r>
       <r>   17.2783    0.0000 </r>
       <r>   20.2031    0.0000 </r>
       <r>   22.1417    0.0000 </r>
       <r>   22.3300    0.0000 </r>
       <r>   26.0076    0.0000 </r>
       <r>   34.4583    0.0000 </r>
       <r>   35.3281    0.0000 </r>
      </set>
      <set comment="kpoint 19">
       <r>    0.7071    1.0000 </r>
       <r>   13.2425    0.6957 </r>
       <r>   19.8102    0.0000 </r>
       <r>   20.0147    0.0000 </r>
       <r>   22.2332    0.0000 </r>
       <r>   28.5961    0.0000 </r>
       <r>   32.8742    0.0000 </r>
       <r>   35.4257    0.0000 </r>
      </set>
      <set comment="kpoint 20">
       <r>    2.7811    1.0000 </r>
       <r>    9.5711    1.0000 </r>
       <r>   18.2632    0.0000 </r>
       <r>   19.8935    0.0000 </r>
       <r>   22.4402    0.0000 </r>
       <r>   31.3828    0.0000 </r>
       <r>   31.6759    0.0000 </r>
       <r>   35.3688    0.0000 </r>
      </set>
      <set comment="kpoint 21">
       <r>    5.3559    1.0000 </r>
       <r>    6.3487    1.0000 </r>
       <r>   16.9957    0.0000 </r>
       <r>   20.4575    0.0000 </r>
       <r>   23.0788    0.0000 </r>
       <r>   30.2736    0.0000 </r>
       <r>   33.2770    0.0000 </r>
       <r>   36.4958    0.0000 </r>
      </set>
      <set comment="kpoint 22">
       <r>    3.5892    1.0000 </r>
       <r>    8.4245    1.0000 </r>
       <r>   16.2557    0.0000 </r>
       <r>   21.4946    0.0000 </r>
       <r>   24.2180    0.0000 </r>
       <r>   29.5955    0.0000 </r>
       <r>   32.9118    0.0000 </r>
       <r>   36.5054    0.0000 </r>
      </set>
      <set comment="kpoint 23">
       <r>    1.3415    1.0000 </r>
       <r>   11.8981    1.0000 </r>
       <r>   16.0732    0.0000 </r>
       <r>   22.9791    0.0000 </r>
       <r>   25.8195    0.0000 </r>
       <r>   29.3593    0.0000 </r>
       <r>   32.3485    0.0000 </r>
       <r>   32.9082    0.0000 </r>
      </set>
      <set comment="kpoint 24">
       <r>   -0.3848    1.0000 </r>
       <r>   15.2535    0.0000 </r>
       <r>   16.9344    0.0000 </r>
       <r>   24.8760    0.0000 </r>
       <r>   27.8046    0.0000 </r>
       <r>   29.1928    0.0000 </r>
       <r>   30.1682    0.0000 </r>
       <r>   31.4923    0.0000 </r>
      </set>
      <set comment="kpoint 25">
       <r>   -0.0210    1.0000 </r>
       <r>   19.1672    0.0000 </r>
       <r>   19.1673    0.0000 </r>
       <r>   19.3698    0.0000 </r>
       <r>   19.6075    0.0000 </r>
       <r>   23.6932    0.0000 </r>
       <r>   37.4089    0.0000 </r>
       <r>   38.0725    0.0000 </r>
      </set>
      <set comment="kpoint 26">
       <r>    1.3394    1.0000 </r>
       <r>   15.5852    0.0000 </r>
       <r>   16.9501    0.0000 </r>
       <r>   18.6122    0.0000 </r>
       <r>   20.5944    0.0000 </r>
       <r>   24.5569    0.0000 </r>
       <r>   36.5487    0.0000 </r>
       <r>   38.8778    0.0000 </r>
      </set>
      <set comment="kpoint 27">
       <r>    3.2230    1.0000 </r>
       <r>   11.8629    1.0000 </r>
       <r>   14.9870    0.0000 </r>
       <r>   18.5348    0.0000 </r>
       <r>   20.9176    0.0000 </r>
       <r>   27.4735    0.0000 </r>
       <r>   35.1176    0.0000 </r>
       <r>   38.4112    0.0000 </r>
      </set>
      <set comment="kpoint 28">
       <r>    5.6045    1.0000 </r>
       <r>    8.5226    1.0000 </r>
       <r>   13.5536    0.0001 </r>
       <r>   18.9346    0.0000 </r>
       <r>   21.4590    0.0000 </r>
       <r>   31.0769    0.0000 </r>
       <r>   33.9274    0.0000 </r>
       <r>   37.3971    0.0000 </r>
      </set>
      <set comment="kpoint 29">
       <r>    5.6289    1.0000 </r>
       <r>    8.4282    1.0000 </r>
       <r>   12.6929    1.0000 </r>
       <r>   19.8114    0.0000 </r>
       <r>   22.4645    0.0000 </r>
       <r>   33.1290    0.0000 </r>
       <r>   34.5386    0.0000 </r>
       <r>   36.3148    0.0000 </r>
      </set>
      <set comment="kpoint 30">
       <r>    3.2311    1.0000 </r>
       <r>   11.1138    1.0000 </r>
       <r>   12.9585    1.0000 </r>
       <r>   21.1749    0.0000 </r>
       <r>   23.9434    0.0000 </r>
       <r>   32.7193    0.0000 </r>
       <r>   32.8748    0.0000 </r>
       <r>   34.4879    0.0000 </r>
      </set>
      <set comment="kpoint 31">
       <r>    2.5055    1.0000 </r>
       <r>   14.2915    0.0000 </r>
       <r>   17.8943    0.0000 </r>
       <r>   17.8944    0.0000 </r>
       <r>   18.1753    0.0000 </r>
       <r>   22.4694    0.0000 </r>
       <r>   39.4508    0.0000 </r>
       <r>   41.1333    0.0000 </r>
      </set>
      <set comment="kpoint 32">
       <r>    4.1871    1.0000 </r>
       <r>   12.1571    1.0000 </r>
       <r>   14.5600    0.0000 </r>
       <r>   17.6575    0.0000 </r>
       <r>   19.5512    0.0000 </r>
       <r>   23.6280    0.0000 </r>
       <r>   38.9196    0.0000 </r>
       <r>   41.4309    0.0000 </r>
      </set>
      <set comment="kpoint 33">
       <r>    6.3252    1.0000 </r>
       <r>   10.5565    1.0000 </r>
       <r>   11.2138    1.0000 </r>
       <r>   17.8973    0.0000 </r>
       <r>   20.2156    0.0000 </r>
       <r>   26.8854    0.0000 </r>
       <r>   37.7956    0.0000 </r>
       <r>   40.3050    0.0000 </r>
      </set>
      <set comment="kpoint 34">
       <r>    8.1554    1.0000 </r>
       <r>    8.3548    1.0000 </r>
       <r>   10.1808    1.0000 </r>
       <r>   18.6156    0.0000 </r>
       <r>   21.1222    0.0000 </r>
       <r>   30.8358    0.0000 </r>
       <r>   36.6466    0.0000 </r>
       <r>   37.4240    0.0000 </r>
      </set>
      <set comment="kpoint 35">
       <r>    5.6240    1.0000 </r>
       <r>    9.8911    1.0000 </r>
       <r>   17.2601    0.0000 </r>
       <r>   17.2602    0.0000 </r>
       <r>   17.4800    0.0000 </r>
       <r>   21.8452    0.0000 </r>
       <r>   41.4039    0.0000 </r>
       <r>   43.2429    0.0000 </r>
      </set>
      <set comment="kpoint 36">
       <r>    6.9813    1.0000 </r>
       <r>    8.7216    1.0000 </r>
       <r>   14.2178    0.0000 </r>
       <r>   17.3388    0.0000 </r>
       <r>   19.1927    0.0000 </r>
       <r>   23.3172    0.0000 </r>
       <r>   40.7101    0.0000 </r>
       <r>   42.3972    0.0000 </r>
      </set>
      <set comment="kpoint 37">
       <r>   -1.4837    1.0000 </r>
       <r>   18.0011    0.0000 </r>
       <r>   19.3477    0.0000 </r>
       <r>   24.9676    0.0000 </r>
       <r>   25.4541    0.0000 </r>
       <r>   27.5571    0.0000 </r>
       <r>   32.0906    0.0000 </r>
       <r>   32.9145    0.0000 </r>
      </set>
      <set comment="kpoint 38">
       <r>   -0.1114    1.0000 </r>
       <r>   14.2924    0.0000 </r>
       <r>   18.3065    0.0000 </r>
       <r>   22.7676    0.0000 </r>
       <r>   25.6842    0.0000 </r>
       <r>   29.2484    0.0000 </r>
       <r>   30.5366    0.0000 </r>
       <r>   33.4837    0.0000 </r>
      </set>
      <set comment="kpoint 39">
       <r>    1.7932    1.0000 </r>
       <r>   10.5144    1.0000 </r>
       <r>   18.1861    0.0000 </r>
       <r>   20.9168    0.0000 </r>
       <r>   25.7161    0.0000 </r>
       <r>   28.5091    0.0000 </r>
       <r>   32.3244    0.0000 </r>
       <r>   34.1801    0.0000 </r>
      </set>
      <set comment="kpoint 40">
       <r>    4.2119    1.0000 </r>
       <r>    7.1320    1.0000 </r>
       <r>   18.5954    0.0000 </r>
       <r>   19.5141    0.0000 </r>
       <r>   26.0844    0.0000 </r>
       <r>   27.2552    0.0000 </r>
       <r>   33.3887    0.0000 </r>
       <r>   36.1455    0.0000 </r>
      </set>
      <set comment="kpoint 41">
       <r>    0.3437    1.0000 </r>
       <r>   15.9513    0.0000 </r>
       <r>   17.4342    0.0000 </r>
       <r>   19.7010    0.0000 </r>
       <r>   23.5260    0.0000 </r>
       <r>   25.9080    0.0000 </r>
       <r>   33.8286    0.0000 </r>
       <r>   37.2476    0.0000 </r>
      </set>
      <set comment="kpoint 42">
       <r>    2.0615    1.0000 </r>
       <r>   12.5776    1.0000 </r>
       <r>   16.6610    0.0000 </r>
       <r>   17.6155    0.0000 </r>
       <r>   24.1715    0.0000 </r>
       <r>   28.1479    0.0000 </r>
       <r>   32.2632    0.0000 </r>
       <r>   37.8028    0.0000 </r>
      </set>
      <set comment="kpoint 43">
       <r>    4.2945    1.0000 </r>
       <r>    9.1186    1.0000 </r>
       <r>   15.9893    0.0000 </r>
       <r>   16.8902    0.0000 </r>
       <r>   24.5943    0.0000 </r>
       <r>   30.4368    0.0000 </r>
       <r>   31.9794    0.0000 </r>
       <r>   37.4192    0.0000 </r>
      </set>
      <set comment="kpoint 44">
       <r>    6.0609    1.0000 </r>
       <r>    7.0281    1.0000 </r>
       <r>   14.9095    0.0000 </r>
       <r>   17.6196    0.0000 </r>
       <r>   25.3759    0.0000 </r>
       <r>   29.6210    0.0000 </r>
       <r>   35.0958    0.0000 </r>
       <r>   35.7195    0.0000 </r>
      </set>
      <set comment="kpoint 45">
       <r>    3.4977    1.0000 </r>
       <r>   10.1645    1.0000 </r>
       <r>   14.3974    0.0000 </r>
       <r>   18.8640    0.0000 </r>
       <r>   26.5873    0.0000 </r>
       <r>   29.0189    0.0000 </r>
       <r>   32.5904    0.0000 </r>
       <r>   36.3716    0.0000 </r>
      </set>
      <set comment="kpoint 46">
       <r>    1.4318    1.0000 </r>
       <r>   13.1870    0.9026 </r>
       <r>   14.9705    0.0000 </r>
       <r>   20.6014    0.0000 </r>
       <r>   28.0779    0.0000 </r>
       <r>   28.1979    0.0000 </r>
       <r>   30.0715    0.0000 </r>
       <r>   35.4860    0.0000 </r>
      </set>
      <set comment="kpoint 47">
       <r>    2.8646    1.0000 </r>
       <r>   14.5702    0.0000 </r>
       <r>   14.6198    0.0000 </r>
       <r>   16.1406    0.0000 </r>
       <r>   22.1724    0.0000 </r>
       <r>   24.7506    0.0000 </r>
       <r>   36.0284    0.0000 </r>
       <r>   40.8674    0.0000 </r>
      </set>
      <set comment="kpoint 48">
       <r>    4.8973    1.0000 </r>
       <r>   11.5284    1.0000 </r>
       <r>   12.8606    1.0000 </r>
       <r>   15.6820    0.0000 </r>
       <r>   23.1940    0.0000 </r>
       <r>   27.3199    0.0000 </r>
       <r>   34.7060    0.0000 </r>
       <r>   39.8676    0.0000 </r>
      </set>
      <set comment="kpoint 49">
       <r>    7.3694    1.0000 </r>
       <r>    8.4211    1.0000 </r>
       <r>   11.6526    1.0000 </r>
       <r>   16.2166    0.0000 </r>
       <r>   23.9697    0.0000 </r>
       <r>   30.9676    0.0000 </r>
       <r>   33.6466    0.0000 </r>
       <r>   36.7474    0.0000 </r>
      </set>
      <set comment="kpoint 50">
       <r>    5.7130    1.0000 </r>
       <r>    9.7312    1.0000 </r>
       <r>   11.5739    1.0000 </r>
       <r>   17.2914    0.0000 </r>
       <r>   25.0958    0.0000 </r>
       <r>   32.2742    0.0000 </r>
       <r>   33.0355    0.0000 </r>
       <r>   35.5025    0.0000 </r>
      </set>
      <set comment="kpoint 51">
       <r>    5.9748    1.0000 </r>
       <r>   10.2385    1.0000 </r>
       <r>   13.8757    0.0000 </r>
       <r>   15.4695    0.0000 </r>
       <r>   21.4921    0.0000 </r>
       <r>   24.1510    0.0000 </r>
       <r>   38.6129    0.0000 </r>
       <r>   41.0528    0.0000 </r>
      </set>
      <set comment="kpoint 52">
       <r>    7.6679    1.0000 </r>
       <r>    9.4278    1.0000 </r>
       <r>   11.2118    1.0000 </r>
       <r>   15.3504    0.0000 </r>
       <r>   22.8723    0.0000 </r>
       <r>   27.0352    0.0000 </r>
       <r>   37.3842    0.0000 </r>
       <r>   37.7940    0.0000 </r>
      </set>
      <set comment="kpoint 53">
       <r>    3.9379    1.0000 </r>
       <r>   11.8030    1.0000 </r>
       <r>   13.6018    0.0000 </r>
       <r>   15.6802    0.0000 </r>
       <r>   26.9323    0.0000 </r>
       <r>   28.5107    0.0000 </r>
       <r>   30.8541    0.0000 </r>
       <r>   39.2828    0.0000 </r>
      </set>
      <set comment="kpoint 54">
       <r>    6.3097    1.0000 </r>
       <r>    9.1224    1.0000 </r>
       <r>   13.3328    0.2221 </r>
       <r>   14.2749    0.0000 </r>
       <r>   27.9595    0.0000 </r>
       <r>   29.1470    0.0000 </r>
       <r>   31.9737    0.0000 </r>
       <r>   36.0712    0.0000 </r>
      </set>
      <set comment="kpoint 55">
       <r>    7.0250    1.0000 </r>
       <r>   11.1092    1.0000 </r>
       <r>   11.2600    1.0000 </r>
       <r>   12.9792    1.0000 </r>
       <r>   26.2702    0.0000 </r>
       <r>   28.1371    0.0000 </r>
       <r>   33.4141    0.0000 </r>
       <r>   36.7862    0.0000 </r>
      </set>
      <set comment="kpoint 56">
       <r>    8.7610    1.0000 </r>
       <r>    9.0436    1.0000 </r>
       <r>   10.8531    1.0000 </r>
       <r>   13.0589    0.9991 </r>
       <r>   27.7481    0.0000 </r>
       <r>   31.0477    0.0000 </r>
       <r>   31.6661    0.0000 </r>
       <r>   33.9635    0.0000 </r>
      </set>
     </set>
    </set>
   </array>
  </eigenvalues>
  <separator name="orbital magnetization" >
   <v name="MAGDIPOLOUT">      0.00000000      0.00000000      0.00000000</v>
  </separator>
  <dos>
   <i name="efermi">     13.27867495 </i>
   <total>
    <array>
     <dimension dim="1">gridpoints</dimension>
     <dimension dim="2">spin</dimension>
     <field>energy</field>
     <field>total</field>
     <field>integrated</field>
     <set>
      <set comment="spin 1">
       <r>    -5.6596     0.0000     0.0000 </r>
       <r>    -5.4888     0.0000     0.0000 </r>
       <r>    -5.3180     0.0000     0.0000 </r>
       <r>    -5.1472     0.0000     0.0000 </r>
       <r>    -4.9765     0.0000     0.0000 </r>
       <r>    -4.8057     0.0000     0.0000 </r>
       <r>    -4.6349     0.0000     0.0000 </r>
       <r>    -4.4642     0.0000     0.0000 </r>
       <r>    -4.2934     0.0000     0.0000 </r>
       <r>    -4.1226     0.0000     0.0000 </r>
       <r>    -3.9519     0.0000     0.0000 </r>
       <r>    -3.7811     0.0000     0.0000 </r>
       <r>    -3.6103     0.0000     0.0000 </r>
       <r>    -3.4395     0.0005     0.0001 </r>
       <r>    -3.2688     0.0067     0.0012 </r>
       <r>    -3.0980     0.0212     0.0049 </r>
       <r>    -2.9272     0.0838     0.0192 </r>
       <r>    -2.7565     0.0206     0.0227 </r>
       <r>    -2.5857     0.0542     0.0319 </r>
       <r>    -2.4149     0.0656     0.0431 </r>
       <r>    -2.2441     0.1866     0.0750 </r>
       <r>    -2.0734     0.0786     0.0884 </r>
       <r>    -1.9026     0.0138     0.0908 </r>
       <r>    -1.7318     0.0409     0.0978 </r>
       <r>    -1.5611     0.1511     0.1236 </r>
       <r>    -1.3903     0.2502     0.1663 </r>
       <r>    -1.2195     0.0361     0.1724 </r>
       <r>    -1.0488     0.1608     0.1999 </r>
       <r>    -0.8780     0.1209     0.2205 </r>
       <r>    -0.7072     0.1876     0.2526 </r>
       <r>    -0.5364     0.0097     0.2542 </r>
       <r>    -0.3657     0.0625     0.2649 </r>
       <r>    -0.1949     0.0930     0.2808 </r>
       <r>    -0.0241     0.4511     0.3578 </r>
       <r>     0.1466     0.1818     0.3889 </r>
       <r>     0.3174     0.0769     0.4020 </r>
       <r>     0.4882     0.1394     0.4258 </r>
       <r>     0.6589     0.2024     0.4603 </r>
       <r>     0.8297     0.2078     0.4958 </r>
       <r>     1.0005     0.0204     0.4993 </r>
       <r>     1.1713     0.0572     0.5091 </r>
       <r>     1.3420     0.2384     0.5498 </r>
       <r>     1.5128     0.3672     0.6125 </r>
       <r>     1.6836     0.0552     0.6219 </r>
       <r>     1.8543     0.3161     0.6759 </r>
       <r>     2.0251     0.2701     0.7220 </r>
       <r>     2.1959     0.4255     0.7947 </r>
       <r>     2.3667     0.0200     0.7981 </r>
       <r>     2.5374     0.0343     0.8040 </r>
       <r>     2.7082     0.0539     0.8132 </r>
       <r>     2.8790     0.3918     0.8801 </r>
       <r>     3.0497     0.2048     0.9151 </r>
       <r>     3.2205     0.1493     0.9406 </r>
       <r>     3.3913     0.1974     0.9743 </r>
       <r>     3.5620     0.4469     1.0506 </r>
       <r>     3.7328     0.2230     1.0887 </r>
       <r>     3.9036     0.0706     1.1007 </r>
       <r>     4.0744     0.1623     1.1284 </r>
       <r>     4.2451     0.5405     1.2207 </r>
       <r>     4.4159     0.4790     1.3025 </r>
       <r>     4.5867     0.0532     1.3116 </r>
       <r>     4.7574     0.1709     1.3408 </r>
       <r>     4.9282     0.2885     1.3901 </r>
       <r>     5.0990     0.1390     1.4138 </r>
       <r>     5.2698     0.0244     1.4180 </r>
       <r>     5.4405     0.1669     1.4465 </r>
       <r>     5.6113     0.3274     1.5024 </r>
       <r>     5.7821     0.5466     1.5957 </r>
       <r>     5.9528     0.1507     1.6215 </r>
       <r>     6.1236     0.4465     1.6977 </r>
       <r>     6.2944     0.3736     1.7615 </r>
       <r>     6.4651     0.5766     1.8600 </r>
       <r>     6.6359     0.0453     1.8677 </r>
       <r>     6.8067     0.0015     1.8680 </r>
       <r>     6.9775     0.2083     1.9036 </r>
       <r>     7.1482     0.7510     2.0318 </r>
       <r>     7.3190     0.2997     2.0830 </r>
       <r>     7.4898     0.3061     2.1353 </r>
       <r>     7.6605     0.1352     2.1584 </r>
       <r>     7.8313     0.2751     2.2053 </r>
       <r>     8.0021     0.0311     2.2106 </r>
       <r>     8.1728     0.0622     2.2213 </r>
       <r>     8.3436     0.1976     2.2550 </r>
       <r>     8.5144     0.8047     2.3924 </r>
       <r>     8.6852     0.2611     2.4370 </r>
       <r>     8.8559     0.3094     2.4899 </r>
       <r>     9.0267     0.3176     2.5441 </r>
       <r>     9.1975     0.7769     2.6768 </r>
       <r>     9.3682     0.1623     2.7045 </r>
       <r>     9.5390     0.2259     2.7430 </r>
       <r>     9.7098     0.2312     2.7825 </r>
       <r>     9.8806     0.2010     2.8169 </r>
       <r>    10.0513     0.0829     2.8310 </r>
       <r>    10.2221     0.4701     2.9113 </r>
       <r>    10.3929     0.2591     2.9555 </r>
       <r>    10.5636     0.4169     3.0267 </r>
       <r>    10.7344     0.2080     3.0623 </r>
       <r>    10.9052     0.1548     3.0887 </r>
       <r>    11.0759     0.1589     3.1158 </r>
       <r>    11.2467     0.6157     3.2210 </r>
       <r>    11.4175     0.4458     3.2971 </r>
       <r>    11.5883     0.5271     3.3871 </r>
       <r>    11.7590     0.5655     3.4837 </r>
       <r>    11.9298     0.4731     3.5645 </r>
       <r>    12.1006     0.1572     3.5913 </r>
       <r>    12.2713     0.1557     3.6179 </r>
       <r>    12.4421     0.0278     3.6227 </r>
       <r>    12.6129     0.4428     3.6983 </r>
       <r>    12.7836     0.4228     3.7705 </r>
       <r>    12.9544     0.4878     3.8538 </r>
       <r>    13.1252     0.4344     3.9280 </r>
       <r>    13.2960     0.4797     4.0099 </r>
       <r>    13.4667     0.3722     4.0735 </r>
       <r>    13.6375     0.3280     4.1295 </r>
       <r>    13.8083     0.1786     4.1600 </r>
       <r>    13.9790     0.1656     4.1882 </r>
       <r>    14.1498     0.0596     4.1984 </r>
       <r>    14.3206     0.7363     4.3242 </r>
       <r>    14.4914     0.6743     4.4393 </r>
       <r>    14.6621     0.5097     4.5264 </r>
       <r>    14.8329     0.1612     4.5539 </r>
       <r>    15.0037     0.5856     4.6539 </r>
       <r>    15.1744     0.2180     4.6911 </r>
       <r>    15.3452     0.3456     4.7501 </r>
       <r>    15.5160     0.3522     4.8103 </r>
       <r>    15.6867     0.5463     4.9036 </r>
       <r>    15.8575     0.3427     4.9621 </r>
       <r>    16.0283     0.5218     5.0512 </r>
       <r>    16.1991     0.6680     5.1653 </r>
       <r>    16.3698     0.4530     5.2426 </r>
       <r>    16.5406     0.0434     5.2501 </r>
       <r>    16.7114     0.4503     5.3270 </r>
       <r>    16.8821     0.4200     5.3987 </r>
       <r>    17.0529     0.6191     5.5044 </r>
       <r>    17.2237     0.1884     5.5366 </r>
       <r>    17.3944     0.5293     5.6270 </r>
       <r>    17.5652     0.4498     5.7038 </r>
       <r>    17.7360     0.7903     5.8388 </r>
       <r>    17.9068     0.2727     5.8853 </r>
       <r>    18.0775     0.3857     5.9512 </r>
       <r>    18.2483     0.5659     6.0478 </r>
       <r>    18.4191     0.5347     6.1392 </r>
       <r>    18.5898     0.4926     6.2233 </r>
       <r>    18.7606     0.4916     6.3072 </r>
       <r>    18.9314     0.4306     6.3808 </r>
       <r>    19.1022     0.2088     6.4164 </r>
       <r>    19.2729     0.1984     6.4503 </r>
       <r>    19.4437     0.3063     6.5026 </r>
       <r>    19.6145     0.6643     6.6160 </r>
       <r>    19.7852     0.5256     6.7058 </r>
       <r>    19.9560     0.4971     6.7907 </r>
       <r>    20.1268     0.4497     6.8675 </r>
       <r>    20.2975     0.5520     6.9617 </r>
       <r>    20.4683     0.2352     7.0019 </r>
       <r>    20.6391     0.5669     7.0987 </r>
       <r>    20.8099     0.4008     7.1672 </r>
       <r>    20.9806     0.5382     7.2591 </r>
       <r>    21.1514     0.3029     7.3108 </r>
       <r>    21.3222     0.1285     7.3327 </r>
       <r>    21.4929     0.4501     7.4096 </r>
       <r>    21.6637     0.4873     7.4928 </r>
       <r>    21.8345     0.5927     7.5940 </r>
       <r>    22.0053     0.1576     7.6209 </r>
       <r>    22.1760     0.2959     7.6715 </r>
       <r>    22.3468     0.5313     7.7622 </r>
       <r>    22.5176     0.8274     7.9035 </r>
       <r>    22.6883     0.2076     7.9389 </r>
       <r>    22.8591     0.4247     8.0115 </r>
       <r>    23.0299     0.3677     8.0742 </r>
       <r>    23.2006     0.4967     8.1591 </r>
       <r>    23.3714     0.4218     8.2311 </r>
       <r>    23.5422     0.2872     8.2801 </r>
       <r>    23.7130     0.6952     8.3989 </r>
       <r>    23.8837     0.4271     8.4718 </r>
       <r>    24.0545     0.8119     8.6104 </r>
       <r>    24.2253     0.8662     8.7584 </r>
       <r>    24.3960     0.4964     8.8431 </r>
       <r>    24.5668     0.3792     8.9079 </r>
       <r>    24.7376     0.4682     8.9878 </r>
       <r>    24.9083     0.3958     9.0554 </r>
       <r>    25.0791     0.4844     9.1381 </r>
       <r>    25.2499     0.4314     9.2118 </r>
       <r>    25.4207     0.5296     9.3023 </r>
       <r>    25.5914     0.4056     9.3715 </r>
       <r>    25.7622     0.7128     9.4932 </r>
       <r>    25.9330     0.5070     9.5798 </r>
       <r>    26.1037     0.6085     9.6837 </r>
       <r>    26.2745     0.5486     9.7774 </r>
       <r>    26.4453     0.4002     9.8458 </r>
       <r>    26.6161     0.6312     9.9536 </r>
       <r>    26.7868     0.2245     9.9919 </r>
       <r>    26.9576     0.6056    10.0953 </r>
       <r>    27.1284     0.5163    10.1835 </r>
       <r>    27.2991     0.4960    10.2682 </r>
       <r>    27.4699     0.5273    10.3582 </r>
       <r>    27.6407     0.5151    10.4462 </r>
       <r>    27.8114     0.4565    10.5241 </r>
       <r>    27.9822     0.5600    10.6198 </r>
       <r>    28.1530     0.9056    10.7744 </r>
       <r>    28.3238     0.5067    10.8610 </r>
       <r>    28.4945     0.3024    10.9126 </r>
       <r>    28.6653     0.7892    11.0474 </r>
       <r>    28.8361     0.3870    11.1135 </r>
       <r>    29.0068     0.2024    11.1480 </r>
       <r>    29.1776     0.6524    11.2595 </r>
       <r>    29.3484     0.6858    11.3766 </r>
       <r>    29.5191     0.4342    11.4507 </r>
       <r>    29.6899     0.5861    11.5508 </r>
       <r>    29.8607     0.4334    11.6248 </r>
       <r>    30.0315     0.5587    11.7202 </r>
       <r>    30.2022     0.3953    11.7877 </r>
       <r>    30.3730     0.4568    11.8658 </r>
       <r>    30.5438     0.6695    11.9801 </r>
       <r>    30.7145     0.4936    12.0644 </r>
       <r>    30.8853     0.8444    12.2086 </r>
       <r>    31.0561     0.9023    12.3627 </r>
       <r>    31.2269     0.6009    12.4653 </r>
       <r>    31.3976     0.3393    12.5232 </r>
       <r>    31.5684     0.3348    12.5804 </r>
       <r>    31.7392     0.3408    12.6386 </r>
       <r>    31.9099     0.2304    12.6779 </r>
       <r>    32.0807     0.8838    12.8288 </r>
       <r>    32.2515     0.6790    12.9448 </r>
       <r>    32.4222     0.8889    13.0966 </r>
       <r>    32.5930     0.2935    13.1467 </r>
       <r>    32.7638     0.3086    13.1994 </r>
       <r>    32.9346     0.8474    13.3441 </r>
       <r>    33.1053     0.7846    13.4781 </r>
       <r>    33.2761     0.3859    13.5440 </r>
       <r>    33.4469     0.9036    13.6983 </r>
       <r>    33.6176     0.7536    13.8270 </r>
       <r>    33.7884     0.3837    13.8925 </r>
       <r>    33.9592     0.5753    13.9908 </r>
       <r>    34.1299     0.3547    14.0513 </r>
       <r>    34.3007     0.3157    14.1052 </r>
       <r>    34.4715     0.2954    14.1557 </r>
       <r>    34.6423     0.4065    14.2251 </r>
       <r>    34.8130     0.3349    14.2823 </r>
       <r>    34.9838     0.0576    14.2921 </r>
       <r>    35.1546     0.4561    14.3700 </r>
       <r>    35.3253     0.3262    14.4257 </r>
       <r>    35.4961     0.6275    14.5329 </r>
       <r>    35.6669     0.3429    14.5914 </r>
       <r>    35.8377     0.3101    14.6444 </r>
       <r>    36.0084     0.1914    14.6771 </r>
       <r>    36.1792     0.7266    14.8012 </r>
       <r>    36.3500     0.4699    14.8814 </r>
       <r>    36.5207     0.6486    14.9922 </r>
       <r>    36.6915     0.4870    15.0753 </r>
       <r>    36.8623     0.5057    15.1617 </r>
       <r>    37.0330     0.0521    15.1706 </r>
       <r>    37.2038     0.0589    15.1806 </r>
       <r>    37.3746     0.4714    15.2611 </r>
       <r>    37.5454     0.6561    15.3732 </r>
       <r>    37.7161     0.1304    15.3954 </r>
       <r>    37.8869     0.6521    15.5068 </r>
       <r>    38.0577     0.1119    15.5259 </r>
       <r>    38.2284     0.0312    15.5312 </r>
       <r>    38.3992     0.0913    15.5468 </r>
       <r>    38.5700     0.1744    15.5766 </r>
       <r>    38.7408     0.1556    15.6032 </r>
       <r>    38.9115     0.2410    15.6443 </r>
       <r>    39.0823     0.1799    15.6751 </r>
       <r>    39.2531     0.0735    15.6876 </r>
       <r>    39.4238     0.1536    15.7138 </r>
       <r>    39.5946     0.0380    15.7203 </r>
       <r>    39.7654     0.0324    15.7259 </r>
       <r>    39.9361     0.3209    15.7807 </r>
       <r>    40.1069     0.0705    15.7927 </r>
       <r>    40.2777     0.0734    15.8052 </r>
       <r>    40.4485     0.1329    15.8279 </r>
       <r>    40.6192     0.0150    15.8305 </r>
       <r>    40.7900     0.1103    15.8493 </r>
       <r>    40.9608     0.1970    15.8830 </r>
       <r>    41.1315     0.2080    15.9185 </r>
       <r>    41.3023     0.0657    15.9297 </r>
       <r>    41.4731     0.1864    15.9615 </r>
       <r>    41.6438     0.0665    15.9729 </r>
       <r>    41.8146     0.0003    15.9730 </r>
       <r>    41.9854     0.0000    15.9730 </r>
       <r>    42.1562     0.0000    15.9730 </r>
       <r>    42.3269     0.0169    15.9758 </r>
       <r>    42.4977     0.0805    15.9896 </r>
       <r>    42.6685     0.0082    15.9910 </r>
       <r>    42.8392     0.0000    15.9910 </r>
       <r>    43.0100     0.0000    15.9910 </r>
       <r>    43.1808     0.0100    15.9927 </r>
       <r>    43.3516     0.0395    15.9994 </r>
       <r>    43.5223     0.0033    16.0000 </r>
       <r>    43.6931     0.0000    16.0000 </r>
       <r>    43.8639     0.0000    16.0000 </r>
       <r>    44.0346     0.0000    16.0000 </r>
       <r>    44.2054     0.0000    16.0000 </r>
       <r>    44.3762     0.0000    16.0000 </r>
       <r>    44.5469     0.0000    16.0000 </r>
       <r>    44.7177     0.0000    16.0000 </r>
       <r>    44.8885     0.0000    16.0000 </r>
       <r>    45.0593     0.0000    16.0000 </r>
       <r>    45.2300     0.0000    16.0000 </r>
       <r>    45.4008     0.0000    16.0000 </r>
       <r>    45.5716     0.0000    16.0000 </r>
      </set>
     </set>
    </array>
   </total>
  </dos>
 </calculation>
 <structure name="finalpos" >
  <crystal>
   <varray name="basis" >
    <v>       1.80000000       1.80000000       0.00000000 </v>
    <v>       0.00000000       1.80000000       1.80000000 </v>
    <v>       1.80000000       0.00000000       1.80000000 </v>
   </varray>
   <i name="volume">     11.66400000 </i>
   <varray name="rec_basis" >
    <v>       0.27777778       0.27777778      -0.27777778 </v>
    <v>      -0.27777778       0.27777778       0.27777778 </v>
    <v>       0.27777778      -0.27777778       0.27777778 </v>
   </varray>
  </crystal>
  <varray name="positions" >
   <v>       0.00000000       0.00000000       0.00000000 </v>
  </varray>
 </structure>
</modeling>
