fcc Ni                                  
   3.53000000000000     
     0.500000    0.500000    0.000000
     0.000000    0.500000    0.500000
     0.500000    0.000000    0.500000
   Ni
     1
Direct
  0.000000  0.000000  0.000000
 
   20   20   20
  152.25      142.50      116.57      82.773      50.334      25.845      11.579      5.7819      4.2609      3.5804    
  3.3600      3.5804      4.2609      5.7819      11.579      25.845      50.334      82.773      116.57      142.50    
  142.50      124.69      95.041      62.449      34.839      16.512      7.5303      4.7088      3.8160      3.3780    
  3.3792      3.8177      4.7084      7.5287      16.512      34.841      62.451      95.039      124.69      142.49    
  116.57      95.041      67.044      40.384      20.602      9.4734      5.2281      4.0502      3.4312      3.2334    
  3.4313      4.0502      5.2280      9.4735      20.602      40.384      67.044      95.041      116.57      124.69    
  82.773      62.449      40.384      22.193      10.765      5.7181      4.2338      3.5007      3.1501      3.1495    
  3.4997      4.2338      5.7190      10.765      22.191      40.383      62.451      82.777      95.041      95.039    
  50.334      34.839      20.602      10.765      5.9251      4.3348      3.5582      3.1124      2.9755      3.1126    
  3.5581      4.3344      5.9249      10.765      20.602      34.839      50.334      62.451      67.044      62.451    
  25.845      16.512      9.4734      5.7181      4.3348      3.5814      3.1013      2.8859      2.8863      3.1018    
  3.5812      4.3346      5.7189      9.4746      16.512      25.843      34.839      40.383      40.384      34.841    
  11.579      7.5303      5.2281      4.2338      3.5582      3.1013      2.8596      2.7868      2.8597      3.1014    
  3.5583      4.2339      5.2280      7.5299      11.579      16.512      20.602      22.191      20.602      16.512    
  5.7819      4.7088      4.0502      3.5007      3.1124      2.8859      2.7868      2.7871      2.8862      3.1122    
  3.4999      4.0494      4.7087      5.7827      7.5299      9.4746      10.765      10.765      9.4735      7.5287    
  4.2609      3.8160      3.4312      3.1501      2.9755      2.8863      2.8597      2.8862      2.9753      3.1500    
  3.4313      3.8164      4.2614      4.7087      5.2280      5.7189      5.9249      5.7190      5.2280      4.7084    
  3.5804      3.3780      3.2334      3.1495      3.1126      3.1018      3.1014      3.1122      3.1500      3.2348    
  3.3789      3.5799      3.8164      4.0494      4.2339      4.3346      4.3344      4.2338      4.0502      3.8177    
  3.3600      3.3792      3.4313      3.4997      3.5581      3.5812      3.5583      3.4999      3.4313      3.3789    
  3.3595      3.3789      3.4313      3.4999      3.5583      3.5812      3.5581      3.4997      3.4313      3.3792    
  3.5804      3.8177      4.0502      4.2338      4.3344      4.3346      4.2339      4.0494      3.8164      3.5799    
  3.3789      3.2348      3.1500      3.1122      3.1014      3.1018      3.1126      3.1495      3.2334      3.3780    
  4.2609      4.7084      5.2280      5.7190      5.9249      5.7189      5.2280      4.7087      4.2614      3.8164    
  3.4313      3.1500      2.9753      2.8862      2.8597      2.8863      2.9755      3.1501      3.4312      3.8160    
  5.7819      7.5287      9.4735      10.765      10.765      9.4746      7.5299      5.7827      4.7087      4.0494    
  3.4999      3.1122      2.8862      2.7871      2.7868      2.8859      3.1124      3.5007      4.0502      4.7088    
  11.579      16.512      20.602      22.191      20.602      16.512      11.579      7.5299      5.2280      4.2339    
  3.5583      3.1014      2.8597      2.7868      2.8596      3.1013      3.5582      4.2338      5.2281      7.5303    
  25.845      34.841      40.384      40.383      34.839      25.843      16.512      9.4746      5.7189      4.3346    
  3.5812      3.1018      2.8863      2.8859      3.1013      3.5814      4.3348      5.7181      9.4734      16.512    
  50.334      62.451      67.044      62.451      50.334      34.839      20.602      10.765      5.9249      4.3344    
  3.5581      3.1126      2.9755      3.1124      3.5582      4.3348      5.9251      10.765      20.602      34.839    
  82.773      95.039      95.041      82.777      62.451      40.383      22.191      10.765      5.7190      4.2338    
  3.4997      3.1495      3.1501      3.5007      4.2338      5.7181      10.765      22.193      40.384      62.449    
  116.57      124.69      116.57      95.041      67.044      40.384      20.602      9.4735      5.2280      4.0502    
  3.4313      3.2334      3.4312      4.0502      5.2281      9.4734      20.602      40.384      67.044      95.041    
  142.50      142.49      124.69      95.039      62.451      34.841      16.512      7.5287      4.7084      3.8177    
  3.3792      3.3780      3.8160      4.7088      7.5303      16.512      34.839      62.449      95.041      124.69    
  142.50      124.69      95.041      62.449      34.839      16.512      7.5304      4.7090      3.8160      3.3779    
  3.3793      3.8179      4.7084      7.5286      16.513      34.842      62.451      95.039      124.69      142.49    
  124.69      101.60      71.665      43.211      22.065      10.061      5.3875      4.1231      3.4859      3.2813    
  3.4863      4.1226      5.3866      10.062      22.068      43.213      71.663      101.60      124.69      133.40    
  95.041      71.665      46.380      25.510      12.230      6.1679      4.3799      3.6089      3.2334      3.2328    
  3.6076      4.3793      6.1691      12.232      25.511      46.378      71.663      95.040      109.20      109.20    
  62.449      43.211      25.510      13.086      6.7101      4.5560      3.7145      3.2215      3.0686      3.2221    
  3.7147      4.5555      6.7094      13.085      25.510      43.212      62.451      77.552      83.294      77.550    
  34.839      22.065      12.230      6.7101      4.6257      3.7785      3.2279      2.9772      2.9782      3.2292    
  3.7779      4.6238      6.7093      12.231      22.067      34.839      47.099      54.664      54.664      47.099    
  16.512      10.061      6.1679      4.5560      3.7785      3.2343      2.9407      2.8519      2.9405      3.2338    
  3.7780      4.5565      6.1690      10.062      16.512      24.133      30.382      32.803      30.383      24.134    
  7.5304      5.3875      4.3799      3.7145      3.2279      2.9407      2.8149      2.8147      2.9404      3.2280    
  3.7149      4.3798      5.3865      7.5295      10.866      14.419      16.727      16.726      14.418      10.866    
  4.7090      4.1231      3.6089      3.2215      2.9772      2.8519      2.8147      2.8527      2.9780      3.2213    
  3.6077      4.1217      4.7086      5.5812      6.8193      7.9726      8.4456      7.9710      6.8172      5.5799    
  3.8160      3.4859      3.2334      3.0686      2.9782      2.9405      2.9404      2.9780      3.0685      3.2334    
  3.4861      3.8163      4.1821      4.5233      4.8342      5.0491      5.0491      4.8341      4.5230      4.1818    
  3.3779      3.2813      3.2328      3.2221      3.2292      3.2338      3.2280      3.2213      3.2334      3.2828    
  3.3788      3.5185      3.6838      3.8423      3.9569      3.9987      3.9573      3.8432      3.6849      3.5189    
  3.3793      3.4863      3.6076      3.7147      3.7779      3.7780      3.7149      3.6077      3.4861      3.3788    
  3.3053      3.2732      3.2779      3.3029      3.3243      3.3243      3.3028      3.2779      3.2733      3.3057    
  3.8179      4.1226      4.3793      4.5555      4.6238      4.5565      4.3798      4.1217      3.8163      3.5185    
  3.2732      3.1011      2.9998      2.9524      2.9395      2.9524      2.9992      3.1000      3.2725      3.5192    
  4.7084      5.3866      6.1691      6.7094      6.7093      6.1690      5.3865      4.7086      4.1821      3.6838    
  3.2779      2.9998      2.8393      2.7691      2.7692      2.8395      2.9999      3.2778      3.6834      4.1818    
  7.5286      10.062      12.232      13.085      12.231      10.062      7.5295      5.5812      4.5233      3.8423    
  3.3029      2.9524      2.7691      2.7135      2.7687      2.9525      3.3040      3.8431      4.5227      5.5797    
  16.513      22.068      25.511      25.510      22.067      16.512      10.866      6.8193      4.8342      3.9569    
  3.3243      2.9395      2.7692      2.7687      2.9387      3.3243      3.9575      4.8343      6.8187      10.866    
  34.842      43.213      46.378      43.212      34.839      24.133      14.419      7.9726      5.0491      3.9987    
  3.3243      2.9524      2.8395      2.9525      3.3243      3.9982      5.0479      7.9716      14.419      24.135    
  62.451      71.663      71.663      62.451      47.099      30.382      16.727      8.4456      5.0491      3.9573    
  3.3028      2.9992      2.9999      3.3040      3.9575      5.0479      8.4444      16.727      30.383      47.099    
  95.039      101.60      95.040      77.552      54.664      32.803      16.726      7.9710      4.8341      3.8432    
  3.2779      3.1000      3.2778      3.8431      4.8343      7.9716      16.727      32.803      54.662      77.550    
  124.69      124.69      109.20      83.294      54.664      30.383      14.418      6.8172      4.5230      3.6849    
  3.2733      3.2725      3.6834      4.5227      6.8187      14.419      30.383      54.662      83.293      109.20    
  142.49      133.40      109.20      77.550      47.099      24.134      10.866      5.5799      4.1818      3.5189    
  3.3057      3.5192      4.1818      5.5797      10.866      24.135      47.099      77.550      109.20      133.40    
  116.57      95.040      67.044      40.385      20.602      9.4734      5.2284      4.0505      3.4311      3.2333    
  3.4316      4.0505      5.2280      9.4734      20.603      40.385      67.044      95.041      116.57      124.69    
  95.040      71.665      46.380      25.511      12.230      6.1680      4.3801      3.6091      3.2334      3.2328    
  3.6078      4.3794      6.1690      12.232      25.511      46.378      71.663      95.040      109.20      109.20    
  67.044      46.380      27.374      13.982      7.0245      4.6376      3.7697      3.2606      3.1017      3.2610    
  3.7698      4.6373      7.0247      13.982      27.374      46.379      67.044      83.292      89.480      83.292    
  40.385      25.511      13.982      7.3725      4.8013      3.8832      3.2975      3.0277      3.0287      3.2991    
  3.8836      4.8003      7.3714      13.981      25.511      40.386      54.664      63.490      63.490      54.663    
  20.602      12.230      7.0245      4.8013      3.9248      3.3252      2.9965      2.8969      2.9967      3.3251    
  3.9245      4.8012      7.0248      12.230      20.602      30.383      38.382      41.481      38.382      30.383    
  9.4734      6.1680      4.6376      3.8832      3.3252      2.9895      2.8418      2.8413      2.9884      3.3244    
  3.8835      4.6389      6.1692      9.4734      14.417      19.576      22.903      22.903      19.578      14.419    
  5.2284      4.3801      3.7697      3.2975      2.9965      2.8418      2.7957      2.8419      2.9966      3.2976    
  3.7697      4.3799      5.2281      6.8186      9.0280      11.025      11.833      11.025      9.0283      6.8189    
  4.0505      3.6091      3.2606      3.0277      2.8969      2.8413      2.8419      2.8982      3.0286      3.2602    
  3.6077      4.0493      4.5231      5.0826      5.7432      6.2165      6.2159      5.7417      5.0814      4.5231    
  3.4311      3.2334      3.1017      3.0287      2.9967      2.9884      2.9966      3.0286      3.1017      3.2334    
  3.4314      3.6836      3.9554      4.1969      4.3622      4.4230      4.3623      4.1969      3.9552      3.6833    
  3.2333      3.2328      3.2610      3.2991      3.3251      3.3244      3.2976      3.2602      3.2334      3.2347    
  3.2732      3.3472      3.4422      3.5319      3.5869      3.5874      3.5331      3.4432      3.3473      3.2722    
  3.4316      3.6078      3.7698      3.8836      3.9245      3.8835      3.7697      3.6077      3.4314      3.2732    
  3.1550      3.0844      3.0554      3.0510      3.0522      3.0508      3.0553      3.0845      3.1552      3.2735    
  4.0505      4.3794      4.6373      4.8003      4.8012      4.6389      4.3799      4.0493      3.6836      3.3472    
  3.0844      2.9089      2.8101      2.7681      2.7680      2.8096      2.9080      3.0838      3.3478      3.6853    
  5.2280      6.1690      7.0247      7.3714      7.0248      6.1692      5.2281      4.5231      3.9554      3.4422    
  3.0554      2.8101      2.6824      2.6438      2.6826      2.8102      3.0554      3.4420      3.9551      4.5229    
  9.4734      12.232      13.982      13.981      12.230      9.4734      6.8186      5.0826      4.1969      3.5319    
  3.0510      2.7681      2.6438      2.6435      2.7679      3.0517      3.5331      4.1969      5.0810      6.8169    
  20.603      25.511      27.374      25.511      20.602      14.417      9.0280      5.7432      4.3622      3.5869    
  3.0522      2.7680      2.6826      2.7679      3.0521      3.5868      4.3622      5.7433      9.0283      14.418    
  40.385      46.378      46.379      40.386      30.383      19.576      11.025      6.2165      4.4230      3.5874    
  3.0508      2.8096      2.8102      3.0517      3.5868      4.4213      6.2159      11.026      19.578      30.383    
  67.044      71.663      67.044      54.664      38.382      22.903      11.833      6.2159      4.3623      3.5331    
  3.0553      2.9080      3.0554      3.5331      4.3622      6.2159      11.833      22.902      38.381      54.664    
  95.041      95.040      83.292      63.490      41.481      22.903      11.025      5.7417      4.1969      3.4432    
  3.0845      3.0838      3.4420      4.1969      5.7433      11.026      22.902      41.479      63.489      83.294    
  116.57      109.20      89.480      63.490      38.382      19.578      9.0283      5.0814      3.9552      3.3473    
  3.1552      3.3478      3.9551      5.0810      9.0283      19.578      38.381      63.489      89.480      109.20    
  124.69      109.20      83.292      54.663      30.383      14.419      6.8189      4.5231      3.6833      3.2722    
  3.2735      3.6853      4.5229      6.8169      14.418      30.383      54.664      83.294      109.20      124.69    
  82.772      62.449      40.385      22.194      10.765      5.7181      4.2341      3.5009      3.1499      3.1493    
  3.5000      4.2341      5.7188      10.764      22.192      40.383      62.451      82.777      95.041      95.039    
  62.449      43.211      25.511      13.086      6.7102      4.5561      3.7147      3.2216      3.0684      3.2221    
  3.7150      4.5556      6.7092      13.085      25.510      43.212      62.450      77.551      83.293      77.549    
  40.385      25.511      13.982      7.3727      4.8013      3.8832      3.2975      3.0277      3.0286      3.2990    
  3.8837      4.8003      7.3713      13.981      25.511      40.385      54.663      63.490      63.490      54.663    
  22.194      13.086      7.3727      4.8981      3.9743      3.3569      3.0167      2.9133      3.0167      3.3576    
  3.9756      4.8987      7.3713      13.084      22.193      32.805      41.482      44.844      41.480      32.803    
  10.765      6.7102      4.8013      3.9743      3.3788      3.0174      2.8584      2.8578      3.0167      3.3791    
  3.9755      4.8019      6.7093      10.764      16.727      22.904      26.876      26.876      22.902      16.726    
  5.7181      4.5561      3.8832      3.3569      3.0174      2.8425      2.7903      2.8420      3.0167      3.3565    
  3.8835      4.5572      5.7192      7.9712      11.024      13.743      14.839      13.745      11.026      7.9713    
  4.2341      3.7147      3.2975      3.0167      2.8584      2.7903      2.7902      2.8584      3.0169      3.2977    
  3.7148      4.2342      4.8343      5.7427      6.8424      7.6199      7.6205      6.8435      5.7434      4.8345    
  3.5009      3.2216      3.0277      2.9133      2.8578      2.8420      2.8584      2.9143      3.0286      3.2215    
  3.4999      3.8423      4.1970      4.5090      4.7640      4.8701      4.7633      4.5083      4.1972      3.8435    
  3.1499      3.0684      3.0286      3.0167      3.0167      3.0167      3.0169      3.0286      3.0684      3.1500    
  3.2780      3.4422      3.6159      3.7618      3.8451      3.8453      3.7622      3.6160      3.4419      3.2776    
  3.1493      3.2221      3.2990      3.3576      3.3791      3.3565      3.2977      3.2215      3.1500      3.1010    
  3.0844      3.0996      3.1350      3.1701      3.1851      3.1711      3.1360      3.0997      3.0834      3.0996    
  3.5000      3.7150      3.8837      3.9756      3.9755      3.8835      3.7148      3.4999      3.2780      3.0844    
  2.9400      2.8491      2.8027      2.7853      2.7851      2.8024      2.8491      2.9402      3.0846      3.2781    
  4.2341      4.5556      4.8003      4.8987      4.8019      4.5572      4.2342      3.8423      3.4422      3.0996    
  2.8491      2.6918      2.6100      2.5851      2.6095      2.6910      2.8487      3.1001      3.4436      3.8435    
  5.7188      6.7092      7.3713      7.3713      6.7093      5.7192      4.8343      4.1970      3.6159      3.1350    
  2.8027      2.6100      2.5251      2.5251      2.6100      2.8027      3.1351      3.6160      4.1967      4.8339    
  10.764      13.085      13.981      13.084      10.764      7.9712      5.7427      4.5090      3.7618      3.1701    
  2.7853      2.5851      2.5251      2.5854      2.7858      3.1708      3.7618      4.5080      5.7413      7.9706    
  22.192      25.510      25.511      22.193      16.727      11.024      6.8424      4.7640      3.8451      3.1851    
  2.7851      2.6095      2.6100      2.7858      3.1850      3.8444      4.7641      6.8435      11.025      16.726    
  40.383      43.212      40.385      32.805      22.904      13.743      7.6199      4.8701      3.8453      3.1711    
  2.8024      2.6910      2.8027      3.1708      3.8444      4.8701      7.6217      13.745      22.904      32.803    
  62.451      62.450      54.663      41.482      26.876      14.839      7.6205      4.7633      3.7622      3.1360    
  2.8491      2.8487      3.1351      3.7618      4.7641      7.6217      14.839      26.875      41.481      54.663    
  82.777      77.551      63.490      44.844      26.876      13.745      6.8435      4.5083      3.6160      3.0997    
  2.9402      3.1001      3.6160      4.5080      6.8435      13.745      26.875      44.843      63.490      77.551    
  95.041      83.293      63.490      41.480      22.902      11.026      5.7434      4.1972      3.4419      3.0834    
  3.0846      3.4436      4.1967      5.7413      11.025      22.904      41.481      63.490      83.292      95.041    
  95.039      77.549      54.663      32.803      16.726      7.9713      4.8345      3.8435      3.2776      3.0996    
  3.2781      3.8435      4.8339      7.9706      16.726      32.803      54.663      77.551      95.041      101.60    
  50.333      34.839      20.603      10.765      5.9247      4.3347      3.5585      3.1126      2.9751      3.1125    
  3.5584      4.3345      5.9246      10.765      20.603      34.839      50.334      62.451      67.045      62.451    
  34.839      22.065      12.231      6.7103      4.6254      3.7784      3.2281      2.9772      2.9778      3.2291    
  3.7782      4.6238      6.7090      12.231      22.067      34.839      47.098      54.663      54.664      47.099    
  20.603      12.231      7.0249      4.8013      3.9245      3.3250      2.9965      2.8968      2.9965      3.3251    
  3.9246      4.8011      7.0246      12.230      20.602      30.382      38.381      41.481      38.382      30.383    
  10.765      6.7103      4.8013      3.9740      3.3785      3.0173      2.8584      2.8577      3.0166      3.3792    
  3.9755      4.8018      6.7092      10.764      16.727      22.903      26.876      26.876      22.903      16.727    
  5.9247      4.6254      3.9245      3.3785      3.0251      2.8437      2.7899      2.8436      3.0251      3.3787    
  3.9245      4.6252      5.9249      8.4446      11.833      14.839      16.048      14.839      11.833      8.4439    
  4.3347      3.7784      3.3250      3.0173      2.8437      2.7696      2.7696      2.8436      3.0168      3.3241    
  3.7780      4.3355      5.0490      6.2158      7.6204      8.6054      8.6060      7.6213      6.2153      5.0475    
  3.5585      3.2281      2.9965      2.8584      2.7899      2.7696      2.7896      2.8582      2.9967      3.2281    
  3.5582      3.9573      4.3622      4.7640      5.1366      5.2959      5.1367      4.7640      4.3622      3.9576    
  3.1126      2.9772      2.8968      2.8577      2.8436      2.8436      2.8582      2.8978      2.9780      3.1123    
  3.3029      3.5323      3.7621      3.9460      4.0471      4.0466      3.9453      3.7621      3.5333      3.3042    
  2.9751      2.9778      2.9965      3.0166      3.0251      3.0168      2.9967      2.9780      2.9753      2.9997    
  3.0554      3.1351      3.2202      3.2857      3.3103      3.2858      3.2203      3.1350      3.0552      2.9996    
  3.1125      3.2291      3.3251      3.3792      3.3787      3.3241      3.2281      3.1123      2.9997      2.9088    
  2.8491      2.8203      2.8136      2.8155      2.8159      2.8143      2.8205      2.8483      2.9076      2.9989    
  3.5584      3.7782      3.9246      3.9755      3.9245      3.7780      3.5582      3.3029      3.0554      2.8491    
  2.6994      2.6052      2.5564      2.5417      2.5563      2.6051      2.6994      2.8491      3.0554      3.3030    
  4.3345      4.6238      4.8011      4.8018      4.6252      4.3355      3.9573      3.5323      3.1351      2.8203    
  2.6052      2.4793      2.4228      2.4225      2.4786      2.6048      2.8207      3.1363      3.5334      3.9575    
  5.9246      6.7090      7.0246      6.7092      5.9249      5.0490      4.3622      3.7621      3.2202      2.8136    
  2.5564      2.4228      2.3823      2.4228      2.5564      2.8136      3.2203      3.7621      4.3620      5.0487    
  10.765      12.231      12.230      10.764      8.4446      6.2158      4.7640      3.9460      3.2857      2.8155    
  2.5417      2.4225      2.4228      2.5424      2.8159      3.2853      3.9451      4.7630      6.2155      8.4453    
  20.603      22.067      20.602      16.727      11.833      7.6204      5.1366      4.0471      3.3103      2.8159    
  2.5563      2.4786      2.5564      2.8159      3.3102      4.0471      5.1367      7.6205      11.834      16.727    
  34.839      34.839      30.382      22.903      14.839      8.6054      5.2959      4.0466      3.2858      2.8143    
  2.6051      2.6048      2.8136      3.2853      4.0471      5.2971      8.6063      14.839      22.903      30.382    
  50.334      47.098      38.381      26.876      16.048      8.6060      5.1367      3.9453      3.2203      2.8205    
  2.6994      2.8207      3.2203      3.9451      5.1367      8.6063      16.048      26.876      38.381      47.098    
  62.451      54.663      41.481      26.876      14.839      7.6213      4.7640      3.7621      3.1350      2.8483    
  2.8491      3.1363      3.7621      4.7630      7.6205      14.839      26.876      41.482      54.663      62.451    
  67.045      54.664      38.382      22.903      11.833      6.2153      4.3622      3.5333      3.0552      2.9076    
  3.0554      3.5334      4.3620      6.2155      11.834      22.903      38.381      54.663      67.044      71.664    
  62.451      47.099      30.383      16.727      8.4439      5.0475      3.9576      3.3042      2.9996      2.9989    
  3.3030      3.9575      5.0487      8.4453      16.727      30.382      47.098      62.451      71.664      71.663    
  25.845      16.512      9.4735      5.7180      4.3344      3.5814      3.1017      2.8861      2.8860      3.1017    
  3.5816      4.3347      5.7185      9.4745      16.513      25.844      34.839      40.383      40.385      34.841    
  16.512      10.061      6.1682      4.5560      3.7782      3.2344      2.9410      2.8518      2.9402      3.2338    
  3.7783      4.5564      6.1687      10.062      16.512      24.133      30.381      32.803      30.383      24.134    
  9.4735      6.1682      4.6377      3.8829      3.3248      2.9895      2.8419      2.8412      2.9882      3.3245    
  3.8837      4.6387      6.1689      9.4734      14.418      19.576      22.902      22.904      19.578      14.419    
  5.7180      4.5560      3.8829      3.3564      3.0171      2.8425      2.7903      2.8419      3.0167      3.3566    
  3.8836      4.5570      5.7190      7.9712      11.024      13.743      14.839      13.746      11.026      7.9715    
  4.3344      3.7782      3.3248      3.0171      2.8437      2.7697      2.7697      2.8436      3.0168      3.3241    
  3.7780      4.3355      5.0490      6.2159      7.6205      8.6055      8.6063      7.6216      6.2155      5.0474    
  3.5814      3.2344      2.9895      2.8425      2.7697      2.7484      2.7697      2.8421      2.9884      3.2331    
  3.5812      3.9993      4.4226      4.8704      5.2967      5.4797      5.2970      4.8699      4.4209      3.9979    
  3.1017      2.9410      2.8419      2.7903      2.7697      2.7697      2.7903      2.8417      2.9404      3.1010    
  3.3244      3.5873      3.8450      4.0474      4.1574      4.1574      4.0472      3.8445      3.5870      3.3246    
  2.8861      2.8518      2.8412      2.8419      2.8436      2.8421      2.8417      2.8525      2.8863      2.9521    
  3.0510      3.1705      3.2858      3.3687      3.3985      3.3682      3.2855      3.1710      3.0520      2.9527    
  2.8860      2.9402      2.9882      3.0167      3.0168      2.9884      2.9404      2.8863      2.8394      2.8100    
  2.8026      2.8137      2.8327      2.8465      2.8464      2.8324      2.8136      2.8027      2.8101      2.8392    
  3.1017      3.2338      3.3245      3.3566      3.3241      3.2331      3.1010      2.9521      2.8100      2.6917    
  2.6052      2.5505      2.5223      2.5140      2.5226      2.5506      2.6047      2.6908      2.8093      2.9522    
  3.5816      3.7783      3.8837      3.8836      3.7780      3.5812      3.3244      3.0510      2.8026      2.6052    
  2.4665      2.3817      2.3423      2.3423      2.3817      2.4665      2.6052      2.8025      3.0510      3.3246    
  4.3347      4.5564      4.6387      4.5570      4.3355      3.9993      3.5873      3.1705      2.8137      2.5505    
  2.3817      2.2911      2.2629      2.2908      2.3814      2.5507      2.8144      3.1713      3.5876      3.9989    
  5.7185      6.1687      6.1689      5.7190      5.0490      4.4226      3.8450      3.2858      2.8327      2.5223    
  2.3423      2.2629      2.2631      2.3426      2.5222      2.8324      3.2858      3.8453      4.4228      5.0488    
  9.4745      10.062      9.4734      7.9712      6.2159      4.8704      4.0474      3.3687      2.8465      2.5140    
  2.3423      2.2908      2.3426      2.5142      2.8463      3.3681      4.0465      4.8698      6.2162      7.9724    
  16.513      16.512      14.418      11.024      7.6205      5.2967      4.1574      3.3985      2.8464      2.5226    
  2.3817      2.3814      2.5222      2.8463      3.3988      4.1574      5.2960      7.6200      11.025      14.419    
  25.844      24.133      19.576      13.743      8.6055      5.4797      4.1574      3.3682      2.8324      2.5506    
  2.4665      2.5507      2.8324      3.3681      4.1574      5.4799      8.6057      13.744      19.576      24.133    
  34.839      30.381      22.902      14.839      8.6063      5.2970      4.0472      3.2855      2.8136      2.6047    
  2.6052      2.8144      3.2858      4.0465      5.2960      8.6057      14.840      22.903      30.383      34.839    
  40.383      32.803      22.904      13.746      7.6216      4.8699      3.8445      3.1710      2.8027      2.6908    
  2.8025      3.1713      3.8453      4.8698      7.6200      13.744      22.903      32.805      40.385      43.212    
  40.385      30.383      19.578      11.026      6.2155      4.4209      3.5870      3.0520      2.8101      2.8093    
  3.0510      3.5876      4.4228      6.2162      11.025      19.576      30.383      40.385      46.380      46.379    
  34.841      24.134      14.419      7.9715      5.0474      3.9979      3.3246      2.9527      2.8392      2.9522    
  3.3246      3.9989      5.0488      7.9724      14.419      24.133      34.839      43.212      46.379      43.214    
  11.579      7.5299      5.2282      4.2339      3.5581      3.1015      2.8601      2.7869      2.8595      3.1014    
  3.5586      4.2340      5.2278      7.5299      11.579      16.513      20.602      22.191      20.602      16.512    
  7.5299      5.3875      4.3802      3.7146      3.2278      2.9409      2.8153      2.8147      2.9401      3.2281    
  3.7152      4.3797      5.3863      7.5297      10.866      14.419      16.726      16.726      14.417      10.865    
  5.2282      4.3802      3.7699      3.2973      2.9963      2.8420      2.7958      2.8417      2.9965      3.2977    