   1   1   1   0
  0.1099674E+02  0.2496087E-09  0.2496087E-09  0.2496087E-09  0.5000000E-15
  1.000000000000000E-004
  CAR 
 fcc Ni                                  
     56.24326972     -2.41853814  301      8.95133335      1.00000000
     -2.419  0.0000E+00  0.0000E+00  0.0000E+00  0.0000E+00
     -2.223  0.0000E+00  0.0000E+00  0.0000E+00  0.0000E+00
     -2.027  0.0000E+00  0.0000E+00  0.0000E+00  0.0000E+00
     -1.832  0.0000E+00  0.0000E+00  0.0000E+00  0.0000E+00
     -1.636  0.0000E+00  0.0000E+00  0.0000E+00  0.0000E+00
     -1.441 -0.1812E-32 -0.9930E-31 -0.3542E-33 -0.1942E-31
     -1.245 -0.1451E-25 -0.5000E-24 -0.2836E-26 -0.9776E-25
     -1.050 -0.1689E-19 -0.3657E-18 -0.3303E-20 -0.7152E-19
     -0.854 -0.2762E-14 -0.3740E-13 -0.5400E-15 -0.7313E-14
     -0.659 -0.6593E-10 -0.5575E-09 -0.1289E-10 -0.1090E-09
     -0.463 -0.2206E-06 -0.1156E-05 -0.4314E-07 -0.2262E-06
     -0.268 -0.9922E-04 -0.3169E-03 -0.1945E-04 -0.6219E-04
     -0.072 -0.5255E-02 -0.9417E-02 -0.1047E-02 -0.1904E-02
      0.123 -0.4393E-02  0.2478E-01 -0.1906E-02  0.2942E-02
      0.319  0.2659E+00  0.3561E+00  0.5009E-01  0.7258E-01
      0.515  0.4252E+00  0.3634E+00  0.1332E+00  0.1436E+00
      0.710  0.1262E+00  0.9522E-01  0.1579E+00  0.1623E+00
      0.906  0.1525E+00  0.1809E+00  0.1877E+00  0.1976E+00
      1.101  0.1724E+00  0.1383E+00  0.2214E+00  0.2247E+00
      1.297  0.6241E-01  0.6530E-01  0.2336E+00  0.2374E+00
      1.492  0.7652E-01  0.6774E-01  0.2486E+00  0.2507E+00
      1.688  0.7858E-01  0.9793E-01  0.2640E+00  0.2698E+00
      1.883  0.1415E+00  0.1337E+00  0.2917E+00  0.2960E+00
      2.079  0.1046E+00  0.9904E-01  0.3121E+00  0.3153E+00
      2.274  0.6659E-01  0.5136E-01  0.3251E+00  0.3254E+00
      2.470 -0.9285E-03  0.1270E-02  0.3249E+00  0.3256E+00
      2.665  0.6597E-01  0.7660E-01  0.3378E+00  0.3406E+00
      2.861  0.1248E+00  0.1207E+00  0.3623E+00  0.3642E+00
      3.057  0.1769E+00  0.1702E+00  0.3969E+00  0.3975E+00
      3.252  0.2046E-01  0.1732E-01  0.4009E+00  0.4009E+00
      3.448 -0.1187E-01 -0.1060E-01  0.3985E+00  0.3988E+00
      3.643  0.9395E-01  0.5181E-01  0.4169E+00  0.4089E+00
      3.839  0.1558E+00  0.1570E+00  0.4474E+00  0.4396E+00
      4.034  0.5144E-01  0.8228E-01  0.4574E+00  0.4557E+00
      4.230  0.1511E+00  0.7932E-01  0.4870E+00  0.4712E+00
      4.425  0.2423E+00  0.8819E-01  0.5344E+00  0.4885E+00
      4.621  0.6004E+00  0.1566E+00  0.6518E+00  0.5191E+00
      4.816  0.6130E+00  0.1727E+00  0.7716E+00  0.5529E+00
      5.012  0.3329E+00  0.6266E+00  0.8367E+00  0.6754E+00
      5.207  0.9214E+00  0.5922E+00  0.1017E+01  0.7912E+00
      5.403  0.9173E+00  0.2800E+00  0.1196E+01  0.8460E+00
      5.599  0.6186E+00  0.3074E+00  0.1317E+01  0.9061E+00
      5.794  0.4140E+00  0.9511E+00  0.1398E+01  0.1092E+01
      5.990  0.1396E+00  0.8234E+00  0.1425E+01  0.1253E+01
      6.185  0.2386E+00  0.5973E+00  0.1472E+01  0.1370E+01
      6.381  0.4498E+00  0.2157E+00  0.1560E+01  0.1412E+01
      6.576  0.5138E+00  0.9919E-01  0.1661E+01  0.1431E+01
      6.772  0.1112E+01  0.2502E+00  0.1878E+01  0.1480E+01
      6.967  0.3035E+01  0.4240E+00  0.2471E+01  0.1563E+01
      7.163  0.2164E+01  0.5284E+00  0.2894E+01  0.1667E+01
      7.358  0.7096E+00  0.7646E+00  0.3033E+01  0.1816E+01
      7.554  0.9128E+00  0.2275E+01  0.3212E+01  0.2261E+01
      7.750  0.9866E+00  0.2855E+01  0.3405E+01  0.2819E+01
      7.945  0.2119E+01  0.1194E+01  0.3819E+01  0.3053E+01
      8.141  0.2147E+01  0.7303E+00  0.4239E+01  0.3195E+01
      8.336  0.1241E+01  0.8766E+00  0.4482E+01  0.3367E+01
      8.532  0.1714E+01  0.1774E+01  0.4817E+01  0.3714E+01
      8.727  0.2377E+01  0.2325E+01  0.5281E+01  0.4168E+01
      8.923  0.1276E+01  0.1304E+01  0.5531E+01  0.4423E+01
      9.118  0.1666E+00  0.1224E+01  0.5564E+01  0.4663E+01
      9.314  0.1076E+00  0.1830E+01  0.5585E+01  0.5021E+01
      9.509  0.8066E-01  0.1844E+01  0.5600E+01  0.5381E+01
      9.705 -0.2591E-04  0.1021E+01  0.5600E+01  0.5581E+01
      9.900 -0.5570E-02  0.1070E+00  0.5599E+01  0.5602E+01
     10.096  0.2485E-01 -0.4936E-02  0.5604E+01  0.5601E+01
     10.292  0.9275E-01 -0.4624E-02  0.5622E+01  0.5600E+01
     10.487  0.1628E-01 -0.5113E-02  0.5625E+01  0.5599E+01
     10.683 -0.4049E-02  0.4689E-01  0.5625E+01  0.5608E+01
     10.878  0.7089E-01  0.1481E+00  0.5638E+01  0.5637E+01
     11.074  0.6239E-01  0.7100E-01  0.5651E+01  0.5651E+01
     11.269 -0.4783E-02 -0.8071E-02  0.5650E+01  0.5649E+01
     11.465 -0.1395E-01  0.2462E-02  0.5647E+01  0.5650E+01
     11.660  0.1609E+00  0.2067E+00  0.5678E+01  0.5690E+01
     11.856  0.3612E+00  0.2054E+00  0.5749E+01  0.5730E+01
     12.051  0.1364E+00  0.1069E+00  0.5776E+01  0.5751E+01
     12.247  0.8212E-01  0.1652E+00  0.5792E+01  0.5784E+01
     12.442  0.5850E-01  0.8698E-01  0.5803E+01  0.5801E+01
     12.638  0.8550E-01  0.6047E-01  0.5820E+01  0.5812E+01
     12.834  0.3820E-01  0.6251E-01  0.5827E+01  0.5825E+01
     13.029  0.8529E-01  0.4448E-01  0.5844E+01  0.5833E+01
     13.225  0.3282E-01  0.7952E-01  0.5851E+01  0.5849E+01
     13.420  0.6946E-01  0.1927E-01  0.5864E+01  0.5853E+01
     13.616  0.5158E-01  0.8911E-01  0.5874E+01  0.5870E+01
     13.811  0.4591E-01  0.2312E-01  0.5883E+01  0.5875E+01
     14.007  0.1814E+00  0.5640E-01  0.5919E+01  0.5886E+01
     14.202  0.3695E-01  0.1568E+00  0.5926E+01  0.5916E+01
     14.398  0.6277E-01  0.5395E-01  0.5938E+01  0.5927E+01
     14.593  0.5411E-01  0.7948E-01  0.5949E+01  0.5942E+01
     14.789  0.5175E-01  0.3559E-01  0.5959E+01  0.5949E+01
     14.984  0.2649E+00  0.3098E-01  0.6011E+01  0.5955E+01
     15.180  0.8421E-01  0.2353E+00  0.6027E+01  0.6001E+01
     15.376 -0.1454E-01  0.1271E+00  0.6024E+01  0.6026E+01
     15.571  0.4791E-01 -0.6347E-02  0.6034E+01  0.6025E+01
     15.767  0.8198E-01  0.2865E-02  0.6050E+01  0.6026E+01
     15.962  0.3204E-02  0.8463E-01  0.6050E+01  0.6042E+01
     16.158 -0.8374E-02  0.4411E-01  0.6049E+01  0.6051E+01
     16.353  0.2824E-01 -0.1213E-01  0.6054E+01  0.6048E+01
     16.549  0.1984E+00  0.5749E-01  0.6093E+01  0.6060E+01
     16.744  0.1462E+00  0.2067E+00  0.6122E+01  0.6100E+01
     16.940  0.2079E-01  0.1187E+00  0.6126E+01  0.6123E+01
     17.135 -0.1149E-01  0.1035E-01  0.6123E+01  0.6125E+01
     17.331  0.9599E-01 -0.3840E-02  0.6142E+01  0.6125E+01
     17.526  0.1629E+00  0.1048E+00  0.6174E+01  0.6145E+01
     17.722  0.7970E-02  0.1420E+00  0.6176E+01  0.6173E+01
     17.918 -0.9588E-02  0.1368E-01  0.6174E+01  0.6175E+01
     18.113  0.3515E-01 -0.3079E-02  0.6181E+01  0.6175E+01
     18.309  0.3271E+00  0.5665E-01  0.6245E+01  0.6186E+01
     18.504  0.7125E+00  0.1421E+00  0.6384E+01  0.6214E+01
     18.700  0.2102E+00  0.7307E+00  0.6425E+01  0.6357E+01
     18.895  0.3077E-01  0.3671E+00  0.6431E+01  0.6428E+01
     19.091  0.3201E+00  0.1632E-01  0.6494E+01  0.6432E+01
     19.286  0.1744E+00  0.3199E+00  0.6528E+01  0.6494E+01
     19.482  0.8643E-01  0.1659E+00  0.6545E+01  0.6527E+01
     19.677  0.2695E+00  0.1303E+00  0.6597E+01  0.6552E+01
     19.873  0.1527E+00  0.2846E+00  0.6627E+01  0.6608E+01
     20.068 -0.9424E-02  0.9909E-01  0.6625E+01  0.6627E+01
     20.264 -0.7304E-02 -0.1335E-01  0.6624E+01  0.6625E+01
     20.460  0.5241E-01  0.1771E-01  0.6634E+01  0.6628E+01
     20.655  0.1886E+00  0.1023E+00  0.6671E+01  0.6648E+01
     20.851  0.1501E+00  0.1789E+00  0.6700E+01  0.6683E+01
     21.046 -0.3549E-03  0.9429E-01  0.6700E+01  0.6701E+01
     21.242 -0.6983E-03 -0.9834E-02  0.6700E+01  0.6699E+01
     21.437  0.7935E-01  0.5401E-01  0.6716E+01  0.6710E+01
     21.633  0.4746E-01  0.7520E-01  0.6725E+01  0.6725E+01
     21.828  0.4881E-01  0.4802E-03  0.6734E+01  0.6725E+01
     22.024  0.1168E+00  0.8006E-01  0.6757E+01  0.6740E+01
     22.219  0.1662E+00  0.1598E+00  0.6790E+01  0.6772E+01
     22.415  0.1678E+00  0.2138E+00  0.6823E+01  0.6814E+01
     22.610  0.1499E-01  0.6767E-01  0.6826E+01  0.6827E+01
     22.806 -0.3681E-02 -0.1476E-01  0.6825E+01  0.6824E+01
     23.002  0.9525E-01  0.3340E-01  0.6843E+01  0.6830E+01
     23.197  0.1383E+00  0.1792E+00  0.6871E+01  0.6865E+01
     23.393  0.2499E-01  0.5400E-01  0.6875E+01  0.6876E+01
     23.588 -0.7144E-02 -0.9146E-02  0.6874E+01  0.6874E+01
     23.784  0.1014E+00  0.8501E-01  0.6894E+01  0.6891E+01
     23.979  0.5048E+00  0.4973E+00  0.6993E+01  0.6988E+01
     24.175  0.5511E+00  0.5739E+00  0.7100E+01  0.7100E+01
     24.370  0.2818E+00  0.2801E+00  0.7155E+01  0.7155E+01
     24.566  0.9573E-01  0.9361E-01  0.7174E+01  0.7173E+01
     24.761  0.1600E+00  0.1092E+00  0.7205E+01  0.7195E+01
     24.957  0.3570E+00  0.3330E+00  0.7275E+01  0.7260E+01
     25.153  0.2504E+00  0.3075E+00  0.7324E+01  0.7320E+01
     25.348  0.1038E+00  0.7624E-01  0.7344E+01  0.7335E+01
     25.544  0.1500E+00  0.1705E+00  0.7374E+01  0.7368E+01
     25.739  0.3119E-01  0.5334E-01  0.7380E+01  0.7379E+01
     25.935  0.1063E+00  0.8878E-01  0.7401E+01  0.7396E+01
     26.130  0.2768E+00  0.2333E+00  0.7455E+01  0.7442E+01
     26.326  0.3001E+00  0.3236E+00  0.7513E+01  0.7505E+01
     26.521  0.6977E-01  0.1140E+00  0.7527E+01  0.7527E+01
     26.717 -0.9875E-02 -0.9520E-02  0.7525E+01  0.7525E+01
     26.912 -0.9297E-03 -0.1806E-02  0.7525E+01  0.7525E+01
     27.108 -0.1254E-02 -0.5427E-03  0.7525E+01  0.7525E+01
     27.303 -0.7947E-02 -0.7811E-02  0.7523E+01  0.7523E+01
     27.499  0.8865E-01  0.4964E-01  0.7541E+01  0.7533E+01
     27.695  0.1906E+00  0.1864E+00  0.7578E+01  0.7570E+01
     27.890  0.3236E+00  0.2777E+00  0.7641E+01  0.7624E+01
     28.086  0.1873E+00  0.2605E+00  0.7678E+01  0.7675E+01
     28.281 -0.1154E-01  0.6973E-02  0.7675E+01  0.7676E+01
     28.477 -0.9476E-02 -0.1023E-01  0.7674E+01  0.7674E+01
     28.672  0.3255E-01  0.2117E-01  0.7680E+01  0.7678E+01
     28.868  0.2425E+00  0.1161E+00  0.7727E+01  0.7701E+01
     29.063  0.3520E+00  0.3069E+00  0.7796E+01  0.7761E+01
     29.259  0.2855E+00  0.3487E+00  0.7852E+01  0.7829E+01
     29.454  0.3244E+00  0.3507E+00  0.7915E+01  0.7898E+01
     29.650  0.1030E+00  0.1546E+00  0.7936E+01  0.7928E+01
     29.845  0.2459E+00  0.1893E+00  0.7984E+01  0.7965E+01
     30.041  0.2049E+00  0.2406E+00  0.8024E+01  0.8012E+01
     30.237  0.1573E+00  0.1553E+00  0.8055E+01  0.8042E+01
     30.432  0.3696E+00  0.3794E+00  0.8127E+01  0.8117E+01
     30.628  0.4974E+00  0.4937E+00  0.8224E+01  0.8213E+01
     30.823  0.2643E+00  0.3022E+00  0.8276E+01  0.8272E+01
     31.019  0.6559E-01  0.9566E-01  0.8289E+01  0.8291E+01
     31.214  0.2602E+00  0.2600E+00  0.8339E+01  0.8342E+01
     31.410  0.2829E+00  0.3753E+00  0.8395E+01  0.8415E+01
     31.605  0.2127E+00  0.1921E+00  0.8436E+01  0.8453E+01
     31.801  0.2697E+00  0.2740E+00  0.8489E+01  0.8506E+01
     31.996  0.2113E+00  0.1364E+00  0.8530E+01  0.8533E+01
     32.192  0.1822E+00  0.1975E+00  0.8566E+01  0.8572E+01
     32.387  0.4891E+00  0.3719E+00  0.8662E+01  0.8644E+01
     32.583  0.4784E+00  0.6388E+00  0.8755E+01  0.8769E+01
     32.779  0.4517E+00  0.6264E+00  0.8844E+01  0.8892E+01
     32.974  0.5420E+00  0.3092E+00  0.8950E+01  0.8952E+01
     33.170  0.1886E+00  0.1988E+00  0.8986E+01  0.8991E+01
     33.365  0.2440E+00  0.1888E+00  0.9034E+01  0.9028E+01
     33.561  0.2147E+00  0.2499E+00  0.9076E+01  0.9077E+01
     33.756  0.4579E+00  0.2508E+00  0.9166E+01  0.9126E+01
     33.952  0.5984E+00  0.6650E+00  0.9283E+01  0.9256E+01
     34.147  0.3830E+00  0.4893E+00  0.9358E+01  0.9352E+01
     34.343  0.3202E+00  0.2752E+00  0.9420E+01  0.9405E+01
     34.538  0.3947E+00  0.3888E+00  0.9497E+01  0.9481E+01
     34.734  0.2649E+00  0.2926E+00  0.9549E+01  0.9539E+01
     34.929  0.1301E+00  0.1750E+00  0.9575E+01  0.9573E+01
     35.125  0.9066E-01  0.9946E-01  0.9592E+01  0.9592E+01
     35.321  0.3265E+00  0.2714E+00  0.9656E+01  0.9645E+01
     35.516  0.4452E+00  0.4049E+00  0.9743E+01  0.9725E+01
     35.712  0.3400E+00  0.4407E+00  0.9810E+01  0.9811E+01
     35.907  0.3718E+00  0.3918E+00  0.9882E+01  0.9887E+01
     36.103  0.8918E-01  0.7364E-01  0.9900E+01  0.9902E+01
     36.298  0.7927E-01  0.1239E+00  0.9915E+01  0.9926E+01
     36.494  0.2742E+00  0.2920E+00  0.9969E+01  0.9983E+01
     36.689  0.8493E+00  0.8606E+00  0.1014E+02  0.1015E+02
     36.885  0.8370E+00  0.7011E+00  0.1030E+02  0.1029E+02
     37.080  0.3246E+00  0.3380E+00  0.1036E+02  0.1035E+02
     37.276  0.6978E-01  0.9478E-01  0.1038E+02  0.1037E+02
     37.471  0.1498E+00  0.1793E+00  0.1041E+02  0.1041E+02
     37.667  0.3432E+00  0.4050E+00  0.1047E+02  0.1049E+02
     37.863  0.1473E+00  0.7359E-01  0.1050E+02  0.1050E+02
     38.058  0.7966E-01  0.8283E-02  0.1052E+02  0.1050E+02
     38.254  0.1923E+00  0.1399E+00  0.1055E+02  0.1053E+02
     38.449  0.2088E+00  0.3168E+00  0.1060E+02  0.1059E+02
     38.645  0.1337E+00  0.1686E+00  0.1062E+02  0.1063E+02
     38.840  0.2351E-01 -0.1543E-02  0.1063E+02  0.1063E+02
     39.036 -0.1307E-01 -0.8640E-02  0.1062E+02  0.1062E+02
     39.231  0.4078E-01  0.1152E+00  0.1063E+02  0.1065E+02
     39.427  0.2662E+00  0.1871E+00  0.1068E+02  0.1068E+02
     39.622  0.3913E+00  0.2925E+00  0.1076E+02  0.1074E+02
     39.818  0.6449E+00  0.5949E+00  0.1089E+02  0.1086E+02
     40.014  0.2826E+00  0.4039E+00  0.1094E+02  0.1094E+02
     40.209  0.2555E+00  0.2642E+00  0.1099E+02  0.1099E+02
     40.405  0.2712E+00  0.2688E+00  0.1104E+02  0.1104E+02
     40.600  0.1484E+00  0.1969E+00  0.1107E+02  0.1108E+02
     40.796  0.3098E+00  0.3262E+00  0.1113E+02  0.1114E+02
     40.991  0.5648E+00  0.4693E+00  0.1124E+02  0.1123E+02
     41.187  0.2885E+00  0.3816E+00  0.1130E+02  0.1131E+02
     41.382  0.1044E+00  0.9640E-01  0.1132E+02  0.1133E+02
     41.578  0.2052E+00  0.1061E+00  0.1136E+02  0.1135E+02
     41.773  0.1029E+00  0.1502E+00  0.1138E+02  0.1138E+02
     41.969  0.8039E-01  0.1052E+00  0.1140E+02  0.1140E+02
     42.164  0.6642E-01  0.7108E-01  0.1141E+02  0.1141E+02
     42.360  0.7636E-01  0.7035E-01  0.1142E+02  0.1143E+02
     42.556  0.7329E-03 -0.1772E-02  0.1143E+02  0.1142E+02
     42.751 -0.2456E-02 -0.1812E-03  0.1142E+02  0.1142E+02
     42.947  0.7127E-01  0.7726E-01  0.1144E+02  0.1144E+02
     43.142  0.6189E-01  0.5353E-01  0.1145E+02  0.1145E+02
     43.338 -0.6336E-02 -0.2631E-02  0.1145E+02  0.1145E+02
     43.533  0.2524E-01  0.7511E-01  0.1145E+02  0.1146E+02
     43.729  0.9244E-01  0.5668E-01  0.1147E+02  0.1148E+02
     43.924  0.1368E-01 -0.6653E-02  0.1148E+02  0.1147E+02
     44.120  0.8189E-02  0.1891E-01  0.1148E+02  0.1148E+02
     44.315  0.8905E-01  0.9050E-01  0.1149E+02  0.1150E+02
     44.511  0.3260E-01  0.3091E-01  0.1150E+02  0.1150E+02
     44.706  0.6785E-01  0.8476E-01  0.1151E+02  0.1152E+02
     44.902  0.6116E-01  0.3790E-01  0.1153E+02  0.1153E+02
     45.098 -0.3503E-02 -0.4448E-02  0.1153E+02  0.1153E+02
     45.293 -0.4028E-02 -0.4486E-02  0.1152E+02  0.1152E+02
     45.489  0.5761E-01  0.3464E-01  0.1154E+02  0.1153E+02
     45.684  0.7090E-01  0.8650E-01  0.1155E+02  0.1155E+02
     45.880  0.4878E-01  0.6789E-01  0.1156E+02  0.1156E+02
     46.075  0.8075E-01  0.7232E-01  0.1157E+02  0.1158E+02
     46.271  0.3595E-02  0.3371E-03  0.1158E+02  0.1158E+02
     46.466 -0.1964E-02 -0.1543E-02  0.1158E+02  0.1158E+02
     46.662 -0.2716E-03 -0.1332E-02  0.1157E+02  0.1157E+02
     46.857 -0.3717E-02 -0.9215E-03  0.1157E+02  0.1157E+02
     47.053  0.2447E-01  0.7036E-01  0.1158E+02  0.1159E+02
     47.248  0.9282E-01  0.6312E-01  0.1160E+02  0.1160E+02
     47.444  0.1671E-01 -0.4904E-02  0.1160E+02  0.1160E+02
     47.640 -0.1094E-01 -0.3344E-02  0.1160E+02  0.1160E+02
     47.835  0.9777E-01  0.1388E+00  0.1162E+02  0.1163E+02
     48.031  0.1638E+00  0.1283E+00  0.1165E+02  0.1165E+02
     48.226  0.5150E-02 -0.7213E-02  0.1165E+02  0.1165E+02
     48.422 -0.2307E-02  0.9276E-02  0.1165E+02  0.1165E+02
     48.617  0.7795E-01  0.9051E-01  0.1167E+02  0.1167E+02
     48.813  0.5408E-01  0.3268E-01  0.1168E+02  0.1168E+02
     49.008 -0.7550E-02 -0.1159E-01  0.1167E+02  0.1167E+02
     49.204  0.8937E-02  0.5144E-01  0.1168E+02  0.1168E+02
     49.399  0.1633E+00  0.1852E+00  0.1171E+02  0.1172E+02
     49.595  0.9508E-01  0.3317E-01  0.1173E+02  0.1173E+02
     49.790 -0.1013E-01 -0.1052E-01  0.1172E+02  0.1172E+02
     49.986  0.1398E-01  0.3363E-01  0.1173E+02  0.1173E+02
     50.182  0.9222E-01  0.9024E-01  0.1175E+02  0.1175E+02
     50.377  0.2758E-01  0.1049E-01  0.1175E+02  0.1175E+02
     50.573 -0.7246E-02 -0.6824E-02  0.1175E+02  0.1175E+02
     50.768  0.1853E-01  0.3866E-01  0.1175E+02  0.1176E+02
     50.964  0.9293E-01  0.8804E-01  0.1177E+02  0.1177E+02
     51.159  0.2327E-01  0.7429E-02  0.1178E+02  0.1178E+02
     51.355 -0.7831E-02 -0.7305E-02  0.1177E+02  0.1177E+02
     51.550  0.2489E-01  0.4766E-01  0.1178E+02  0.1178E+02
     51.746  0.1188E+00  0.1457E+00  0.1180E+02  0.1181E+02
     51.941  0.1058E+00  0.7046E-01  0.1182E+02  0.1183E+02
     52.137  0.9984E-02 -0.1535E-02  0.1182E+02  0.1183E+02
     52.332  0.5636E-01  0.7678E-01  0.1184E+02  0.1184E+02
     52.528  0.7289E-01  0.5318E-01  0.1185E+02  0.1185E+02
     52.724 -0.4184E-02 -0.6399E-02  0.1185E+02  0.1185E+02
     52.919  0.3750E-01  0.5594E-01  0.1186E+02  0.1186E+02
     53.115  0.9106E-01  0.7935E-01  0.1187E+02  0.1188E+02
     53.310  0.1085E+00  0.1221E+00  0.1190E+02  0.1190E+02
     53.506  0.2664E+00  0.2967E+00  0.1195E+02  0.1196E+02
     53.701  0.2572E+00  0.2190E+00  0.1200E+02  0.1200E+02
     53.897  0.1661E-01  0.2060E-02  0.1200E+02  0.1200E+02
     54.092 -0.6725E-02 -0.4787E-02  0.1200E+02  0.1200E+02
     54.288 -0.2176E-03 -0.1088E-03  0.1200E+02  0.1200E+02
     54.483 -0.7803E-06 -0.2884E-06  0.1200E+02  0.1200E+02
     54.679 -0.3732E-09 -0.1032E-09  0.1200E+02  0.1200E+02
     54.874 -0.2493E-13 -0.5195E-14  0.1200E+02  0.1200E+02
     55.070  0.0000E+00  0.0000E+00  0.1200E+02  0.1200E+02
     55.266  0.0000E+00  0.0000E+00  0.1200E+02  0.1200E+02
     55.461  0.0000E+00  0.0000E+00  0.1200E+02  0.1200E+02
     55.657  0.0000E+00  0.0000E+00  0.1200E+02  0.1200E+02
     55.852  0.0000E+00  0.0000E+00  0.1200E+02  0.1200E+02
     56.048  0.0000E+00  0.0000E+00  0.1200E+02  0.1200E+02
     56.243  0.0000E+00  0.0000E+00  0.1200E+02  0.1200E+02
     56.24326972     -2.41853814  301      8.95133335      1.00000000
     -2.419  0.0000E+00  0.0000E+00  0.0000E+00  0.0000E+00  0.0000E+00  0.0000E+00  0.0000E+00  0.0000E+00  0.0000E+00  0.0000E+00  0.0000E+00  0.0000E+00  0.0000E+00  0.0000E+00  0.0000E+00  0.0000E+00  0.0000E+00  0.0000E+00
     -2.223  0.0000E+00  0.0000E+00  0.0000E+00  0.0000E+00  0.0000E+00  0.0000E+00  0.0000E+00  0.0000E+00  0.0000E+00  0.0000E+00  0.0000E+00  0.0000E+00  0.0000E+00  0.0000E+00  0.0000E+00  0.0000E+00  0.0000E+00  0.0000E+00
     -2.027  0.0000E+00  0.0000E+00  0.0000E+00  0.0000E+00  0.0000E+00  0.0000E+00  0.0000E+00  0.0000E+00  0.0000E+00  0.0000E+00  0.0000E+00  0.0000E+00  0.0000E+00  0.0000E+00  0.0000E+00  0.0000E+00  0.0000E+00  0.0000E+00
     -1.832  0.0000E+00  0.0000E+00  0.0000E+00  0.0000E+00  0.0000E+00  0.0000E+00  0.0000E+00  0.0000E+00  0.0000E+00  0.0000E+00  0.0000E+00  0.0000E+00  0.0000E+00  0.0000E+00  0.0000E+00  0.0000E+00  0.0000E+00  0.0000E+00
     -1.636  0.0000E+00  0.0000E+00  0.0000E+00  0.0000E+00  0.0000E+00  0.0000E+00  0.0000E+00  0.0000E+00  0.0000E+00  0.0000E+00  0.0000E+00  0.0000E+00  0.0000E+00  0.0000E+00  0.0000E+00  0.0000E+00  0.0000E+00  0.0000E+00
     -1.441 -0.1305E-32 -0.7156E-31 -0.8144E-48 -0.2158E-47 -0.8144E-48 -0.2158E-47 -0.8144E-48 -0.2158E-47 -0.1453E-42 -0.2610E-41 -0.1453E-42 -0.2610E-41 -0.8611E-47 -0.2482E-44 -0.1453E-42 -0.2610E-41 -0.8611E-47 -0.2482E-44
     -1.245 -0.1045E-25 -0.3603E-24 -0.1008E-32 -0.4626E-31 -0.1008E-32 -0.4626E-31 -0.1008E-32 -0.4626E-31 -0.1108E-34 -0.4058E-33 -0.1108E-34 -0.4058E-33 -0.7681E-36 -0.3486E-34 -0.1108E-34 -0.4058E-33 -0.7681E-36 -0.3486E-34
     -1.050 -0.1217E-19 -0.2636E-18 -0.3946E-26 -0.1143E-24 -0.3946E-26 -0.1143E-24 -0.3946E-26 -0.1143E-24 -0.3940E-28 -0.9585E-27 -0.3940E-28 -0.9585E-27 -0.4377E-29 -0.1251E-27 -0.3940E-28 -0.9585E-27 -0.4377E-29 -0.1251E-27
     -0.854 -0.1989E-14 -0.2695E-13 -0.2276E-20 -0.4160E-19 -0.2276E-20 -0.4160E-19 -0.2276E-20 -0.4160E-19 -0.2155E-22 -0.3361E-21 -0.2155E-22 -0.3361E-21 -0.3633E-23 -0.6532E-22 -0.2155E-22 -0.3361E-21 -0.3633E-23 -0.6532E-22
     -0.659 -0.4749E-10 -0.4018E-09 -0.1871E-15 -0.2152E-14 -0.1871E-15 -0.2152E-14 -0.1871E-15 -0.2152E-14 -0.1693E-17 -0.1666E-16 -0.1693E-17 -0.1666E-16 -0.4232E-18 -0.4766E-17 -0.1693E-17 -0.1666E-16 -0.4232E-18 -0.4766E-17
     -0.463 -0.1589E-06 -0.8334E-06 -0.2308E-11 -0.1672E-10 -0.2308E-11 -0.1672E-10 -0.2308E-11 -0.1672E-10 -0.1985E-13 -0.1229E-12 -0.1985E-13 -0.1229E-12 -0.7208E-14 -0.5074E-13 -0.1985E-13 -0.1229E-12 -0.7208E-14 -0.5074E-13
     -0.268 -0.7147E-04 -0.2283E-03 -0.4117E-08 -0.1864E-07 -0.4117E-08 -0.1864E-07 -0.4117E-08 -0.1864E-07 -0.3338E-10 -0.1290E-09 -0.3338E-10 -0.1290E-09 -0.1715E-10 -0.7482E-10 -0.3338E-10 -0.1290E-09 -0.1715E-10 -0.7482E-10
     -0.072 -0.3783E-02 -0.6778E-02 -0.1010E-05 -0.2785E-05 -0.1010E-05 -0.2785E-05 -0.1010E-05 -0.2785E-05 -0.7696E-08 -0.1813E-07 -0.7696E-08 -0.1813E-07 -0.5394E-08 -0.1421E-07 -0.7696E-08 -0.1813E-07 -0.5394E-08 -0.1421E-07
      0.123 -0.3085E-02  0.1797E-01 -0.2693E-04 -0.3768E-04 -0.2693E-04 -0.3768E-04 -0.2693E-04 -0.3768E-04 -0.1941E-06 -0.2336E-06 -0.1941E-06 -0.2336E-06 -0.1808E-06 -0.2461E-06 -0.1941E-06 -0.2336E-06 -0.1808E-06 -0.2461E-06
      0.319  0.1913E+00  0.2559E+00  0.1021E-03  0.2637E-03  0.1021E-03  0.2637E-03  0.1021E-03  0.2637E-03  0.5968E-06  0.1332E-05  0.5968E-06  0.1332E-05  0.5599E-06  0.1524E-05  0.5968E-06  0.1332E-05  0.5599E-06  0.1524E-05
      0.515  0.3038E+00  0.2593E+00  0.8466E-03  0.8820E-03  0.8466E-03  0.8820E-03  0.8466E-03  0.8820E-03  0.4324E-05  0.4337E-05  0.4324E-05  0.4337E-05  0.5634E-05  0.4660E-05  0.4324E-05  0.4337E-05  0.5634E-05  0.4660E-05
      0.710  0.8889E-01  0.6627E-01  0.6754E-03  0.7770E-03  0.6754E-03  0.7770E-03  0.6754E-03  0.7770E-03  0.1803E-04  0.2337E-04  0.1803E-04  0.2337E-04 -0.1277E-05  0.1620E-05  0.1803E-04  0.2337E-04 -0.1277E-05  0.1620E-05
      0.906  0.1037E+00  0.1228E+00  0.2003E-02  0.2449E-02  0.2003E-02  0.2449E-02  0.2003E-02  0.2449E-02  0.5726E-04  0.5508E-04  0.5726E-04  0.5508E-04  0.6347E-04  0.8143E-04  0.5726E-04  0.5508E-04  0.6347E-04  0.8143E-04
      1.101  0.1165E+00  0.9330E-01  0.2501E-02  0.2064E-02  0.2501E-02  0.2064E-02  0.2501E-02  0.2064E-02  0.6532E-04  0.5334E-04  0.6532E-04  0.5334E-04  0.1036E-03  0.7187E-04  0.6532E-04  0.5334E-04  0.1036E-03  0.7187E-04
      1.297  0.4091E-01  0.4243E-01  0.1260E-02  0.1446E-02  0.1260E-02  0.1446E-02  0.1260E-02  0.1446E-02  0.1391E-03  0.1576E-03  0.1391E-03  0.1576E-03 -0.1318E-05 -0.1384E-04  0.1391E-03  0.1576E-03 -0.1318E-05 -0.1384E-04
      1.492  0.4958E-01  0.4382E-01  0.1709E-02  0.1556E-02  0.1709E-02  0.1556E-02  0.1709E-02  0.1556E-02  0.2237E-03  0.1453E-03  0.2237E-03  0.1453E-03 -0.1149E-04  0.2829E-04  0.2237E-03  0.1453E-03 -0.1149E-04  0.2829E-04
      1.688  0.4896E-01  0.6080E-01  0.2312E-02  0.2981E-02  0.2312E-02  0.2981E-02  0.2312E-02  0.2981E-02  0.2241E-04  0.3714E-04  0.2241E-04  0.3714E-04  0.4398E-03  0.4851E-03  0.2241E-04  0.3714E-04  0.4398E-03  0.4851E-03
      1.883  0.8716E-01  0.8224E-01  0.4443E-02  0.4280E-02  0.4443E-02  0.4280E-02  0.4443E-02  0.4280E-02  0.3222E-03  0.3351E-03  0.3222E-03  0.3351E-03  0.5176E-03  0.3556E-03  0.3222E-03  0.3351E-03  0.5176E-03  0.3556E-03
      2.079  0.6267E-01  0.5913E-01  0.3582E-02  0.3514E-02  0.3582E-02  0.3514E-02  0.3582E-02  0.3514E-02  0.8549E-03  0.7632E-03  0.8549E-03  0.7632E-03  0.5673E-04  0.1586E-04  0.8549E-03  0.7632E-03  0.5673E-04  0.1586E-04
      2.274  0.3928E-01  0.3046E-01  0.2358E-02  0.1849E-02  0.2358E-02  0.1849E-02  0.2358E-02  0.1849E-02  0.7763E-03  0.4966E-03  0.7763E-03  0.4966E-03 -0.5247E-04 -0.5608E-04  0.7763E-03  0.4966E-03 -0.5247E-04 -0.5608E-04
      2.470 -0.5395E-03  0.5179E-03 -0.3382E-04  0.9878E-04 -0.3382E-04  0.9878E-04 -0.3382E-04  0.9878E-04 -0.2096E-04 -0.4358E-04 -0.2096E-04 -0.4358E-04  0.1133E-04  0.1178E-03 -0.2096E-04 -0.4358E-04  0.1133E-04  0.1178E-03
      2.665  0.3542E-01  0.4145E-01  0.3124E-02  0.3670E-02  0.3124E-02  0.3670E-02  0.3124E-02  0.3670E-02 -0.2161E-03 -0.1625E-03 -0.2161E-03 -0.1625E-03  0.1940E-02  0.1848E-02 -0.2161E-03 -0.1625E-03  0.1940E-02  0.1848E-02
      2.861  0.6557E-01  0.6387E-01  0.5969E-02  0.5981E-02  0.5969E-02  0.5981E-02  0.5969E-02  0.5981E-02  0.1614E-02  0.1393E-02  0.1614E-02  0.1393E-02  0.1694E-02  0.1188E-02  0.1614E-02  0.1393E-02  0.1694E-02  0.1188E-02
      3.057  0.9109E-01  0.8869E-01  0.8449E-02  0.8440E-02  0.8449E-02  0.8440E-02  0.8449E-02  0.8440E-02  0.4607E-02  0.3573E-02  0.4607E-02  0.3573E-02  0.3699E-03  0.2910E-03  0.4607E-02  0.3573E-02  0.3699E-03  0.2910E-03
      3.252  0.1064E-01  0.9047E-02  0.9512E-03  0.8240E-03  0.9512E-03  0.8240E-03  0.9512E-03  0.8240E-03  0.6070E-03  0.4530E-03  0.6070E-03  0.4530E-03 -0.7487E-04 -0.4402E-04  0.6070E-03  0.4530E-03 -0.7487E-04 -0.4402E-04
      3.448 -0.5360E-02 -0.4950E-02 -0.5461E-03 -0.5505E-03 -0.5461E-03 -0.5505E-03 -0.5461E-03 -0.5505E-03 -0.5165E-03 -0.2407E-03 -0.5165E-03 -0.2407E-03 -0.2257E-03 -0.2884E-03 -0.5165E-03 -0.2407E-03 -0.2257E-03 -0.2884E-03
      3.643  0.3746E-01  0.2164E-01  0.4679E-02  0.3018E-02  0.4679E-02  0.3018E-02  0.4679E-02  0.3018E-02  0.2873E-02  0.1539E-03  0.2873E-02  0.1539E-03  0.5782E-02  0.3715E-02  0.2873E-02  0.1539E-03  0.5782E-02  0.3715E-02
      3.839  0.6202E-01  0.6558E-01  0.7107E-02  0.8126E-02  0.7107E-02  0.8126E-02  0.7107E-02  0.8126E-02  0.8054E-02  0.5675E-02  0.8054E-02  0.5675E-02  0.6322E-02  0.5997E-02  0.8054E-02  0.5675E-02  0.6322E-02  0.5997E-02
      4.034  0.2124E-01  0.3420E-01  0.3216E-02  0.4447E-02  0.3216E-02  0.4447E-02  0.3216E-02  0.4447E-02  0.2849E-02  0.4723E-02  0.2849E-02  0.4723E-02 -0.2135E-03  0.5157E-03  0.2849E-02  0.4723E-02 -0.2135E-03  0.5157E-03
      4.230  0.5251E-01  0.3336E-01  0.7135E-02  0.5798E-02  0.7135E-02  0.5798E-02  0.7135E-02  0.5798E-02  0.1472E-01  0.2578E-02  0.1472E-01  0.2578E-02  0.7512E-03  0.2236E-03  0.1472E-01  0.2578E-02  0.7512E-03  0.2236E-03
      4.425  0.5723E-01  0.2726E-01  0.5318E-02  0.3478E-02  0.5318E-02  0.3478E-02  0.5318E-02  0.3478E-02  0.3431E-01  0.7840E-02  0.3431E-01  0.7840E-02  0.1393E-01  0.4708E-02  0.3431E-01  0.7840E-02  0.1393E-01  0.4708E-02
      4.621  0.6159E-01  0.4523E-01  0.2884E-02  0.6116E-02  0.2884E-02  0.6116E-02  0.2884E-02  0.6116E-02  0.3601E-01  0.1157E-01  0.3601E-01  0.1157E-01  0.1718E+00  0.1354E-01  0.3601E-01  0.1157E-01  0.1718E+00  0.1354E-01
      4.816  0.3499E-01  0.3510E-01  0.1311E-02  0.1974E-02  0.1311E-02  0.1974E-02  0.1311E-02  0.1974E-02 -0.3184E-02  0.2781E-01 -0.3184E-02  0.2781E-01  0.2519E+00  0.1196E-01 -0.3184E-02  0.2781E-01  0.2519E+00  0.1196E-01
      5.012  0.1980E-01  0.6110E-01  0.3530E-02  0.2278E-02  0.3530E-02  0.2278E-02  0.3530E-02  0.2278E-02  0.1555E-01  0.2921E-01  0.1555E-01  0.2921E-01  0.1072E+00  0.1926E+00  0.1555E-01  0.2921E-01  0.1072E+00  0.1926E+00
      5.207  0.2786E-01  0.4670E-01  0.6819E-02  0.5554E-02  0.6819E-02  0.5554E-02  0.6819E-02  0.5554E-02  0.2028E+00  0.5683E-02  0.2028E+00  0.5683E-02  0.9244E-01  0.2133E+00  0.2028E+00  0.5683E-02  0.9244E-01  0.2133E+00
      5.403  0.7795E-02  0.2809E-01  0.3709E-02  0.6306E-02  0.3709E-02  0.6306E-02  0.3709E-02  0.6306E-02  0.2190E+00 -0.2768E-03  0.2190E+00 -0.2768E-03  0.8654E-01  0.9499E-01  0.2190E+00 -0.2768E-03  0.8654E-01  0.9499E-01
      5.599  0.1056E-01  0.6417E-02  0.9539E-02  0.1165E-02  0.9539E-02  0.1165E-02  0.9539E-02  0.1165E-02  0.1555E+00  0.3367E-01  0.1555E+00  0.3367E-01  0.3196E-01  0.8225E-01  0.1555E+00  0.3367E-01  0.3196E-01  0.8225E-01
      5.794  0.1058E-01  0.7177E-02  0.8551E-02  0.2896E-02  0.8551E-02  0.2896E-02  0.8551E-02  0.2896E-02  0.9274E-01  0.2240E+00  0.9274E-01  0.2240E+00  0.3174E-01  0.9418E-01  0.9274E-01  0.2240E+00  0.3174E-01  0.9418E-01
      5.990  0.7778E-04  0.1372E-01  0.2643E-02  0.1020E-01  0.2643E-02  0.1020E-01  0.2643E-02  0.1020E-01  0.2317E-01  0.2177E+00  0.2317E-01  0.2177E+00  0.2489E-01  0.2964E-01  0.2317E-01  0.2177E+00  0.2489E-01  0.2964E-01
      6.185 -0.2140E-03  0.1063E-01  0.2508E-02  0.1189E-01  0.2508E-02  0.1189E-01  0.2508E-02  0.1189E-01  0.5077E-01  0.1470E+00  0.5077E-01  0.1470E+00  0.3166E-01  0.2935E-01  0.5077E-01  0.1470E+00  0.3166E-01  0.2935E-01
      6.381 -0.8918E-04  0.1949E-02  0.5501E-02  0.4023E-02  0.5501E-02  0.4023E-02  0.5501E-02  0.4023E-02  0.1213E+00  0.4329E-01  0.1213E+00  0.4329E-01  0.2163E-01  0.2628E-01  0.1213E+00  0.4329E-01  0.2163E-01  0.2628E-01
      6.576  0.1695E-02 -0.2010E-03  0.6290E-02  0.8012E-04  0.6290E-02  0.8012E-04  0.6290E-02  0.8012E-04  0.1401E+00  0.2017E-01  0.1401E+00  0.2017E-01  0.2178E-01  0.1609E-01  0.1401E+00  0.2017E-01  0.2178E-01  0.1609E-01
      6.772  0.3349E-02  0.1223E-03  0.8111E-02  0.2452E-02  0.8111E-02  0.2452E-02  0.8111E-02  0.2452E-02  0.3080E+00  0.5657E-01  0.3080E+00  0.5657E-01  0.5718E-01  0.2823E-01  0.3080E+00  0.5657E-01  0.5718E-01  0.2823E-01
      6.967  0.5405E-02 -0.3176E-04  0.8097E-02  0.5748E-02  0.8097E-02  0.5748E-02  0.8097E-02  0.5748E-02  0.8198E+00  0.1187E+00  0.8198E+00  0.1187E+00  0.2268E+00  0.1260E-01  0.8198E+00  0.1187E+00  0.2268E+00  0.1260E-01
      7.163  0.9287E-03  0.1858E-02  0.6394E-02  0.7975E-02  0.6394E-02  0.7975E-02  0.6394E-02  0.7975E-02  0.5920E+00  0.1422E+00  0.5920E+00  0.1422E+00  0.1527E+00  0.2154E-01  0.5920E+00  0.1422E+00  0.1527E+00  0.2154E-01
      7.358  0.3809E-02  0.3999E-02  0.8902E-02  0.1196E-01  0.8902E-02  0.1196E-01  0.8902E-02  0.1196E-01  0.1828E+00  0.2001E+00  0.1828E+00  0.2001E+00  0.5145E-01  0.4036E-01  0.1828E+00  0.2001E+00  0.5145E-01  0.4036E-01