    1    1    1    2
  0.1099674E+02  0.2496087E-09  0.2496087E-09  0.2496087E-09  0.5000000E-15
  1.000000000000000E-004
  CAR 
 fcc Ni                                  
     10     40     12
 
  0.5000000E+00  0.5000000E+00  0.5000000E+00  0.2500000E-01
      1          4.483971        4.863663   1.000000   1.000000
      2          6.841690        7.447638   1.000000   1.000000
      3          6.841692        7.447640   1.000000   1.000000
      4          8.637861        8.885427   1.024577   0.762795
      5          8.637861        9.357314   1.024577  -0.007250
      6          8.960046        9.357315   0.463173  -0.007249
      7         14.850252       15.214741   0.000000   0.000000
      8         31.387546       31.229666   0.000000   0.000000
      9         33.729062       33.801097   0.000000   0.000000
     10         33.729065       33.801103   0.000000   0.000000
     11         36.759778       36.790137   0.000000   0.000000
     12         36.759780       36.790141   0.000000   0.000000
 
  0.4444444E+00  0.4444444E+00  0.4444444E+00  0.2500000E-01
      1          4.431116        4.776613   1.000000   1.000000
      2          6.860166        7.468011   1.000000   1.000000
      3          6.860168        7.468013   1.000000   1.000000
      4          8.476546        8.490917   1.001996   1.002677
      5          8.594415        9.310595   1.015031  -0.014574
      6          8.594415        9.310595   1.015031  -0.014574
      7         15.607905       15.917065   0.000000   0.000000
      8         31.485773       31.329133   0.000000   0.000000
      9         33.762337       33.835464   0.000000   0.000000
     10         33.762341       33.835470   0.000000   0.000000
     11         36.953848       36.982922   0.000000   0.000000
     12         36.953850       36.982925   0.000000   0.000000
 
  0.3888889E+00  0.3888889E+00  0.3888889E+00  0.2500000E-01
      1          4.217341        4.453816   1.000000   1.000000
      2          6.908038        7.522052   1.000000   1.000000
      3          6.908041        7.522054   1.000000   1.000000
      4          7.564245        7.767298   1.000000   1.000000
      5          8.470533        9.177617   1.001759  -0.033939
      6          8.470534        9.177617   1.001759  -0.033939
      7         17.391231       17.619194   0.000000   0.000000
      8         31.767218       31.614225   0.000000   0.000000
      9         33.864930       33.939504   0.000000   0.000000
     10         33.864934       33.939509   0.000000   0.000000
     11         37.450675       37.480548   0.000000   0.000000
     12         37.450677       37.480551   0.000000   0.000000
 
  0.3333333E+00  0.3333333E+00  0.3333333E+00  0.2500000E-01
      1          3.716724        3.808301   1.000000   1.000000
      2          6.874251        7.279352   1.000000   1.000000
      3          6.980274        7.604125   1.000000   1.000000
      4          6.980277        7.604127   1.000000   1.000000
      5          8.298126        8.990242   1.000020   0.338770
      6          8.298126        8.990242   1.000020   0.338768
      7         19.671793       19.839337   0.000000   0.000000
      8         32.201505       32.053536   0.000000   0.000000
      9         34.052157       34.125521   0.000000   0.000000
     10         34.052161       34.125527   0.000000   0.000000
     11         38.357038       38.382774   0.000000   0.000000
     12         38.357039       38.382776   0.000000   0.000000
 
  0.2777778E+00  0.2777778E+00  0.2777778E+00  0.2500000E-01
      1          2.940267        2.941847   1.000000   1.000000
      2          6.589188        7.124419   1.000000   1.000000
      3          7.049273        7.687536   1.000000   1.000000
      4          7.049276        7.687538   1.000000   1.000000
      5          8.108309        8.781543   1.000000   1.001533
      6          8.108309        8.781543   1.000000   1.001533
      7         22.232700       22.354839   0.000000   0.000000
      8         32.719116       32.576400   0.000000   0.000000
      9         34.333168       34.400667   0.000000   0.000000
     10         34.333172       34.400673   0.000000   0.000000
     11         39.511252       39.530123   0.000000   0.000000
     12         39.511260       39.530130   0.000000   0.000000
 
  0.2222222E+00  0.2222222E+00  0.2222222E+00  0.2500000E-01
      1          2.092791        2.060387   1.000000   1.000000
      2          6.566566        7.165833   1.000000   1.000000
      3          7.083992        7.739264   1.000000   1.000000
      4          7.083996        7.739267   1.000000   1.000000
      5          7.963122        8.615126   1.000000   1.019381
      6          7.963123        8.615126   1.000000   1.019381
      7         24.971039       25.054330   0.000000   0.000000
      8         33.221306       33.082876   0.000000   0.000000
      9         34.736327       34.791208   0.000000   0.000000
     10         34.736330       34.791214   0.000000   0.000000
     11         40.781106       40.779765   0.000000   0.000000
     12         40.784193       40.785434   0.000000   0.000000
 
  0.1666667E+00  0.1666667E+00  0.1666667E+00  0.2500000E-01
      1          1.341771        1.298598   1.000000   1.000000
      2          6.650584        7.283845   1.000000   1.000000
      3          7.049349        7.717533   1.000000   1.000000
      4          7.049353        7.717536   1.000000   1.000000
      5          7.893031        8.530262   1.000000   1.005605
      6          7.893032        8.530263   1.000000   1.005605
      7         27.818135       27.862222   0.000000   0.000000
      8         33.620657       33.486766   0.000000   0.000000
      9         35.221494       35.259353   0.000000   0.000000
     10         35.221497       35.259359   0.000000   0.000000
     11         40.748232       40.677397   0.000000   0.000000
     12         41.543569       41.507592   0.000000   0.000000
 
  0.1111111E+00  0.1111111E+00  0.1111111E+00  0.2500000E-01
      1          0.769698        0.723440   1.000000   1.000000
      2          6.759249        7.412561   1.000000   1.000000
      3          6.971338        7.642254   1.000000   1.000000
      4          6.971341        7.642257   1.000000   1.000000
      5          7.894959        8.528302   1.000000   1.005415
      6          7.894959        8.528302   1.000000   1.005415
      7         30.612176       30.596460   0.000000   0.000000
      8         34.002478       33.890816   0.000000   0.000000
      9         35.797755       35.812821   0.000000   0.000000
     10         35.797757       35.812825   0.000000   0.000000
     11         40.809012       40.744419   0.000000   0.000000
     12         41.051568       41.037646   0.000000   0.000000
 
  0.5555556E-01  0.5555556E-01  0.5555556E-01  0.2500000E-01
      1          0.414949        0.367969   1.000000   1.000000
      2          6.844476        7.508930   1.000000   1.000000
      3          6.901572        7.570794   1.000000   1.000000
      4          6.901575        7.570796   1.000000   1.000000
      5          7.918565        8.553085   1.000000   1.008223
      6          7.918566        8.553085   1.000000   1.008223
      7         32.512963       32.377909   0.000000   0.000000
      8         35.122208       35.091224   0.000000   0.000000
      9         36.372099       36.359146   0.000000   0.000000
     10         36.372100       36.359150   0.000000   0.000000
     11         40.160854       40.186537   0.000000   0.000000
     12         40.162977       40.191572   0.000000   0.000000
 
  0.2775558E-16  0.2775558E-16  0.2775558E-16  0.2500000E-01
      1          0.294996        0.247908   1.000000   1.000000
      2          6.874725        7.542934   1.000000   1.000000
      3          6.874729        7.542937   1.000000   1.000000
      4          6.874732        7.542938   1.000000   1.000000
      5          7.929558        8.565017   1.000000   1.009910
      6          7.929559        8.565018   1.000000   1.009910
      7         32.897295       32.725545   0.000000   0.000000
      8         36.657602       36.626416   0.000000   0.000000
      9         36.657768       36.626661   0.000000   0.000000
     10         36.657768       36.626664   0.000000   0.000000
     11         39.735390       39.782472   0.000000   0.000000
     12         39.735478       39.782526   0.000000   0.000000
 
  0.0000000E+00  0.0000000E+00  0.0000000E+00  0.2500000E-01
      1          0.294996        0.247908   1.000000   1.000000
      2          6.874725        7.542934   1.000000   1.000000
      3          6.874729        7.542937   1.000000   1.000000
      4          6.874732        7.542938   1.000000   1.000000
      5          7.929558        8.565017   1.000000   1.009910
      6          7.929559        8.565018   1.000000   1.009910
      7         32.897295       32.725545   0.000000   0.000000
      8         36.657602       36.626416   0.000000   0.000000
      9         36.657768       36.626661   0.000000   0.000000
     10         36.657768       36.626664   0.000000   0.000000
     11         39.735395       39.782421   0.000000   0.000000
     12         39.735483       39.782528   0.000000   0.000000
 
  0.0000000E+00  0.5555556E-01  0.5555556E-01  0.2500000E-01
      1          0.454828        0.407874   1.000000   1.000000
      2          6.818234        7.481941   1.000000   1.000000
      3          6.919451        7.588941   1.000000   1.000000
      4          6.919453        7.588942   1.000000   1.000000
      5          7.878296        8.510087   1.000000   1.003884
      6          7.949979        8.586272   1.000000   1.013478
      7         32.554744       32.411157   0.000000   0.000000
      8         35.398490       35.408526   0.000000   0.000000
      9         35.398591       35.408672   0.000000   0.000000
     10         35.907285       35.856388   0.000000   0.000000
     11         40.427665       40.451010   0.000000   0.000000
     12         40.975221       40.971049   0.000000   0.000000
 
  0.0000000E+00  0.1111111E+00  0.1111111E+00  0.2500000E-01
      1          0.926215        0.880103   1.000000   1.000000
      2          6.656391        7.307480   1.000000   1.000000
      3          7.049679        7.723377   1.000000   1.000000
      4          7.049682        7.723380   1.000000   1.000000
      5          7.734073        8.354694   1.000000   1.000103
      6          8.009005        8.647717   1.000000   1.026838
      7         31.809871       31.719398   0.000000   0.000000
      8         33.322239       33.362662   0.000000   0.000000
      9         33.322336       33.362800   0.000000   0.000000
     10         34.392632       34.320848   0.000000   0.000000
     11         41.500946       41.672392   0.000000   0.000000
     12         42.194323       42.179826   0.000000   0.000000
 
  0.0000000E+00  0.1666667E+00  0.1666667E+00  0.2500000E-01
      1          1.680139        1.637791   1.000000   1.000000
      2          6.413720        7.046408   1.000000   1.000000
      3          7.263011        7.943829   1.000000   1.000000
      4          7.263013        7.943831   1.000000   1.000000
      5          7.540841        8.139950   1.000000   1.000000
      6          8.100238        8.742718   1.000000   1.029039
      7         31.022766       30.983118   0.000000   0.000000
      8         31.239936       31.292462   0.000000   0.000000
      9         31.240021       31.292587   0.000000   0.000000
     10         32.689036       32.612507   0.000000   0.000000
     11         38.128487       38.324783   0.000000   0.000000
     12         44.695281       44.647705   0.000000   0.000000
 
  0.0000000E+00  0.2222222E+00  0.2222222E+00  0.2500000E-01
      1          2.646099        2.618798   1.000000   1.000000
      2          6.123439        6.734975   1.000000   1.000000
      3          7.377045        7.937829   1.000000   1.000000
      4          7.543448        8.235136   1.000000   1.000003
      5          7.543449        8.235139   1.000000   1.000003
      6          8.213031        8.860206   1.000001   0.844768
      7         29.280499       29.333795   0.000000   0.000000
      8         29.280581       29.333917   0.000000   0.000000
      9         30.343444       30.347274   0.000000   0.000000
     10         30.568492       30.527758   0.000000   0.000000
     11         35.411777       35.596075   0.000000   0.000000
     12         47.142260       47.045168   0.000000   0.000000
 
  0.0000000E+00  0.2777778E+00  0.2777778E+00  0.2500000E-01
      1          3.650311        3.677725   1.000000   1.000000
      2          5.818480        6.409486   1.000000   1.000000
      3          7.428261        7.906434   1.000000   1.000000
      4          7.874530        8.580390   1.000000   1.012418
      5          7.874539        8.580398   1.000000   1.012420
      6          8.334538        8.987057   1.000058   0.351483
      7         27.536301       27.581342   0.000000   0.000000
      8         27.536369       27.581450   0.000000   0.000000
      9         27.801684       27.833082   0.000000   0.000000
     10         29.784442       29.826262   0.000000   0.000000
     11         33.791505       33.938066   0.000000   0.000000
     12         49.383315       49.289605   0.000000   0.000000
 
  0.0000000E+00  0.3333333E+00  0.3333333E+00  0.2500000E-01
      1          4.355811        4.515801   1.000000   1.000000
      2          5.542808        6.115533   1.000000   1.000000
      3          8.047501        8.358131   1.000000   1.000113
      4          8.212106        8.935960   1.000001   0.564839
      5          8.212114        8.935969   1.000001   0.564801
      6          8.447078        9.104720   1.001052   0.018902
      7         24.758176       24.851334   0.000000   0.000000
      8         26.056062       26.087261   0.000000   0.000000
      9         26.056135       26.087375   0.000000   0.000000
     10         29.379554       29.449831   0.000000   0.000000
     11         32.958361       33.084531   0.000000   0.000000
     12         51.829323       51.750783   0.000000   0.000000
 
  0.0000000E+00  0.3888889E+00  0.3888889E+00  0.2500000E-01
      1          4.603192        4.894453   1.000000   1.000000
      2          5.323444        5.882110   1.000000   1.000000
      3          8.516562        9.201895   1.004381  -0.035341
      4          8.516570        9.259075   1.004382  -0.025898
      5          8.540005        9.259085   1.006629  -0.025895
      6          9.344005        9.478049  -0.008983  -0.000625
      7         21.847784       21.995540   0.000000   0.000000
      8         24.922929       24.937622   0.000000   0.000000
      9         24.923006       24.937742   0.000000   0.000000
     10         29.107189       29.197719   0.000000   0.000000
     11         32.543344       32.665929   0.000000   0.000000
     12         53.244499       53.233790   0.000000   0.000000
 
  0.0000000E+00  0.4444444E+00  0.4444444E+00  0.2500000E-01
      1          4.625655        4.977613   1.000000   1.000000
      2          5.182939        5.732786   1.000000   1.000000
      3          8.601164        9.265863   1.016390  -0.024332
      4          8.732307        9.489635   1.032391  -0.000472
      5          8.732315        9.489646   1.032389  -0.000472
      6         10.868856       10.879824  -0.000000  -0.000000
      7         19.430894       19.643656   0.000000   0.000000
      8         24.205489       24.206335   0.000000   0.000000
      9         24.205569       24.206458   0.000000   0.000000
     10         28.954277       29.056781   0.000000   0.000000
     11         32.347330       32.472498   0.000000   0.000000
     12         53.484491       53.458729   0.000000   0.000000
 
  0.0000000E+00  0.5000000E+00  0.5000000E+00  0.2500000E-01
      1          4.615349        4.982819   1.000000   1.000000
      2          5.132786        5.679895   1.000000   1.000000
      3          8.622532        9.288215   1.021045  -0.019232
      4          8.808326        9.571555   0.965013  -0.000052
      5          8.808340        9.571572   0.964991  -0.000052
      6         11.673758       11.620883  -0.000000  -0.000000
      7         18.339200       18.600952   0.000000   0.000000
      8         23.958815       23.954179   0.000000   0.000000
      9         23.958897       23.954304   0.000000   0.000000
     10         28.870087       28.978636   0.000000   0.000000
     11         32.290811       32.417559   0.000000   0.000000
     12         53.576750       53.550036   0.000000   0.000000
 
  0.0000000E+00  0.5000000E+00  0.5000000E+00  0.2500000E-01
      1          4.615349        4.982819   1.000000   1.000000
      2          5.132786        5.679895   1.000000   1.000000
      3          8.622532        9.288215   1.021045  -0.019232
      4          8.808326        9.571555   0.965013  -0.000052
      5          8.808340        9.571572   0.964991  -0.000052
      6         11.673758       11.620883  -0.000000  -0.000000
      7         18.339200       18.600952   0.000000   0.000000
      8         23.958815       23.954179   0.000000   0.000000
      9         23.958897       23.954304   0.000000   0.000000
     10         28.870087       28.978636   0.000000   0.000000
     11         32.290811       32.417559   0.000000   0.000000
     12         53.576824       53.546039   0.000000   0.000000
 
  0.2777778E-01  0.5138889E+00  0.5138889E+00  0.2500000E-01
      1          4.625717        4.993689   1.000000   1.000000
      2          5.139433        5.686413   1.000000   1.000000
      3          8.614058        9.279077   1.019145  -0.021286
      4          8.762951        9.507887   1.018001  -0.000299
      5          8.805187        9.568265   0.970146  -0.000058
      6         11.739242       11.704639  -0.000000  -0.000000
      7         18.344309       18.605357   0.000000   0.000000
      8         23.725778       23.728850   0.000000   0.000000
      9         23.989357       23.985475   0.000000   0.000000
     10         29.016443       29.119189   0.000000   0.000000
     11         32.414799       32.539798   0.000000   0.000000
     12         53.412835       53.380094   0.000000   0.000000
 
  0.5555556E-01  0.5277778E+00  0.5277778E+00  0.2500000E-01
      1          4.656548        5.026063   1.000000   1.000000
      2          5.159884        5.706300   1.000000   1.000000
      3          8.588995        9.252062   1.013986  -0.027489
      4          8.639568        9.343219   1.024971  -0.009094
      5          8.795789        9.558415   0.984126  -0.000077
      6         11.924715       11.931203  -0.000000  -0.000000
      7         18.360240       18.619021   0.000000   0.000000
      8         23.124477       23.144135   0.000000   0.000000
      9         24.080389       24.078599   0.000000   0.000000
     10         29.358071       29.449570   0.000000   0.000000
     11         32.802378       32.921622   0.000000   0.000000
     12         52.970083       52.933181   0.000000   0.000000
 
  0.8333333E-01  0.5416667E+00  0.5416667E+00  0.2500000E-01
      1          4.706783        5.079002   1.000000   1.000000
      2          5.192359        5.737781   1.000000   1.000000
      3          8.459668        9.120243   1.001392  -0.000583
      4          8.548374        9.208318   1.007619  -0.034944
      5          8.780183        9.542056   1.002968  -0.000121
      6         12.204789       12.254244  -0.000000  -0.000000
      7         18.384874       18.640071   0.000000   0.000000
      8         22.312566       22.350345   0.000000   0.000000
      9         24.230973       24.232542   0.000000   0.000000
     10         29.689673       29.773984   0.000000   0.000000
     11         33.469571       33.578996   0.000000   0.000000
     12         52.347431       52.306324   0.000000   0.000000
 
  0.1111111E+00  0.5555556E+00  0.5555556E+00  0.2500000E-01
      1          4.774948        5.151230   1.000000   1.000000
      2          5.237022        5.780514   1.000000   1.000000
      3          8.249530        8.874379   1.000004   0.800437
      4          8.493714        9.149541   1.002831  -0.024172
      5          8.758394        9.519214   1.021065  -0.000223
      6         12.555375       12.640402  -0.000000  -0.000000
      7         18.416708       18.666628   0.000000   0.000000
      8         21.405292       21.460755   0.000000   0.000000
      9         24.439494       24.445511   0.000000   0.000000
     10         29.947767       30.027961   0.000000   0.000000
     11         34.386942       34.484815   0.000000   0.000000
     12         51.629110       51.585016   0.000000   0.000000
 
  0.1388889E+00  0.5694444E+00  0.5694444E+00  0.2500000E-01
      1          4.859168        5.241143   1.000000   1.000000
      2          5.293958        5.833815   1.000000   1.000000
      3          8.027304        8.624935   1.000000   1.021593
      4          8.428548        9.079202   1.000686   0.063111
      5          8.730592        9.490045   1.032812  -0.000467
      6         12.959370       13.071353  -0.000000  -0.000000
      7         18.451435       18.692877   0.000000   0.000000
      8         20.478352       20.552292   0.000000   0.000000
      9         24.705614       24.717045   0.000000   0.000000
     10         30.147256       30.223045   0.000000   0.000000
     11         35.495983       35.582993   0.000000   0.000000
     12         50.872106       50.825552   0.000000   0.000000
 
  0.1666667E+00  0.5833333E+00  0.5833333E+00  0.2500000E-01
      1          4.956451        5.346144   1.000000   1.000000
      2          5.359132        5.893379   1.000000   1.000000
      3          7.803359        8.381129   1.000000   1.000210
      4          8.351865        8.997128   1.000095   0.311744
      5          8.696690        9.454498   1.035119  -0.001079
      6         13.404158       13.535773  -0.000000  -0.000000
      7         18.435682       18.657384   0.000000   0.000000
      8         19.594805       19.698161   0.000000   0.000000
      9         25.023583       25.040968   0.000000   0.000000
     10         30.291859       30.363386   0.000000   0.000000
     11         36.732673       36.810506   0.000000   0.000000
     12         50.100002       50.053690   0.000000   0.000000
 
  0.1944444E+00  0.5972222E+00  0.5972222E+00  0.2500000E-01
      1          5.064282        5.464126   1.000000   1.000000
      2          5.431953        5.957443   1.000000   1.000000
      3          7.585711        8.149240   1.000000   1.000000
      4          8.268212        8.907771   1.000008   0.679566
      5          8.656948        9.412817   1.028883  -0.002621
      6         13.882926       14.028521  -0.000000  -0.000000
      7         18.121356       18.280852   0.000000   0.000000
      8         19.035749       19.210803   0.000000   0.000000
      9         25.392246       25.415989   0.000000   0.000000
     10         30.417001       30.483096   0.000000   0.000000
     11         38.062538       38.132848   0.000000   0.000000
     12         49.336389       49.289918   0.000000   0.000000
 
  0.2222222E+00  0.6111111E+00  0.6111111E+00  0.2500000E-01
      1          5.179614        5.592574   1.000000   1.000000
      2          5.509656        6.022082   1.000000   1.000000
      3          7.379010        7.932579   1.000000   1.000000
      4          8.180163        8.813925   1.000000   0.955269
      5          8.611521        9.365163   1.018588  -0.006353
      6         14.390968       14.546240  -0.000000   0.000000
      7         17.347432       17.490114   0.000000   0.000000
      8         18.976319       19.178321   0.000000   0.000000
      9         25.808849       25.839138   0.000000   0.000000
     10         30.537199       30.596761   0.000000   0.000000
     11         39.462131       39.526294   0.000000   0.000000
     12         48.591197       48.547911   0.000000   0.000000
 
  0.2500000E+00  0.6250000E+00  0.6250000E+00  0.2500000E-01
      1          5.299128        5.728951   1.000000   1.000000
      2          5.588893        6.082384   1.000000   1.000000
      3          7.186294        7.733182   1.000000   1.000000
      4          8.090277        8.718336   1.000000   1.034862
      5          8.560614        9.311748   1.009261  -0.014352
      6         14.925193       15.086844   0.000000   0.000000
      7         16.466119       16.623199   0.000000   0.000000
      8         19.075150       19.274406   0.000000   0.000000
      9         26.270652       26.307484   0.000000   0.000000
     10         30.662072       30.714171   0.000000   0.000000
     11         40.916441       40.975546   0.000000   0.000000
     12         47.871602       47.829333   0.000000   0.000000
 
  0.3750000E+00  0.7500000E+00  0.3750000E+00  0.2500000E-01
      1          5.299128        5.728951   1.000000   1.000000
      2          5.588893        6.082384   1.000000   1.000000
      3          7.186294        7.733182   1.000000   1.000000
      4          8.090277        8.718336   1.000000   1.034862
      5          8.560614        9.311748   1.009261  -0.014352
      6         14.925193       15.086844   0.000000   0.000000
      7         16.466119       16.623199   0.000000   0.000000
      8         19.075150       19.274406   0.000000   0.000000
      9         26.270652       26.307484   0.000000   0.000000
     10         30.662072       30.714171   0.000000   0.000000
     11         40.916441       40.975546   0.000000   0.000000
     12         47.871633       47.829641   0.000000   0.000000
 
  0.3333333E+00  0.6666667E+00  0.3333333E+00  0.2500000E-01
      1          5.623167        6.132833   1.000000   1.000000
      2          5.818015        6.202641   1.000000   1.000000
      3          6.708584        7.248801   1.000000   1.000000
      4          7.833136        8.446046   1.000000   1.001028
      5          8.378547        9.120547   1.000196  -0.000913
      6         13.920793       14.162672  -0.000000  -0.000000
      7         16.667446       16.834737   0.000000   0.000000
      8         19.674266       19.842277   0.000000   0.000000
      9         27.897158       27.952310   0.000000   0.000000
     10         31.130196       31.156064   0.000000   0.000000
     11         45.506450       45.552859   0.000000   0.000000
     12         45.917274       45.898131   0.000000   0.000000
 
  0.2916667E+00  0.5833333E+00  0.2916667E+00  0.2500000E-01
      1          5.594394        5.931464   1.000000   1.000000
      2          6.142954        6.618026   1.000000   1.000000
      3          6.393913        6.940504   1.000000   1.000000
      4          7.627355        8.230498   1.000000   1.000002
      5          8.152388        8.883666   1.000000   0.768964
      6         11.774054       12.150822  -0.000000  -0.000000
      7         18.593490       18.753724   0.000000   0.000000
      8         20.651593       20.784702   0.000000   0.000000
      9         29.839823       29.909250   0.000000   0.000000
     10         31.812221       31.811133   0.000000   0.000000
     11         43.618315       43.512556   0.000000   0.000000
     12         44.245948       44.221021   0.000000   0.000000
 
  0.2500000E+00  0.5000000E+00  0.2500000E+00  0.2500000E-01
      1          5.061350        5.221113   1.000000   1.000000
      2          6.243619        6.804296   1.000000   1.000000
      3          6.497970        7.030791   1.000000   1.000000
      4          7.511281        8.110236   1.000000   1.000000
      5          7.908391        8.627093   1.000000   1.022088
      6         10.184316       10.719539  -0.000000  -0.000000
      7         20.699565       20.844181   0.000000   0.000000
      8         22.061265       22.162460   0.000000   0.000000
      9         32.054468       32.131911   0.000000   0.000000
     10         32.802020       32.778132   0.000000   0.000000
     11         41.333495       41.228763   0.000000   0.000000
     12         42.936716       42.922388   0.000000   0.000000
 
  0.2083333E+00  0.4166667E+00  0.2083333E+00  0.2500000E-01
      1          4.079810        4.114800   1.000000   1.000000
      2          6.236410        6.816773   1.000000   1.000000
      3          6.798652        7.376443   1.000000   1.000000
      4          7.488246        8.088943   1.000000   1.000000
      5          7.650741        8.356805   1.000000   1.000109
      6          9.157613        9.796421  -0.028086  -0.000000
      7         22.961644       23.084421   0.000000   0.000000
      8         23.888409       23.963094   0.000000   0.000000
      9         34.114288       34.076819   0.000000   0.000000
     10         34.479895       34.556493   0.000000   0.000000
     11         39.330565       39.227206   0.000000   0.000000
     12         41.854395       41.855363   0.000000   0.000000
 
  0.1666667E+00  0.3333333E+00  0.1666667E+00  0.2500000E-01
      1          2.918653        2.898034   1.000000   1.000000
      2          6.340490        6.943848   1.000000   1.000000
      3          7.011732        7.626924   1.000000   1.000000
      4          7.404452        8.098408   1.000000   1.000000
      5          7.552438        8.158800   1.000000   1.000000
      6          8.522408        9.189195   1.004874  -0.035255
      7         25.367383       25.460731   0.000000   0.000000
      8         26.128249       26.179008   0.000000   0.000000
      9         35.766104       35.720690   0.000000   0.000000
     10         37.070628       37.120176   0.000000   0.000000