 vasp.6.3.0 20Jan22 (build Feb 01 2022 16:52:37) complex                        
  
 executed on           TETRA_NSC1 date 2022.02.23  15:32:48
 running    4 mpi-ranks, with    1 threads/rank
 distrk:  each k-point on    4 cores,    1 groups
 distr:  one band on NCORE=   1 cores,    4 groups


--------------------------------------------------------------------------------------------------------


 INCAR:
   SYSTEM = fcc Ni
   ISTART = 0
   ICHARG = 11
   ENCUT = 270
   ISMEAR = 1
   SIGMA = 0.2
   LORBIT = 11
   ISPIN = 2
   MAGMOM = 1

 POTCAR:    PAW_PBE Ni 02Aug2007                  
 POTCAR:    PAW_PBE Ni 02Aug2007                  
   VRHFIN =Ni:                                                                                      
   LEXCH  = PE                                                                                      
   EATOM  =  1077.6739 eV,   79.2068 Ry                                                             
                                                                                                    
   TITEL  = PAW_PBE Ni 02Aug2007                                                                    
   LULTRA =        F    use ultrasoft PP ?                                                          
   IUNSCR =        1    unscreen: 0-lin 1-nonlin 2-no                                               
   RPACOR =    2.000    partial core radius                                                         
   POMASS =   58.690; ZVAL   =   10.000    mass and valenz                                          
   RCORE  =    2.300    outmost cutoff radius                                                       
   RWIGS  =    2.430; RWIGS  =    1.286    wigner-seitz radius (au A)                               
   ENMAX  =  269.532; ENMIN  =  202.149 eV                                                          
   RCLOC  =    1.201    cutoff for local pot                                                        
   LCOR   =        T    correct aug charges                                                         
   LPAW   =        T    paw PP                                                                      
   EAUG   =  544.565                                                                                
   DEXC   =    0.000                                                                                
   RMAX   =    2.357    core radius for proj-oper                                                   
   RAUG   =    1.300    factor for augmentation sphere                                              
   RDEP   =    2.390    radius for radial grids                                                     
   RDEPT  =    1.838    core radius for aug-charge                                                  
                                                                                                    
   Atomic configuration                                                                             
    9 entries                                                                                       
     n  l   j            E        occ.                                                              
     1  0  0.50     -8206.4253   2.0000                                                             
     2  0  0.50      -976.1748   2.0000                                                             
     2  1  1.50      -839.0571   6.0000                                                             
     3  0  0.50      -105.9991   2.0000                                                             
     3  1  1.50       -66.4603   6.0000                                                             
     3  2  2.50        -4.6458   9.0000                                                             
     4  0  0.50        -4.4926   1.0000                                                             
     4  1  1.50        -4.0817   0.0000                                                             
     4  3  2.50        -1.3606   0.0000                                                             
   Description                                                                                      
     l       E           TYP  RCUT    TYP  RCUT                                                     
     2     -4.6457903     23  2.300                                                                 
     2     -6.0063729     23  2.300                                                                 
     0     -4.4925590     23  2.300                                                                 
     0      5.0102601     23  2.300                                                                 
     1     -2.7211652     23  2.300                                                                 
     1     16.5183231     23  2.300                                                                 
  local pseudopotential read in
  partial core-charges read in
  partial kinetic energy density read in
  atomic valenz-charges read in
  non local Contribution for L=           2  read in
    real space projection operators read in
  non local Contribution for L=           2  read in
    real space projection operators read in
  non local Contribution for L=           0  read in
    real space projection operators read in
  non local Contribution for L=           0  read in
    real space projection operators read in
  non local Contribution for L=           1  read in
    real space projection operators read in
  non local Contribution for L=           1  read in
    real space projection operators read in
    PAW grid and wavefunctions read in
 
   number of l-projection  operators is LMAX  =           6
   number of lm-projection operators is LMMAX =          18
 
  PAW_PBE Ni 02Aug2007                  :
 energy of atom  1       EATOM=-1077.6739
 kinetic energy error for atom=    0.0378 (will be added to EATOM!!)
 
 
 POSCAR: fcc Ni
  positions in cartesian coordinates
  velocities in cartesian coordinates
  No initial velocities read in
 exchange correlation table for  LEXCH =        8
   RHO(1)=    0.500       N(1)  =     2000
   RHO(2)=  100.500       N(2)  =     4000
 


--------------------------------------------------------------------------------------------------------


 ion  position               nearest neighbor table
   1  0.000  0.000  0.000-
 
  LATTYP: Found a face centered cubic cell.
 ALAT       =     3.5300000000
  
  Lattice vectors:
  
 A1 = (   1.7650000000,   1.7650000000,   0.0000000000)
 A2 = (   0.0000000000,   1.7650000000,   1.7650000000)
 A3 = (   1.7650000000,   0.0000000000,   1.7650000000)


Analysis of symmetry for initial positions (statically):
=====================================================================
 Subroutine PRICEL returns:
 Original cell was already a primitive cell.
 

 Routine SETGRP: Setting up the symmetry group for a 
 face centered cubic supercell.


 Subroutine GETGRP returns: Found 48 space group operations
 (whereof 48 operations were pure point group operations)
 out of a pool of 48 trial point group operations.


The static configuration has the point symmetry O_h .


Analysis of symmetry for dynamics (positions and initial velocities):
=====================================================================
 Subroutine PRICEL returns:
 Original cell was already a primitive cell.
 

 Routine SETGRP: Setting up the symmetry group for a 
 face centered cubic supercell.


 Subroutine GETGRP returns: Found 48 space group operations
 (whereof 48 operations were pure point group operations)
 out of a pool of 48 trial point group operations.


The dynamic configuration has the point symmetry O_h .


Analysis of structural, dynamic, and magnetic symmetry:
=====================================================================
 Subroutine PRICEL returns:
 Original cell was already a primitive cell.
 

 Routine SETGRP: Setting up the symmetry group for a 
 face centered cubic supercell.


 Subroutine GETGRP returns: Found 48 space group operations
 (whereof 48 operations were pure point group operations)
 out of a pool of 48 trial point group operations.


The overall configuration has the point symmetry O_h .


 Subroutine INISYM returns: Found 48 space group operations
 (whereof 48 operations are pure point group operations),
 and found     1 'primitive' translations


----------------------------------------------------------------------------------------

                                     Primitive cell                                     

  volume of cell :      10.9967

  direct lattice vectors                    reciprocal lattice vectors
     1.765000000  1.765000000  0.000000000     0.283286119  0.283286119 -0.283286119
     0.000000000  1.765000000  1.765000000    -0.283286119  0.283286119  0.283286119
     1.765000000  0.000000000  1.765000000     0.283286119 -0.283286119  0.283286119

  length of vectors
     2.496086938  2.496086938  2.496086938     0.490665951  0.490665951  0.490665951

  position of ions in fractional coordinates (direct lattice)
     0.000000000  0.000000000  0.000000000

  ion indices of the primitive-cell ions
   primitive index   ion index
                 1           1

----------------------------------------------------------------------------------------

 
 
 KPOINTS: kpoints for bandstructure L-G-X-U K-G   

Interpolating k-points between supplied coordinates.

 Line segments in fractional coordinates (reciprocal lattice):
    0.500000  0.500000  0.500000  ...  0.000000  0.000000  0.000000
    0.000000  0.000000  0.000000  ...  0.000000  0.500000  0.500000
    0.000000  0.500000  0.500000  ...  0.250000  0.625000  0.625000
    0.375000  0.750000  0.375000  ...  0.000000  0.000000  0.000000

 Generated    10 points on each line segment, for a total of     40 k-points:

 Following reciprocal coordinates:
            Coordinates               Weight
  0.500000  0.500000  0.500000      0.025000
  0.444444  0.444444  0.444444      0.025000
  0.388889  0.388889  0.388889      0.025000
  0.333333  0.333333  0.333333      0.025000
  0.277778  0.277778  0.277778      0.025000
  0.222222  0.222222  0.222222      0.025000
  0.166667  0.166667  0.166667      0.025000
  0.111111  0.111111  0.111111      0.025000
  0.055556  0.055556  0.055556      0.025000
  0.000000  0.000000  0.000000      0.025000
  0.000000  0.000000  0.000000      0.025000
  0.000000  0.055556  0.055556      0.025000
  0.000000  0.111111  0.111111      0.025000
  0.000000  0.166667  0.166667      0.025000
  0.000000  0.222222  0.222222      0.025000
  0.000000  0.277778  0.277778      0.025000
  0.000000  0.333333  0.333333      0.025000
  0.000000  0.388889  0.388889      0.025000
  0.000000  0.444444  0.444444      0.025000
  0.000000  0.500000  0.500000      0.025000
  0.000000  0.500000  0.500000      0.025000
  0.027778  0.513889  0.513889      0.025000
  0.055556  0.527778  0.527778      0.025000
  0.083333  0.541667  0.541667      0.025000
  0.111111  0.555556  0.555556      0.025000
  0.138889  0.569444  0.569444      0.025000
  0.166667  0.583333  0.583333      0.025000
  0.194444  0.597222  0.597222      0.025000
  0.222222  0.611111  0.611111      0.025000
  0.250000  0.625000  0.625000      0.025000
  0.375000  0.750000  0.375000      0.025000
  0.333333  0.666667  0.333333      0.025000
  0.291667  0.583333  0.291667      0.025000
  0.250000  0.500000  0.250000      0.025000
  0.208333  0.416667  0.208333      0.025000
  0.166667  0.333333  0.166667      0.025000
  0.125000  0.250000  0.125000      0.025000
  0.083333  0.166667  0.083333      0.025000
  0.041667  0.083333  0.041667      0.025000
  0.000000  0.000000  0.000000      0.025000

 Following cartesian coordinates:
            Coordinates               Weight
  0.500000  0.500000  0.500000      0.025000
  0.444444  0.444444  0.444444      0.025000
  0.388889  0.388889  0.388889      0.025000
  0.333333  0.333333  0.333333      0.025000
  0.277778  0.277778  0.277778      0.025000
  0.222222  0.222222  0.222222      0.025000
  0.166667  0.166667  0.166667      0.025000
  0.111111  0.111111  0.111111      0.025000
  0.055556  0.055556  0.055556      0.025000
  0.000000  0.000000  0.000000      0.025000
  0.000000  0.000000  0.000000      0.025000
 -0.000000  0.000000  0.111111      0.025000
 -0.000000  0.000000  0.222222      0.025000
  0.000000 -0.000000  0.333333      0.025000
 -0.000000  0.000000  0.444444      0.025000
  0.000000 -0.000000  0.555556      0.025000
  0.000000 -0.000000  0.666667      0.025000
  0.000000 -0.000000  0.777778      0.025000
 -0.000000  0.000000  0.888889      0.025000
  0.000000  0.000000  1.000000      0.025000
  0.000000  0.000000  1.000000      0.025000
  0.027778  0.027778  1.000000      0.025000
  0.055556  0.055556  1.000000      0.025000
  0.083333  0.083333  1.000000      0.025000
  0.111111  0.111111  1.000000      0.025000
  0.138889  0.138889  1.000000      0.025000
  0.166667  0.166667  1.000000      0.025000
  0.194444  0.194444  1.000000      0.025000
  0.222222  0.222222  1.000000      0.025000
  0.250000  0.250000  1.000000      0.025000
  0.000000  0.750000  0.750000      0.025000
 -0.000000  0.666667  0.666667      0.025000
  0.000000  0.583333  0.583333      0.025000
  0.000000  0.500000  0.500000      0.025000
  0.000000  0.416667  0.416667      0.025000
 -0.000000  0.333333  0.333333      0.025000
  0.000000  0.250000  0.250000      0.025000
 -0.000000  0.166667  0.166667      0.025000
  0.000000  0.083333  0.083333      0.025000
  0.000000  0.000000  0.000000      0.025000
 


--------------------------------------------------------------------------------------------------------




 Dimension of arrays:
   k-points           NKPTS =     40   k-points in BZ     NKDIM =     40   number of bands    NBANDS=     12
   number of dos      NEDOS =    301   number of ions     NIONS =      1
   non local maximal  LDIM  =      6   non local SUM 2l+1 LMDIM =     18
   total plane-waves  NPLWV =   1000
   max r-space proj   IRMAX =      1   max aug-charges    IRDMAX=   3147
   dimension x,y,z NGX =    10 NGY =   10 NGZ =   10
   dimension x,y,z NGXF=    20 NGYF=   20 NGZF=   20
   support grid    NGXF=    20 NGYF=   20 NGZF=   20
   ions per type =               1
   NGX,Y,Z   is equivalent  to a cutoff of   6.66,  6.66,  6.66 a.u.
   NGXF,Y,Z  is equivalent  to a cutoff of  13.32, 13.32, 13.32 a.u.

 SYSTEM =  fcc Ni                                  
 POSCAR =  fcc Ni                                  

 Startparameter for this run:
   NWRITE =      2    write-flag & timer
   PREC   = normal    normal or accurate (medium, high low for compatibility)
   ISTART =      0    job   : 0-new  1-cont  2-samecut
   ICHARG =     11    charge: 1-file 2-atom 10-const
   ISPIN  =      2    spin polarized calculation?
   LNONCOLLINEAR =      F non collinear calculations
   LSORBIT =      F    spin-orbit coupling
   INIWAV =      1    electr: 0-lowe 1-rand  2-diag
   LASPH  =      F    aspherical Exc in radial PAW
 Electronic Relaxation 1
   ENCUT  =  270.0 eV  19.84 Ry    4.45 a.u.   3.34  3.34  3.34*2*pi/ulx,y,z
   ENINI  =  270.0     initial cutoff
   ENAUG  =  544.6 eV  augmentation charge cutoff
   NELM   =     60;   NELMIN=  2; NELMDL= -5     # of ELM steps 
   EDIFF  = 0.1E-03   stopping-criterion for ELM
   LREAL  =      F    real-space projection
   NLSPLINE    = F    spline interpolate recip. space projectors
   LCOMPAT=      F    compatible to vasp.4.4
   GGA_COMPAT  = T    GGA compatible to vasp.4.4-vasp.4.6
   LMAXPAW     = -100 max onsite density
   LMAXMIX     =    2 max onsite mixed and CHGCAR
   VOSKOWN=      0    Vosko Wilk Nusair interpolation
   ROPT   =    0.00000
 Ionic relaxation
   EDIFFG = 0.1E-02   stopping-criterion for IOM
   NSW    =      0    number of steps for IOM
   NBLOCK =      1;   KBLOCK =      1    inner block; outer block 
   IBRION =     -1    ionic relax: 0-MD 1-quasi-New 2-CG
   NFREE  =      0    steps in history (QN), initial steepest desc. (CG)
   ISIF   =      2    stress and relaxation
   IWAVPR =     10    prediction:  0-non 1-charg 2-wave 3-comb
   ISYM   =      2    0-nonsym 1-usesym 2-fastsym
   LCORR  =      T    Harris-Foulkes like correction to forces

   POTIM  = 0.5000    time-step for ionic-motion
   TEIN   =    0.0    initial temperature
   TEBEG  =    0.0;   TEEND  =   0.0 temperature during run
   SMASS  =  -3.00    Nose mass-parameter (am)
   estimated Nose-frequenzy (Omega)   =  0.10E-29 period in steps = 0.13E+47 mass=  -0.142E-27a.u.
   SCALEE = 1.0000    scale energy and forces
   NPACO  =    256;   APACO  = 10.0  distance and # of slots for P.C.
   PSTRESS=    0.0 pullay stress

  Mass of Ions in am
   POMASS =  58.69
  Ionic Valenz
   ZVAL   =  10.00
  Atomic Wigner-Seitz radii
   RWIGS  =  -1.00
  virtual crystal weights 
   VCA    =   1.00
   NELECT =      10.0000    total number of electrons
   NUPDOWN=      -1.0000    fix difference up-down

 DOS related values:
   EMIN   =  10.00;   EMAX   =-10.00  energy-range for DOS
   EFERMI =   0.00
   ISMEAR =     1;   SIGMA  =   0.20  broadening in eV -4-tet -1-fermi 0-gaus

 Electronic relaxation 2 (details)
   IALGO  =     38    algorithm
   LDIAG  =      T    sub-space diagonalisation (order eigenvalues)
   LSUBROT=      F    optimize rotation matrix (better conditioning)
   TURBO    =      0    0=normal 1=particle mesh
   IRESTART =      0    0=no restart 2=restart with 2 vectors
   NREBOOT  =      0    no. of reboots
   NMIN     =      0    reboot dimension
   EREF     =   0.00    reference energy to select bands
   IMIX   =      4    mixing-type and parameters
     AMIX     =   0.40;   BMIX     =  1.00
     AMIX_MAG =   1.60;   BMIX_MAG =  1.00
     AMIN     =   0.10
     WC   =   100.;   INIMIX=   1;  MIXPRE=   1;  MAXMIX= -45

 Intra band minimization:
   WEIMIN = 0.0000     energy-eigenvalue tresh-hold
   EBREAK =  0.21E-05  absolut break condition
   DEPER  =   0.30     relativ break condition  

   TIME   =   0.40     timestep for ELM

  volume/ion in A,a.u.               =      11.00        74.21
  Fermi-wavevector in a.u.,A,eV,Ry     =   1.586062  2.997222 34.226710  2.515592
  Thomas-Fermi vector in A             =   2.685431
 
 Write flags
   LWAVE        =      T    write WAVECAR
   LDOWNSAMPLE  =      F    k-point downsampling of WAVECAR
   LCHARG       =      T    write CHGCAR
   LVTOT        =      F    write LOCPOT, total local potential
   LVHAR        =      F    write LOCPOT, Hartree potential only
   LELF         =      F    write electronic localiz. function (ELF)
   LORBIT       =     11    0 simple, 1 ext, 2 COOP (PROOUT), +10 PAW based schemes


 Dipole corrections
   LMONO  =      F    monopole corrections only (constant potential shift)
   LDIPOL =      F    correct potential (dipole corrections)
   IDIPOL =      0    1-x, 2-y, 3-z, 4-all directions 
   EPSILON=  1.0000000 bulk dielectric constant

 Exchange correlation treatment:
   GGA     =    --    GGA type
   LEXCH   =     8    internal setting for exchange type
   LIBXC   =     F    Libxc                    
   VOSKOWN =     0    Vosko Wilk Nusair interpolation
   LHFCALC =     F    Hartree Fock is set to
   LHFONE  =     F    Hartree Fock one center treatment
   AEXX    =    0.0000 exact exchange contribution

 Linear response parameters
   LEPSILON=     F    determine dielectric tensor
   LRPA    =     F    only Hartree local field effects (RPA)
   LNABLA  =     F    use nabla operator in PAW spheres
   LVEL    =     F    velocity operator in full k-point grid
   CSHIFT  =0.1000    complex shift for real part using Kramers Kronig
   OMEGAMAX=  -1.0    maximum frequency
   DEG_THRESHOLD= 0.2000000E-02 threshold for treating states as degnerate
   RTIME   =   -0.100 relaxation time in fs
  (WPLASMAI=    0.000 imaginary part of plasma frequency in eV, 0.658/RTIME)
   DFIELD  = 0.0000000 0.0000000 0.0000000 field for delta impulse in time
 
  Optional k-point grid parameters
   LKPOINTS_OPT  =     F    use optional k-point grid
   KPOINTS_OPT_MODE=     1    mode for optional k-point grid
 
 Orbital magnetization related:
   ORBITALMAG=     F  switch on orbital magnetization
   LCHIMAG   =     F  perturbation theory with respect to B field
   DQ        =  0.001000  dq finite difference perturbation B field
   LLRAUG    =     F  two centre corrections for induced B field



--------------------------------------------------------------------------------------------------------


 Static calculation
 charge density and potential remain constant during run
 spin polarized calculation
 Variant of blocked Davidson
 Davidson routine will perform the subspace rotation
 perform sub-space diagonalisation
    after iterative eigenvector-optimisation
 no mixing
 using additional bands            7
 reciprocal scheme for non local part
 use partial core corrections
 calculate Harris-corrections to forces 
   (improved forces if not selfconsistent)
 use gradient corrections 
 WARNING: stress and forces are not correct
  (second derivative of E(xc) not defined)
 use of overlap-Matrix (Vanderbilt PP)
 Methfessel and Paxton  Order N= 1 SIGMA  =   0.20


--------------------------------------------------------------------------------------------------------


  energy-cutoff  :      270.00
  volume of cell :       11.00
      direct lattice vectors                 reciprocal lattice vectors
     1.765000000  1.765000000  0.000000000     0.283286119  0.283286119 -0.283286119
     0.000000000  1.765000000  1.765000000    -0.283286119  0.283286119  0.283286119
     1.765000000  0.000000000  1.765000000     0.283286119 -0.283286119  0.283286119

  length of vectors
     2.496086938  2.496086938  2.496086938     0.490665951  0.490665951  0.490665951


 
 k-points in units of 2pi/SCALE and weight: kpoints for bandstructure L-G-X-U K-G   
   0.50000000  0.50000000  0.50000000       0.025
   0.44444444  0.44444444  0.44444444       0.025
   0.38888889  0.38888889  0.38888889       0.025
   0.33333333  0.33333333  0.33333333       0.025
   0.27777778  0.27777778  0.27777778       0.025
   0.22222222  0.22222222  0.22222222       0.025
   0.16666667  0.16666667  0.16666667       0.025
   0.11111111  0.11111111  0.11111111       0.025
   0.05555556  0.05555556  0.05555556       0.025
   0.00000000  0.00000000  0.00000000       0.025
   0.00000000  0.00000000  0.00000000       0.025
  -0.00000000  0.00000000  0.11111111       0.025
  -0.00000000  0.00000000  0.22222222       0.025
   0.00000000 -0.00000000  0.33333333       0.025
  -0.00000000  0.00000000  0.44444444       0.025
   0.00000000 -0.00000000  0.55555556       0.025
   0.00000000 -0.00000000  0.66666667       0.025
   0.00000000 -0.00000000  0.77777778       0.025
  -0.00000000  0.00000000  0.88888889       0.025
   0.00000000  0.00000000  1.00000000       0.025
   0.00000000  0.00000000  1.00000000       0.025
   0.02777778  0.02777778  1.00000000       0.025
   0.05555556  0.05555556  1.00000000       0.025
   0.08333333  0.08333333  1.00000000       0.025
   0.11111111  0.11111111  1.00000000       0.025
   0.13888889  0.13888889  1.00000000       0.025
   0.16666667  0.16666667  1.00000000       0.025
   0.19444444  0.19444444  1.00000000       0.025
   0.22222222  0.22222222  1.00000000       0.025
   0.25000000  0.25000000  1.00000000       0.025
   0.00000000  0.75000000  0.75000000       0.025
   0.00000000  0.66666667  0.66666667       0.025
  -0.00000000  0.58333333  0.58333333       0.025
   0.00000000  0.50000000  0.50000000       0.025
  -0.00000000  0.41666667  0.41666667       0.025
   0.00000000  0.33333333  0.33333333       0.025
   0.00000000  0.25000000  0.25000000       0.025
   0.00000000  0.16666667  0.16666667       0.025
  -0.00000000  0.08333333  0.08333333       0.025
   0.00000000  0.00000000  0.00000000       0.025
 
 k-points in reciprocal lattice and weights: kpoints for bandstructure L-G-X-U K-G   
   0.50000000  0.50000000  0.50000000       0.025
   0.44444444  0.44444444  0.44444444       0.025
   0.38888889  0.38888889  0.38888889       0.025
   0.33333333  0.33333333  0.33333333       0.025
   0.27777778  0.27777778  0.27777778       0.025
   0.22222222  0.22222222  0.22222222       0.025
   0.16666667  0.16666667  0.16666667       0.025
   0.11111111  0.11111111  0.11111111       0.025
   0.05555556  0.05555556  0.05555556       0.025
   0.00000000  0.00000000  0.00000000       0.025
   0.00000000  0.00000000  0.00000000       0.025
   0.00000000  0.05555556  0.05555556       0.025
   0.00000000  0.11111111  0.11111111       0.025
   0.00000000  0.16666667  0.16666667       0.025
   0.00000000  0.22222222  0.22222222       0.025
   0.00000000  0.27777778  0.27777778       0.025
   0.00000000  0.33333333  0.33333333       0.025
   0.00000000  0.38888889  0.38888889       0.025
   0.00000000  0.44444444  0.44444444       0.025
   0.00000000  0.50000000  0.50000000       0.025
   0.00000000  0.50000000  0.50000000       0.025
   0.02777778  0.51388889  0.51388889       0.025
   0.05555556  0.52777778  0.52777778       0.025
   0.08333333  0.54166667  0.54166667       0.025
   0.11111111  0.55555556  0.55555556       0.025
   0.13888889  0.56944444  0.56944444       0.025
   0.16666667  0.58333333  0.58333333       0.025
   0.19444444  0.59722222  0.59722222       0.025
   0.22222222  0.61111111  0.61111111       0.025
   0.25000000  0.62500000  0.62500000       0.025
   0.37500000  0.75000000  0.37500000       0.025
   0.33333333  0.66666667  0.33333333       0.025
   0.29166667  0.58333333  0.29166667       0.025
   0.25000000  0.50000000  0.25000000       0.025
   0.20833333  0.41666667  0.20833333       0.025
   0.16666667  0.33333333  0.16666667       0.025
   0.12500000  0.25000000  0.12500000       0.025
   0.08333333  0.16666667  0.08333333       0.025
   0.04166667  0.08333333  0.04166667       0.025
   0.00000000  0.00000000  0.00000000       0.025
 
 position of ions in fractional coordinates (direct lattice) 
   0.00000000  0.00000000  0.00000000
 
 position of ions in cartesian coordinates  (Angst):
   0.00000000  0.00000000  0.00000000
 


--------------------------------------------------------------------------------------------------------


 k-point   1 :   0.5000 0.5000 0.5000  plane waves:     108
 k-point   2 :   0.4444 0.4444 0.4444  plane waves:     108
 k-point   3 :   0.3889 0.3889 0.3889  plane waves:     114
 k-point   4 :   0.3333 0.3333 0.3333  plane waves:     111
 k-point   5 :   0.2778 0.2778 0.2778  plane waves:     114
 k-point   6 :   0.2222 0.2222 0.2222  plane waves:     110
 k-point   7 :   0.1667 0.1667 0.1667  plane waves:     116
 k-point   8 :   0.1111 0.1111 0.1111  plane waves:     116
 k-point   9 :   0.0556 0.0556 0.0556  plane waves:     113
 k-point  10 :   0.0000 0.0000 0.0000  plane waves:     113
 k-point  11 :   0.0000 0.0000 0.0000  plane waves:     113
 k-point  12 :   0.0000 0.0556 0.0556  plane waves:     113
 k-point  13 :   0.0000 0.1111 0.1111  plane waves:     117
 k-point  14 :   0.0000 0.1667 0.1667  plane waves:     113
 k-point  15 :   0.0000 0.2222 0.2222  plane waves:     113
 k-point  16 :   0.0000 0.2778 0.2778  plane waves:     113
 k-point  17 :   0.0000 0.3333 0.3333  plane waves:     113
 k-point  18 :   0.0000 0.3889 0.3889  plane waves:     112
 k-point  19 :   0.0000 0.4444 0.4444  plane waves:     112
 k-point  20 :   0.0000 0.5000 0.5000  plane waves:     116
 k-point  21 :   0.0000 0.5000 0.5000  plane waves:     116
 k-point  22 :   0.0278 0.5139 0.5139  plane waves:     116
 k-point  23 :   0.0556 0.5278 0.5278  plane waves:     114
 k-point  24 :   0.0833 0.5417 0.5417  plane waves:     114
 k-point  25 :   0.1111 0.5556 0.5556  plane waves:     114
 k-point  26 :   0.1389 0.5694 0.5694  plane waves:     110
 k-point  27 :   0.1667 0.5833 0.5833  plane waves:     110
 k-point  28 :   0.1944 0.5972 0.5972  plane waves:     110
 k-point  29 :   0.2222 0.6111 0.6111  plane waves:     110
 k-point  30 :   0.2500 0.6250 0.6250  plane waves:     110
 k-point  31 :   0.3750 0.7500 0.3750  plane waves:     110
 k-point  32 :   0.3333 0.6667 0.3333  plane waves:     108
 k-point  33 :   0.2917 0.5833 0.2917  plane waves:     111
 k-point  34 :   0.2500 0.5000 0.2500  plane waves:     107
 k-point  35 :   0.2083 0.4167 0.2083  plane waves:     113
 k-point  36 :   0.1667 0.3333 0.1667  plane waves:     111
 k-point  37 :   0.1250 0.2500 0.1250  plane waves:     117
 k-point  38 :   0.0833 0.1667 0.0833  plane waves:     117
 k-point  39 :   0.0417 0.0833 0.0417  plane waves:     113
 k-point  40 :   0.0000 0.0000 0.0000  plane waves:     113

 maximum and minimum number of plane-waves per node :       117      107

 maximum number of plane-waves:       117
 maximum index in each direction: 
   IXMAX=    3   IYMAX=    3   IZMAX=    3
   IXMIN=   -3   IYMIN=   -4   IZMIN=   -3


 serial   3D FFT for wavefunctions
 parallel 3D FFT for charge:
    minimum data exchange during FFTs selected (reduces bandwidth)


 total amount of memory used by VASP MPI-rank0    31570. kBytes
=======================================================================

   base      :      30000. kBytes
   nonl-proj :        693. kBytes
   fftplans  :         71. kBytes
   grid      :        238. kBytes
   one-center:         31. kBytes
   wavefun   :        537. kBytes
 
     INWAV:  cpu time      0.0000: real time      0.0000
 initial charge density was supplied:
 number of electron       9.9999909 magnetization       0.5905199
 keeping initial charge density in first step


--------------------------------------------------------------------------------------------------------


 Maximum index for augmentation-charges          733 (set IRDMAX)


--------------------------------------------------------------------------------------------------------


 First call to EWALD:  gamma=   0.797
 Maximum number of real-space cells 3x 3x 3
 Maximum number of reciprocal cells 3x 3x 3

    FEWALD:  cpu time      0.0011: real time      0.0011


--------------------------------------- Iteration      1(   1)  ---------------------------------------


    POTLOK:  cpu time      0.0022: real time      0.0024
    SETDIJ:  cpu time      0.0041: real time      0.0041
     EDDAV:  cpu time      0.1112: real time      0.1115
       DOS:  cpu time      0.0008: real time      0.0008
    --------------------------------------------
      LOOP:  cpu time      0.1183: real time      0.1189

 eigenvalue-minimisations  :  2100
 total energy-change (2. order) : 0.1746508E+02  (-0.3109970E+03)
 number of electron       9.9999909 magnetization       0.5905199
 augmentation part        9.9999909 magnetization       0.5905199

 Free energy of the ion-electron system (eV)
  ---------------------------------------------------
  alpha Z        PSCENC =        46.37681830
  Ewald energy   TEWEN  =      -935.14218197
  -Hartree energ DENC   =      -225.99030613
  -exchange      EXHF   =         0.00000000
  -V(xc)+E(xc)   XCENC  =        30.68046260
  PAW double counting   =      1133.38289479    -1201.82330303
  entropy T*S    EENTRO =         0.00071181
  eigenvalues    EBANDS =        92.34391128
  atomic energy  EATOM  =      1077.63607467
  Solvation  Ediel_sol  =         0.00000000
  ---------------------------------------------------
  free energy    TOTEN  =        17.46508232 eV

  energy without entropy =       17.46437051  energy(sigma->0) =       17.46484505


--------------------------------------------------------------------------------------------------------




--------------------------------------- Iteration      1(   2)  ---------------------------------------


     EDDAV:  cpu time      0.1055: real time      0.1058
       DOS:  cpu time      0.0009: real time      0.0009
    --------------------------------------------
      LOOP:  cpu time      0.1064: real time      0.1067

 eigenvalue-minimisations  :  2068
 total energy-change (2. order) :-0.2444108E+02  (-0.2292057E+02)
 number of electron       9.9999909 magnetization       0.5905199
 augmentation part        9.9999909 magnetization       0.5905199

 Free energy of the ion-electron system (eV)
  ---------------------------------------------------
  alpha Z        PSCENC =        46.37681830
  Ewald energy   TEWEN  =      -935.14218197
  -Hartree energ DENC   =      -225.99030613
  -exchange      EXHF   =         0.00000000
  -V(xc)+E(xc)   XCENC  =        30.68046260
  PAW double counting   =      1133.38289479    -1201.82330303
  entropy T*S    EENTRO =         0.00553632
  eigenvalues    EBANDS =        67.89801107
  atomic energy  EATOM  =      1077.63607467
  Solvation  Ediel_sol  =         0.00000000
  ---------------------------------------------------
  free energy    TOTEN  =        -6.97599338 eV

  energy without entropy =       -6.98152970  energy(sigma->0) =       -6.97783882


--------------------------------------------------------------------------------------------------------




--------------------------------------- Iteration      1(   3)  ---------------------------------------


     EDDAV:  cpu time      0.1079: real time      0.1082
       DOS:  cpu time      0.0008: real time      0.0008
    --------------------------------------------
      LOOP:  cpu time      0.1087: real time      0.1090

 eigenvalue-minimisations  :  2340
 total energy-change (2. order) :-0.5176362E+00  (-0.5144888E+00)
 number of electron       9.9999909 magnetization       0.5905199
 augmentation part        9.9999909 magnetization       0.5905199

 Free energy of the ion-electron system (eV)
  ---------------------------------------------------
  alpha Z        PSCENC =        46.37681830
  Ewald energy   TEWEN  =      -935.14218197
  -Hartree energ DENC   =      -225.99030613
  -exchange      EXHF   =         0.00000000
  -V(xc)+E(xc)   XCENC  =        30.68046260
  PAW double counting   =      1133.38289479    -1201.82330303
  entropy T*S    EENTRO =         0.00753998
  eigenvalues    EBANDS =        67.37837119
  atomic energy  EATOM  =      1077.63607467
  Solvation  Ediel_sol  =         0.00000000
  ---------------------------------------------------
  free energy    TOTEN  =        -7.49362960 eV

  energy without entropy =       -7.50116958  energy(sigma->0) =       -7.49614293


--------------------------------------------------------------------------------------------------------




--------------------------------------- Iteration      1(   4)  ---------------------------------------


     EDDAV:  cpu time      0.1062: real time      0.1065
       DOS:  cpu time      0.0008: real time      0.0008
    --------------------------------------------
      LOOP:  cpu time      0.1070: real time      0.1073

 eigenvalue-minimisations  :  2268
 total energy-change (2. order) :-0.2487256E-02  (-0.2487054E-02)
 number of electron       9.9999909 magnetization       0.5905199
 augmentation part        9.9999909 magnetization       0.5905199

 Free energy of the ion-electron system (eV)
  ---------------------------------------------------
  alpha Z        PSCENC =        46.37681830
  Ewald energy   TEWEN  =      -935.14218197
  -Hartree energ DENC   =      -225.99030613
  -exchange      EXHF   =         0.00000000
  -V(xc)+E(xc)   XCENC  =        30.68046260
  PAW double counting   =      1133.38289479    -1201.82330303
  entropy T*S    EENTRO =         0.00754926
  eigenvalues    EBANDS =        67.37587466
  atomic energy  EATOM  =      1077.63607467
  Solvation  Ediel_sol  =         0.00000000
  ---------------------------------------------------
  free energy    TOTEN  =        -7.49611686 eV

  energy without entropy =       -7.50366611  energy(sigma->0) =       -7.49863328


--------------------------------------------------------------------------------------------------------




--------------------------------------- Iteration      1(   5)  ---------------------------------------


     EDDAV:  cpu time      0.1068: real time      0.1071
       DOS:  cpu time      0.0008: real time      0.0008
    --------------------------------------------
      LOOP:  cpu time      0.1076: real time      0.1079

 eigenvalue-minimisations  :  2336
 total energy-change (2. order) :-0.3486147E-04  (-0.3486212E-04)
 number of electron       9.9999909 magnetization       0.5905199
 augmentation part        9.9999909 magnetization       0.5905199

 Free energy of the ion-electron system (eV)
  ---------------------------------------------------
  alpha Z        PSCENC =        46.37681830
  Ewald energy   TEWEN  =      -935.14218197
  -Hartree energ DENC   =      -225.99030613
  -exchange      EXHF   =         0.00000000
  -V(xc)+E(xc)   XCENC  =        30.68046260
  PAW double counting   =      1133.38289479    -1201.82330303
  entropy T*S    EENTRO =         0.00754939
  eigenvalues    EBANDS =        67.37583966
  atomic energy  EATOM  =      1077.63607467
  Solvation  Ediel_sol  =         0.00000000
  ---------------------------------------------------
  free energy    TOTEN  =        -7.49615172 eV

  energy without entropy =       -7.50370111  energy(sigma->0) =       -7.49866818


--------------------------------------------------------------------------------------------------------




--------------------------------------- Iteration      1(   6)  ---------------------------------------


     EDDAV:  cpu time      0.0853: real time      0.0856
       DOS:  cpu time      0.0008: real time      0.0008
    --------------------------------------------
      LOOP:  cpu time      0.0861: real time      0.0864

 eigenvalue-minimisations  :  1716
 total energy-change (2. order) :-0.5701146E-06  (-0.5698393E-06)
 number of electron       9.9999909 magnetization       0.5905199
 augmentation part        9.9999909 magnetization       0.5905199

 Free energy of the ion-electron system (eV)
  ---------------------------------------------------
  alpha Z        PSCENC =        46.37681830
  Ewald energy   TEWEN  =      -935.14218197
  -Hartree energ DENC   =      -225.99030613
  -exchange      EXHF   =         0.00000000
  -V(xc)+E(xc)   XCENC  =        30.68046260
  PAW double counting   =      1133.38289479    -1201.82330303
  entropy T*S    EENTRO =         0.00754940
  eigenvalues    EBANDS =        67.37583909
  atomic energy  EATOM  =      1077.63607467
  Solvation  Ediel_sol  =         0.00000000
  ---------------------------------------------------
  free energy    TOTEN  =        -7.49615229 eV

  energy without entropy =       -7.50370169  energy(sigma->0) =       -7.49866875


--------------------------------------------------------------------------------------------------------




 average (electrostatic) potential at core
  the test charge radii are     0.9791
  (the norm of the test charge is              1.0000)
       1 -82.1426
 
 
 
 E-fermi :   8.9513     XC(G=0): -13.1915     alpha+bet :-16.2879

 Fermi energy:         8.9513333529

 spin component 1

 k-point     1 :       0.5000    0.5000    0.5000
  band No.  band energies     occupation 
      1       4.4840      1.00000
      2       6.8417      1.00000
      3       6.8417      1.00000
      4       8.6379      1.02458
      5       8.6379      1.02458
      6       8.9600      0.46317
      7      14.8503      0.00000
      8      31.3875      0.00000
      9      33.7291      0.00000
     10      33.7291      0.00000
     11      36.7598      0.00000
     12      36.7598      0.00000

 k-point     2 :       0.4444    0.4444    0.4444
  band No.  band energies     occupation 
      1       4.4311      1.00000
      2       6.8602      1.00000
      3       6.8602      1.00000
      4       8.4765      1.00200
      5       8.5944      1.01503
      6       8.5944      1.01503
      7      15.6079      0.00000
      8      31.4858      0.00000
      9      33.7623      0.00000
     10      33.7623      0.00000
     11      36.9538      0.00000
     12      36.9538      0.00000

 k-point     3 :       0.3889    0.3889    0.3889
  band No.  band energies     occupation 
      1       4.2173      1.00000
      2       6.9080      1.00000
      3       6.9080      1.00000
      4       7.5642      1.00000
      5       8.4705      1.00176
      6       8.4705      1.00176
      7      17.3912      0.00000
      8      31.7672      0.00000
      9      33.8649      0.00000
     10      33.8649      0.00000
     11      37.4507      0.00000
     12      37.4507      0.00000

 k-point     4 :       0.3333    0.3333    0.3333
  band No.  band energies     occupation 
      1       3.7167      1.00000
      2       6.8743      1.00000
      3       6.9803      1.00000
      4       6.9803      1.00000
      5       8.2981      1.00002
      6       8.2981      1.00002
      7      19.6718      0.00000
      8      32.2015      0.00000
      9      34.0522      0.00000
     10      34.0522      0.00000
     11      38.3570      0.00000
     12      38.3570      0.00000

 k-point     5 :       0.2778    0.2778    0.2778
  band No.  band energies     occupation 
      1       2.9403      1.00000
      2       6.5892      1.00000
      3       7.0493      1.00000
      4       7.0493      1.00000
      5       8.1083      1.00000
      6       8.1083      1.00000
      7      22.2327      0.00000
      8      32.7191      0.00000
      9      34.3332      0.00000
     10      34.3332      0.00000
     11      39.5113      0.00000
     12      39.5113      0.00000

 k-point     6 :       0.2222    0.2222    0.2222
  band No.  band energies     occupation 
      1       2.0928      1.00000
      2       6.5666      1.00000
      3       7.0840      1.00000
      4       7.0840      1.00000
      5       7.9631      1.00000
      6       7.9631      1.00000
      7      24.9710      0.00000
      8      33.2213      0.00000
      9      34.7363      0.00000
     10      34.7363      0.00000
     11      40.7811      0.00000
     12      40.7842      0.00000

 k-point     7 :       0.1667    0.1667    0.1667
  band No.  band energies     occupation 
      1       1.3418      1.00000
      2       6.6506      1.00000
      3       7.0493      1.00000
      4       7.0494      1.00000
      5       7.8930      1.00000
      6       7.8930      1.00000
      7      27.8181      0.00000
      8      33.6207      0.00000
      9      35.2215      0.00000
     10      35.2215      0.00000
     11      40.7482      0.00000
     12      41.5436      0.00000

 k-point     8 :       0.1111    0.1111    0.1111
  band No.  band energies     occupation 
      1       0.7697      1.00000
      2       6.7592      1.00000
      3       6.9713      1.00000
      4       6.9713      1.00000
      5       7.8950      1.00000
      6       7.8950      1.00000
      7      30.6122      0.00000
      8      34.0025      0.00000
      9      35.7978      0.00000
     10      35.7978      0.00000
     11      40.8090      0.00000
     12      41.0516      0.00000

 k-point     9 :       0.0556    0.0556    0.0556
  band No.  band energies     occupation 
      1       0.4149      1.00000
      2       6.8445      1.00000
      3       6.9016      1.00000
      4       6.9016      1.00000
      5       7.9186      1.00000
      6       7.9186      1.00000
      7      32.5130      0.00000
      8      35.1222      0.00000
      9      36.3721      0.00000
     10      36.3721      0.00000
     11      40.1609      0.00000
     12      40.1630      0.00000

 k-point    10 :       0.0000    0.0000    0.0000
  band No.  band energies     occupation 
      1       0.2950      1.00000
      2       6.8747      1.00000
      3       6.8747      1.00000
      4       6.8747      1.00000
      5       7.9296      1.00000
      6       7.9296      1.00000
      7      32.8973      0.00000
      8      36.6576      0.00000
      9      36.6578      0.00000
     10      36.6578      0.00000
     11      39.7354      0.00000
     12      39.7355      0.00000

 k-point    11 :       0.0000    0.0000    0.0000
  band No.  band energies     occupation 
      1       0.2950      1.00000
      2       6.8747      1.00000
      3       6.8747      1.00000
      4       6.8747      1.00000
      5       7.9296      1.00000
      6       7.9296      1.00000
      7      32.8973      0.00000
      8      36.6576      0.00000
      9      36.6578      0.00000
     10      36.6578      0.00000
     11      39.7354      0.00000
     12      39.7355      0.00000

 k-point    12 :       0.0000    0.0556    0.0556
  band No.  band energies     occupation 
      1       0.4548      1.00000
      2       6.8182      1.00000
      3       6.9195      1.00000
      4       6.9195      1.00000
      5       7.8783      1.00000
      6       7.9500      1.00000
      7      32.5547      0.00000
      8      35.3985      0.00000
      9      35.3986      0.00000
     10      35.9073      0.00000
     11      40.4277      0.00000
     12      40.9752      0.00000

 k-point    13 :       0.0000    0.1111    0.1111
  band No.  band energies     occupation 
      1       0.9262      1.00000
      2       6.6564      1.00000
      3       7.0497      1.00000
      4       7.0497      1.00000
      5       7.7341      1.00000
      6       8.0090      1.00000
      7      31.8099      0.00000
      8      33.3222      0.00000
      9      33.3223      0.00000
     10      34.3926      0.00000
     11      41.5009      0.00000
     12      42.1943      0.00000

 k-point    14 :       0.0000    0.1667    0.1667
  band No.  band energies     occupation 
      1       1.6801      1.00000
      2       6.4137      1.00000
      3       7.2630      1.00000
      4       7.2630      1.00000
      5       7.5408      1.00000
      6       8.1002      1.00000
      7      31.0228      0.00000
      8      31.2399      0.00000
      9      31.2400      0.00000
     10      32.6890      0.00000
     11      38.1285      0.00000
     12      44.6953      0.00000

 k-point    15 :       0.0000    0.2222    0.2222
  band No.  band energies     occupation 
      1       2.6461      1.00000
      2       6.1234      1.00000
      3       7.3770      1.00000
      4       7.5434      1.00000
      5       7.5434      1.00000
      6       8.2130      1.00000
      7      29.2805      0.00000
      8      29.2806      0.00000
      9      30.3434      0.00000
     10      30.5685      0.00000
     11      35.4118      0.00000
     12      47.1423      0.00000

 k-point    16 :       0.0000    0.2778    0.2778
  band No.  band energies     occupation 
      1       3.6503      1.00000
      2       5.8185      1.00000
      3       7.4283      1.00000
      4       7.8745      1.00000
      5       7.8745      1.00000
      6       8.3345      1.00006
      7      27.5363      0.00000
      8      27.5364      0.00000
      9      27.8017      0.00000
     10      29.7844      0.00000
     11      33.7915      0.00000
     12      49.3833      0.00000

 k-point    17 :       0.0000    0.3333    0.3333
  band No.  band energies     occupation 
      1       4.3558      1.00000
      2       5.5428      1.00000
      3       8.0475      1.00000
      4       8.2121      1.00000
      5       8.2121      1.00000
      6       8.4471      1.00105
      7      24.7582      0.00000
      8      26.0561      0.00000
      9      26.0561      0.00000
     10      29.3796      0.00000
     11      32.9584      0.00000
     12      51.8293      0.00000

 k-point    18 :       0.0000    0.3889    0.3889
  band No.  band energies     occupation 
      1       4.6032      1.00000
      2       5.3234      1.00000
      3       8.5166      1.00438
      4       8.5166      1.00438
      5       8.5400      1.00663
      6       9.3440     -0.00898
      7      21.8478      0.00000
      8      24.9229      0.00000
      9      24.9230      0.00000
     10      29.1072      0.00000
     11      32.5433      0.00000
     12      53.2445      0.00000

 k-point    19 :       0.0000    0.4444    0.4444
  band No.  band energies     occupation 
      1       4.6257      1.00000
      2       5.1829      1.00000
      3       8.6012      1.01639
      4       8.7323      1.03239
      5       8.7323      1.03239
      6      10.8689     -0.00000
      7      19.4309      0.00000
      8      24.2055      0.00000
      9      24.2056      0.00000
     10      28.9543      0.00000
     11      32.3473      0.00000
     12      53.4845      0.00000

 k-point    20 :       0.0000    0.5000    0.5000
  band No.  band energies     occupation 
      1       4.6153      1.00000
      2       5.1328      1.00000
      3       8.6225      1.02105
      4       8.8083      0.96501
      5       8.8083      0.96499
      6      11.6738     -0.00000
      7      18.3392      0.00000
      8      23.9588      0.00000
      9      23.9589      0.00000
     10      28.8701      0.00000
     11      32.2908      0.00000
     12      53.5767      0.00000

 k-point    21 :       0.0000    0.5000    0.5000
  band No.  band energies     occupation 
      1       4.6153      1.00000
      2       5.1328      1.00000
      3       8.6225      1.02105
      4       8.8083      0.96501
      5       8.8083      0.96499
      6      11.6738     -0.00000
      7      18.3392      0.00000
      8      23.9588      0.00000
      9      23.9589      0.00000
     10      28.8701      0.00000
     11      32.2908      0.00000
     12      53.5768      0.00000

 k-point    22 :       0.0278    0.5139    0.5139
  band No.  band energies     occupation 
      1       4.6257      1.00000
      2       5.1394      1.00000
      3       8.6141      1.01914
      4       8.7630      1.01800
      5       8.8052      0.97015
      6      11.7392     -0.00000
      7      18.3443      0.00000
      8      23.7258      0.00000
      9      23.9894      0.00000
     10      29.0164      0.00000
     11      32.4148      0.00000
     12      53.4128      0.00000

 k-point    23 :       0.0556    0.5278    0.5278
  band No.  band energies     occupation 
      1       4.6565      1.00000
      2       5.1599      1.00000
      3       8.5890      1.01399
      4       8.6396      1.02497
      5       8.7958      0.98413
      6      11.9247     -0.00000
      7      18.3602      0.00000
      8      23.1245      0.00000
      9      24.0804      0.00000
     10      29.3581      0.00000
     11      32.8024      0.00000
     12      52.9701      0.00000

 k-point    24 :       0.0833    0.5417    0.5417
  band No.  band energies     occupation 
      1       4.7068      1.00000
      2       5.1924      1.00000
      3       8.4597      1.00139
      4       8.5484      1.00762
      5       8.7802      1.00297
      6      12.2048     -0.00000
      7      18.3849      0.00000
      8      22.3126      0.00000
      9      24.2310      0.00000
     10      29.6897      0.00000
     11      33.4696      0.00000
     12      52.3474      0.00000

 k-point    25 :       0.1111    0.5556    0.5556
  band No.  band energies     occupation 
      1       4.7749      1.00000
      2       5.2370      1.00000
      3       8.2495      1.00000
      4       8.4937      1.00283
      5       8.7584      1.02107
      6      12.5554     -0.00000
      7      18.4167      0.00000
      8      21.4053      0.00000
      9      24.4395      0.00000
     10      29.9478      0.00000
     11      34.3869      0.00000
     12      51.6291      0.00000

 k-point    26 :       0.1389    0.5694    0.5694
  band No.  band energies     occupation 
      1       4.8592      1.00000
      2       5.2940      1.00000
      3       8.0273      1.00000
      4       8.4285      1.00069
      5       8.7306      1.03281
      6      12.9594     -0.00000
      7      18.4514      0.00000
      8      20.4784      0.00000
      9      24.7056      0.00000
     10      30.1473      0.00000
     11      35.4960      0.00000
     12      50.8721      0.00000

 k-point    27 :       0.1667    0.5833    0.5833
  band No.  band energies     occupation 
      1       4.9565      1.00000
      2       5.3591      1.00000
      3       7.8034      1.00000
      4       8.3519      1.00009
      5       8.6967      1.03512
      6      13.4042     -0.00000
      7      18.4357      0.00000
      8      19.5948      0.00000
      9      25.0236      0.00000
     10      30.2919      0.00000
     11      36.7327      0.00000
     12      50.1000      0.00000

 k-point    28 :       0.1944    0.5972    0.5972
  band No.  band energies     occupation 
      1       5.0643      1.00000
      2       5.4320      1.00000
      3       7.5857      1.00000
      4       8.2682      1.00001
      5       8.6569      1.02888
      6      13.8829     -0.00000
      7      18.1214      0.00000
      8      19.0357      0.00000
      9      25.3922      0.00000
     10      30.4170      0.00000
     11      38.0625      0.00000
     12      49.3364      0.00000

 k-point    29 :       0.2222    0.6111    0.6111
  band No.  band energies     occupation 
      1       5.1796      1.00000
      2       5.5097      1.00000
      3       7.3790      1.00000
      4       8.1802      1.00000
      5       8.6115      1.01859
      6      14.3910     -0.00000
      7      17.3474      0.00000
      8      18.9763      0.00000
      9      25.8088      0.00000
     10      30.5372      0.00000
     11      39.4621      0.00000
     12      48.5912      0.00000

 k-point    30 :       0.2500    0.6250    0.6250
  band No.  band energies     occupation 
      1       5.2991      1.00000
      2       5.5889      1.00000
      3       7.1863      1.00000
      4       8.0903      1.00000
      5       8.5606      1.00926
      6      14.9252      0.00000
      7      16.4661      0.00000
      8      19.0752      0.00000
      9      26.2707      0.00000
     10      30.6621      0.00000
     11      40.9164      0.00000
     12      47.8716      0.00000

 k-point    31 :       0.3750    0.7500    0.3750
  band No.  band energies     occupation 
      1       5.2991      1.00000
      2       5.5889      1.00000
      3       7.1863      1.00000
      4       8.0903      1.00000
      5       8.5606      1.00926
      6      14.9252      0.00000
      7      16.4661      0.00000
      8      19.0752      0.00000
      9      26.2707      0.00000
     10      30.6621      0.00000
     11      40.9164      0.00000
     12      47.8716      0.00000

 k-point    32 :       0.3333    0.6667    0.3333
  band No.  band energies     occupation 
      1       5.6232      1.00000
      2       5.8180      1.00000
      3       6.7086      1.00000
      4       7.8331      1.00000
      5       8.3785      1.00020
      6      13.9208     -0.00000
      7      16.6674      0.00000
      8      19.6743      0.00000
      9      27.8972      0.00000
     10      31.1302      0.00000
     11      45.5065      0.00000
     12      45.9173      0.00000

 k-point    33 :       0.2917    0.5833    0.2917
  band No.  band energies     occupation 
      1       5.5944      1.00000
      2       6.1430      1.00000
      3       6.3939      1.00000
      4       7.6274      1.00000
      5       8.1524      1.00000
      6      11.7741     -0.00000
      7      18.5935      0.00000
      8      20.6516      0.00000
      9      29.8398      0.00000
     10      31.8122      0.00000
     11      43.6183      0.00000
     12      44.2459      0.00000

 k-point    34 :       0.2500    0.5000    0.2500
  band No.  band energies     occupation 
      1       5.0614      1.00000
      2       6.2436      1.00000
      3       6.4980      1.00000
      4       7.5113      1.00000
      5       7.9084      1.00000
      6      10.1843     -0.00000
      7      20.6996      0.00000
      8      22.0613      0.00000
      9      32.0545      0.00000
     10      32.8020      0.00000
     11      41.3335      0.00000
     12      42.9367      0.00000

 k-point    35 :       0.2083    0.4167    0.2083
  band No.  band energies     occupation 
      1       4.0798      1.00000
      2       6.2364      1.00000
      3       6.7987      1.00000
      4       7.4882      1.00000
      5       7.6507      1.00000
      6       9.1576     -0.02809
      7      22.9616      0.00000
      8      23.8884      0.00000
      9      34.1143      0.00000
     10      34.4799      0.00000
     11      39.3306      0.00000
     12      41.8544      0.00000

 k-point    36 :       0.1667    0.3333    0.1667
  band No.  band energies     occupation 
      1       2.9187      1.00000
      2       6.3405      1.00000
      3       7.0117      1.00000
      4       7.4045      1.00000
      5       7.5524      1.00000
      6       8.5224      1.00487
      7      25.3674      0.00000
      8      26.1282      0.00000
      9      35.7661      0.00000
     10      37.0706      0.00000
     11      37.6509      0.00000
     12      41.0480      0.00000

 k-point    37 :       0.1250    0.2500    0.1250
  band No.  band energies     occupation 
      1       1.8426      1.00000
      2       6.5081      1.00000
      3       7.0924      1.00000
      4       7.1872      1.00000
      5       7.6642      1.00000
      6       8.1396      1.00000
      7      27.8848      0.00000
      8      28.7208      0.00000
      9      36.3411      0.00000
     10      37.6054      0.00000
     11      38.5717      0.00000
     12      40.4381      0.00000

 k-point    38 :       0.0833    0.1667    0.0833
  band No.  band energies     occupation 
      1       1.0026      1.00000
      2       6.6886      1.00000
      3       7.0186      1.00000
      4       7.0302      1.00000
      5       7.7919      1.00000
      6       7.9738      1.00000
      7      30.4088      0.00000
      8      31.5990      0.00000
      9      35.5255      0.00000
     10      37.6617      0.00000
     11      39.3016      0.00000
     12      40.0325      0.00000

 k-point    39 :       0.0417    0.0833    0.0417
  band No.  band energies     occupation 
      1       0.4746      1.00000
      2       6.8251      1.00000
      3       6.9115      1.00000
      4       6.9226      1.00000
      5       7.8925      1.00000
      6       7.9342      1.00000
      7      32.3547      0.00000
      8      34.6166      0.00000
      9      35.6718      0.00000
     10      36.9179      0.00000
     11      39.8117      0.00000
     12      40.2585      0.00000

 k-point    40 :       0.0000    0.0000    0.0000
  band No.  band energies     occupation 
      1       0.2950      1.00000
      2       6.8747      1.00000
      3       6.8747      1.00000
      4       6.8747      1.00000
      5       7.9296      1.00000
      6       7.9296      1.00000
      7      32.8973      0.00000
      8      36.6576      0.00000
      9      36.6578      0.00000
     10      36.6578      0.00000
     11      39.7354      0.00000
     12      39.7355      0.00000
 Fermi energy:         8.9513333529

 spin component 2

 k-point     1 :       0.5000    0.5000    0.5000
  band No.  band energies     occupation 
      1       4.8637      1.00000
      2       7.4476      1.00000
      3       7.4476      1.00000
      4       8.8854      0.76279
      5       9.3573     -0.00725
      6       9.3573     -0.00725
      7      15.2147      0.00000
      8      31.2297      0.00000
      9      33.8011      0.00000
     10      33.8011      0.00000
     11      36.7901      0.00000
     12      36.7901      0.00000

 k-point     2 :       0.4444    0.4444    0.4444
  band No.  band energies     occupation 
      1       4.7766      1.00000
      2       7.4680      1.00000
      3       7.4680      1.00000
      4       8.4909      1.00268
      5       9.3106     -0.01457
      6       9.3106     -0.01457
      7      15.9171      0.00000
      8      31.3291      0.00000
      9      33.8355      0.00000
     10      33.8355      0.00000
     11      36.9829      0.00000
     12      36.9829      0.00000

 k-point     3 :       0.3889    0.3889    0.3889
  band No.  band energies     occupation 
      1       4.4538      1.00000
      2       7.5221      1.00000
      3       7.5221      1.00000
      4       7.7673      1.00000
      5       9.1776     -0.03394
      6       9.1776     -0.03394
      7      17.6192      0.00000
      8      31.6142      0.00000
      9      33.9395      0.00000
     10      33.9395      0.00000
     11      37.4805      0.00000
     12      37.4806      0.00000

 k-point     4 :       0.3333    0.3333    0.3333
  band No.  band energies     occupation 
      1       3.8083      1.00000
      2       7.2794      1.00000
      3       7.6041      1.00000
      4       7.6041      1.00000
      5       8.9902      0.33877
      6       8.9902      0.33877
      7      19.8393      0.00000
      8      32.0535      0.00000
      9      34.1255      0.00000
     10      34.1255      0.00000
     11      38.3828      0.00000
     12      38.3828      0.00000

 k-point     5 :       0.2778    0.2778    0.2778
  band No.  band energies     occupation 
      1       2.9418      1.00000
      2       7.1244      1.00000
      3       7.6875      1.00000
      4       7.6875      1.00000
      5       8.7815      1.00153
      6       8.7815      1.00153
      7      22.3548      0.00000
      8      32.5764      0.00000
      9      34.4007      0.00000
     10      34.4007      0.00000
     11      39.5301      0.00000
     12      39.5301      0.00000

 k-point     6 :       0.2222    0.2222    0.2222
  band No.  band energies     occupation 
      1       2.0604      1.00000
      2       7.1658      1.00000
      3       7.7393      1.00000
      4       7.7393      1.00000
      5       8.6151      1.01938
      6       8.6151      1.01938
      7      25.0543      0.00000
      8      33.0829      0.00000
      9      34.7912      0.00000
     10      34.7912      0.00000
     11      40.7798      0.00000
     12      40.7854      0.00000

 k-point     7 :       0.1667    0.1667    0.1667
  band No.  band energies     occupation 
      1       1.2986      1.00000
      2       7.2838      1.00000
      3       7.7175      1.00000
      4       7.7175      1.00000
      5       8.5303      1.00560
      6       8.5303      1.00560
      7      27.8622      0.00000
      8      33.4868      0.00000
      9      35.2594      0.00000
     10      35.2594      0.00000
     11      40.6774      0.00000
     12      41.5076      0.00000

 k-point     8 :       0.1111    0.1111    0.1111
  band No.  band energies     occupation 
      1       0.7234      1.00000
      2       7.4126      1.00000
      3       7.6423      1.00000
      4       7.6423      1.00000
      5       8.5283      1.00541
      6       8.5283      1.00541
      7      30.5965      0.00000
      8      33.8908      0.00000
      9      35.8128      0.00000
     10      35.8128      0.00000
     11      40.7444      0.00000
     12      41.0376      0.00000

 k-point     9 :       0.0556    0.0556    0.0556
  band No.  band energies     occupation 
      1       0.3680      1.00000
      2       7.5089      1.00000
      3       7.5708      1.00000
      4       7.5708      1.00000
      5       8.5531      1.00822
      6       8.5531      1.00822
      7      32.3779      0.00000
      8      35.0912      0.00000
      9      36.3591      0.00000
     10      36.3591      0.00000
     11      40.1865      0.00000
     12      40.1916      0.00000

 k-point    10 :       0.0000    0.0000    0.0000
  band No.  band energies     occupation 
      1       0.2479      1.00000
      2       7.5429      1.00000
      3       7.5429      1.00000
      4       7.5429      1.00000
      5       8.5650      1.00991
      6       8.5650      1.00991
      7      32.7255      0.00000
      8      36.6264      0.00000
      9      36.6267      0.00000
     10      36.6267      0.00000
     11      39.7825      0.00000
     12      39.7825      0.00000

 k-point    11 :       0.0000    0.0000    0.0000
  band No.  band energies     occupation 
      1       0.2479      1.00000
      2       7.5429      1.00000
      3       7.5429      1.00000
      4       7.5429      1.00000
      5       8.5650      1.00991
      6       8.5650      1.00991
      7      32.7255      0.00000
      8      36.6264      0.00000
      9      36.6267      0.00000
     10      36.6267      0.00000
     11      39.7824      0.00000
     12      39.7825      0.00000

 k-point    12 :       0.0000    0.0556    0.0556
  band No.  band energies     occupation 
      1       0.4079      1.00000
      2       7.4819      1.00000
      3       7.5889      1.00000
      4       7.5889      1.00000
      5       8.5101      1.00388
      6       8.5863      1.01348
      7      32.4112      0.00000
      8      35.4085      0.00000
      9      35.4087      0.00000
     10      35.8564      0.00000
     11      40.4510      0.00000
     12      40.9710      0.00000

 k-point    13 :       0.0000    0.1111    0.1111
  band No.  band energies     occupation 
      1       0.8801      1.00000
      2       7.3075      1.00000
      3       7.7234      1.00000
      4       7.7234      1.00000
      5       8.3547      1.00010
      6       8.6477      1.02684
      7      31.7194      0.00000
      8      33.3627      0.00000
      9      33.3628      0.00000
     10      34.3208      0.00000
     11      41.6724      0.00000
     12      42.1798      0.00000

 k-point    14 :       0.0000    0.1667    0.1667
  band No.  band energies     occupation 
      1       1.6378      1.00000
      2       7.0464      1.00000
      3       7.9438      1.00000
      4       7.9438      1.00000
      5       8.1400      1.00000
      6       8.7427      1.02904
      7      30.9831      0.00000
      8      31.2925      0.00000
      9      31.2926      0.00000
     10      32.6125      0.00000
     11      38.3248      0.00000
     12      44.6477      0.00000

 k-point    15 :       0.0000    0.2222    0.2222
  band No.  band energies     occupation 
      1       2.6188      1.00000
      2       6.7350      1.00000
      3       7.9378      1.00000
      4       8.2351      1.00000
      5       8.2351      1.00000
      6       8.8602      0.84477
      7      29.3338      0.00000
      8      29.3339      0.00000
      9      30.3473      0.00000
     10      30.5278      0.00000
     11      35.5961      0.00000
     12      47.0452      0.00000

 k-point    16 :       0.0000    0.2778    0.2778
  band No.  band energies     occupation 
      1       3.6777      1.00000
      2       6.4095      1.00000
      3       7.9064      1.00000
      4       8.5804      1.01242
      5       8.5804      1.01242
      6       8.9871      0.35148
      7      27.5813      0.00000
      8      27.5815      0.00000
      9      27.8331      0.00000
     10      29.8263      0.00000
     11      33.9381      0.00000
     12      49.2896      0.00000

 k-point    17 :       0.0000    0.3333    0.3333
  band No.  band energies     occupation 
      1       4.5158      1.00000
      2       6.1155      1.00000
      3       8.3581      1.00011
      4       8.9360      0.56484
      5       8.9360      0.56480
      6       9.1047      0.01890
      7      24.8513      0.00000
      8      26.0873      0.00000
      9      26.0874      0.00000
     10      29.4498      0.00000
     11      33.0845      0.00000
     12      51.7508      0.00000

 k-point    18 :       0.0000    0.3889    0.3889
  band No.  band energies     occupation 
      1       4.8945      1.00000
      2       5.8821      1.00000
      3       9.2019     -0.03534
      4       9.2591     -0.02590
      5       9.2591     -0.02590
      6       9.4780     -0.00062
      7      21.9955      0.00000
      8      24.9376      0.00000
      9      24.9377      0.00000
     10      29.1977      0.00000
     11      32.6659      0.00000
     12      53.2338      0.00000

 k-point    19 :       0.0000    0.4444    0.4444
  band No.  band energies     occupation 
      1       4.9776      1.00000
      2       5.7328      1.00000
      3       9.2659     -0.02433
      4       9.4896     -0.00047
      5       9.4896     -0.00047
      6      10.8798     -0.00000
      7      19.6437      0.00000
      8      24.2063      0.00000
      9      24.2065      0.00000
     10      29.0568      0.00000
     11      32.4725      0.00000
     12      53.4587      0.00000

 k-point    20 :       0.0000    0.5000    0.5000
  band No.  band energies     occupation 
      1       4.9828      1.00000
      2       5.6799      1.00000
      3       9.2882     -0.01923
      4       9.5716     -0.00005
      5       9.5716     -0.00005
      6      11.6209     -0.00000
      7      18.6010      0.00000
      8      23.9542      0.00000
      9      23.9543      0.00000
     10      28.9786      0.00000
     11      32.4176      0.00000
     12      53.5500      0.00000

 k-point    21 :       0.0000    0.5000    0.5000
  band No.  band energies     occupation 
      1       4.9828      1.00000
      2       5.6799      1.00000
      3       9.2882     -0.01923
      4       9.5716     -0.00005
      5       9.5716     -0.00005
      6      11.6209     -0.00000
      7      18.6010      0.00000
      8      23.9542      0.00000
      9      23.9543      0.00000
     10      28.9786      0.00000
     11      32.4176      0.00000
     12      53.5460      0.00000

 k-point    22 :       0.0278    0.5139    0.5139
  band No.  band energies     occupation 
      1       4.9937      1.00000
      2       5.6864      1.00000
      3       9.2791     -0.02129
      4       9.5079     -0.00030
      5       9.5683     -0.00006
      6      11.7046     -0.00000
      7      18.6054      0.00000
      8      23.7289      0.00000
      9      23.9855      0.00000
     10      29.1192      0.00000
     11      32.5398      0.00000
     12      53.3801      0.00000

 k-point    23 :       0.0556    0.5278    0.5278
  band No.  band energies     occupation 
      1       5.0261      1.00000
      2       5.7063      1.00000
      3       9.2521     -0.02749
      4       9.3432     -0.00909
      5       9.5584     -0.00008
      6      11.9312     -0.00000
      7      18.6190      0.00000
      8      23.1441      0.00000
      9      24.0786      0.00000
     10      29.4496      0.00000
     11      32.9216      0.00000
     12      52.9332      0.00000

 k-point    24 :       0.0833    0.5417    0.5417
  band No.  band energies     occupation 
      1       5.0790      1.00000
      2       5.7378      1.00000
      3       9.1202     -0.00058
      4       9.2083     -0.03494
      5       9.5421     -0.00012
      6      12.2542     -0.00000
      7      18.6401      0.00000
      8      22.3503      0.00000
      9      24.2325      0.00000
     10      29.7740      0.00000
     11      33.5790      0.00000
     12      52.3063      0.00000

 k-point    25 :       0.1111    0.5556    0.5556
  band No.  band energies     occupation 
      1       5.1512      1.00000
      2       5.7805      1.00000
      3       8.8744      0.80044
      4       9.1495     -0.02417
      5       9.5192     -0.00022
      6      12.6404     -0.00000
      7      18.6666      0.00000
      8      21.4608      0.00000
      9      24.4455      0.00000
     10      30.0280      0.00000
     11      34.4848      0.00000
     12      51.5850      0.00000

 k-point    26 :       0.1389    0.5694    0.5694
  band No.  band energies     occupation 
      1       5.2411      1.00000
      2       5.8338      1.00000
      3       8.6249      1.02159
      4       9.0792      0.06311
      5       9.4900     -0.00047
      6      13.0714     -0.00000
      7      18.6929      0.00000
      8      20.5523      0.00000
      9      24.7170      0.00000
     10      30.2230      0.00000
     11      35.5830      0.00000
     12      50.8256      0.00000

 k-point    27 :       0.1667    0.5833    0.5833
  band No.  band energies     occupation 
      1       5.3461      1.00000
      2       5.8934      1.00000
      3       8.3811      1.00021
      4       8.9971      0.31174
      5       9.4545     -0.00108
      6      13.5358     -0.00000
      7      18.6574      0.00000
      8      19.6982      0.00000
      9      25.0410      0.00000
     10      30.3634      0.00000
     11      36.8105      0.00000
     12      50.0537      0.00000

 k-point    28 :       0.1944    0.5972    0.5972
  band No.  band energies     occupation 
      1       5.4641      1.00000
      2       5.9574      1.00000
      3       8.1492      1.00000
      4       8.9078      0.67957
      5       9.4128     -0.00262
      6      14.0285     -0.00000
      7      18.2809      0.00000
      8      19.2108      0.00000
      9      25.4160      0.00000
     10      30.4831      0.00000
     11      38.1328      0.00000
     12      49.2899      0.00000

 k-point    29 :       0.2222    0.6111    0.6111
  band No.  band energies     occupation 
      1       5.5926      1.00000
      2       6.0221      1.00000
      3       7.9326      1.00000
      4       8.8139      0.95527
      5       9.3652     -0.00635
      6      14.5462      0.00000
      7      17.4901      0.00000
      8      19.1783      0.00000
      9      25.8391      0.00000
     10      30.5968      0.00000
     11      39.5263      0.00000
     12      48.5479      0.00000

 k-point    30 :       0.2500    0.6250    0.6250
  band No.  band energies     occupation 
      1       5.7290      1.00000
      2       6.0824      1.00000
      3       7.7332      1.00000
      4       8.7183      1.03486
      5       9.3117     -0.01435
      6      15.0868      0.00000
      7      16.6232      0.00000
      8      19.2744      0.00000
      9      26.3075      0.00000
     10      30.7142      0.00000
     11      40.9755      0.00000
     12      47.8293      0.00000

 k-point    31 :       0.3750    0.7500    0.3750
  band No.  band energies     occupation 
      1       5.7290      1.00000
      2       6.0824      1.00000
      3       7.7332      1.00000
      4       8.7183      1.03486
      5       9.3117     -0.01435
      6      15.0868      0.00000
      7      16.6232      0.00000
      8      19.2744      0.00000
      9      26.3075      0.00000
     10      30.7142      0.00000
     11      40.9755      0.00000
     12      47.8296      0.00000

 k-point    32 :       0.3333    0.6667    0.3333
  band No.  band energies     occupation 
      1       6.1328      1.00000
      2       6.2026      1.00000
      3       7.2488      1.00000
      4       8.4460      1.00103
      5       9.1205     -0.00091
      6      14.1627     -0.00000
      7      16.8347      0.00000
      8      19.8423      0.00000
      9      27.9523      0.00000
     10      31.1561      0.00000
     11      45.5529      0.00000
     12      45.8981      0.00000

 k-point    33 :       0.2917    0.5833    0.2917
  band No.  band energies     occupation 
      1       5.9315      1.00000
      2       6.6180      1.00000
      3       6.9405      1.00000
      4       8.2305      1.00000
      5       8.8837      0.76896
      6      12.1508     -0.00000
      7      18.7537      0.00000
      8      20.7847      0.00000
      9      29.9093      0.00000
     10      31.8111      0.00000
     11      43.5126      0.00000
     12      44.2210      0.00000

 k-point    34 :       0.2500    0.5000    0.2500
  band No.  band energies     occupation 
      1       5.2211      1.00000
      2       6.8043      1.00000
      3       7.0308      1.00000
      4       8.1102      1.00000
      5       8.6271      1.02209
      6      10.7195     -0.00000
      7      20.8442      0.00000
      8      22.1625      0.00000
      9      32.1319      0.00000
     10      32.7781      0.00000
     11      41.2288      0.00000
     12      42.9224      0.00000

 k-point    35 :       0.2083    0.4167    0.2083
  band No.  band energies     occupation 
      1       4.1148      1.00000
      2       6.8168      1.00000
      3       7.3764      1.00000
      4       8.0889      1.00000
      5       8.3568      1.00011
      6       9.7964     -0.00000
      7      23.0844      0.00000
      8      23.9631      0.00000
      9      34.0768      0.00000
     10      34.5565      0.00000
     11      39.2272      0.00000
     12      41.8554      0.00000

 k-point    36 :       0.1667    0.3333    0.1667
  band No.  band energies     occupation 
      1       2.8980      1.00000
      2       6.9438      1.00000
      3       7.6269      1.00000
      4       8.0984      1.00000
      5       8.1588      1.00000
      6       9.1892     -0.03525
      7      25.4607      0.00000
      8      26.1790      0.00000
      9      35.7207      0.00000
     10      37.1202      0.00000
     11      37.5496      0.00000
     12      41.0589      0.00000

 k-point    37 :       0.1250    0.2500    0.1250
  band No.  band energies     occupation 
      1       1.8027      1.00000
      2       7.1352      1.00000
      3       7.7402      1.00000
      4       7.8706      1.00000
      5       8.2801      1.00001
      6       8.7949      0.98532
      7      27.9377      0.00000
      8      28.7496      0.00000
      9      36.2451      0.00000
     10      37.5554      0.00000
     11      38.5191      0.00000
     12      40.4635      0.00000

 k-point    38 :       0.0833    0.1667    0.0833
  band No.  band energies     occupation 
      1       0.9570      1.00000
      2       7.3367      1.00000
      3       7.6938      1.00000
      4       7.6972      1.00000
      5       8.4175      1.00053
      6       8.6132      1.01896
      7      30.3961      0.00000
      8      31.6080      0.00000
      9      35.4512      0.00000
     10      37.6315      0.00000
     11      39.2515      0.00000
     12      40.0713      0.00000

 k-point    39 :       0.0417    0.0833    0.0417
  band No.  band energies     occupation 
      1       0.4277      1.00000
      2       7.4879      1.00000
      3       7.5815      1.00000
      4       7.5918      1.00000
      5       8.5252      1.00512
      6       8.5696      1.01062
      7      32.2314      0.00000
      8      34.6073      0.00000
      9      35.6521      0.00000
     10      36.8881      0.00000
     11      39.8565      0.00000
     12      40.2378      0.00000

 k-point    40 :       0.0000    0.0000    0.0000
  band No.  band energies     occupation 
      1       0.2479      1.00000
      2       7.5429      1.00000
      3       7.5429      1.00000
      4       7.5429      1.00000
      5       8.5650      1.00991
      6       8.5650      1.00991
      7      32.7255      0.00000
      8      36.6264      0.00000
      9      36.6267      0.00000
     10      36.6267      0.00000
     11      39.7824      0.00000
     12      39.7825      0.00000


--------------------------------------------------------------------------------------------------------


 soft charge-density along one line, spin component           1
         0         1         2         3         4         5         6         7         8         9
 total charge-density along one line
 
 soft charge-density along one line, spin component           2
         0         1         2         3         4         5         6         7         8         9
 total charge-density along one line
 
 pseudopotential strength for first ion, spin component:           1
 -0.646   0.000   0.000   0.000   0.000  -1.321   0.000   0.000
  0.000  -0.646  -0.000   0.000   0.000   0.000  -1.321  -0.000
  0.000  -0.000  -0.623  -0.000  -0.000   0.000  -0.000  -1.298
  0.000   0.000  -0.000  -0.646  -0.000   0.000   0.000  -0.000
  0.000   0.000  -0.000  -0.000  -0.623   0.000   0.000  -0.000
 -1.321   0.000   0.000   0.000   0.000  -1.924   0.000   0.000
  0.000  -1.321  -0.000   0.000   0.000   0.000  -1.924  -0.000
  0.000  -0.000  -1.298  -0.000  -0.000   0.000  -0.000  -1.902
  0.000   0.000  -0.000  -1.321  -0.000   0.000   0.000  -0.000
  0.000   0.000  -0.000  -0.000  -1.298   0.000   0.000  -0.000
  0.000   0.000  -0.000   0.000  -0.000   0.000   0.000  -0.000
  0.000   0.000  -0.000   0.000  -0.000   0.000   0.000  -0.000
 -0.000   0.000  -0.000   0.000  -0.000  -0.000   0.000  -0.000
  0.000   0.000   0.000  -0.000  -0.000   0.000   0.000   0.000
  0.000   0.000   0.000   0.000  -0.000   0.000   0.000   0.000
 -0.000   0.000  -0.000   0.000  -0.000  -0.000   0.000  -0.000
  0.000   0.000   0.000  -0.000  -0.000   0.000   0.000   0.000
  0.000   0.000   0.000   0.000  -0.000   0.000   0.000   0.000
 pseudopotential strength for first ion, spin component:           2
 -0.074   0.000   0.000   0.000   0.000  -0.775   0.000   0.000
  0.000  -0.074  -0.000   0.000   0.000   0.000  -0.775  -0.000
  0.000  -0.000  -0.111  -0.000  -0.000   0.000  -0.000  -0.811
  0.000   0.000  -0.000  -0.074  -0.000   0.000   0.000  -0.000
  0.000   0.000  -0.000  -0.000  -0.111   0.000   0.000  -0.000
 -0.775   0.000   0.000   0.000   0.000  -1.403   0.000   0.000
  0.000  -0.775  -0.000   0.000   0.000   0.000  -1.403  -0.000
  0.000  -0.000  -0.811  -0.000  -0.000   0.000  -0.000  -1.439
  0.000   0.000  -0.000  -0.775  -0.000   0.000   0.000  -0.000
  0.000   0.000  -0.000  -0.000  -0.811   0.000   0.000  -0.000
  0.000   0.000  -0.000   0.000  -0.000   0.000   0.000  -0.000
  0.000   0.000  -0.000   0.000  -0.000   0.000   0.000  -0.000
 -0.000   0.000  -0.000  -0.000  -0.000  -0.000   0.000  -0.000
 -0.000   0.000   0.000  -0.000  -0.000  -0.000   0.000   0.000
  0.000  -0.000   0.000   0.000  -0.000   0.000  -0.000   0.000
 -0.000   0.000  -0.000  -0.000  -0.000  -0.000   0.000  -0.000
 -0.000   0.000   0.000  -0.000  -0.000  -0.000   0.000   0.000
  0.000  -0.000   0.000   0.000  -0.000   0.000  -0.000   0.000
 total augmentation occupancy for first ion, spin component:           1
  1.800   0.000   0.000   0.000   0.000   0.000   0.000   0.000   0.000   0.000   0.000   0.000   0.000   0.000   0.000   0.000
  0.000   1.800   0.000   0.000   0.000   0.000   0.000   0.000   0.000   0.000   0.000   0.000   0.000   0.000   0.000   0.000
  0.000   0.000   1.800   0.000   0.000   0.000   0.000   0.000   0.000   0.000   0.000   0.000   0.000   0.000   0.000   0.000
  0.000   0.000   0.000   1.800   0.000   0.000   0.000   0.000   0.000   0.000   0.000   0.000   0.000   0.000   0.000   0.000
  0.000   0.000   0.000   0.000   1.800   0.000   0.000   0.000   0.000   0.000   0.000   0.000   0.000   0.000   0.000   0.000
  0.000   0.000   0.000   0.000   0.000   0.000   0.000   0.000   0.000   0.000   0.000   0.000   0.000   0.000   0.000   0.000
  0.000   0.000   0.000   0.000   0.000   0.000   0.000   0.000   0.000   0.000   0.000   0.000   0.000   0.000   0.000   0.000
  0.000   0.000   0.000   0.000   0.000   0.000   0.000   0.000   0.000   0.000   0.000   0.000   0.000   0.000   0.000   0.000
  0.000   0.000   0.000   0.000   0.000   0.000   0.000   0.000   0.000   0.000   0.000   0.000   0.000   0.000   0.000   0.000
  0.000   0.000   0.000   0.000   0.000   0.000   0.000   0.000   0.000   0.000   0.000   0.000   0.000   0.000   0.000   0.000
  0.000   0.000   0.000   0.000   0.000   0.000   0.000   0.000   0.000   0.000   1.000   0.000   0.000   0.000   0.000   0.000
  0.000   0.000   0.000   0.000   0.000   0.000   0.000   0.000   0.000   0.000   0.000   0.000   0.000   0.000   0.000   0.000
  0.000   0.000   0.000   0.000   0.000   0.000   0.000   0.000   0.000   0.000   0.000   0.000   0.000   0.000   0.000   0.000
  0.000   0.000   0.000   0.000   0.000   0.000   0.000   0.000   0.000   0.000   0.000   0.000   0.000   0.000   0.000   0.000
  0.000   0.000   0.000   0.000   0.000   0.000   0.000   0.000   0.000   0.000   0.000   0.000   0.000   0.000   0.000   0.000
  0.000   0.000   0.000   0.000   0.000   0.000   0.000   0.000   0.000   0.000   0.000   0.000   0.000   0.000   0.000   0.000
  0.000   0.000   0.000   0.000   0.000   0.000   0.000   0.000   0.000   0.000   0.000   0.000   0.000   0.000   0.000   0.000
  0.000   0.000   0.000   0.000   0.000   0.000   0.000   0.000   0.000   0.000   0.000   0.000   0.000   0.000   0.000   0.000
 total augmentation occupancy for first ion, spin component:           2
  0.180   0.000   0.000   0.000   0.000   0.000   0.000   0.000   0.000   0.000   0.000   0.000   0.000   0.000   0.000   0.000
  0.000   0.180   0.000   0.000   0.000   0.000   0.000   0.000   0.000   0.000   0.000   0.000   0.000   0.000   0.000   0.000
  0.000   0.000   0.180   0.000   0.000   0.000   0.000   0.000   0.000   0.000   0.000   0.000   0.000   0.000   0.000   0.000
  0.000   0.000   0.000   0.180   0.000   0.000   0.000   0.000   0.000   0.000   0.000   0.000   0.000   0.000   0.000   0.000
  0.000   0.000   0.000   0.000   0.180   0.000   0.000   0.000   0.000   0.000   0.000   0.000   0.000   0.000   0.000   0.000
  0.000   0.000   0.000   0.000   0.000   0.000   0.000   0.000   0.000   0.000   0.000   0.000   0.000   0.000   0.000   0.000
  0.000   0.000   0.000   0.000   0.000   0.000   0.000   0.000   0.000   0.000   0.000   0.000   0.000   0.000   0.000   0.000
  0.000   0.000   0.000   0.000   0.000   0.000   0.000   0.000   0.000   0.000   0.000   0.000   0.000   0.000   0.000   0.000
  0.000   0.000   0.000   0.000   0.000   0.000   0.000   0.000   0.000   0.000   0.000   0.000   0.000   0.000   0.000   0.000
  0.000   0.000   0.000   0.000   0.000   0.000   0.000   0.000   0.000   0.000   0.000   0.000   0.000   0.000   0.000   0.000
  0.000   0.000   0.000   0.000   0.000   0.000   0.000   0.000   0.000   0.000   0.100   0.000   0.000   0.000   0.000   0.000
  0.000   0.000   0.000   0.000   0.000   0.000   0.000   0.000   0.000   0.000   0.000   0.000   0.000   0.000   0.000   0.000
  0.000   0.000   0.000   0.000   0.000   0.000   0.000   0.000   0.000   0.000   0.000   0.000   0.000   0.000   0.000   0.000
  0.000   0.000   0.000   0.000   0.000   0.000   0.000   0.000   0.000   0.000   0.000   0.000   0.000   0.000   0.000   0.000
  0.000   0.000   0.000   0.000   0.000   0.000   0.000   0.000   0.000   0.000   0.000   0.000   0.000   0.000   0.000   0.000
  0.000   0.000   0.000   0.000   0.000   0.000   0.000   0.000   0.000   0.000   0.000   0.000   0.000   0.000   0.000   0.000
  0.000   0.000   0.000   0.000   0.000   0.000   0.000   0.000   0.000   0.000   0.000   0.000   0.000   0.000   0.000   0.000
  0.000   0.000   0.000   0.000   0.000   0.000   0.000   0.000   0.000   0.000   0.000   0.000   0.000   0.000   0.000   0.000


------------------------ aborting loop because EDIFF is reached ----------------------------------------





 total charge

# of ion       s       p       d       tot
------------------------------------------
    1        0.705   0.304   8.305   9.314



 magnetization (x)

# of ion       s       p       d       tot
------------------------------------------
    1       -0.004  -0.012   1.104   1.089
 
    CHARGE:  cpu time      0.0021: real time      0.0021
    FORLOC:  cpu time      0.0000: real time      0.0000
    FORNL :  cpu time      0.0028: real time      0.0028
    STRESS:  cpu time      0.0211: real time      0.0211
    FORCOR:  cpu time      0.0017: real time      0.0017
    FORHAR:  cpu time      0.0002: real time      0.0002
    OFIELD:  cpu time      0.0000: real time      0.0000

  FORCE on cell =-STRESS in cart. coord.  units (eV):
  Direction    XX          YY          ZZ          XY          YZ          ZX
  --------------------------------------------------------------------------------------
  Alpha Z    46.37682    46.37682    46.37682
  Ewald    -311.71407  -311.71407  -311.71407     0.00000    -0.00000     0.00000
  Hartree    76.01107    76.01107    76.01107     0.00000     0.00000     0.00000
  E(xc)     -55.01924   -55.01923   -55.01924    -0.00005    -0.00005    -0.00005
  Local      -1.57052    -1.57049    -1.57052     0.00070     0.00070     0.00070
  n-local    -1.97782    -2.01181    -6.03026    -0.72641    -1.22222    -0.21509
  augment   176.10096   176.10089   176.10096    -0.00040    -0.00040    -0.00038
  Kinetic    74.87933    75.27721    77.82838     1.13153     1.07323     0.80965
  Fock        0.00000     0.00000     0.00000     0.00000     0.00000     0.00000
  -------------------------------------------------------------------------------------
  Total       2.84003     2.84003     2.84003     0.00000     0.00000    -0.00000
  in kB     413.77995   413.77995   413.77995     0.00000     0.00000    -0.00000
  external pressure =      413.78 kB  Pullay stress =        0.00 kB


 VOLUME and BASIS-vectors are now :
 -----------------------------------------------------------------------------
  energy-cutoff  :      270.00
  volume of cell :       11.00
      direct lattice vectors                 reciprocal lattice vectors
     1.765000000  1.765000000  0.000000000     0.283286119  0.283286119 -0.283286119
     0.000000000  1.765000000  1.765000000    -0.283286119  0.283286119  0.283286119
     1.765000000  0.000000000  1.765000000     0.283286119 -0.283286119  0.283286119

  length of vectors
     2.496086938  2.496086938  2.496086938     0.490665951  0.490665951  0.490665951


 FORCES acting on ions
    electron-ion (+dipol)            ewald-force                    non-local-force                 convergence-correction
 -----------------------------------------------------------------------------------------------
   0.279E-13 0.369E-13 0.227E-13   -.749E-15 0.780E-15 0.540E-15   0.772E-21 -.693E-22 0.348E-21   0.167E-14 -.670E-12 -.683E-12
 -----------------------------------------------------------------------------------------------
   0.279E-13 0.369E-13 0.227E-13   -.749E-15 0.780E-15 0.540E-15   0.772E-21 -.693E-22 0.348E-21   0.167E-14 -.670E-12 -.683E-12
 
 
 POSITION                                       TOTAL-FORCE (eV/Angst)
 -----------------------------------------------------------------------------------
      0.00000      0.00000      0.00000        -0.000000     -0.000000      0.000000
 -----------------------------------------------------------------------------------
    total drift:                                0.000000     -0.000000     -0.000000


--------------------------------------------------------------------------------------------------------



  FREE ENERGIE OF THE ION-ELECTRON SYSTEM (eV)
  ---------------------------------------------------
  free  energy   TOTEN  =        -7.49615229 eV

  energy  without entropy=       -7.50370169  energy(sigma->0) =       -7.49866875
 


--------------------------------------------------------------------------------------------------------


    POTLOK:  cpu time      0.0049: real time      0.0049


--------------------------------------------------------------------------------------------------------


 writing wavefunctions
     LOOP+:  cpu time      0.7015: real time      0.7078
    4ORBIT:  cpu time      0.0000: real time      0.0000



 total charge

# of ion       s       p       d       tot
------------------------------------------
    1        0.705   0.304   8.305   9.314



 magnetization (x)

# of ion       s       p       d       tot
------------------------------------------
    1       -0.004  -0.012   1.104   1.089
 

 total amount of memory used by VASP MPI-rank0    31570. kBytes
=======================================================================

   base      :      30000. kBytes
   nonl-proj :        693. kBytes
   fftplans  :         71. kBytes
   grid      :        238. kBytes
   one-center:         31. kBytes
   wavefun   :        537. kBytes
 
  
  
 General timing and accounting informations for this job:
 ========================================================
  
                  Total CPU time used (sec):        0.930
                            User time (sec):        0.796
                          System time (sec):        0.134
                         Elapsed time (sec):        0.944
  
                   Maximum memory used (kb):       55960.
                   Average memory used (kb):          N/A
  
                          Minor page faults:        12653
                          Major page faults:            0
                 Voluntary context switches:          183
