PROCAR lm decomposed
# of k-points:   40         # of bands:   12         # of ions:    1

 k-point     1 :    0.50000000 0.50000000 0.50000000     weight = 0.02500000

band     1 # energy    4.48397101 # occ.  1.00000000
 
ion      s     py     pz     px    dxy    dyz    dz2    dxz  x2-y2    tot
    1  0.173  0.000  0.000  0.000  0.240  0.240  0.000  0.240  0.000  0.892
 
band     2 # energy    6.84168968 # occ.  1.00000000
 
ion      s     py     pz     px    dxy    dyz    dz2    dxz  x2-y2    tot
    1  0.000  0.000  0.000  0.000  0.199  0.199  0.429  0.000  0.143  0.970
 
band     3 # energy    6.84169211 # occ.  1.00000000
 
ion      s     py     pz     px    dxy    dyz    dz2    dxz  x2-y2    tot
    1  0.000  0.000  0.000  0.000  0.066  0.066  0.143  0.265  0.429  0.970
 
band     4 # energy    8.63786075 # occ.  1.02457657
 
ion      s     py     pz     px    dxy    dyz    dz2    dxz  x2-y2    tot
    1  0.000  0.000  0.000  0.000  0.294  0.294  0.304  0.000  0.101  0.993
 
band     5 # energy    8.63786126 # occ.  1.02457669
 
ion      s     py     pz     px    dxy    dyz    dz2    dxz  x2-y2    tot
    1  0.000  0.000  0.000  0.000  0.098  0.098  0.101  0.392  0.304  0.993
 
band     6 # energy    8.96004567 # occ.  0.46317335
 
ion      s     py     pz     px    dxy    dyz    dz2    dxz  x2-y2    tot
    1  0.000  0.224  0.224  0.224  0.000  0.000  0.000  0.000  0.000  0.673
 
band     7 # energy   14.85025247 # occ.  0.00000000
 
ion      s     py     pz     px    dxy    dyz    dz2    dxz  x2-y2    tot
    1  0.458  0.000  0.000  0.000  0.148  0.148  0.000  0.148  0.000  0.903
 
band     8 # energy   31.38754587 # occ.  0.00000000
 
ion      s     py     pz     px    dxy    dyz    dz2    dxz  x2-y2    tot
    1  0.000  0.010  0.010  0.010  0.000  0.000  0.000  0.000  0.000  0.029
 
band     9 # energy   33.72906166 # occ.  0.00000000
 
ion      s     py     pz     px    dxy    dyz    dz2    dxz  x2-y2    tot
    1  0.000  0.000  0.322  0.321  0.000  0.000  0.000  0.000  0.000  0.643
 
band    10 # energy   33.72906517 # occ.  0.00000000
 
ion      s     py     pz     px    dxy    dyz    dz2    dxz  x2-y2    tot
    1  0.000  0.429  0.106  0.108  0.000  0.000  0.000  0.000  0.000  0.643
 
band    11 # energy   36.75977803 # occ.  0.00000000
 
ion      s     py     pz     px    dxy    dyz    dz2    dxz  x2-y2    tot
    1  0.000  0.000  0.000  0.000  0.170  0.163  0.513  0.000  0.157  1.003
 
band    12 # energy   36.75977959 # occ.  0.00000000
 
ion      s     py     pz     px    dxy    dyz    dz2    dxz  x2-y2    tot
    1  0.000  0.000  0.000  0.000  0.052  0.059  0.157  0.222  0.513  1.003
 

 k-point     2 :    0.44444444 0.44444444 0.44444444     weight = 0.02500000

band     1 # energy    4.43111601 # occ.  1.00000000
 
ion      s     py     pz     px    dxy    dyz    dz2    dxz  x2-y2    tot
    1  0.194  0.004  0.004  0.004  0.225  0.225  0.000  0.225  0.000  0.882
 
band     2 # energy    6.86016550 # occ.  1.00000000
 
ion      s     py     pz     px    dxy    dyz    dz2    dxz  x2-y2    tot
    1  0.000  0.000  0.000  0.000  0.204  0.203  0.423  0.000  0.140  0.970
 
band     3 # energy    6.86016795 # occ.  1.00000000
 
ion      s     py     pz     px    dxy    dyz    dz2    dxz  x2-y2    tot
    1  0.000  0.000  0.000  0.000  0.068  0.068  0.140  0.271  0.423  0.970
 
band     4 # energy    8.47654616 # occ.  1.00199622
 
ion      s     py     pz     px    dxy    dyz    dz2    dxz  x2-y2    tot
    1  0.048  0.188  0.188  0.188  0.033  0.033  0.000  0.033  0.000  0.710
 
band     5 # energy    8.59441487 # occ.  1.01503082
 
ion      s     py     pz     px    dxy    dyz    dz2    dxz  x2-y2    tot
    1  0.000  0.000  0.000  0.000  0.286  0.292  0.308  0.000  0.106  0.992
 
band     6 # energy    8.59441534 # occ.  1.01503091
 
ion      s     py     pz     px    dxy    dyz    dz2    dxz  x2-y2    tot
    1  0.000  0.000  0.000  0.000  0.099  0.094  0.106  0.385  0.308  0.992
 
band     7 # energy   15.60790506 # occ.  0.00000000
 
ion      s     py     pz     px    dxy    dyz    dz2    dxz  x2-y2    tot
    1  0.391  0.028  0.028  0.028  0.133  0.133  0.000  0.133  0.000  0.876
 
band     8 # energy   31.48577342 # occ.  0.00000000
 
ion      s     py     pz     px    dxy    dyz    dz2    dxz  x2-y2    tot
    1  0.001  0.009  0.009  0.009  0.002  0.002  0.000  0.002  0.000  0.034
 
band     9 # energy   33.76233718 # occ.  0.00000000
 
ion      s     py     pz     px    dxy    dyz    dz2    dxz  x2-y2    tot
    1  0.000  0.000  0.313  0.304  0.022  0.022  0.007  0.000  0.002  0.670
 
band    10 # energy   33.76234080 # occ.  0.00000000
 
ion      s     py     pz     px    dxy    dyz    dz2    dxz  x2-y2    tot
    1  0.000  0.411  0.099  0.107  0.007  0.008  0.002  0.029  0.007  0.670
 
band    11 # energy   36.95384850 # occ.  0.00000000
 
ion      s     py     pz     px    dxy    dyz    dz2    dxz  x2-y2    tot
    1  0.000  0.000  0.012  0.010  0.160  0.130  0.542  0.002  0.117  0.972
 
band    12 # energy   36.95384993 # occ.  0.00000000
 
ion      s     py     pz     px    dxy    dyz    dz2    dxz  x2-y2    tot
    1  0.000  0.014  0.003  0.005  0.034  0.064  0.117  0.192  0.542  0.972
 

 k-point     3 :    0.38888889 0.38888889 0.38888889     weight = 0.02500000

band     1 # energy    4.21734130 # occ.  1.00000000
 
ion      s     py     pz     px    dxy    dyz    dz2    dxz  x2-y2    tot
    1  0.269  0.019  0.019  0.019  0.173  0.173  0.000  0.173  0.000  0.844
 
band     2 # energy    6.90803833 # occ.  1.00000000
 
ion      s     py     pz     px    dxy    dyz    dz2    dxz  x2-y2    tot
    1  0.000  0.000  0.000  0.000  0.218  0.219  0.399  0.000  0.133  0.970
 
band     3 # energy    6.90804096 # occ.  1.00000000
 
ion      s     py     pz     px    dxy    dyz    dz2    dxz  x2-y2    tot
    1  0.000  0.000  0.000  0.000  0.073  0.073  0.133  0.291  0.399  0.970
 
band     4 # energy    7.56424459 # occ.  1.00000000
 
ion      s     py     pz     px    dxy    dyz    dz2    dxz  x2-y2    tot
    1  0.085  0.125  0.125  0.125  0.108  0.108  0.000  0.108  0.000  0.782
 
band     5 # energy    8.47053333 # occ.  1.00175906
 
ion      s     py     pz     px    dxy    dyz    dz2    dxz  x2-y2    tot
    1  0.000  0.000  0.000  0.000  0.259  0.286  0.316  0.001  0.128  0.990
 
band     6 # energy    8.47053366 # occ.  1.00175907
 
ion      s     py     pz     px    dxy    dyz    dz2    dxz  x2-y2    tot
    1  0.000  0.000  0.000  0.000  0.105  0.078  0.128  0.363  0.316  0.990
 
band     7 # energy   17.39123137 # occ.  0.00000000
 
ion      s     py     pz     px    dxy    dyz    dz2    dxz  x2-y2    tot
    1  0.287  0.067  0.067  0.067  0.117  0.117  0.000  0.117  0.000  0.838
 
band     8 # energy   31.76721777 # occ.  0.00000000
 
ion      s     py     pz     px    dxy    dyz    dz2    dxz  x2-y2    tot
    1  0.005  0.007  0.007  0.007  0.008  0.008  0.000  0.008  0.000  0.048
 
band     9 # energy   33.86493050 # occ.  0.00000000
 
ion      s     py     pz     px    dxy    dyz    dz2    dxz  x2-y2    tot
    1  0.000  0.000  0.281  0.272  0.075  0.073  0.024  0.000  0.008  0.732
 
band    10 # energy   33.86493424 # occ.  0.00000000
 
ion      s     py     pz     px    dxy    dyz    dz2    dxz  x2-y2    tot
    1  0.000  0.368  0.088  0.096  0.024  0.026  0.008  0.099  0.024  0.732
 
band    11 # energy   37.45067503 # occ.  0.00000000
 
ion      s     py     pz     px    dxy    dyz    dz2    dxz  x2-y2    tot
    1  0.000  0.002  0.041  0.027  0.113  0.075  0.570  0.006  0.082  0.918
 
band    12 # energy   37.45067667 # occ.  0.00000000
 
ion      s     py     pz     px    dxy    dyz    dz2    dxz  x2-y2    tot
    1  0.000  0.045  0.006  0.020  0.016  0.055  0.082  0.124  0.570  0.918
 

 k-point     4 :    0.33333333 0.33333333 0.33333333     weight = 0.02500000

band     1 # energy    3.71672430 # occ.  1.00000000
 
ion      s     py     pz     px    dxy    dyz    dz2    dxz  x2-y2    tot
    1  0.393  0.038  0.038  0.038  0.093  0.093  0.000  0.093  0.000  0.787
 
band     2 # energy    6.87425096 # occ.  1.00000000
 
ion      s     py     pz     px    dxy    dyz    dz2    dxz  x2-y2    tot
    1  0.058  0.066  0.066  0.066  0.203  0.203  0.000  0.203  0.000  0.863
 
band     3 # energy    6.98027426 # occ.  1.00000000
 
ion      s     py     pz     px    dxy    dyz    dz2    dxz  x2-y2    tot
    1  0.000  0.000  0.000  0.000  0.249  0.250  0.353  0.000  0.118  0.972
 
band     4 # energy    6.98027720 # occ.  1.00000000
 
ion      s     py     pz     px    dxy    dyz    dz2    dxz  x2-y2    tot
    1  0.000  0.000  0.000  0.000  0.084  0.083  0.118  0.333  0.353  0.972
 
band     5 # energy    8.29812555 # occ.  1.00001954
 
ion      s     py     pz     px    dxy    dyz    dz2    dxz  x2-y2    tot
    1  0.000  0.000  0.001  0.001  0.230  0.249  0.364  0.001  0.142  0.988
 
band     6 # energy    8.29812561 # occ.  1.00001954
 
ion      s     py     pz     px    dxy    dyz    dz2    dxz  x2-y2    tot
    1  0.000  0.001  0.000  0.000  0.090  0.071  0.142  0.320  0.364  0.988
 
band     7 # energy   19.67179262 # occ.  0.00000000
 
ion      s     py     pz     px    dxy    dyz    dz2    dxz  x2-y2    tot
    1  0.203  0.090  0.090  0.090  0.111  0.111  0.000  0.111  0.000  0.808
 
band     8 # energy   32.20150531 # occ.  0.00000000
 
ion      s     py     pz     px    dxy    dyz    dz2    dxz  x2-y2    tot
    1  0.011  0.003  0.003  0.003  0.016  0.016  0.000  0.016  0.000  0.070
 
band     9 # energy   34.05215744 # occ.  0.00000000
 
ion      s     py     pz     px    dxy    dyz    dz2    dxz  x2-y2    tot
    1  0.000  0.000  0.241  0.241  0.129  0.129  0.038  0.000  0.013  0.790
 
band    10 # energy   34.05216125 # occ.  0.00000000
 
ion      s     py     pz     px    dxy    dyz    dz2    dxz  x2-y2    tot
    1  0.000  0.321  0.080  0.080  0.043  0.043  0.013  0.172  0.038  0.790
 
band    11 # energy   38.35703844 # occ.  0.00000000
 
ion      s     py     pz     px    dxy    dyz    dz2    dxz  x2-y2    tot
    1  0.000  0.000  0.057  0.061  0.043  0.047  0.446  0.000  0.171  0.825
 
band    12 # energy   38.35703918 # occ.  0.00000000
 
ion      s     py     pz     px    dxy    dyz    dz2    dxz  x2-y2    tot
    1  0.000  0.079  0.022  0.018  0.017  0.013  0.171  0.060  0.446  0.825
 

 k-point     5 :    0.27777778 0.27777778 0.27777778     weight = 0.02500000

band     1 # energy    2.94026662 # occ.  1.00000000
 
ion      s     py     pz     px    dxy    dyz    dz2    dxz  x2-y2    tot
    1  0.508  0.044  0.044  0.044  0.035  0.035  0.000  0.035  0.000  0.746
 
band     2 # energy    6.58918775 # occ.  1.00000000
 
ion      s     py     pz     px    dxy    dyz    dz2    dxz  x2-y2    tot
    1  0.022  0.028  0.028  0.028  0.271  0.271  0.000  0.271  0.000  0.919
 
band     3 # energy    7.04927299 # occ.  1.00000000
 
ion      s     py     pz     px    dxy    dyz    dz2    dxz  x2-y2    tot
    1  0.000  0.000  0.000  0.000  0.304  0.304  0.272  0.000  0.091  0.973
 
band     4 # energy    7.04927639 # occ.  1.00000000
 
ion      s     py     pz     px    dxy    dyz    dz2    dxz  x2-y2    tot
    1  0.000  0.001  0.000  0.000  0.101  0.101  0.091  0.406  0.272  0.973
 
band     5 # energy    8.10830883 # occ.  1.00000002
 
ion      s     py     pz     px    dxy    dyz    dz2    dxz  x2-y2    tot
    1  0.000  0.001  0.000  0.000  0.061  0.061  0.154  0.245  0.462  0.985
 
band     6 # energy    8.10830922 # occ.  1.00000002
 
ion      s     py     pz     px    dxy    dyz    dz2    dxz  x2-y2    tot
    1  0.000  0.000  0.001  0.001  0.184  0.184  0.462  0.000  0.154  0.985
 
band     7 # energy   22.23270034 # occ.  0.00000000
 
ion      s     py     pz     px    dxy    dyz    dz2    dxz  x2-y2    tot
    1  0.138  0.100  0.100  0.100  0.114  0.114  0.000  0.114  0.000  0.781
 
band     8 # energy   32.71911603 # occ.  0.00000000
 
ion      s     py     pz     px    dxy    dyz    dz2    dxz  x2-y2    tot
    1  0.019  0.000  0.000  0.000  0.025  0.025  0.000  0.025  0.000  0.094
 
band     9 # energy   34.33316806 # occ.  0.00000000
 
ion      s     py     pz     px    dxy    dyz    dz2    dxz  x2-y2    tot
    1  0.000  0.000  0.210  0.210  0.170  0.170  0.045  0.000  0.015  0.820
 
band    10 # energy   34.33317186 # occ.  0.00000000
 
ion      s     py     pz     px    dxy    dyz    dz2    dxz  x2-y2    tot
    1  0.000  0.280  0.070  0.070  0.057  0.057  0.015  0.226  0.045  0.820
 
band    11 # energy   39.51125154 # occ.  0.00000000
 
ion      s     py     pz     px    dxy    dyz    dz2    dxz  x2-y2    tot
    1  0.000  0.077  0.002  0.060  0.000  0.006  0.014  0.008  0.570  0.739
 
band    12 # energy   39.51125964 # occ.  0.00000000
 
ion      s     py     pz     px    dxy    dyz    dz2    dxz  x2-y2    tot
    1  0.000  0.016  0.091  0.033  0.010  0.003  0.570  0.002  0.014  0.739
 

 k-point     6 :    0.22222222 0.22222222 0.22222222     weight = 0.02500000

band     1 # energy    2.09279088 # occ.  1.00000000
 
ion      s     py     pz     px    dxy    dyz    dz2    dxz  x2-y2    tot
    1  0.590  0.035  0.035  0.035  0.011  0.011  0.000  0.011  0.000  0.729
 
band     2 # energy    6.56656592 # occ.  1.00000000
 
ion      s     py     pz     px    dxy    dyz    dz2    dxz  x2-y2    tot
    1  0.007  0.011  0.011  0.011  0.302  0.302  0.000  0.302  0.000  0.947
 
band     3 # energy    7.08399232 # occ.  1.00000000
 
ion      s     py     pz     px    dxy    dyz    dz2    dxz  x2-y2    tot
    1  0.000  0.000  0.001  0.001  0.383  0.383  0.156  0.000  0.052  0.976
 
band     4 # energy    7.08399614 # occ.  1.00000000
 
ion      s     py     pz     px    dxy    dyz    dz2    dxz  x2-y2    tot
    1  0.000  0.001  0.000  0.000  0.128  0.128  0.052  0.511  0.156  0.976
 
band     5 # energy    7.96312247 # occ.  1.00000000
 
ion      s     py     pz     px    dxy    dyz    dz2    dxz  x2-y2    tot
    1  0.000  0.001  0.000  0.000  0.035  0.035  0.194  0.140  0.580  0.984
 
band     6 # energy    7.96312332 # occ.  1.00000000
 
ion      s     py     pz     px    dxy    dyz    dz2    dxz  x2-y2    tot
    1  0.000  0.000  0.000  0.000  0.105  0.105  0.580  0.000  0.194  0.984
 
band     7 # energy   24.97103908 # occ.  0.00000000
 
ion      s     py     pz     px    dxy    dyz    dz2    dxz  x2-y2    tot
    1  0.088  0.099  0.099  0.099  0.121  0.121  0.000  0.121  0.000  0.750
 
band     8 # energy   33.22130605 # occ.  0.00000000
 
ion      s     py     pz     px    dxy    dyz    dz2    dxz  x2-y2    tot
    1  0.027  0.001  0.001  0.001  0.026  0.026  0.000  0.026  0.000  0.111
 
band     9 # energy   34.73632671 # occ.  0.00000000
 
ion      s     py     pz     px    dxy    dyz    dz2    dxz  x2-y2    tot
    1  0.000  0.000  0.188  0.188  0.184  0.184  0.043  0.000  0.014  0.802
 
band    10 # energy   34.73633031 # occ.  0.00000000
 
ion      s     py     pz     px    dxy    dyz    dz2    dxz  x2-y2    tot
    1  0.000  0.251  0.063  0.063  0.061  0.061  0.014  0.245  0.043  0.802
 
band    11 # energy   40.78110611 # occ.  0.00000000
 
ion      s     py     pz     px    dxy    dyz    dz2    dxz  x2-y2    tot
    1  0.000  0.002  0.046  0.064  0.006  0.009  0.316  0.000  0.195  0.638
 
band    12 # energy   40.78419324 # occ.  0.00000000
 
ion      s     py     pz     px    dxy    dyz    dz2    dxz  x2-y2    tot
    1  0.001  0.057  0.042  0.017  0.004  0.002  0.191  0.009  0.310  0.632
 

 k-point     7 :    0.16666667 0.16666667 0.16666667     weight = 0.02500000

band     1 # energy    1.34177055 # occ.  1.00000000
 
ion      s     py     pz     px    dxy    dyz    dz2    dxz  x2-y2    tot
    1  0.648  0.022  0.022  0.022  0.003  0.003  0.000  0.003  0.000  0.723
 
band     2 # energy    6.65058369 # occ.  1.00000000
 
ion      s     py     pz     px    dxy    dyz    dz2    dxz  x2-y2    tot
    1  0.002  0.004  0.004  0.004  0.315  0.315  0.000  0.315  0.000  0.961
 
band     3 # energy    7.04934942 # occ.  1.00000000
 
ion      s     py     pz     px    dxy    dyz    dz2    dxz  x2-y2    tot
    1  0.000  0.000  0.001  0.001  0.453  0.453  0.052  0.000  0.017  0.976
 
band     4 # energy    7.04935347 # occ.  1.00000000
 
ion      s     py     pz     px    dxy    dyz    dz2    dxz  x2-y2    tot
    1  0.000  0.001  0.000  0.000  0.151  0.151  0.017  0.604  0.052  0.976
 
band     5 # energy    7.89303127 # occ.  1.00000000
 
ion      s     py     pz     px    dxy    dyz    dz2    dxz  x2-y2    tot
    1  0.000  0.000  0.000  0.000  0.011  0.012  0.228  0.046  0.687  0.984
 
band     6 # energy    7.89303234 # occ.  1.00000000
 
ion      s     py     pz     px    dxy    dyz    dz2    dxz  x2-y2    tot
    1  0.000  0.000  0.000  0.000  0.035  0.035  0.687  0.000  0.228  0.984
 
band     7 # energy   27.81813496 # occ.  0.00000000
 
ion      s     py     pz     px    dxy    dyz    dz2    dxz  x2-y2    tot
    1  0.049  0.088  0.088  0.088  0.129  0.129  0.000  0.129  0.000  0.700
 
band     8 # energy   33.62065706 # occ.  0.00000000
 
ion      s     py     pz     px    dxy    dyz    dz2    dxz  x2-y2    tot
    1  0.031  0.012  0.012  0.012  0.015  0.015  0.000  0.015  0.000  0.113
 
band     9 # energy   35.22149374 # occ.  0.00000000
 
ion      s     py     pz     px    dxy    dyz    dz2    dxz  x2-y2    tot
    1  0.000  0.000  0.175  0.175  0.178  0.178  0.035  0.000  0.012  0.752
 
band    10 # energy   35.22149693 # occ.  0.00000000
 
ion      s     py     pz     px    dxy    dyz    dz2    dxz  x2-y2    tot
    1  0.000  0.233  0.058  0.058  0.059  0.059  0.012  0.238  0.035  0.752
 
band    11 # energy   40.74823187 # occ.  0.00000000
 
ion      s     py     pz     px    dxy    dyz    dz2    dxz  x2-y2    tot
    1  0.000  0.061  0.063  0.062  0.020  0.022  0.000  0.021  0.000  0.251
 
band    12 # energy   41.54356880 # occ.  0.00000000
 
ion      s     py     pz     px    dxy    dyz    dz2    dxz  x2-y2    tot
    1  0.000  0.002  0.010  0.004  0.189  0.076  0.269  0.037  0.018  0.605
 

 k-point     8 :    0.11111111 0.11111111 0.11111111     weight = 0.02500000

band     1 # energy    0.76969783 # occ.  1.00000000
 
ion      s     py     pz     px    dxy    dyz    dz2    dxz  x2-y2    tot
    1  0.688  0.010  0.010  0.010  0.000  0.000  0.000  0.000  0.000  0.721
 
band     2 # energy    6.75924861 # occ.  1.00000000
 
ion      s     py     pz     px    dxy    dyz    dz2    dxz  x2-y2    tot
    1  0.000  0.002  0.002  0.002  0.321  0.321  0.000  0.321  0.000  0.969
 
band     3 # energy    6.97133752 # occ.  1.00000000
 
ion      s     py     pz     px    dxy    dyz    dz2    dxz  x2-y2    tot
    1  0.000  0.000  0.000  0.000  0.482  0.482  0.009  0.000  0.003  0.976
 
band     4 # energy    6.97134146 # occ.  1.00000000
 
ion      s     py     pz     px    dxy    dyz    dz2    dxz  x2-y2    tot
    1  0.000  0.001  0.000  0.000  0.160  0.161  0.003  0.642  0.009  0.976
 
band     5 # energy    7.89495851 # occ.  1.00000000
 
ion      s     py     pz     px    dxy    dyz    dz2    dxz  x2-y2    tot
    1  0.000  0.000  0.000  0.000  0.002  0.002  0.248  0.008  0.726  0.986
 
band     6 # energy    7.89495949 # occ.  1.00000000
 
ion      s     py     pz     px    dxy    dyz    dz2    dxz  x2-y2    tot
    1  0.000  0.000  0.000  0.000  0.006  0.006  0.726  0.000  0.248  0.986
 
band     7 # energy   30.61217592 # occ.  0.00000000
 
ion      s     py     pz     px    dxy    dyz    dz2    dxz  x2-y2    tot
    1  0.018  0.061  0.061  0.061  0.122  0.122  0.000  0.122  0.000  0.565
 
band     8 # energy   34.00247812 # occ.  0.00000000
 
ion      s     py     pz     px    dxy    dyz    dz2    dxz  x2-y2    tot
    1  0.029  0.043  0.043  0.043  0.000  0.000  0.000  0.000  0.000  0.158
 
band     9 # energy   35.79775452 # occ.  0.00000000
 
ion      s     py     pz     px    dxy    dyz    dz2    dxz  x2-y2    tot
    1  0.000  0.000  0.171  0.171  0.141  0.141  0.021  0.000  0.007  0.652
 
band    10 # energy   35.79775691 # occ.  0.00000000
 
ion      s     py     pz     px    dxy    dyz    dz2    dxz  x2-y2    tot
    1  0.000  0.228  0.057  0.057  0.047  0.047  0.007  0.187  0.021  0.652
 
band    11 # energy   40.80901210 # occ.  0.00000000
 
ion      s     py     pz     px    dxy    dyz    dz2    dxz  x2-y2    tot
    1  0.011  0.030  0.029  0.028  0.104  0.080  0.000  0.114  0.000  0.396
 
band    12 # energy   41.05156816 # occ.  0.00000000
 
ion      s     py     pz     px    dxy    dyz    dz2    dxz  x2-y2    tot
    1  0.000  0.003  0.006  0.000  0.482  0.038  0.048  0.252  0.003  0.833
 

 k-point     9 :    0.05555556 0.05555556 0.05555556     weight = 0.02500000

band     1 # energy    0.41494933 # occ.  1.00000000
 
ion      s     py     pz     px    dxy    dyz    dz2    dxz  x2-y2    tot
    1  0.712  0.003  0.003  0.003  0.000  0.000  0.000  0.000  0.000  0.721
 
band     2 # energy    6.84447634 # occ.  1.00000000
 
ion      s     py     pz     px    dxy    dyz    dz2    dxz  x2-y2    tot
    1  0.000  0.000  0.000  0.000  0.325  0.325  0.000  0.325  0.000  0.975
 
band     3 # energy    6.90157158 # occ.  1.00000000
 
ion      s     py     pz     px    dxy    dyz    dz2    dxz  x2-y2    tot
    1  0.000  0.000  0.000  0.000  0.487  0.488  0.000  0.000  0.000  0.976
 
band     4 # energy    6.90157539 # occ.  1.00000000
 
ion      s     py     pz     px    dxy    dyz    dz2    dxz  x2-y2    tot
    1  0.000  0.000  0.000  0.000  0.163  0.162  0.000  0.650  0.000  0.976
 
band     5 # energy    7.91856498 # occ.  1.00000000
 
ion      s     py     pz     px    dxy    dyz    dz2    dxz  x2-y2    tot
    1  0.000  0.000  0.000  0.000  0.000  0.000  0.247  0.000  0.740  0.987
 
band     6 # energy    7.91856579 # occ.  1.00000000
 
ion      s     py     pz     px    dxy    dyz    dz2    dxz  x2-y2    tot
    1  0.000  0.000  0.000  0.000  0.000  0.000  0.740  0.000  0.247  0.987
 
band     7 # energy   32.51296277 # occ.  0.00000000
 
ion      s     py     pz     px    dxy    dyz    dz2    dxz  x2-y2    tot
    1  0.001  0.008  0.008  0.008  0.045  0.045  0.000  0.045  0.000  0.157
 
band     8 # energy   35.12220820 # occ.  0.00000000
 
ion      s     py     pz     px    dxy    dyz    dz2    dxz  x2-y2    tot
    1  0.017  0.102  0.102  0.102  0.037  0.037  0.000  0.037  0.000  0.432
 
band     9 # energy   36.37209930 # occ.  0.00000000
 
ion      s     py     pz     px    dxy    dyz    dz2    dxz  x2-y2    tot
    1  0.000  0.000  0.178  0.179  0.063  0.064  0.008  0.000  0.003  0.495
 
band    10 # energy   36.37210033 # occ.  0.00000000
 
ion      s     py     pz     px    dxy    dyz    dz2    dxz  x2-y2    tot
    1  0.000  0.238  0.060  0.059  0.021  0.021  0.003  0.085  0.008  0.495
 
band    11 # energy   40.16085382 # occ.  0.00000000
 
ion      s     py     pz     px    dxy    dyz    dz2    dxz  x2-y2    tot
    1  0.000  0.008  0.002  0.005  0.116  0.373  0.001  0.569  0.003  1.076
 
band    12 # energy   40.16297664 # occ.  0.00000000
 
ion      s     py     pz     px    dxy    dyz    dz2    dxz  x2-y2    tot
    1  0.000  0.002  0.008  0.004  0.633  0.303  0.003  0.122  0.001  1.076
 

 k-point    10 :    0.00000000 0.00000000 0.00000000     weight = 0.02500000

band     1 # energy    0.29499608 # occ.  1.00000000
 
ion      s     py     pz     px    dxy    dyz    dz2    dxz  x2-y2    tot
    1  0.720  0.000  0.000  0.000  0.000  0.000  0.000  0.000  0.000  0.720
 
band     2 # energy    6.87472501 # occ.  1.00000000
 
ion      s     py     pz     px    dxy    dyz    dz2    dxz  x2-y2    tot
    1  0.000  0.000  0.000  0.000  0.488  0.488  0.000  0.000  0.000  0.976
 
band     3 # energy    6.87472859 # occ.  1.00000000
 
ion      s     py     pz     px    dxy    dyz    dz2    dxz  x2-y2    tot
    1  0.000  0.000  0.000  0.000  0.076  0.076  0.000  0.824  0.000  0.976
 
band     4 # energy    6.87473232 # occ.  1.00000000
 
ion      s     py     pz     px    dxy    dyz    dz2    dxz  x2-y2    tot
    1  0.000  0.000  0.000  0.000  0.412  0.412  0.000  0.152  0.000  0.976
 
band     5 # energy    7.92955795 # occ.  1.00000000
 
ion      s     py     pz     px    dxy    dyz    dz2    dxz  x2-y2    tot
    1  0.000  0.000  0.000  0.000  0.000  0.000  0.248  0.000  0.740  0.988
 
band     6 # energy    7.92955870 # occ.  1.00000000
 
ion      s     py     pz     px    dxy    dyz    dz2    dxz  x2-y2    tot
    1  0.000  0.000  0.000  0.000  0.000  0.000  0.740  0.000  0.248  0.988
 
band     7 # energy   32.89729509 # occ.  0.00000000
 
ion      s     py     pz     px    dxy    dyz    dz2    dxz  x2-y2    tot
    1  0.000  0.000  0.000  0.000  0.000  0.000  0.000  0.000  0.000  0.000
 
band     8 # energy   36.65760214 # occ.  0.00000000
 
ion      s     py     pz     px    dxy    dyz    dz2    dxz  x2-y2    tot
    1  0.000  0.125  0.126  0.126  0.000  0.000  0.000  0.000  0.000  0.377
 
band     9 # energy   36.65776825 # occ.  0.00000000
 
ion      s     py     pz     px    dxy    dyz    dz2    dxz  x2-y2    tot
    1  0.000  0.064  0.168  0.145  0.000  0.000  0.000  0.000  0.000  0.377
 
band    10 # energy   36.65776827 # occ.  0.00000000
 
ion      s     py     pz     px    dxy    dyz    dz2    dxz  x2-y2    tot
    1  0.000  0.188  0.083  0.106  0.000  0.000  0.000  0.000  0.000  0.377
 
band    11 # energy   39.73538969 # occ.  0.00000000
 
ion      s     py     pz     px    dxy    dyz    dz2    dxz  x2-y2    tot
    1  0.000  0.000  0.000  0.000  0.104  0.667  0.000  0.445  0.000  1.216
 
band    12 # energy   39.73547842 # occ.  0.00000000
 
ion      s     py     pz     px    dxy    dyz    dz2    dxz  x2-y2    tot
    1  0.000  0.000  0.000  0.000  0.777  0.201  0.000  0.238  0.000  1.216
 

 k-point    11 :    0.00000000 0.00000000 0.00000000     weight = 0.02500000

band     1 # energy    0.29499608 # occ.  1.00000000
 
ion      s     py     pz     px    dxy    dyz    dz2    dxz  x2-y2    tot
    1  0.720  0.000  0.000  0.000  0.000  0.000  0.000  0.000  0.000  0.720
 
band     2 # energy    6.87472501 # occ.  1.00000000
 
ion      s     py     pz     px    dxy    dyz    dz2    dxz  x2-y2    tot
    1  0.000  0.000  0.000  0.000  0.488  0.488  0.000  0.000  0.000  0.976
 
band     3 # energy    6.87472858 # occ.  1.00000000
 
ion      s     py     pz     px    dxy    dyz    dz2    dxz  x2-y2    tot
    1  0.000  0.000  0.000  0.000  0.076  0.076  0.000  0.823  0.000  0.976
 
band     4 # energy    6.87473232 # occ.  1.00000000
 
ion      s     py     pz     px    dxy    dyz    dz2    dxz  x2-y2    tot
    1  0.000  0.000  0.000  0.000  0.412  0.412  0.000  0.153  0.000  0.976
 
band     5 # energy    7.92955795 # occ.  1.00000000
 
ion      s     py     pz     px    dxy    dyz    dz2    dxz  x2-y2    tot
    1  0.000  0.000  0.000  0.000  0.000  0.000  0.247  0.000  0.741  0.988
 
band     6 # energy    7.92955870 # occ.  1.00000000
 
ion      s     py     pz     px    dxy    dyz    dz2    dxz  x2-y2    tot
    1  0.000  0.000  0.000  0.000  0.000  0.000  0.741  0.000  0.247  0.988
 
band     7 # energy   32.89729507 # occ.  0.00000000
 
ion      s     py     pz     px    dxy    dyz    dz2    dxz  x2-y2    tot
    1  0.000  0.000  0.000  0.000  0.000  0.000  0.000  0.000  0.000  0.000
 
band     8 # energy   36.65760241 # occ.  0.00000000
 
ion      s     py     pz     px    dxy    dyz    dz2    dxz  x2-y2    tot
    1  0.000  0.125  0.126  0.126  0.000  0.000  0.000  0.000  0.000  0.377
 
band     9 # energy   36.65776818 # occ.  0.00000000
 
ion      s     py     pz     px    dxy    dyz    dz2    dxz  x2-y2    tot
    1  0.000  0.106  0.160  0.111  0.000  0.000  0.000  0.000  0.000  0.377
 
band    10 # energy   36.65776844 # occ.  0.00000000
 
ion      s     py     pz     px    dxy    dyz    dz2    dxz  x2-y2    tot
    1  0.000  0.146  0.091  0.140  0.000  0.000  0.000  0.000  0.000  0.377
 
band    11 # energy   39.73539468 # occ.  0.00000000
 
ion      s     py     pz     px    dxy    dyz    dz2    dxz  x2-y2    tot
    1  0.000  0.000  0.000  0.000  0.260  0.672  0.000  0.284  0.000  1.216
 
band    12 # energy   39.73548264 # occ.  0.00000000
 
ion      s     py     pz     px    dxy    dyz    dz2    dxz  x2-y2    tot
    1  0.000  0.000  0.000  0.000  0.638  0.001  0.000  0.577  0.000  1.216
 

 k-point    12 :    0.00000000 0.05555556 0.05555556     weight = 0.02500000

band     1 # energy    0.45482797 # occ.  1.00000000
 
ion      s     py     pz     px    dxy    dyz    dz2    dxz  x2-y2    tot
    1  0.710  0.000  0.011  0.000  0.000  0.000  0.000  0.000  0.000  0.721
 
band     2 # energy    6.81823392 # occ.  1.00000000
 
ion      s     py     pz     px    dxy    dyz    dz2    dxz  x2-y2    tot
    1  0.000  0.000  0.000  0.000  0.974  0.000  0.000  0.000  0.000  0.974
 
band     3 # energy    6.91945130 # occ.  1.00000000
 
ion      s     py     pz     px    dxy    dyz    dz2    dxz  x2-y2    tot
    1  0.000  0.001  0.000  0.000  0.000  0.669  0.000  0.306  0.000  0.976
 
band     4 # energy    6.91945343 # occ.  1.00000000
 
ion      s     py     pz     px    dxy    dyz    dz2    dxz  x2-y2    tot
    1  0.000  0.000  0.000  0.001  0.000  0.306  0.000  0.669  0.000  0.976
 
band     5 # energy    7.87829626 # occ.  1.00000000
 
ion      s     py     pz     px    dxy    dyz    dz2    dxz  x2-y2    tot
    1  0.000  0.000  0.000  0.000  0.000  0.000  0.986  0.000  0.000  0.986
 
band     6 # energy    7.94997906 # occ.  1.00000000
 
ion      s     py     pz     px    dxy    dyz    dz2    dxz  x2-y2    tot
    1  0.000  0.000  0.000  0.000  0.000  0.000  0.000  0.000  0.988  0.988
 
band     7 # energy   32.55474436 # occ.  0.00000000
 
ion      s     py     pz     px    dxy    dyz    dz2    dxz  x2-y2    tot
    1  0.000  0.000  0.000  0.000  0.128  0.000  0.000  0.000  0.000  0.128
 
band     8 # energy   35.39849001 # occ.  0.00000000
 
ion      s     py     pz     px    dxy    dyz    dz2    dxz  x2-y2    tot