mpprun info: Starting impi run on 1 node ( 4 rank X 1 th ) for job ID 18781635
 ----------------------------------------------------
    OOO  PPPP  EEEEE N   N M   M PPPP
   O   O P   P E     NN  N MM MM P   P
   O   O PPPP  EEEEE N N N M M M PPPP   -- VERSION
   O   O P     E     N  NN M   M P
    OOO  P     EEEEE N   N M   M P
 ----------------------------------------------------
 running    4 mpi-ranks, with    1 threads/rank
 distrk:  each k-point on    4 cores,    1 groups
 distr:  one band on    1 cores,    4 groups
 vasp.6.3.0 20Jan22 (build Feb 01 2022 16:52:37) complex                        
  
 POSCAR found type information on POSCAR Ni
 POSCAR found :  1 types and       1 ions
 scaLAPACK will be used
 LDA part: xc-table for Pade appr. of Perdew
 WARNING: stress and forces are not correct
 POSCAR, INCAR and KPOINTS ok, starting setup
 FFT: planning ... GRIDC
 FFT: planning ... GRID_SOFT
 FFT: planning ... GRID
 WAVECAR not read
 charge-density read from file: fcc                                     
 magnetization density read from file 1
 entering main loop
       N       E                     dE             d eps       ncg     rms          rms(c)
DAV:   1     0.174650823201E+02    0.17465E+02   -0.31100E+03  2100   0.659E+02
DAV:   2    -0.697599338156E+01   -0.24441E+02   -0.22921E+02  2068   0.120E+02
DAV:   3    -0.749362959991E+01   -0.51764E+00   -0.51449E+00  2340   0.193E+01
DAV:   4    -0.749611685578E+01   -0.24873E-02   -0.24871E-02  2268   0.118E+00
DAV:   5    -0.749615171726E+01   -0.34861E-04   -0.34862E-04  2336   0.130E-01
DAV:   6    -0.749615228737E+01   -0.57011E-06   -0.56984E-06  1716   0.164E-02
   1 F= -.74961523E+01 E0= -.74986688E+01  d E =0.754940E-02  mag=     0.5905
 writing wavefunctions
mpprun info: Elapsed time (h:m:s):  0:00:01.191882
