<?xml version="1.0" encoding="ISO-8859-1"?>
<modeling>
 <generator>
  <i name="program" type="string">vasp </i>
  <i name="version" type="string">6.3.0  </i>
  <i name="subversion" type="string">20Jan22 (build Feb 01 2022 16:52:37) complex                          parallel </i>
  <i name="platform" type="string">TETRA_NSC1 </i>
  <i name="date" type="string">2022 02 23 </i>
  <i name="time" type="string">15:32:48 </i>
 </generator>
 <incar>
  <i type="string" name="SYSTEM">fcc Ni</i>
  <i type="int" name="ISTART">     0</i>
  <i type="int" name="ISPIN">     2</i>
  <i type="int" name="ICHARG">    11</i>
  <i name="ENCUT">    270.00000000</i>
  <v name="MAGMOM">      1.00000000</v>
  <i type="int" name="ISMEAR">     1</i>
  <i name="SIGMA">      0.20000000</i>
  <i type="int" name="LORBIT">    11</i>
 </incar>
 <primitive_cell>
  <structure name="primitive_cell" >
   <crystal>
    <varray name="basis" >
     <v>       1.76500000       1.76500000       0.00000000 </v>
     <v>       0.00000000       1.76500000       1.76500000 </v>
     <v>       1.76500000       0.00000000       1.76500000 </v>
    </varray>
    <i name="volume">     10.99674425 </i>
    <varray name="rec_basis" >
     <v>       0.28328612       0.28328612      -0.28328612 </v>
     <v>      -0.28328612       0.28328612       0.28328612 </v>
     <v>       0.28328612      -0.28328612       0.28328612 </v>
    </varray>
   </crystal>
   <varray name="positions" >
    <v>       0.00000000       0.00000000       0.00000000 </v>
   </varray>
  </structure>
  <varray name="primitive_index" >
   <v type="int" >        1 </v>
  </varray>
 </primitive_cell>
 <kpoints>
  <generation param="listgenerated">
   <i name="divisions" type="int">      10 </i>
   <v>       0.50000000       0.50000000       0.50000000 </v>
   <v>       0.00000000       0.00000000       0.00000000 </v>
   <v>       0.00000000       0.50000000       0.50000000 </v>
   <v>       0.37500000       0.75000000       0.37500000 </v>
   <v>       0.00000000       0.00000000       0.00000000 </v>
  </generation>
  <varray name="kpointlist" >
   <v>       0.50000000       0.50000000       0.50000000 </v>
   <v>       0.44444444       0.44444444       0.44444444 </v>
   <v>       0.38888889       0.38888889       0.38888889 </v>
   <v>       0.33333333       0.33333333       0.33333333 </v>
   <v>       0.27777778       0.27777778       0.27777778 </v>
   <v>       0.22222222       0.22222222       0.22222222 </v>
   <v>       0.16666667       0.16666667       0.16666667 </v>
   <v>       0.11111111       0.11111111       0.11111111 </v>
   <v>       0.05555556       0.05555556       0.05555556 </v>
   <v>       0.00000000       0.00000000       0.00000000 </v>
   <v>       0.00000000       0.00000000       0.00000000 </v>
   <v>       0.00000000       0.05555556       0.05555556 </v>
   <v>       0.00000000       0.11111111       0.11111111 </v>
   <v>       0.00000000       0.16666667       0.16666667 </v>
   <v>       0.00000000       0.22222222       0.22222222 </v>
   <v>       0.00000000       0.27777778       0.27777778 </v>
   <v>       0.00000000       0.33333333       0.33333333 </v>
   <v>       0.00000000       0.38888889       0.38888889 </v>
   <v>       0.00000000       0.44444444       0.44444444 </v>
   <v>       0.00000000       0.50000000       0.50000000 </v>
   <v>       0.00000000       0.50000000       0.50000000 </v>
   <v>       0.02777778       0.51388889       0.51388889 </v>
   <v>       0.05555556       0.52777778       0.52777778 </v>
   <v>       0.08333333       0.54166667       0.54166667 </v>
   <v>       0.11111111       0.55555556       0.55555556 </v>
   <v>       0.13888889       0.56944444       0.56944444 </v>
   <v>       0.16666667       0.58333333       0.58333333 </v>
   <v>       0.19444444       0.59722222       0.59722222 </v>
   <v>       0.22222222       0.61111111       0.61111111 </v>
   <v>       0.25000000       0.62500000       0.62500000 </v>
   <v>       0.37500000       0.75000000       0.37500000 </v>
   <v>       0.33333333       0.66666667       0.33333333 </v>
   <v>       0.29166667       0.58333333       0.29166667 </v>
   <v>       0.25000000       0.50000000       0.25000000 </v>
   <v>       0.20833333       0.41666667       0.20833333 </v>
   <v>       0.16666667       0.33333333       0.16666667 </v>
   <v>       0.12500000       0.25000000       0.12500000 </v>
   <v>       0.08333333       0.16666667       0.08333333 </v>
   <v>       0.04166667       0.08333333       0.04166667 </v>
   <v>       0.00000000       0.00000000       0.00000000 </v>
  </varray>
  <varray name="weights" >
   <v>       0.02500000 </v>
   <v>       0.02500000 </v>
   <v>       0.02500000 </v>
   <v>       0.02500000 </v>
   <v>       0.02500000 </v>
   <v>       0.02500000 </v>
   <v>       0.02500000 </v>
   <v>       0.02500000 </v>
   <v>       0.02500000 </v>
   <v>       0.02500000 </v>
   <v>       0.02500000 </v>
   <v>       0.02500000 </v>
   <v>       0.02500000 </v>
   <v>       0.02500000 </v>
   <v>       0.02500000 </v>
   <v>       0.02500000 </v>
   <v>       0.02500000 </v>
   <v>       0.02500000 </v>
   <v>       0.02500000 </v>
   <v>       0.02500000 </v>
   <v>       0.02500000 </v>
   <v>       0.02500000 </v>
   <v>       0.02500000 </v>
   <v>       0.02500000 </v>
   <v>       0.02500000 </v>
   <v>       0.02500000 </v>
   <v>       0.02500000 </v>
   <v>       0.02500000 </v>
   <v>       0.02500000 </v>
   <v>       0.02500000 </v>
   <v>       0.02500000 </v>
   <v>       0.02500000 </v>
   <v>       0.02500000 </v>
   <v>       0.02500000 </v>
   <v>       0.02500000 </v>
   <v>       0.02500000 </v>
   <v>       0.02500000 </v>
   <v>       0.02500000 </v>
   <v>       0.02500000 </v>
   <v>       0.02500000 </v>
  </varray>
  <kpoints_labels>
   <i name="1" type="int">       1 </i>
   <i name="1" type="int">       2 </i>
   <i name="1" type="int">       3 </i>
   <i name="1" type="int">       4 </i>
   <i name="1" type="int">       5 </i>
   <i name="1" type="int">       6 </i>
   <i name="1" type="int">       7 </i>
   <i name="1" type="int">       8 </i>
  </kpoints_labels>
 </kpoints>
 <parameters>
  <separator name="general" >
   <i type="string" name="SYSTEM">fcc Ni</i>
   <i type="logical" name="LCOMPAT"> F  </i>
  </separator>
  <separator name="electronic" >
   <i type="string" name="PREC">normal</i>
   <i name="ENMAX">    270.00000000</i>
   <i name="ENAUG">    544.56500000</i>
   <i name="EDIFF">      0.00010000</i>
   <i type="int" name="IALGO">    38</i>
   <i type="int" name="IWAVPR">    10</i>
   <i type="int" name="NBANDS">    12</i>
   <i type="int" name="NBANDSLOW">    -1</i>
   <i type="int" name="NBANDSHIGH">    -1</i>
   <i name="NELECT">     10.00000000</i>
   <i type="int" name="TURBO">     0</i>
   <i type="int" name="IRESTART">     0</i>
   <i type="int" name="NREBOOT">     0</i>
   <i type="int" name="NMIN">     0</i>
   <i name="EREF">      0.00000000</i>
   <separator name="electronic smearing" >
    <i type="int" name="ISMEAR">     1</i>
    <i name="SIGMA">      0.20000000</i>
    <i name="KSPACING">      0.50000000</i>
    <i type="logical" name="KGAMMA"> T  </i>
    <i type="logical" name="KBLOWUP"> T  </i>
   </separator>
   <separator name="electronic projectors" >
    <i type="logical" name="LREAL"> F  </i>
    <v name="ROPT">      0.00000000</v>
    <i type="int" name="LMAXPAW">  -100</i>
    <i type="int" name="LMAXMIX">     2</i>
    <i type="logical" name="NLSPLINE"> F  </i>
   </separator>
   <separator name="electronic startup" >
    <i type="int" name="ISTART">     0</i>
    <i type="int" name="ICHARG">    11</i>
    <i type="int" name="INIWAV">     1</i>
   </separator>
   <separator name="electronic spin" >
    <i type="int" name="ISPIN">     2</i>
    <i type="logical" name="LNONCOLLINEAR"> F  </i>
    <v name="MAGMOM">      1.00000000</v>
    <i name="NUPDOWN">     -1.00000000</i>
    <i type="logical" name="LSORBIT"> F  </i>
    <v name="SAXIS">      0.00000000      0.00000000      1.00000000</v>
    <i type="logical" name="LSPIRAL"> F  </i>
    <v name="QSPIRAL">      0.00000000      0.00000000      0.00000000</v>
    <i type="logical" name="LZEROZ"> F  </i>
   </separator>
   <separator name="electronic exchange-correlation" >
    <i type="logical" name="LASPH"> F  </i>
    <i type="logical" name="LMETAGGA"> F  </i>
   </separator>
   <separator name="electronic convergence" >
    <i type="int" name="NELM">    60</i>
    <i type="int" name="NELMDL">    -5</i>
    <i type="int" name="NELMIN">     2</i>
    <i name="ENINI">    270.00000000</i>
    <separator name="electronic convergence detail" >
     <i type="logical" name="LDIAG"> T  </i>
     <i type="logical" name="LSUBROT"> F  </i>
     <i name="WEIMIN">      0.00000000</i>
     <i name="EBREAK">      0.00000208</i>
     <i name="DEPER">      0.30000000</i>
     <i type="int" name="NRMM">     4</i>
     <i name="TIME">      0.40000000</i>
    </separator>
   </separator>
   <separator name="electronic mixer" >
    <i name="AMIX">      0.40000000</i>
    <i name="BMIX">      1.00000000</i>
    <i name="AMIN">      0.10000000</i>
    <i name="AMIX_MAG">      1.60000000</i>
    <i name="BMIX_MAG">      1.00000000</i>
    <separator name="electronic mixer details" >
     <i type="int" name="IMIX">     4</i>
     <i type="logical" name="MIXFIRST"> F  </i>
     <i type="int" name="MAXMIX">   -45</i>
     <i name="WC">    100.00000000</i>
     <i type="int" name="INIMIX">     1</i>
     <i type="int" name="MIXPRE">     1</i>
     <i type="int" name="MREMOVE">     5</i>
    </separator>
   </separator>
   <separator name="electronic dipolcorrection" >
    <i type="logical" name="LDIPOL"> F  </i>
    <i type="logical" name="LMONO"> F  </i>
    <i type="int" name="IDIPOL">     0</i>
    <i name="EPSILON">      1.00000000</i>
    <v name="DIPOL">   -100.00000000   -100.00000000   -100.00000000</v>
    <i name="EFIELD">      0.00000000</i>
   </separator>
  </separator>
  <separator name="grids" >
   <i type="int" name="NGX">    10</i>
   <i type="int" name="NGY">    10</i>
   <i type="int" name="NGZ">    10</i>
   <i type="int" name="NGXF">    20</i>
   <i type="int" name="NGYF">    20</i>
   <i type="int" name="NGZF">    20</i>
   <i type="logical" name="ADDGRID"> F  </i>
  </separator>
  <separator name="ionic" >
   <i type="int" name="NSW">     0</i>
   <i type="int" name="IBRION">    -1</i>
   <i type="int" name="MDALGO">     0</i>
   <i type="int" name="ISIF">     2</i>
   <i name="PSTRESS">      0.00000000</i>
   <i name="EDIFFG">      0.00100000</i>
   <i type="int" name="NFREE">     0</i>
   <i name="POTIM">      0.50000000</i>
   <i name="SMASS">     -3.00000000</i>
   <i name="SCALEE">      1.00000000</i>
  </separator>
  <separator name="ionic md" >
   <i name="TEBEG">      0.00010000</i>
   <i name="TEEND">      0.00010000</i>
   <i type="int" name="NBLOCK">     1</i>
   <i type="int" name="KBLOCK">     1</i>
   <i type="int" name="NPACO">   256</i>
   <i name="APACO">     10.00000000</i>
  </separator>
  <separator name="symmetry" >
   <i type="int" name="ISYM">     2</i>
   <i name="SYMPREC">      0.00001000</i>
  </separator>
  <separator name="dos" >
   <i type="int" name="LORBIT">    11</i>
   <v name="RWIGS">     -1.00000000</v>
   <i type="int" name="NEDOS">   301</i>
   <i name="EMIN">     10.00000000</i>
   <i name="EMAX">    -10.00000000</i>
   <i name="EFERMI">      0.00000000</i>
  </separator>
  <separator name="writing" >
   <i type="int" name="NWRITE">     2</i>
   <i type="logical" name="LWAVE"> T  </i>
   <i type="logical" name="LDOWNSAMPLE"> F  </i>
   <i type="logical" name="LCHARG"> T  </i>
   <i type="logical" name="LPARD"> F  </i>
   <i type="logical" name="LVTOT"> F  </i>
   <i type="logical" name="LVHAR"> F  </i>
   <i type="logical" name="LELF"> F  </i>
   <i type="logical" name="LOPTICS"> F  </i>
   <v name="STM">      0.00000000      0.00000000      0.00000000      0.00000000      0.00000000      0.00000000      0.00000000</v>
  </separator>
  <separator name="performance" >
   <i type="int" name="NPAR">     4</i>
   <i type="int" name="NSIM">     4</i>
   <i type="int" name="NBLK">    -1</i>
   <i type="logical" name="LPLANE"> T  </i>
   <i type="logical" name="LSCALAPACK"> T  </i>
   <i type="logical" name="LSCAAWARE"> F  </i>
   <i type="logical" name="LSCALU"> F  </i>
   <i type="logical" name="LASYNC"> F  </i>
   <i type="logical" name="LORBITALREAL"> F  </i>
  </separator>
  <separator name="miscellaneous" >
   <i type="int" name="IDIOT">     3</i>
   <i type="int" name="PHON_NSTRUCT">    -1</i>
   <i type="logical" name="LMUSIC"> F  </i>
   <v name="POMASS">     58.69000000</v>
   <v name="DARWINR">      0.00000000</v>
   <v name="DARWINV">      1.00000000</v>
   <i type="logical" name="LCORR"> T  </i>
  </separator>
  <i type="logical" name="GGA_COMPAT"> T  </i>
  <i type="logical" name="LBERRY"> F  </i>
  <i type="int" name="ICORELEVEL">     0</i>
  <i type="logical" name="LDAU"> F  </i>
  <i type="int" name="I_CONSTRAINED_M">     0</i>
  <separator name="electronic exchange-correlation" >
   <i type="string" name="GGA">--</i>
   <i type="int" name="VOSKOWN">     0</i>
   <i type="logical" name="LHFCALC"> F  </i>
   <i type="string" name="PRECFOCK"></i>
   <i type="logical" name="LSYMGRAD"> F  </i>
   <i type="logical" name="LHFONE"> F  </i>
   <i type="logical" name="LRHFCALC"> F  </i>
   <i type="logical" name="LTHOMAS"> F  </i>
   <i type="logical" name="LMODELHF"> F  </i>
   <i type="logical" name="LFOCKACE"> F  </i>
   <i name="ENCUT4O">     -1.00000000</i>
   <i type="int" name="EXXOEP">     0</i>
   <i type="int" name="FOURORBIT">     0</i>
   <i name="AEXX">      0.00000000</i>
   <i name="HFALPHA">      0.00000000</i>
   <i name="MCALPHA">      0.00000000</i>
   <i name="ALDAX">      1.00000000</i>
   <i name="AGGAX">      1.00000000</i>
   <i name="ALDAC">      1.00000000</i>
   <i name="AGGAC">      1.00000000</i>
   <i type="int" name="NKREDX">     1</i>
   <i type="int" name="NKREDY">     1</i>
   <i type="int" name="NKREDZ">     1</i>
   <i type="logical" name="SHIFTRED"> F  </i>
   <i type="logical" name="ODDONLY"> F  </i>
   <i type="logical" name="EVENONLY"> F  </i>
   <i type="int" name="LMAXFOCK">     0</i>
   <i type="int" name="NMAXFOCKAE">     0</i>
   <i type="logical" name="LFOCKAEDFT"> F  </i>
   <i name="HFSCREEN">      0.00000000</i>
   <i name="HFSCREENC">      0.00000000</i>
   <i type="int" name="NBANDSGWLOW">     0</i>
  </separator>
  <separator name="vdW DFT" >
   <i type="logical" name="LUSE_VDW"> F  </i>
   <i name="Zab_VDW">     -0.84910000</i>
   <i name="PARAM1">      0.12340000</i>
   <i name="PARAM2">      1.00000000</i>
   <i name="PARAM3">      0.00000000</i>
  </separator>
  <separator name="model GW" >
   <i type="int" name="MODEL_GW">     0</i>
   <i name="MODEL_EPS0">      6.59804655</i>
   <i name="MODEL_ALPHA">      1.00000000</i>
  </separator>
  <separator name="linear response parameters" >
   <i type="logical" name="LEPSILON"> F  </i>
   <i type="logical" name="LRPA"> F  </i>
   <i type="logical" name="LNABLA"> F  </i>
   <i type="logical" name="LVEL"> F  </i>
   <i name="CSHIFT">      0.10000000</i>
   <i name="OMEGAMAX">     -1.00000000</i>
   <i name="DEG_THRESHOLD">      0.00200000</i>
   <i name="RTIME">     -0.10000000</i>
   <i name="WPLASMAI">      0.00000000</i>
   <v name="DFIELD">      0.00000000      0.00000000      0.00000000</v>
   <v name="WPLASMA">      0.00000000      0.00000000      0.00000000      0.00000000      0.00000000      0.00000000      0.00000000      0.00000000      0.00000000</v>
  </separator>
  <separator name="orbital magnetization" >
   <i type="logical" name="NUCIND"> F  </i>
   <v name="MAGPOS">      0.00000000      0.00000000      0.00000000</v>
   <i type="logical" name="LNICSALL"> T  </i>
   <i type="logical" name="ORBITALMAG"> F  </i>
   <i type="logical" name="LMAGBLOCH"> F  </i>
   <i type="logical" name="LCHIMAG"> F  </i>
   <i type="logical" name="LGAUGE"> T  </i>
   <i type="int" name="MAGATOM">     0</i>
   <v name="MAGDIPOL">      0.00000000      0.00000000      0.00000000</v>
   <v name="AVECCONST">      0.00000000      0.00000000      0.00000000</v>
  </separator>
  <separator name="response functions" >
   <i type="logical" name="LFINITE_TEMPERATURE"> F  </i>
   <i type="logical" name="LADDER"> F  </i>
   <i type="logical" name="LRPAFORCE"> F  </i>
   <i type="logical" name="LFXC"> F  </i>
   <i type="logical" name="LHARTREE"> T  </i>
   <i type="int" name="IBSE">     0</i>
   <v type="int" name="KPOINT">    -1     0     0     0</v>
   <i type="logical" name="LTCTC"> F  </i>
   <i type="logical" name="LTCTE"> F  </i>
   <i type="logical" name="LTETE"> F  </i>
   <i type="logical" name="LTRIPLET"> F  </i>
   <i type="logical" name="LFXCEPS"> F  </i>
   <i type="logical" name="LFXHEG"> F  </i>
   <i type="int" name="NATURALO">     2</i>
   <i type="logical" name="LHOLEGF"> F  </i>
   <i type="logical" name="L2ORDER"> F  </i>
   <i type="logical" name="LDMP1"> F  </i>
   <i type="logical" name="LMP2LT"> F  </i>
   <i type="logical" name="LSMP2LT"> F  </i>
   <i type="logical" name="LGWLF"> F  </i>
   <i name="ENCUTGW">     -2.00000000</i>
   <i name="ENCUTGWSOFT">     -2.00000000</i>
   <i name="ENCUTLF">     -1.00000000</i>
   <i type="logical" name="LESF_SPLINES"> F  </i>
   <i type="int" name="LMAXMP2">    -1</i>
   <i name="SCISSOR">      0.00000000</i>
   <i type="int" name="NOMEGA">     0</i>
   <i type="int" name="NOMEGAR">     0</i>
   <i type="int" name="NBANDSGW">    -1</i>
   <i type="int" name="NBANDSO">    -1</i>
   <i type="int" name="NBANDSV">    -1</i>
   <i type="int" name="NELMGW">     1</i>
   <i type="int" name="NELMHF">     1</i>
   <i type="int" name="DIM">     3</i>
   <i type="int" name="IESPILON">     4</i>
   <i type="int" name="ANTIRES">     0</i>
   <i name="OMEGAMAX">    -30.00000000</i>
   <i name="OMEGAMIN">    -30.00000000</i>
   <i name="OMEGATL">   -200.00000000</i>
   <i type="int" name="OMEGAGRID">     0</i>
   <i name="CSHIFT">     -0.10000000</i>
   <i type="logical" name="LSELFENERGY"> F  </i>
   <i type="logical" name="LSPECTRAL"> F  </i>
   <i type="logical" name="LSPECTRALGW"> F  </i>
   <i type="logical" name="LSINGLES"> F  </i>
   <i type="logical" name="LFERMIGW"> F  </i>
   <i type="logical" name="ODDONLYGW"> F  </i>
   <i type="logical" name="EVENONLYGW"> F  </i>
   <i type="int" name="NKREDLFX">     1</i>
   <i type="int" name="NKREDLFY">     1</i>
   <i type="int" name="NKREDLFZ">     1</i>
   <i type="int" name="MAXMEM">  2800</i>
   <i type="int" name="TELESCOPE">     0</i>
   <i type="int" name="NTAUPAR">    -1</i>
   <i type="int" name="NOMEGAPAR">    -1</i>
   <i name="DAMP_NEWTON">      0.80000001</i>
   <i name="LAMBDA">      1.00000000</i>
  </separator>
  <separator name="External order field" >
   <i name="OFIELD_KAPPA">      0.00000000</i>
   <v name="OFIELD_K">      0.00000000      0.00000000      0.00000000</v>
   <i name="OFIELD_Q6_NEAR">      0.00000000</i>
   <i name="OFIELD_Q6_FAR">      0.00000000</i>
   <i name="OFIELD_A">      0.00000000</i>
  </separator>
  <separator name="optional k-points parameters" >
   <i type="int" name="KPOINTS_OPT_MODE">     1</i>
   <i type="logical" name="LKPOINTS_OPT"> F  </i>
  </separator>
 </parameters>
 <atominfo>
  <atoms>       1 </atoms>
  <types>       1 </types>
  <array name="atoms" >
   <dimension dim="1">ion</dimension>
   <field type="string">element</field>
   <field type="int">atomtype</field>
   <set>
    <rc><c>Ni</c><c>   1</c></rc>
   </set>
  </array>
  <array name="atomtypes" >
   <dimension dim="1">type</dimension>
   <field type="int">atomspertype</field>
   <field type="string">element</field>
   <field>mass</field>
   <field>valence</field>
   <field type="string">pseudopotential</field>
   <set>
    <rc><c>   1</c><c>Ni</c><c>     58.69000000</c><c>     10.00000000</c><c>  PAW_PBE Ni 02Aug2007                  </c></rc>
   </set>
  </array>
 </atominfo>
 <structure name="initialpos" >
  <crystal>
   <varray name="basis" >
    <v>       1.76500000       1.76500000       0.00000000 </v>
    <v>       0.00000000       1.76500000       1.76500000 </v>
    <v>       1.76500000       0.00000000       1.76500000 </v>
   </varray>
   <i name="volume">     10.99674425 </i>
   <varray name="rec_basis" >
    <v>       0.28328612       0.28328612      -0.28328612 </v>
    <v>      -0.28328612       0.28328612       0.28328612 </v>
    <v>       0.28328612      -0.28328612       0.28328612 </v>
   </varray>
  </crystal>
  <varray name="positions" >
   <v>       0.00000000       0.00000000       0.00000000 </v>
  </varray>
 </structure>
 <calculation>
  <scstep>
   <time name="dav">    0.11    0.11</time>
   <time name="total">    0.12    0.12</time>
   <energy>
    <i name="alphaZ">     46.37681830 </i>
    <i name="ewald">   -935.14218197 </i>
    <i name="hartreedc">   -225.99030613 </i>
    <i name="XCdc">     30.68046260 </i>
    <i name="pawpsdc">   1133.38289479 </i>
    <i name="pawaedc">  -1201.82330303 </i>
    <i name="eentropy">      0.00071181 </i>
    <i name="bandstr">     92.34391128 </i>
    <i name="atom">   1077.63607467 </i>
    <i name="e_fr_energy">     17.46508232 </i>
    <i name="e_wo_entrp">     17.46437051 </i>
    <i name="e_0_energy">     17.46484505 </i>
   </energy>
  </scstep>
  <scstep>
   <time name="dav">    0.11    0.11</time>
   <time name="total">    0.11    0.11</time>
   <energy>
    <i name="e_fr_energy">     -6.97599338 </i>
    <i name="e_wo_entrp">     -6.98152970 </i>
    <i name="e_0_energy">     -6.97783882 </i>
   </energy>
  </scstep>
  <scstep>
   <time name="dav">    0.11    0.11</time>
   <time name="total">    0.11    0.11</time>
   <energy>
    <i name="e_fr_energy">     -7.49362960 </i>
    <i name="e_wo_entrp">     -7.50116958 </i>
    <i name="e_0_energy">     -7.49614293 </i>
   </energy>
  </scstep>
  <scstep>
   <time name="dav">    0.11    0.11</time>
   <time name="total">    0.11    0.11</time>
   <energy>
    <i name="e_fr_energy">     -7.49611686 </i>
    <i name="e_wo_entrp">     -7.50366611 </i>
    <i name="e_0_energy">     -7.49863328 </i>
   </energy>
  </scstep>
  <scstep>
   <time name="dav">    0.11    0.11</time>
   <time name="total">    0.11    0.11</time>
   <energy>
    <i name="e_fr_energy">     -7.49615172 </i>
    <i name="e_wo_entrp">     -7.50370111 </i>
    <i name="e_0_energy">     -7.49866818 </i>
   </energy>
  </scstep>
  <scstep>
   <time name="dav">    0.09    0.09</time>
   <time name="total">    0.09    0.09</time>
   <energy>
    <i name="alphaZ">     46.37681830 </i>
    <i name="ewald">   -935.14218197 </i>
    <i name="hartreedc">   -225.99030613 </i>
    <i name="XCdc">     30.68046260 </i>
    <i name="pawpsdc">   1133.38289479 </i>
    <i name="pawaedc">  -1201.82330303 </i>
    <i name="eentropy">      0.00754940 </i>
    <i name="bandstr">     67.37583909 </i>
    <i name="atom">   1077.63607467 </i>
    <i name="e_fr_energy">     -7.49615229 </i>
    <i name="e_wo_entrp">     -7.50370169 </i>
    <i name="e_0_energy">     -7.49866875 </i>
   </energy>
  </scstep>
  <structure>
   <crystal>
    <varray name="basis" >
     <v>       1.76500000       1.76500000       0.00000000 </v>
     <v>       0.00000000       1.76500000       1.76500000 </v>
     <v>       1.76500000       0.00000000       1.76500000 </v>
    </varray>
    <i name="volume">     10.99674425 </i>
    <varray name="rec_basis" >
     <v>       0.28328612       0.28328612      -0.28328612 </v>
     <v>      -0.28328612       0.28328612       0.28328612 </v>
     <v>       0.28328612      -0.28328612       0.28328612 </v>
    </varray>
   </crystal>
   <varray name="positions" >
    <v>       0.00000000       0.00000000       0.00000000 </v>
   </varray>
  </structure>
  <varray name="forces" >
   <v>      -0.00000000      -0.00000000       0.00000000 </v>
  </varray>
  <varray name="stress" >
   <v>     413.77994952      -0.00000000      -0.00000000 </v>
   <v>       0.00000000     413.77994952       0.00000000 </v>
   <v>      -0.00000000       0.00000000     413.77994952 </v>
  </varray>
  <energy>
   <i name="e_fr_energy">     -7.49615229 </i>
   <i name="e_wo_entrp">     -7.50370169 </i>
   <i name="e_0_energy">     -7.49866875 </i>
  </energy>
  <time name="totalsc">    0.70    0.71</time>
  <eigenvalues>
   <array>
    <dimension dim="1">band</dimension>
    <dimension dim="2">kpoint</dimension>
    <dimension dim="3">spin</dimension>
    <field>eigene</field>
    <field>occ</field>
    <set>
     <set comment="spin 1">
      <set comment="kpoint 1">
       <r>    4.4840    1.0000 </r>
       <r>    6.8417    1.0000 </r>
       <r>    6.8417    1.0000 </r>
       <r>    8.6379    1.0246 </r>
       <r>    8.6379    1.0246 </r>
       <r>    8.9600    0.4632 </r>
       <r>   14.8503    0.0000 </r>
       <r>   31.3875    0.0000 </r>
       <r>   33.7291    0.0000 </r>
       <r>   33.7291    0.0000 </r>
       <r>   36.7598    0.0000 </r>
       <r>   36.7598    0.0000 </r>
      </set>
      <set comment="kpoint 2">
       <r>    4.4311    1.0000 </r>
       <r>    6.8602    1.0000 </r>
       <r>    6.8602    1.0000 </r>
       <r>    8.4765    1.0020 </r>
       <r>    8.5944    1.0150 </r>
       <r>    8.5944    1.0150 </r>
       <r>   15.6079    0.0000 </r>
       <r>   31.4858    0.0000 </r>
       <r>   33.7623    0.0000 </r>
       <r>   33.7623    0.0000 </r>
       <r>   36.9538    0.0000 </r>
       <r>   36.9538    0.0000 </r>
      </set>
      <set comment="kpoint 3">
       <r>    4.2173    1.0000 </r>
       <r>    6.9080    1.0000 </r>
       <r>    6.9080    1.0000 </r>
       <r>    7.5642    1.0000 </r>
       <r>    8.4705    1.0018 </r>
       <r>    8.4705    1.0018 </r>
       <r>   17.3912    0.0000 </r>
       <r>   31.7672    0.0000 </r>
       <r>   33.8649    0.0000 </r>
       <r>   33.8649    0.0000 </r>
       <r>   37.4507    0.0000 </r>
       <r>   37.4507    0.0000 </r>
      </set>
      <set comment="kpoint 4">
       <r>    3.7167    1.0000 </r>
       <r>    6.8743    1.0000 </r>
       <r>    6.9803    1.0000 </r>
       <r>    6.9803    1.0000 </r>
       <r>    8.2981    1.0000 </r>
       <r>    8.2981    1.0000 </r>
       <r>   19.6718    0.0000 </r>
       <r>   32.2015    0.0000 </r>
       <r>   34.0522    0.0000 </r>
       <r>   34.0522    0.0000 </r>
       <r>   38.3570    0.0000 </r>
       <r>   38.3570    0.0000 </r>
      </set>
      <set comment="kpoint 5">
       <r>    2.9403    1.0000 </r>
       <r>    6.5892    1.0000 </r>
       <r>    7.0493    1.0000 </r>
       <r>    7.0493    1.0000 </r>
       <r>    8.1083    1.0000 </r>
       <r>    8.1083    1.0000 </r>
       <r>   22.2327    0.0000 </r>
       <r>   32.7191    0.0000 </r>
       <r>   34.3332    0.0000 </r>
       <r>   34.3332    0.0000 </r>
       <r>   39.5113    0.0000 </r>
       <r>   39.5113    0.0000 </r>
      </set>
      <set comment="kpoint 6">
       <r>    2.0928    1.0000 </r>
       <r>    6.5666    1.0000 </r>
       <r>    7.0840    1.0000 </r>
       <r>    7.0840    1.0000 </r>
       <r>    7.9631    1.0000 </r>
       <r>    7.9631    1.0000 </r>
       <r>   24.9710    0.0000 </r>
       <r>   33.2213    0.0000 </r>
       <r>   34.7363    0.0000 </r>
       <r>   34.7363    0.0000 </r>
       <r>   40.7811    0.0000 </r>
       <r>   40.7842    0.0000 </r>
      </set>
      <set comment="kpoint 7">
       <r>    1.3418    1.0000 </r>
       <r>    6.6506    1.0000 </r>
       <r>    7.0493    1.0000 </r>
       <r>    7.0494    1.0000 </r>
       <r>    7.8930    1.0000 </r>
       <r>    7.8930    1.0000 </r>
       <r>   27.8181    0.0000 </r>
       <r>   33.6207    0.0000 </r>
       <r>   35.2215    0.0000 </r>
       <r>   35.2215    0.0000 </r>
       <r>   40.7482    0.0000 </r>
       <r>   41.5436    0.0000 </r>
      </set>
      <set comment="kpoint 8">
       <r>    0.7697    1.0000 </r>
       <r>    6.7592    1.0000 </r>
       <r>    6.9713    1.0000 </r>
       <r>    6.9713    1.0000 </r>
       <r>    7.8950    1.0000 </r>
       <r>    7.8950    1.0000 </r>
       <r>   30.6122    0.0000 </r>
       <r>   34.0025    0.0000 </r>
       <r>   35.7978    0.0000 </r>
       <r>   35.7978    0.0000 </r>
       <r>   40.8090    0.0000 </r>
       <r>   41.0516    0.0000 </r>
      </set>
      <set comment="kpoint 9">
       <r>    0.4149    1.0000 </r>
       <r>    6.8445    1.0000 </r>
       <r>    6.9016    1.0000 </r>
       <r>    6.9016    1.0000 </r>
       <r>    7.9186    1.0000 </r>
       <r>    7.9186    1.0000 </r>
       <r>   32.5130    0.0000 </r>
       <r>   35.1222    0.0000 </r>
       <r>   36.3721    0.0000 </r>
       <r>   36.3721    0.0000 </r>
       <r>   40.1609    0.0000 </r>
       <r>   40.1630    0.0000 </r>
      </set>
      <set comment="kpoint 10">
       <r>    0.2950    1.0000 </r>
       <r>    6.8747    1.0000 </r>
       <r>    6.8747    1.0000 </r>
       <r>    6.8747    1.0000 </r>
       <r>    7.9296    1.0000 </r>
       <r>    7.9296    1.0000 </r>
       <r>   32.8973    0.0000 </r>
       <r>   36.6576    0.0000 </r>
       <r>   36.6578    0.0000 </r>
       <r>   36.6578    0.0000 </r>
       <r>   39.7354    0.0000 </r>
       <r>   39.7355    0.0000 </r>
      </set>
      <set comment="kpoint 11">
       <r>    0.2950    1.0000 </r>
       <r>    6.8747    1.0000 </r>
       <r>    6.8747    1.0000 </r>
       <r>    6.8747    1.0000 </r>
       <r>    7.9296    1.0000 </r>
       <r>    7.9296    1.0000 </r>
       <r>   32.8973    0.0000 </r>
       <r>   36.6576    0.0000 </r>
       <r>   36.6578    0.0000 </r>
       <r>   36.6578    0.0000 </r>
       <r>   39.7354    0.0000 </r>
       <r>   39.7355    0.0000 </r>
      </set>
      <set comment="kpoint 12">
       <r>    0.4548    1.0000 </r>
       <r>    6.8182    1.0000 </r>
       <r>    6.9195    1.0000 </r>
       <r>    6.9195    1.0000 </r>
       <r>    7.8783    1.0000 </r>
       <r>    7.9500    1.0000 </r>
       <r>   32.5547    0.0000 </r>
       <r>   35.3985    0.0000 </r>
       <r>   35.3986    0.0000 </r>
       <r>   35.9073    0.0000 </r>
       <r>   40.4277    0.0000 </r>
       <r>   40.9752    0.0000 </r>
      </set>
      <set comment="kpoint 13">
       <r>    0.9262    1.0000 </r>
       <r>    6.6564    1.0000 </r>
       <r>    7.0497    1.0000 </r>
       <r>    7.0497    1.0000 </r>
       <r>    7.7341    1.0000 </r>
       <r>    8.0090    1.0000 </r>
       <r>   31.8099    0.0000 </r>
       <r>   33.3222    0.0000 </r>
       <r>   33.3223    0.0000 </r>
       <r>   34.3926    0.0000 </r>
       <r>   41.5009    0.0000 </r>
       <r>   42.1943    0.0000 </r>
      </set>
      <set comment="kpoint 14">
       <r>    1.6801    1.0000 </r>
       <r>    6.4137    1.0000 </r>
       <r>    7.2630    1.0000 </r>
       <r>    7.2630    1.0000 </r>
       <r>    7.5408    1.0000 </r>
       <r>    8.1002    1.0000 </r>
       <r>   31.0228    0.0000 </r>
       <r>   31.2399    0.0000 </r>
       <r>   31.2400    0.0000 </r>
       <r>   32.6890    0.0000 </r>
       <r>   38.1285    0.0000 </r>
       <r>   44.6953    0.0000 </r>
      </set>
      <set comment="kpoint 15">
       <r>    2.6461    1.0000 </r>
       <r>    6.1234    1.0000 </r>
       <r>    7.3770    1.0000 </r>
       <r>    7.5434    1.0000 </r>
       <r>    7.5434    1.0000 </r>
       <r>    8.2130    1.0000 </r>
       <r>   29.2805    0.0000 </r>
       <r>   29.2806    0.0000 </r>
       <r>   30.3434    0.0000 </r>
       <r>   30.5685    0.0000 </r>
       <r>   35.4118    0.0000 </r>
       <r>   47.1423    0.0000 </r>
      </set>
      <set comment="kpoint 16">
       <r>    3.6503    1.0000 </r>
       <r>    5.8185    1.0000 </r>
       <r>    7.4283    1.0000 </r>
       <r>    7.8745    1.0000 </r>
       <r>    7.8745    1.0000 </r>
       <r>    8.3345    1.0001 </r>
       <r>   27.5363    0.0000 </r>
       <r>   27.5364    0.0000 </r>
       <r>   27.8017    0.0000 </r>
       <r>   29.7844    0.0000 </r>
       <r>   33.7915    0.0000 </r>
       <r>   49.3833    0.0000 </r>
      </set>
      <set comment="kpoint 17">
       <r>    4.3558    1.0000 </r>
       <r>    5.5428    1.0000 </r>
       <r>    8.0475    1.0000 </r>
       <r>    8.2121    1.0000 </r>
       <r>    8.2121    1.0000 </r>
       <r>    8.4471    1.0011 </r>
       <r>   24.7582    0.0000 </r>
       <r>   26.0561    0.0000 </r>
       <r>   26.0561    0.0000 </r>
       <r>   29.3796    0.0000 </r>
       <r>   32.9584    0.0000 </r>
       <r>   51.8293    0.0000 </r>
      </set>
      <set comment="kpoint 18">
       <r>    4.6032    1.0000 </r>
       <r>    5.3234    1.0000 </r>
       <r>    8.5166    1.0044 </r>
       <r>    8.5166    1.0044 </r>
       <r>    8.5400    1.0066 </r>
       <r>    9.3440   -0.0090 </r>
       <r>   21.8478    0.0000 </r>
       <r>   24.9229    0.0000 </r>
       <r>   24.9230    0.0000 </r>
       <r>   29.1072    0.0000 </r>
       <r>   32.5433    0.0000 </r>
       <r>   53.2445    0.0000 </r>
      </set>
      <set comment="kpoint 19">
       <r>    4.6257    1.0000 </r>
       <r>    5.1829    1.0000 </r>
       <r>    8.6012    1.0164 </r>
       <r>    8.7323    1.0324 </r>
       <r>    8.7323    1.0324 </r>
       <r>   10.8689   -0.0000 </r>
       <r>   19.4309    0.0000 </r>
       <r>   24.2055    0.0000 </r>
       <r>   24.2056    0.0000 </r>
       <r>   28.9543    0.0000 </r>
       <r>   32.3473    0.0000 </r>
       <r>   53.4845    0.0000 </r>
      </set>
      <set comment="kpoint 20">
       <r>    4.6153    1.0000 </r>
       <r>    5.1328    1.0000 </r>
       <r>    8.6225    1.0210 </r>
       <r>    8.8083    0.9650 </r>
       <r>    8.8083    0.9650 </r>
       <r>   11.6738   -0.0000 </r>
       <r>   18.3392    0.0000 </r>
       <r>   23.9588    0.0000 </r>
       <r>   23.9589    0.0000 </r>
       <r>   28.8701    0.0000 </r>
       <r>   32.2908    0.0000 </r>
       <r>   53.5767    0.0000 </r>
      </set>
      <set comment="kpoint 21">
       <r>    4.6153    1.0000 </r>
       <r>    5.1328    1.0000 </r>
       <r>    8.6225    1.0210 </r>
       <r>    8.8083    0.9650 </r>
       <r>    8.8083    0.9650 </r>
       <r>   11.6738   -0.0000 </r>
       <r>   18.3392    0.0000 </r>
       <r>   23.9588    0.0000 </r>
       <r>   23.9589    0.0000 </r>
       <r>   28.8701    0.0000 </r>
       <r>   32.2908    0.0000 </r>
       <r>   53.5768    0.0000 </r>
      </set>
      <set comment="kpoint 22">
       <r>    4.6257    1.0000 </r>
       <r>    5.1394    1.0000 </r>
       <r>    8.6141    1.0191 </r>
       <r>    8.7630    1.0180 </r>
       <r>    8.8052    0.9701 </r>
       <r>   11.7392   -0.0000 </r>
       <r>   18.3443    0.0000 </r>
       <r>   23.7258    0.0000 </r>
       <r>   23.9894    0.0000 </r>
       <r>   29.0164    0.0000 </r>
       <r>   32.4148    0.0000 </r>
       <r>   53.4128    0.0000 </r>
      </set>
      <set comment="kpoint 23">
       <r>    4.6565    1.0000 </r>
       <r>    5.1599    1.0000 </r>
       <r>    8.5890    1.0140 </r>
       <r>    8.6396    1.0250 </r>
       <r>    8.7958    0.9841 </r>
       <r>   11.9247   -0.0000 </r>
       <r>   18.3602    0.0000 </r>
       <r>   23.1245    0.0000 </r>
       <r>   24.0804    0.0000 </r>
       <r>   29.3581    0.0000 </r>
       <r>   32.8024    0.0000 </r>
       <r>   52.9701    0.0000 </r>
      </set>
      <set comment="kpoint 24">
       <r>    4.7068    1.0000 </r>
       <r>    5.1924    1.0000 </r>
       <r>    8.4597    1.0014 </r>
       <r>    8.5484    1.0076 </r>
       <r>    8.7802    1.0030 </r>
       <r>   12.2048   -0.0000 </r>
       <r>   18.3849    0.0000 </r>
       <r>   22.3126    0.0000 </r>
       <r>   24.2310    0.0000 </r>
       <r>   29.6897    0.0000 </r>
       <r>   33.4696    0.0000 </r>
       <r>   52.3474    0.0000 </r>
      </set>
      <set comment="kpoint 25">
       <r>    4.7749    1.0000 </r>
       <r>    5.2370    1.0000 </r>
       <r>    8.2495    1.0000 </r>
       <r>    8.4937    1.0028 </r>
       <r>    8.7584    1.0211 </r>
       <r>   12.5554   -0.0000 </r>
       <r>   18.4167    0.0000 </r>
       <r>   21.4053    0.0000 </r>
       <r>   24.4395    0.0000 </r>
       <r>   29.9478    0.0000 </r>
       <r>   34.3869    0.0000 </r>
       <r>   51.6291    0.0000 </r>
      </set>
      <set comment="kpoint 26">
       <r>    4.8592    1.0000 </r>
       <r>    5.2940    1.0000 </r>
       <r>    8.0273    1.0000 </r>
       <r>    8.4285    1.0007 </r>
       <r>    8.7306    1.0328 </r>
       <r>   12.9594   -0.0000 </r>
       <r>   18.4514    0.0000 </r>
       <r>   20.4784    0.0000 </r>
       <r>   24.7056    0.0000 </r>
       <r>   30.1473    0.0000 </r>
       <r>   35.4960    0.0000 </r>
       <r>   50.8721    0.0000 </r>
      </set>
      <set comment="kpoint 27">
       <r>    4.9565    1.0000 </r>
       <r>    5.3591    1.0000 </r>
       <r>    7.8034    1.0000 </r>
       <r>    8.3519    1.0001 </r>
       <r>    8.6967    1.0351 </r>
       <r>   13.4042   -0.0000 </r>
       <r>   18.4357    0.0000 </r>
       <r>   19.5948    0.0000 </r>
       <r>   25.0236    0.0000 </r>
       <r>   30.2919    0.0000 </r>
       <r>   36.7327    0.0000 </r>
       <r>   50.1000    0.0000 </r>
      </set>
      <set comment="kpoint 28">
       <r>    5.0643    1.0000 </r>
       <r>    5.4320    1.0000 </r>
       <r>    7.5857    1.0000 </r>
       <r>    8.2682    1.0000 </r>
       <r>    8.6569    1.0289 </r>
       <r>   13.8829   -0.0000 </r>
       <r>   18.1214    0.0000 </r>
       <r>   19.0357    0.0000 </r>
       <r>   25.3922    0.0000 </r>
       <r>   30.4170    0.0000 </r>
       <r>   38.0625    0.0000 </r>
       <r>   49.3364    0.0000 </r>
      </set>
      <set comment="kpoint 29">
       <r>    5.1796    1.0000 </r>
       <r>    5.5097    1.0000 </r>
       <r>    7.3790    1.0000 </r>
       <r>    8.1802    1.0000 </r>
       <r>    8.6115    1.0186 </r>
       <r>   14.3910   -0.0000 </r>
       <r>   17.3474    0.0000 </r>
       <r>   18.9763    0.0000 </r>
       <r>   25.8088    0.0000 </r>
       <r>   30.5372    0.0000 </r>
       <r>   39.4621    0.0000 </r>
       <r>   48.5912    0.0000 </r>
      </set>
      <set comment="kpoint 30">
       <r>    5.2991    1.0000 </r>
       <r>    5.5889    1.0000 </r>
       <r>    7.1863    1.0000 </r>
       <r>    8.0903    1.0000 </r>
       <r>    8.5606    1.0093 </r>
       <r>   14.9252    0.0000 </r>
       <r>   16.4661    0.0000 </r>
       <r>   19.0752    0.0000 </r>
       <r>   26.2707    0.0000 </r>
       <r>   30.6621    0.0000 </r>
       <r>   40.9164    0.0000 </r>
       <r>   47.8716    0.0000 </r>
      </set>
      <set comment="kpoint 31">
       <r>    5.2991    1.0000 </r>
       <r>    5.5889    1.0000 </r>
       <r>    7.1863    1.0000 </r>
       <r>    8.0903    1.0000 </r>
       <r>    8.5606    1.0093 </r>
       <r>   14.9252    0.0000 </r>
       <r>   16.4661    0.0000 </r>
       <r>   19.0752    0.0000 </r>
       <r>   26.2707    0.0000 </r>
       <r>   30.6621    0.0000 </r>
       <r>   40.9164    0.0000 </r>
       <r>   47.8716    0.0000 </r>
      </set>
      <set comment="kpoint 32">
       <r>    5.6232    1.0000 </r>
       <r>    5.8180    1.0000 </r>
       <r>    6.7086    1.0000 </r>
       <r>    7.8331    1.0000 </r>
       <r>    8.3785    1.0002 </r>
       <r>   13.9208   -0.0000 </r>
       <r>   16.6674    0.0000 </r>
       <r>   19.6743    0.0000 </r>
       <r>   27.8972    0.0000 </r>
       <r>   31.1302    0.0000 </r>
       <r>   45.5065    0.0000 </r>
       <r>   45.9173    0.0000 </r>
      </set>
      <set comment="kpoint 33">
       <r>    5.5944    1.0000 </r>
       <r>    6.1430    1.0000 </r>
       <r>    6.3939    1.0000 </r>
       <r>    7.6274    1.0000 </r>
       <r>    8.1524    1.0000 </r>
       <r>   11.7741   -0.0000 </r>
       <r>   18.5935    0.0000 </r>
       <r>   20.6516    0.0000 </r>
       <r>   29.8398    0.0000 </r>
       <r>   31.8122    0.0000 </r>
       <r>   43.6183    0.0000 </r>
       <r>   44.2459    0.0000 </r>
      </set>
      <set comment="kpoint 34">
       <r>    5.0614    1.0000 </r>
       <r>    6.2436    1.0000 </r>
       <r>    6.4980    1.0000 </r>
       <r>    7.5113    1.0000 </r>
       <r>    7.9084    1.0000 </r>
       <r>   10.1843   -0.0000 </r>
       <r>   20.6996    0.0000 </r>
       <r>   22.0613    0.0000 </r>
       <r>   32.0545    0.0000 </r>
       <r>   32.8020    0.0000 </r>
       <r>   41.3335    0.0000 </r>
       <r>   42.9367    0.0000 </r>
      </set>
      <set comment="kpoint 35">
       <r>    4.0798    1.0000 </r>
       <r>    6.2364    1.0000 </r>
       <r>    6.7987    1.0000 </r>
       <r>    7.4882    1.0000 </r>
       <r>    7.6507    1.0000 </r>
       <r>    9.1576   -0.0281 </r>
       <r>   22.9616    0.0000 </r>
       <r>   23.8884    0.0000 </r>
       <r>   34.1143    0.0000 </r>
       <r>   34.4799    0.0000 </r>
       <r>   39.3306    0.0000 </r>
       <r>   41.8544    0.0000 </r>
      </set>
      <set comment="kpoint 36">
       <r>    2.9187    1.0000 </r>
       <r>    6.3405    1.0000 </r>
       <r>    7.0117    1.0000 </r>
       <r>    7.4045    1.0000 </r>
       <r>    7.5524    1.0000 </r>
       <r>    8.5224    1.0049 </r>
       <r>   25.3674    0.0000 </r>
       <r>   26.1282    0.0000 </r>
       <r>   35.7661    0.0000 </r>
       <r>   37.0706    0.0000 </r>
       <r>   37.6509    0.0000 </r>
       <r>   41.0480    0.0000 </r>
      </set>
      <set comment="kpoint 37">
       <r>    1.8426    1.0000 </r>
       <r>    6.5081    1.0000 </r>
       <r>    7.0924    1.0000 </r>
       <r>    7.1872    1.0000 </r>
       <r>    7.6642    1.0000 </r>
       <r>    8.1396    1.0000 </r>
       <r>   27.8848    0.0000 </r>
       <r>   28.7208    0.0000 </r>
       <r>   36.3411    0.0000 </r>
       <r>   37.6054    0.0000 </r>
       <r>   38.5717    0.0000 </r>
       <r>   40.4381    0.0000 </r>
      </set>
      <set comment="kpoint 38">
       <r>    1.0026    1.0000 </r>
       <r>    6.6886    1.0000 </r>
       <r>    7.0186    1.0000 </r>
       <r>    7.0302    1.0000 </r>
       <r>    7.7919    1.0000 </r>
       <r>    7.9738    1.0000 </r>
       <r>   30.4088    0.0000 </r>
       <r>   31.5990    0.0000 </r>
       <r>   35.5255    0.0000 </r>
       <r>   37.6617    0.0000 </r>
       <r>   39.3016    0.0000 </r>
       <r>   40.0325    0.0000 </r>
      </set>
      <set comment="kpoint 39">
       <r>    0.4746    1.0000 </r>
       <r>    6.8251    1.0000 </r>
       <r>    6.9115    1.0000 </r>
       <r>    6.9226    1.0000 </r>
       <r>    7.8925    1.0000 </r>
       <r>    7.9342    1.0000 </r>
       <r>   32.3547    0.0000 </r>
       <r>   34.6166    0.0000 </r>
       <r>   35.6718    0.0000 </r>
       <r>   36.9179    0.0000 </r>
       <r>   39.8117    0.0000 </r>
       <r>   40.2585    0.0000 </r>
      </set>
      <set comment="kpoint 40">
       <r>    0.2950    1.0000 </r>
       <r>    6.8747    1.0000 </r>
       <r>    6.8747    1.0000 </r>
       <r>    6.8747    1.0000 </r>
       <r>    7.9296    1.0000 </r>
       <r>    7.9296    1.0000 </r>
       <r>   32.8973    0.0000 </r>
       <r>   36.6576    0.0000 </r>
       <r>   36.6578    0.0000 </r>
       <r>   36.6578    0.0000 </r>
       <r>   39.7354    0.0000 </r>
       <r>   39.7355    0.0000 </r>
      </set>
     </set>
     <set comment="spin 2">
      <set comment="kpoint 1">
       <r>    4.8637    1.0000 </r>
       <r>    7.4476    1.0000 </r>
       <r>    7.4476    1.0000 </r>
       <r>    8.8854    0.7628 </r>
       <r>    9.3573   -0.0072 </r>
       <r>    9.3573   -0.0072 </r>
       <r>   15.2147    0.0000 </r>
       <r>   31.2297    0.0000 </r>
       <r>   33.8011    0.0000 </r>
       <r>   33.8011    0.0000 </r>
       <r>   36.7901    0.0000 </r>
       <r>   36.7901    0.0000 </r>
      </set>
      <set comment="kpoint 2">
       <r>    4.7766    1.0000 </r>
       <r>    7.4680    1.0000 </r>
       <r>    7.4680    1.0000 </r>
       <r>    8.4909    1.0027 </r>
       <r>    9.3106   -0.0146 </r>
       <r>    9.3106   -0.0146 </r>
       <r>   15.9171    0.0000 </r>
       <r>   31.3291    0.0000 </r>
       <r>   33.8355    0.0000 </r>
       <r>   33.8355    0.0000 </r>
       <r>   36.9829    0.0000 </r>
       <r>   36.9829    0.0000 </r>
      </set>
      <set comment="kpoint 3">
       <r>    4.4538    1.0000 </r>
       <r>    7.5221    1.0000 </r>
       <r>    7.5221    1.0000 </r>
       <r>    7.7673    1.0000 </r>
       <r>    9.1776   -0.0339 </r>
       <r>    9.1776   -0.0339 </r>
       <r>   17.6192    0.0000 </r>
       <r>   31.6142    0.0000 </r>
       <r>   33.9395    0.0000 </r>
       <r>   33.9395    0.0000 </r>
       <r>   37.4805    0.0000 </r>
       <r>   37.4806    0.0000 </r>
      </set>
      <set comment="kpoint 4">
       <r>    3.8083    1.0000 </r>
       <r>    7.2794    1.0000 </r>
       <r>    7.6041    1.0000 </r>
       <r>    7.6041    1.0000 </r>
       <r>    8.9902    0.3388 </r>
       <r>    8.9902    0.3388 </r>
       <r>   19.8393    0.0000 </r>
       <r>   32.0535    0.0000 </r>
       <r>   34.1255    0.0000 </r>
       <r>   34.1255    0.0000 </r>
       <r>   38.3828    0.0000 </r>
       <r>   38.3828    0.0000 </r>
      </set>
      <set comment="kpoint 5">
       <r>    2.9418    1.0000 </r>
       <r>    7.1244    1.0000 </r>
       <r>    7.6875    1.0000 </r>
       <r>    7.6875    1.0000 </r>
       <r>    8.7815    1.0015 </r>
       <r>    8.7815    1.0015 </r>
       <r>   22.3548    0.0000 </r>
       <r>   32.5764    0.0000 </r>
       <r>   34.4007    0.0000 </r>
       <r>   34.4007    0.0000 </r>
       <r>   39.5301    0.0000 </r>
       <r>   39.5301    0.0000 </r>
      </set>
      <set comment="kpoint 6">
       <r>    2.0604    1.0000 </r>
       <r>    7.1658    1.0000 </r>
       <r>    7.7393    1.0000 </r>
       <r>    7.7393    1.0000 </r>
       <r>    8.6151    1.0194 </r>
       <r>    8.6151    1.0194 </r>
       <r>   25.0543    0.0000 </r>
       <r>   33.0829    0.0000 </r>
       <r>   34.7912    0.0000 </r>
       <r>   34.7912    0.0000 </r>
       <r>   40.7798    0.0000 </r>
       <r>   40.7854    0.0000 </r>
      </set>
      <set comment="kpoint 7">
       <r>    1.2986    1.0000 </r>
       <r>    7.2838    1.0000 </r>
       <r>    7.7175    1.0000 </r>
       <r>    7.7175    1.0000 </r>
       <r>    8.5303    1.0056 </r>
       <r>    8.5303    1.0056 </r>
       <r>   27.8622    0.0000 </r>
       <r>   33.4868    0.0000 </r>
       <r>   35.2594    0.0000 </r>
       <r>   35.2594    0.0000 </r>
       <r>   40.6774    0.0000 </r>
       <r>   41.5076    0.0000 </r>
      </set>
      <set comment="kpoint 8">
       <r>    0.7234    1.0000 </r>
       <r>    7.4126    1.0000 </r>
       <r>    7.6423    1.0000 </r>
       <r>    7.6423    1.0000 </r>
       <r>    8.5283    1.0054 </r>
       <r>    8.5283    1.0054 </r>
       <r>   30.5965    0.0000 </r>
       <r>   33.8908    0.0000 </r>
       <r>   35.8128    0.0000 </r>
       <r>   35.8128    0.0000 </r>
       <r>   40.7444    0.0000 </r>
       <r>   41.0376    0.0000 </r>
      </set>
      <set comment="kpoint 9">
       <r>    0.3680    1.0000 </r>
       <r>    7.5089    1.0000 </r>
       <r>    7.5708    1.0000 </r>
       <r>    7.5708    1.0000 </r>
       <r>    8.5531    1.0082 </r>
       <r>    8.5531    1.0082 </r>
       <r>   32.3779    0.0000 </r>
       <r>   35.0912    0.0000 </r>
       <r>   36.3591    0.0000 </r>
       <r>   36.3591    0.0000 </r>
       <r>   40.1865    0.0000 </r>
       <r>   40.1916    0.0000 </r>
      </set>
      <set comment="kpoint 10">
       <r>    0.2479    1.0000 </r>
       <r>    7.5429    1.0000 </r>
       <r>    7.5429    1.0000 </r>
       <r>    7.5429    1.0000 </r>
       <r>    8.5650    1.0099 </r>
       <r>    8.5650    1.0099 </r>
       <r>   32.7255    0.0000 </r>
       <r>   36.6264    0.0000 </r>
       <r>   36.6267    0.0000 </r>
       <r>   36.6267    0.0000 </r>
       <r>   39.7825    0.0000 </r>
       <r>   39.7825    0.0000 </r>
      </set>
      <set comment="kpoint 11">
       <r>    0.2479    1.0000 </r>
       <r>    7.5429    1.0000 </r>
       <r>    7.5429    1.0000 </r>
       <r>    7.5429    1.0000 </r>
       <r>    8.5650    1.0099 </r>
       <r>    8.5650    1.0099 </r>
       <r>   32.7255    0.0000 </r>
       <r>   36.6264    0.0000 </r>
       <r>   36.6267    0.0000 </r>
       <r>   36.6267    0.0000 </r>
       <r>   39.7824    0.0000 </r>
       <r>   39.7825    0.0000 </r>
      </set>
      <set comment="kpoint 12">
       <r>    0.4079    1.0000 </r>
       <r>    7.4819    1.0000 </r>
       <r>    7.5889    1.0000 </r>
       <r>    7.5889    1.0000 </r>
       <r>    8.5101    1.0039 </r>
       <r>    8.5863    1.0135 </r>
       <r>   32.4112    0.0000 </r>
       <r>   35.4085    0.0000 </r>
       <r>   35.4087    0.0000 </r>
       <r>   35.8564    0.0000 </r>
       <r>   40.4510    0.0000 </r>
       <r>   40.9710    0.0000 </r>
      </set>
      <set comment="kpoint 13">
       <r>    0.8801    1.0000 </r>
       <r>    7.3075    1.0000 </r>
       <r>    7.7234    1.0000 </r>
       <r>    7.7234    1.0000 </r>
       <r>    8.3547    1.0001 </r>
       <r>    8.6477    1.0268 </r>
       <r>   31.7194    0.0000 </r>
       <r>   33.3627    0.0000 </r>
       <r>   33.3628    0.0000 </r>
       <r>   34.3208    0.0000 </r>
       <r>   41.6724    0.0000 </r>
       <r>   42.1798    0.0000 </r>
      </set>
      <set comment="kpoint 14">
       <r>    1.6378    1.0000 </r>
       <r>    7.0464    1.0000 </r>
       <r>    7.9438    1.0000 </r>
       <r>    7.9438    1.0000 </r>
       <r>    8.1400    1.0000 </r>
       <r>    8.7427    1.0290 </r>
       <r>   30.9831    0.0000 </r>
       <r>   31.2925    0.0000 </r>
       <r>   31.2926    0.0000 </r>
       <r>   32.6125    0.0000 </r>
       <r>   38.3248    0.0000 </r>
       <r>   44.6477    0.0000 </r>
      </set>
      <set comment="kpoint 15">
       <r>    2.6188    1.0000 </r>
       <r>    6.7350    1.0000 </r>
       <r>    7.9378    1.0000 </r>
       <r>    8.2351    1.0000 </r>
       <r>    8.2351    1.0000 </r>
       <r>    8.8602    0.8448 </r>
       <r>   29.3338    0.0000 </r>
       <r>   29.3339    0.0000 </r>
       <r>   30.3473    0.0000 </r>
       <r>   30.5278    0.0000 </r>
       <r>   35.5961    0.0000 </r>
       <r>   47.0452    0.0000 </r>
      </set>
      <set comment="kpoint 16">
       <r>    3.6777    1.0000 </r>
       <r>    6.4095    1.0000 </r>
       <r>    7.9064    1.0000 </r>
       <r>    8.5804    1.0124 </r>
       <r>    8.5804    1.0124 </r>
       <r>    8.9871    0.3515 </r>
       <r>   27.5813    0.0000 </r>
       <r>   27.5815    0.0000 </r>
       <r>   27.8331    0.0000 </r>
       <r>   29.8263    0.0000 </r>
       <r>   33.9381    0.0000 </r>
       <r>   49.2896    0.0000 </r>
      </set>
      <set comment="kpoint 17">
       <r>    4.5158    1.0000 </r>
       <r>    6.1155    1.0000 </r>
       <r>    8.3581    1.0001 </r>
       <r>    8.9360    0.5648 </r>
       <r>    8.9360    0.5648 </r>
       <r>    9.1047    0.0189 </r>
       <r>   24.8513    0.0000 </r>
       <r>   26.0873    0.0000 </r>
       <r>   26.0874    0.0000 </r>
       <r>   29.4498    0.0000 </r>
       <r>   33.0845    0.0000 </r>
       <r>   51.7508    0.0000 </r>
      </set>
      <set comment="kpoint 18">
       <r>    4.8945    1.0000 </r>
       <r>    5.8821    1.0000 </r>
       <r>    9.2019   -0.0353 </r>
       <r>    9.2591   -0.0259 </r>
       <r>    9.2591   -0.0259 </r>
       <r>    9.4780   -0.0006 </r>
       <r>   21.9955    0.0000 </r>
       <r>   24.9376    0.0000 </r>
       <r>   24.9377    0.0000 </r>
       <r>   29.1977    0.0000 </r>
       <r>   32.6659    0.0000 </r>
       <r>   53.2338    0.0000 </r>
      </set>
      <set comment="kpoint 19">
       <r>    4.9776    1.0000 </r>
       <r>    5.7328    1.0000 </r>
       <r>    9.2659   -0.0243 </r>
       <r>    9.4896   -0.0005 </r>
       <r>    9.4896   -0.0005 </r>
       <r>   10.8798   -0.0000 </r>
       <r>   19.6437    0.0000 </r>
       <r>   24.2063    0.0000 </r>
       <r>   24.2065    0.0000 </r>
       <r>   29.0568    0.0000 </r>
       <r>   32.4725    0.0000 </r>
       <r>   53.4587    0.0000 </r>
      </set>
      <set comment="kpoint 20">
       <r>    4.9828    1.0000 </r>
       <r>    5.6799    1.0000 </r>
       <r>    9.2882   -0.0192 </r>
       <r>    9.5716   -0.0001 </r>
       <r>    9.5716   -0.0001 </r>
       <r>   11.6209   -0.0000 </r>
       <r>   18.6010    0.0000 </r>
       <r>   23.9542    0.0000 </r>
       <r>   23.9543    0.0000 </r>
       <r>   28.9786    0.0000 </r>
       <r>   32.4176    0.0000 </r>
       <r>   53.5500    0.0000 </r>
      </set>
      <set comment="kpoint 21">
       <r>    4.9828    1.0000 </r>
       <r>    5.6799    1.0000 </r>
       <r>    9.2882   -0.0192 </r>
       <r>    9.5716   -0.0001 </r>
       <r>    9.5716   -0.0001 </r>
       <r>   11.6209   -0.0000 </r>
       <r>   18.6010    0.0000 </r>
       <r>   23.9542    0.0000 </r>
       <r>   23.9543    0.0000 </r>
       <r>   28.9786    0.0000 </r>
       <r>   32.4176    0.0000 </r>
       <r>   53.5460    0.0000 </r>
      </set>
      <set comment="kpoint 22">
       <r>    4.9937    1.0000 </r>
       <r>    5.6864    1.0000 </r>
       <r>    9.2791   -0.0213 </r>
       <r>    9.5079   -0.0003 </r>
       <r>    9.5683   -0.0001 </r>
       <r>   11.7046   -0.0000 </r>
       <r>   18.6054    0.0000 </r>
       <r>   23.7289    0.0000 </r>
       <r>   23.9855    0.0000 </r>
       <r>   29.1192    0.0000 </r>
       <r>   32.5398    0.0000 </r>
       <r>   53.3801    0.0000 </r>
      </set>
      <set comment="kpoint 23">
       <r>    5.0261    1.0000 </r>
       <r>    5.7063    1.0000 </r>
       <r>    9.2521   -0.0275 </r>
       <r>    9.3432   -0.0091 </r>
       <r>    9.5584   -0.0001 </r>
       <r>   11.9312   -0.0000 </r>
       <r>   18.6190    0.0000 </r>
       <r>   23.1441    0.0000 </r>
       <r>   24.0786    0.0000 </r>
       <r>   29.4496    0.0000 </r>
       <r>   32.9216    0.0000 </r>
       <r>   52.9332    0.0000 </r>
      </set>
      <set comment="kpoint 24">
       <r>    5.0790    1.0000 </r>
       <r>    5.7378    1.0000 </r>
       <r>    9.1202   -0.0006 </r>
       <r>    9.2083   -0.0349 </r>
       <r>    9.5421   -0.0001 </r>
       <r>   12.2542   -0.0000 </r>
       <r>   18.6401    0.0000 </r>
       <r>   22.3503    0.0000 </r>
       <r>   24.2325    0.0000 </r>
       <r>   29.7740    0.0000 </r>
       <r>   33.5790    0.0000 </r>
       <r>   52.3063    0.0000 </r>
      </set>
      <set comment="kpoint 25">
       <r>    5.1512    1.0000 </r>
       <r>    5.7805    1.0000 </r>
       <r>    8.8744    0.8004 </r>
       <r>    9.1495   -0.0242 </r>
       <r>    9.5192   -0.0002 </r>
       <r>   12.6404   -0.0000 </r>
       <r>   18.6666    0.0000 </r>
       <r>   21.4608    0.0000 </r>
       <r>   24.4455    0.0000 </r>
       <r>   30.0280    0.0000 </r>
       <r>   34.4848    0.0000 </r>
       <r>   51.5850    0.0000 </r>
      </set>
      <set comment="kpoint 26">
       <r>    5.2411    1.0000 </r>
       <r>    5.8338    1.0000 </r>
       <r>    8.6249    1.0216 </r>
       <r>    9.0792    0.0631 </r>
       <r>    9.4900   -0.0005 </r>
       <r>   13.0714   -0.0000 </r>
       <r>   18.6929    0.0000 </r>
       <r>   20.5523    0.0000 </r>
       <r>   24.7170    0.0000 </r>
       <r>   30.2230    0.0000 </r>
       <r>   35.5830    0.0000 </r>
       <r>   50.8256    0.0000 </r>
      </set>
      <set comment="kpoint 27">
       <r>    5.3461    1.0000 </r>
       <r>    5.8934    1.0000 </r>
       <r>    8.3811    1.0002 </r>
       <r>    8.9971    0.3117 </r>
       <r>    9.4545   -0.0011 </r>
       <r>   13.5358   -0.0000 </r>
       <r>   18.6574    0.0000 </r>
       <r>   19.6982    0.0000 </r>
       <r>   25.0410    0.0000 </r>
       <r>   30.3634    0.0000 </r>
       <r>   36.8105    0.0000 </r>
       <r>   50.0537    0.0000 </r>
      </set>
      <set comment="kpoint 28">
       <r>    5.4641    1.0000 </r>
       <r>    5.9574    1.0000 </r>
       <r>    8.1492    1.0000 </r>
       <r>    8.9078    0.6796 </r>
       <r>    9.4128   -0.0026 </r>
       <r>   14.0285   -0.0000 </r>
       <r>   18.2809    0.0000 </r>
       <r>   19.2108    0.0000 </r>
       <r>   25.4160    0.0000 </r>
       <r>   30.4831    0.0000 </r>
       <r>   38.1328    0.0000 </r>
       <r>   49.2899    0.0000 </r>
      </set>
      <set comment="kpoint 29">
       <r>    5.5926    1.0000 </r>
       <r>    6.0221    1.0000 </r>
       <r>    7.9326    1.0000 </r>
       <r>    8.8139    0.9553 </r>
       <r>    9.3652   -0.0064 </r>
       <r>   14.5462    0.0000 </r>
       <r>   17.4901    0.0000 </r>
       <r>   19.1783    0.0000 </r>
       <r>   25.8391    0.0000 </r>
       <r>   30.5968    0.0000 </r>
       <r>   39.5263    0.0000 </r>
       <r>   48.5479    0.0000 </r>
      </set>
      <set comment="kpoint 30">
       <r>    5.7290    1.0000 </r>
       <r>    6.0824    1.0000 </r>
       <r>    7.7332    1.0000 </r>
       <r>    8.7183    1.0349 </r>
       <r>    9.3117   -0.0144 </r>
       <r>   15.0868    0.0000 </r>
       <r>   16.6232    0.0000 </r>
       <r>   19.2744    0.0000 </r>
       <r>   26.3075    0.0000 </r>
       <r>   30.7142    0.0000 </r>
       <r>   40.9755    0.0000 </r>
       <r>   47.8293    0.0000 </r>
      </set>
      <set comment="kpoint 31">
       <r>    5.7290    1.0000 </r>
       <r>    6.0824    1.0000 </r>
       <r>    7.7332    1.0000 </r>
       <r>    8.7183    1.0349 </r>
       <r>    9.3117   -0.0144 </r>
       <r>   15.0868    0.0000 </r>
       <r>   16.6232    0.0000 </r>
       <r>   19.2744    0.0000 </r>
       <r>   26.3075    0.0000 </r>
       <r>   30.7142    0.0000 </r>
       <r>   40.9755    0.0000 </r>
       <r>   47.8296    0.0000 </r>
      </set>
      <set comment="kpoint 32">
       <r>    6.1328    1.0000 </r>
       <r>    6.2026    1.0000 </r>
       <r>    7.2488    1.0000 </r>
       <r>    8.4460    1.0010 </r>
       <r>    9.1205   -0.0009 </r>
       <r>   14.1627   -0.0000 </r>
       <r>   16.8347    0.0000 </r>
       <r>   19.8423    0.0000 </r>
       <r>   27.9523    0.0000 </r>
       <r>   31.1561    0.0000 </r>
       <r>   45.5529    0.0000 </r>
       <r>   45.8981    0.0000 </r>
      </set>
      <set comment="kpoint 33">
       <r>    5.9315    1.0000 </r>
       <r>    6.6180    1.0000 </r>
       <r>    6.9405    1.0000 </r>
       <r>    8.2305    1.0000 </r>
       <r>    8.8837    0.7690 </r>
       <r>   12.1508   -0.0000 </r>
       <r>   18.7537    0.0000 </r>
       <r>   20.7847    0.0000 </r>
       <r>   29.9093    0.0000 </r>
       <r>   31.8111    0.0000 </r>
       <r>   43.5126    0.0000 </r>
       <r>   44.2210    0.0000 </r>
      </set>
      <set comment="kpoint 34">
       <r>    5.2211    1.0000 </r>
       <r>    6.8043    1.0000 </r>
       <r>    7.0308    1.0000 </r>
       <r>    8.1102    1.0000 </r>
       <r>    8.6271    1.0221 </r>
       <r>   10.7195   -0.0000 </r>
       <r>   20.8442    0.0000 </r>
       <r>   22.1625    0.0000 </r>
       <r>   32.1319    0.0000 </r>
       <r>   32.7781    0.0000 </r>
       <r>   41.2288    0.0000 </r>
       <r>   42.9224    0.0000 </r>
      </set>
      <set comment="kpoint 35">
       <r>    4.1148    1.0000 </r>
       <r>    6.8168    1.0000 </r>
       <r>    7.3764    1.0000 </r>
       <r>    8.0889    1.0000 </r>
       <r>    8.3568    1.0001 </r>
       <r>    9.7964   -0.0000 </r>
       <r>   23.0844    0.0000 </r>
       <r>   23.9631    0.0000 </r>
       <r>   34.0768    0.0000 </r>
       <r>   34.5565    0.0000 </r>
       <r>   39.2272    0.0000 </r>
       <r>   41.8554    0.0000 </r>
      </set>
      <set comment="kpoint 36">
       <r>    2.8980    1.0000 </r>
       <r>    6.9438    1.0000 </r>
       <r>    7.6269    1.0000 </r>
       <r>    8.0984    1.0000 </r>
       <r>    8.1588    1.0000 </r>
       <r>    9.1892   -0.0353 </r>
       <r>   25.4607    0.0000 </r>
       <r>   26.1790    0.0000 </r>
       <r>   35.7207    0.0000 </r>
       <r>   37.1202    0.0000 </r>
       <r>   37.5496    0.0000 </r>
       <r>   41.0589    0.0000 </r>
      </set>
      <set comment="kpoint 37">
       <r>    1.8027    1.0000 </r>
       <r>    7.1352    1.0000 </r>
       <r>    7.7402    1.0000 </r>
       <r>    7.8706    1.0000 </r>
       <r>    8.2801    1.0000 </r>
       <r>    8.7949    0.9853 </r>
       <r>   27.9377    0.0000 </r>
       <r>   28.7496    0.0000 </r>
       <r>   36.2451    0.0000 </r>
       <r>   37.5554    0.0000 </r>
       <r>   38.5191    0.0000 </r>
       <r>   40.4635    0.0000 </r>
      </set>
      <set comment="kpoint 38">
       <r>    0.9570    1.0000 </r>
       <r>    7.3367    1.0000 </r>
       <r>    7.6938    1.0000 </r>
       <r>    7.6972    1.0000 </r>
       <r>    8.4175    1.0005 </r>
       <r>    8.6132    1.0190 </r>
       <r>   30.3961    0.0000 </r>
       <r>   31.6080    0.0000 </r>
       <r>   35.4512    0.0000 </r>
       <r>   37.6315    0.0000 </r>
       <r>   39.2515    0.0000 </r>
       <r>   40.0713    0.0000 </r>
      </set>
      <set comment="kpoint 39">
       <r>    0.4277    1.0000 </r>
       <r>    7.4879    1.0000 </r>
       <r>    7.5815    1.0000 </r>
       <r>    7.5918    1.0000 </r>
       <r>    8.5252    1.0051 </r>
       <r>    8.5696    1.0106 </r>
       <r>   32.2314    0.0000 </r>
       <r>   34.6073    0.0000 </r>
       <r>   35.6521    0.0000 </r>
       <r>   36.8881    0.0000 </r>
       <r>   39.8565    0.0000 </r>
       <r>   40.2378    0.0000 </r>
      </set>
      <set comment="kpoint 40">
       <r>    0.2479    1.0000 </r>
       <r>    7.5429    1.0000 </r>
       <r>    7.5429    1.0000 </r>
       <r>    7.5429    1.0000 </r>
       <r>    8.5650    1.0099 </r>
       <r>    8.5650    1.0099 </r>
       <r>   32.7255    0.0000 </r>
       <r>   36.6264    0.0000 </r>
       <r>   36.6267    0.0000 </r>
       <r>   36.6267    0.0000 </r>
       <r>   39.7824    0.0000 </r>
       <r>   39.7825    0.0000 </r>
      </set>
     </set>
    </set>
   </array>
  </eigenvalues>
  <separator name="orbital magnetization" >
   <v name="MAGDIPOLOUT">      0.00000000      0.00000000      0.00000000</v>
  </separator>
  <dos>
   <i name="efermi">      8.95133335 </i>
   <total>
    <array>
     <dimension dim="1">gridpoints</dimension>
     <dimension dim="2">spin</dimension>
     <field>energy</field>
     <field>total</field>
     <field>integrated</field>
     <set>
      <set comment="spin 1">
       <r>    -2.4185     0.0000     0.0000 </r>
       <r>    -2.2230     0.0000     0.0000 </r>
       <r>    -2.0275     0.0000     0.0000 </r>
       <r>    -1.8319     0.0000     0.0000 </r>
       <r>    -1.6364     0.0000     0.0000 </r>
       <r>    -1.4408    -0.0000    -0.0000 </r>
       <r>    -1.2453    -0.0000    -0.0000 </r>
       <r>    -1.0498    -0.0000    -0.0000 </r>
       <r>    -0.8542    -0.0000    -0.0000 </r>
       <r>    -0.6587    -0.0000    -0.0000 </r>
       <r>    -0.4631    -0.0000    -0.0000 </r>
       <r>    -0.2676    -0.0001    -0.0000 </r>
       <r>    -0.0721    -0.0053    -0.0010 </r>
       <r>     0.1235    -0.0044    -0.0019 </r>
       <r>     0.3190     0.2659     0.0501 </r>
       <r>     0.5146     0.4252     0.1332 </r>
       <r>     0.7101     0.1262     0.1579 </r>
       <r>     0.9056     0.1525     0.1877 </r>
       <r>     1.1012     0.1724     0.2214 </r>
       <r>     1.2967     0.0624     0.2336 </r>
       <r>     1.4922     0.0765     0.2486 </r>
       <r>     1.6878     0.0786     0.2640 </r>
       <r>     1.8833     0.1415     0.2917 </r>
       <r>     2.0789     0.1046     0.3121 </r>
       <r>     2.2744     0.0666     0.3251 </r>
       <r>     2.4699    -0.0009     0.3249 </r>
       <r>     2.6655     0.0660     0.3378 </r>
       <r>     2.8610     0.1248     0.3623 </r>
       <r>     3.0566     0.1769     0.3969 </r>
       <r>     3.2521     0.0205     0.4009 </r>
       <r>     3.4476    -0.0119     0.3985 </r>
       <r>     3.6432     0.0939     0.4169 </r>
       <r>     3.8387     0.1558     0.4474 </r>
       <r>     4.0343     0.0514     0.4574 </r>
       <r>     4.2298     0.1511     0.4870 </r>
       <r>     4.4253     0.2423     0.5344 </r>
       <r>     4.6209     0.6004     0.6518 </r>
       <r>     4.8164     0.6130     0.7716 </r>
       <r>     5.0120     0.3329     0.8367 </r>
       <r>     5.2075     0.9214     1.0169 </r>
       <r>     5.4030     0.9173     1.1963 </r>
       <r>     5.5986     0.6186     1.3172 </r>
       <r>     5.7941     0.4140     1.3982 </r>
       <r>     5.9897     0.1396     1.4255 </r>
       <r>     6.1852     0.2386     1.4721 </r>
       <r>     6.3807     0.4498     1.5601 </r>
       <r>     6.5763     0.5138     1.6606 </r>
       <r>     6.7718     1.1117     1.8780 </r>
       <r>     6.9674     3.0349     2.4714 </r>
       <r>     7.1629     2.1638     2.8945 </r>
       <r>     7.3584     0.7096     3.0332 </r>
       <r>     7.5540     0.9128     3.2117 </r>
       <r>     7.7495     0.9866     3.4046 </r>
       <r>     7.9450     2.1190     3.8190 </r>
       <r>     8.1406     2.1471     4.2388 </r>
       <r>     8.3361     1.2412     4.4815 </r>
       <r>     8.5317     1.7136     4.8166 </r>
       <r>     8.7272     2.3771     5.2814 </r>
       <r>     8.9227     1.2760     5.5309 </r>
       <r>     9.1183     0.1666     5.5635 </r>
       <r>     9.3138     0.1076     5.5846 </r>
       <r>     9.5094     0.0807     5.6003 </r>
       <r>     9.7049    -0.0000     5.6003 </r>
       <r>     9.9004    -0.0056     5.5992 </r>
       <r>    10.0960     0.0248     5.6041 </r>
       <r>    10.2915     0.0928     5.6222 </r>
       <r>    10.4871     0.0163     5.6254 </r>
       <r>    10.6826    -0.0040     5.6246 </r>
       <r>    10.8781     0.0709     5.6385 </r>
       <r>    11.0737     0.0624     5.6507 </r>
       <r>    11.2692    -0.0048     5.6497 </r>
       <r>    11.4648    -0.0139     5.6470 </r>
       <r>    11.6603     0.1609     5.6785 </r>
       <r>    11.8558     0.3612     5.7491 </r>
       <r>    12.0514     0.1364     5.7758 </r>
       <r>    12.2469     0.0821     5.7919 </r>
       <r>    12.4425     0.0585     5.8033 </r>
       <r>    12.6380     0.0855     5.8200 </r>
       <r>    12.8335     0.0382     5.8275 </r>
       <r>    13.0291     0.0853     5.8442 </r>
       <r>    13.2246     0.0328     5.8506 </r>
       <r>    13.4201     0.0695     5.8642 </r>
       <r>    13.6157     0.0516     5.8742 </r>
       <r>    13.8112     0.0459     5.8832 </r>
       <r>    14.0068     0.1814     5.9187 </r>
       <r>    14.2023     0.0369     5.9259 </r>
       <r>    14.3978     0.0628     5.9382 </r>
       <r>    14.5934     0.0541     5.9488 </r>
       <r>    14.7889     0.0517     5.9589 </r>
       <r>    14.9845     0.2649     6.0107 </r>
       <r>    15.1800     0.0842     6.0272 </r>
       <r>    15.3755    -0.0145     6.0243 </r>
       <r>    15.5711     0.0479     6.0337 </r>
       <r>    15.7666     0.0820     6.0497 </r>
       <r>    15.9622     0.0032     6.0503 </r>
       <r>    16.1577    -0.0084     6.0487 </r>
       <r>    16.3532     0.0282     6.0542 </r>
       <r>    16.5488     0.1984     6.0930 </r>
       <r>    16.7443     0.1462     6.1216 </r>
       <r>    16.9399     0.0208     6.1257 </r>
       <r>    17.1354    -0.0115     6.1234 </r>
       <r>    17.3309     0.0960     6.1422 </r>
       <r>    17.5265     0.1629     6.1740 </r>
       <r>    17.7220     0.0080     6.1756 </r>
       <r>    17.9176    -0.0096     6.1737 </r>
       <r>    18.1131     0.0351     6.1806 </r>
       <r>    18.3086     0.3271     6.2446 </r>
       <r>    18.5042     0.7125     6.3839 </r>
       <r>    18.6997     0.2102     6.4250 </r>
       <r>    18.8953     0.0308     6.4310 </r>
       <r>    19.0908     0.3201     6.4936 </r>
       <r>    19.2863     0.1744     6.5277 </r>
       <r>    19.4819     0.0864     6.5446 </r>
       <r>    19.6774     0.2695     6.5973 </r>
       <r>    19.8729     0.1527     6.6271 </r>
       <r>    20.0685    -0.0094     6.6253 </r>
       <r>    20.2640    -0.0073     6.6239 </r>
       <r>    20.4596     0.0524     6.6341 </r>
       <r>    20.6551     0.1886     6.6710 </r>
       <r>    20.8506     0.1501     6.7004 </r>
       <r>    21.0462    -0.0004     6.7003 </r>
       <r>    21.2417    -0.0007     6.7002 </r>
       <r>    21.4373     0.0793     6.7157 </r>
       <r>    21.6328     0.0475     6.7249 </r>
       <r>    21.8283     0.0488     6.7345 </r>
       <r>    22.0239     0.1168     6.7573 </r>
       <r>    22.2194     0.1662     6.7898 </r>
       <r>    22.4150     0.1678     6.8226 </r>
       <r>    22.6105     0.0150     6.8256 </r>
       <r>    22.8060    -0.0037     6.8248 </r>
       <r>    23.0016     0.0952     6.8435 </r>
       <r>    23.1971     0.1383     6.8705 </r>
       <r>    23.3927     0.0250     6.8754 </r>
       <r>    23.5882    -0.0071     6.8740 </r>
       <r>    23.7837     0.1014     6.8938 </r>
       <r>    23.9793     0.5048     6.9925 </r>
       <r>    24.1748     0.5511     7.1003 </r>
       <r>    24.3704     0.2818     7.1554 </r>
       <r>    24.5659     0.0957     7.1741 </r>
       <r>    24.7614     0.1600     7.2054 </r>
       <r>    24.9570     0.3570     7.2752 </r>
       <r>    25.1525     0.2504     7.3242 </r>
       <r>    25.3481     0.1038     7.3444 </r>
       <r>    25.5436     0.1500     7.3738 </r>
       <r>    25.7391     0.0312     7.3799 </r>
       <r>    25.9347     0.1063     7.4007 </r>
       <r>    26.1302     0.2768     7.4548 </r>
       <r>    26.3257     0.3001     7.5135 </r>
       <r>    26.5213     0.0698     7.5271 </r>
       <r>    26.7168    -0.0099     7.5252 </r>
       <r>    26.9124    -0.0009     7.5250 </r>
       <r>    27.1079    -0.0013     7.5248 </r>
       <r>    27.3034    -0.0079     7.5232 </r>
       <r>    27.4990     0.0887     7.5405 </r>
       <r>    27.6945     0.1906     7.5778 </r>
       <r>    27.8901     0.3236     7.6411 </r>
       <r>    28.0856     0.1873     7.6777 </r>
       <r>    28.2811    -0.0115     7.6755 </r>
       <r>    28.4767    -0.0095     7.6736 </r>
       <r>    28.6722     0.0326     7.6800 </r>
       <r>    28.8678     0.2425     7.7274 </r>
       <r>    29.0633     0.3520     7.7962 </r>
       <r>    29.2588     0.2855     7.8521 </r>
       <r>    29.4544     0.3244     7.9155 </r>
       <r>    29.6499     0.1030     7.9356 </r>
       <r>    29.8455     0.2459     7.9837 </r>
       <r>    30.0410     0.2049     8.0238 </r>
       <r>    30.2365     0.1573     8.0546 </r>
       <r>    30.4321     0.3696     8.1268 </r>
       <r>    30.6276     0.4974     8.2241 </r>
       <r>    30.8232     0.2643     8.2758 </r>
       <r>    31.0187     0.0656     8.2886 </r>
       <r>    31.2142     0.2602     8.3395 </r>
       <r>    31.4098     0.2829     8.3948 </r>
       <r>    31.6053     0.2127     8.4364 </r>
       <r>    31.8008     0.2697     8.4891 </r>
       <r>    31.9964     0.2113     8.5304 </r>
       <r>    32.1919     0.1822     8.5661 </r>
       <r>    32.3875     0.4891     8.6617 </r>
       <r>    32.5830     0.4784     8.7553 </r>
       <r>    32.7785     0.4517     8.8436 </r>
       <r>    32.9741     0.5420     8.9496 </r>
       <r>    33.1696     0.1886     8.9864 </r>
       <r>    33.3652     0.2440     9.0342 </r>
       <r>    33.5607     0.2147     9.0761 </r>
       <r>    33.7562     0.4579     9.1657 </r>
       <r>    33.9518     0.5984     9.2827 </r>
       <r>    34.1473     0.3830     9.3576 </r>
       <r>    34.3429     0.3202     9.4202 </r>
       <r>    34.5384     0.3947     9.4974 </r>
       <r>    34.7339     0.2649     9.5492 </r>
       <r>    34.9295     0.1301     9.5746 </r>
       <r>    35.1250     0.0907     9.5924 </r>
       <r>    35.3206     0.3265     9.6562 </r>
       <r>    35.5161     0.4452     9.7433 </r>
       <r>    35.7116     0.3400     9.8097 </r>
       <r>    35.9072     0.3718     9.8824 </r>
       <r>    36.1027     0.0892     9.8999 </r>
       <r>    36.2983     0.0793     9.9154 </r>
       <r>    36.4938     0.2742     9.9690 </r>
       <r>    36.6893     0.8493    10.1351 </r>
       <r>    36.8849     0.8370    10.2987 </r>
       <r>    37.0804     0.3246    10.3622 </r>
       <r>    37.2760     0.0698    10.3759 </r>
       <r>    37.4715     0.1498    10.4051 </r>
       <r>    37.6670     0.3432    10.4723 </r>
       <r>    37.8626     0.1473    10.5011 </r>
       <r>    38.0581     0.0797    10.5166 </r>
       <r>    38.2536     0.1923    10.5542 </r>
       <r>    38.4492     0.2088    10.5951 </r>
       <r>    38.6447     0.1337    10.6212 </r>
       <r>    38.8403     0.0235    10.6258 </r>
       <r>    39.0358    -0.0131    10.6233 </r>
       <r>    39.2313     0.0408    10.6312 </r>
       <r>    39.4269     0.2662    10.6833 </r>
       <r>    39.6224     0.3913    10.7598 </r>
       <r>    39.8180     0.6449    10.8859 </r>
       <r>    40.0135     0.2826    10.9412 </r>
       <r>    40.2090     0.2555    10.9911 </r>
       <r>    40.4046     0.2712    11.0442 </r>
       <r>    40.6001     0.1484    11.0732 </r>
       <r>    40.7957     0.3098    11.1338 </r>
       <r>    40.9912     0.5648    11.2442 </r>
       <r>    41.1867     0.2885    11.3006 </r>
       <r>    41.3823     0.1044    11.3210 </r>
       <r>    41.5778     0.2052    11.3612 </r>
       <r>    41.7734     0.1029    11.3813 </r>
       <r>    41.9689     0.0804    11.3970 </r>
       <r>    42.1644     0.0664    11.4100 </r>
       <r>    42.3600     0.0764    11.4249 </r>
       <r>    42.5555     0.0007    11.4251 </r>
       <r>    42.7511    -0.0025    11.4246 </r>
       <r>    42.9466     0.0713    11.4385 </r>
       <r>    43.1421     0.0619    11.4506 </r>
       <r>    43.3377    -0.0063    11.4494 </r>
       <r>    43.5332     0.0252    11.4543 </r>
       <r>    43.7288     0.0924    11.4724 </r>
       <r>    43.9243     0.0137    11.4751 </r>
       <r>    44.1198     0.0082    11.4767 </r>
       <r>    44.3154     0.0890    11.4941 </r>
       <r>    44.5109     0.0326    11.5005 </r>
       <r>    44.7064     0.0679    11.5137 </r>
       <r>    44.9020     0.0612    11.5257 </r>
       <r>    45.0975    -0.0035    11.5250 </r>
       <r>    45.2931    -0.0040    11.5242 </r>
       <r>    45.4886     0.0576    11.5355 </r>
       <r>    45.6841     0.0709    11.5494 </r>
       <r>    45.8797     0.0488    11.5589 </r>
       <r>    46.0752     0.0807    11.5747 </r>
       <r>    46.2708     0.0036    11.5754 </r>
       <r>    46.4663    -0.0020    11.5750 </r>
       <r>    46.6618    -0.0003    11.5750 </r>
       <r>    46.8574    -0.0037    11.5742 </r>
       <r>    47.0529     0.0245    11.5790 </r>
       <r>    47.2485     0.0928    11.5972 </r>
       <r>    47.4440     0.0167    11.6004 </r>
       <r>    47.6395    -0.0109    11.5983 </r>
       <r>    47.8351     0.0978    11.6174 </r>
       <r>    48.0306     0.1638    11.6494 </r>
       <r>    48.2262     0.0051    11.6504 </r>
       <r>    48.4217    -0.0023    11.6500 </r>
       <r>    48.6172     0.0779    11.6652 </r>
       <r>    48.8128     0.0541    11.6758 </r>
       <r>    49.0083    -0.0075    11.6743 </r>
       <r>    49.2039     0.0089    11.6761 </r>
       <r>    49.3994     0.1633    11.7080 </r>
       <r>    49.5949     0.0951    11.7266 </r>
       <r>    49.7905    -0.0101    11.7246 </r>
       <r>    49.9860     0.0140    11.7274 </r>
       <r>    50.1815     0.0922    11.7454 </r>
       <r>    50.3771     0.0276    11.7508 </r>
       <r>    50.5726    -0.0072    11.7494 </r>
       <r>    50.7682     0.0185    11.7530 </r>
       <r>    50.9637     0.0929    11.7712 </r>
       <r>    51.1592     0.0233    11.7757 </r>
       <r>    51.3548    -0.0078    11.7742 </r>
       <r>    51.5503     0.0249    11.7790 </r>
       <r>    51.7459     0.1188    11.8023 </r>
       <r>    51.9414     0.1058    11.8230 </r>
       <r>    52.1369     0.0100    11.8249 </r>
       <r>    52.3325     0.0564    11.8359 </r>
       <r>    52.5280     0.0729    11.8502 </r>
       <r>    52.7236    -0.0042    11.8494 </r>
       <r>    52.9191     0.0375    11.8567 </r>
       <r>    53.1146     0.0911    11.8745 </r>
       <r>    53.3102     0.1085    11.8957 </r>
       <r>    53.5057     0.2664    11.9478 </r>
       <r>    53.7013     0.2572    11.9981 </r>
       <r>    53.8968     0.0166    12.0014 </r>
       <r>    54.0923    -0.0067    12.0000 </r>
       <r>    54.2879    -0.0002    12.0000 </r>
       <r>    54.4834    -0.0000    12.0000 </r>
       <r>    54.6790    -0.0000    12.0000 </r>
       <r>    54.8745    -0.0000    12.0000 </r>
       <r>    55.0700     0.0000    12.0000 </r>
       <r>    55.2656     0.0000    12.0000 </r>
       <r>    55.4611     0.0000    12.0000 </r>
       <r>    55.6567     0.0000    12.0000 </r>
       <r>    55.8522     0.0000    12.0000 </r>
       <r>    56.0477     0.0000    12.0000 </r>
       <r>    56.2433     0.0000    12.0000 </r>
      </set>
      <set comment="spin 2">
       <r>    -2.4185     0.0000     0.0000 </r>
       <r>    -2.2230     0.0000     0.0000 </r>
       <r>    -2.0275     0.0000     0.0000 </r>
       <r>    -1.8319     0.0000     0.0000 </r>
       <r>    -1.6364     0.0000     0.0000 </r>
       <r>    -1.4408    -0.0000    -0.0000 </r>
       <r>    -1.2453    -0.0000    -0.0000 </r>
       <r>    -1.0498    -0.0000    -0.0000 </r>
       <r>    -0.8542    -0.0000    -0.0000 </r>
       <r>    -0.6587    -0.0000    -0.0000 </r>
       <r>    -0.4631    -0.0000    -0.0000 </r>
       <r>    -0.2676    -0.0003    -0.0001 </r>
       <r>    -0.0721    -0.0094    -0.0019 </r>
       <r>     0.1235     0.0248     0.0029 </r>
       <r>     0.3190     0.3561     0.0726 </r>
       <r>     0.5146     0.3634     0.1436 </r>
       <r>     0.7101     0.0952     0.1623 </r>
       <r>     0.9056     0.1809     0.1976 </r>
       <r>     1.1012     0.1383     0.2247 </r>
       <r>     1.2967     0.0653     0.2374 </r>
       <r>     1.4922     0.0677     0.2507 </r>
       <r>     1.6878     0.0979     0.2698 </r>
       <r>     1.8833     0.1337     0.2960 </r>
       <r>     2.0789     0.0990     0.3153 </r>
       <r>     2.2744     0.0514     0.3254 </r>
       <r>     2.4699     0.0013     0.3256 </r>
       <r>     2.6655     0.0766     0.3406 </r>
       <r>     2.8610     0.1207     0.3642 </r>
       <r>     3.0566     0.1702     0.3975 </r>
       <r>     3.2521     0.0173     0.4009 </r>
       <r>     3.4476    -0.0106     0.3988 </r>
       <r>     3.6432     0.0518     0.4089 </r>
       <r>     3.8387     0.1570     0.4396 </r>
       <r>     4.0343     0.0823     0.4557 </r>
       <r>     4.2298     0.0793     0.4712 </r>
       <r>     4.4253     0.0882     0.4885 </r>
       <r>     4.6209     0.1566     0.5191 </r>
[...]
       </set>
       <set comment="band 5">
        <r>  0.0000  0.0000  0.0000  0.0000  0.0000  0.4958  0.0000  0.4958  0.0000 </r>
       </set>
       <set comment="band 6">
        <r>  0.0000  0.0000  0.5447  0.0000  0.0000  0.1360  0.0000  0.1360  0.0000 </r>
       </set>
       <set comment="band 7">
        <r>  0.0424  0.2125  0.0000  0.2125  0.1525  0.0000  0.1477  0.0000  0.0000 </r>
       </set>
       <set comment="band 8">
        <r>  0.4948  0.0002  0.0000  0.0002  0.0354  0.0000  0.2849  0.0000  0.0000 </r>
       </set>
       <set comment="band 9">
        <r>  0.0000  0.2964  0.0000  0.2964  0.0000  0.0000  0.0000  0.0000  0.0977 </r>
       </set>
       <set comment="band 10">
        <r>  0.1547  0.0059  0.0000  0.0059  0.5011  0.0000  0.0879  0.0000  0.0000 </r>
       </set>
       <set comment="band 11">
        <r>  0.1398  0.1037  0.0000  0.1037  0.2353  0.0000  0.1422  0.0000  0.0000 </r>
       </set>
       <set comment="band 12">
        <r>  0.0000  0.0000  0.0001  0.0000  0.0000  0.1904  0.0000  0.1771  0.0000 </r>
       </set>
      </set>
      <set comment="kpoint 30">
       <set comment="band 1">
        <r>  0.0260  0.0106  0.0000  0.0106  0.0740  0.0000  0.7622  0.0000  0.0000 </r>
       </set>
       <set comment="band 2">
        <r>  0.0070  0.0352  0.0000  0.0352  0.7887  0.0000  0.0493  0.0000  0.0000 </r>
       </set>
       <set comment="band 3">
        <r>  0.0000  0.0000  0.1361  0.0000  0.0000  0.3931  0.0000  0.3931  0.0000 </r>
       </set>
       <set comment="band 4">
        <r>  0.0000  0.0038  0.0000  0.0038  0.0000  0.0000  0.0000  0.0000  0.9710 </r>
       </set>
       <set comment="band 5">
        <r>  0.0000  0.0000  0.0000  0.0000  0.0000  0.4954  0.0000  0.4954  0.0000 </r>
       </set>
       <set comment="band 6">
        <r>  0.0000  0.0000  0.5373  0.0000  0.0000  0.1418  0.0000  0.1418  0.0000 </r>
       </set>
       <set comment="band 7">
        <r>  0.0866  0.1992  0.0000  0.1992  0.1771  0.0000  0.1175  0.0000  0.0000 </r>
       </set>
       <set comment="band 8">
        <r>  0.4631  0.0063  0.0000  0.0063  0.0274  0.0000  0.3034  0.0000  0.0000 </r>
       </set>
       <set comment="band 9">
        <r>  0.0000  0.2909  0.0000  0.2909  0.0000  0.0000  0.0000  0.0000  0.1201 </r>
       </set>
       <set comment="band 10">
        <r>  0.1551  0.0108  0.0000  0.0108  0.4527  0.0000  0.0937  0.0000  0.0000 </r>
       </set>
       <set comment="band 11">
        <r>  0.1196  0.1060  0.0000  0.1060  0.2586  0.0000  0.1333  0.0000  0.0000 </r>
       </set>
       <set comment="band 12">
        <r>  0.0000  0.0000  0.0000  0.0000  0.0000  0.2030  0.0000  0.2086  0.0000 </r>
       </set>
      </set>
      <set comment="kpoint 31">
       <set comment="band 1">
        <r>  0.0260  0.0106  0.0106  0.0000  0.0000  0.0740  0.1905  0.0000  0.5716 </r>
       </set>
       <set comment="band 2">
        <r>  0.0070  0.0352  0.0352  0.0000  0.0000  0.7887  0.0123  0.0000  0.0370 </r>
       </set>
       <set comment="band 3">
        <r>  0.0000  0.0000  0.0000  0.1361  0.3931  0.0000  0.0000  0.3931  0.0000 </r>
       </set>
       <set comment="band 4">
        <r>  0.0000  0.0038  0.0038  0.0000  0.0000  0.0000  0.7283  0.0000  0.2428 </r>
       </set>
       <set comment="band 5">
        <r>  0.0000  0.0000  0.0000  0.0000  0.4954  0.0000  0.0000  0.4954  0.0000 </r>
       </set>
       <set comment="band 6">
        <r>  0.0000  0.0000  0.0000  0.5373  0.1418  0.0000  0.0000  0.1418  0.0000 </r>
       </set>
       <set comment="band 7">
        <r>  0.0866  0.1992  0.1992  0.0000  0.0000  0.1771  0.0294  0.0000  0.0881 </r>
       </set>
       <set comment="band 8">
        <r>  0.4631  0.0063  0.0063  0.0000  0.0000  0.0274  0.0759  0.0000  0.2276 </r>
       </set>
       <set comment="band 9">
        <r>  0.0000  0.2909  0.2909  0.0000  0.0000  0.0000  0.0901  0.0000  0.0300 </r>
       </set>
       <set comment="band 10">
        <r>  0.1551  0.0108  0.0108  0.0000  0.0000  0.4527  0.0234  0.0000  0.0703 </r>
       </set>
       <set comment="band 11">
        <r>  0.1196  0.1060  0.1060  0.0000  0.0000  0.2586  0.0333  0.0000  0.0999 </r>
       </set>
       <set comment="band 12">
        <r>  0.0000  0.0000  0.0000  0.0000  0.2031  0.0000  0.0000  0.2083  0.0000 </r>
       </set>
      </set>
      <set comment="kpoint 32">
       <set comment="band 1">
        <r>  0.0485  0.0101  0.0101  0.0000  0.0000  0.6874  0.0419  0.0000  0.1257 </r>
       </set>
       <set comment="band 2">
        <r>  0.0029  0.0644  0.0644  0.0000  0.0000  0.0969  0.1588  0.0000  0.4765 </r>
       </set>
       <set comment="band 3">
        <r>  0.0000  0.0000  0.0000  0.1141  0.4045  0.0000  0.0000  0.4045  0.0000 </r>
       </set>
       <set comment="band 4">
        <r>  0.0000  0.0042  0.0042  0.0000  0.0000  0.0000  0.7242  0.0000  0.2414 </r>
       </set>
       <set comment="band 5">
        <r>  0.0000  0.0000  0.0000  0.0000  0.4941  0.0000  0.0000  0.4941  0.0000 </r>
       </set>
       <set comment="band 6">
        <r>  0.1511  0.1518  0.1518  0.0000  0.0000  0.2454  0.0306  0.0000  0.0919 </r>
       </set>
       <set comment="band 7">
        <r>  0.0000  0.0000  0.0000  0.5168  0.1570  0.0000  0.0000  0.1570  0.0000 </r>
       </set>
       <set comment="band 8">
        <r>  0.4088  0.0330  0.0330  0.0000  0.0000  0.0332  0.0667  0.0000  0.2000 </r>
       </set>
       <set comment="band 9">
        <r>  0.0000  0.2712  0.2712  0.0000  0.0000  0.0000  0.1470  0.0000  0.0490 </r>
       </set>
       <set comment="band 10">
        <r>  0.1400  0.0302  0.0302  0.0000  0.0000  0.3119  0.0261  0.0000  0.0783 </r>
       </set>
       <set comment="band 11">
        <r>  0.0692  0.1072  0.1076  0.0000  0.0000  0.3305  0.0251  0.0000  0.0761 </r>
       </set>
       <set comment="band 12">
        <r>  0.0001  0.0001  0.0000  0.0010  0.2314  0.0000  0.0000  0.2928  0.0004 </r>
       </set>
      </set>
      <set comment="kpoint 33">
       <set comment="band 1">
        <r>  0.1240  0.0867  0.0867  0.0000  0.0000  0.5053  0.0113  0.0000  0.0340 </r>
       </set>
       <set comment="band 2">
        <r>  0.0023  0.0168  0.0168  0.0000  0.0000  0.1557  0.1797  0.0000  0.5392 </r>
       </set>
       <set comment="band 3">
        <r>  0.0000  0.0000  0.0000  0.0876  0.4198  0.0000  0.0000  0.4198  0.0000 </r>
       </set>
       <set comment="band 4">
        <r>  0.0000  0.0036  0.0036  0.0000  0.0000  0.0000  0.7227  0.0000  0.2409 </r>
       </set>
       <set comment="band 5">
        <r>  0.0000  0.0000  0.0000  0.0000  0.4922  0.0000  0.0000  0.4922  0.0000 </r>
       </set>
       <set comment="band 6">
        <r>  0.1523  0.0984  0.0984  0.0000  0.0000  0.3496  0.0448  0.0000  0.1343 </r>
       </set>
       <set comment="band 7">
        <r>  0.0000  0.0000  0.0000  0.4901  0.1735  0.0000  0.0000  0.1735  0.0000 </r>
       </set>
       <set comment="band 8">
        <r>  0.3547  0.0627  0.0627  0.0000  0.0000  0.0558  0.0514  0.0000  0.1542 </r>
       </set>
       <set comment="band 9">
        <r>  0.0000  0.2477  0.2477  0.0000  0.0000  0.0000  0.2114  0.0000  0.0705 </r>
       </set>
       <set comment="band 10">
        <r>  0.1130  0.0531  0.0531  0.0000  0.0000  0.1847  0.0277  0.0000  0.0832 </r>
       </set>
       <set comment="band 11">
        <r>  0.0000  0.0000  0.0000  0.0975  0.0638  0.0000  0.0000  0.0638  0.0000 </r>
       </set>
       <set comment="band 12">
        <r>  0.0000  0.0000  0.0000  0.0000  0.3320  0.0000  0.0000  0.3320  0.0000 </r>
       </set>
      </set>
      <set comment="kpoint 34">
       <set comment="band 1">
        <r>  0.2618  0.1088  0.1088  0.0000  0.0000  0.2649  0.0111  0.0000  0.0333 </r>
       </set>
       <set comment="band 2">
        <r>  0.0000  0.0000  0.0000  0.0619  0.4357  0.0000  0.0000  0.4357  0.0000 </r>
       </set>
       <set comment="band 3">
        <r>  0.0006  0.0113  0.0113  0.0000  0.0000  0.2690  0.1601  0.0000  0.4804 </r>
       </set>
       <set comment="band 4">
        <r>  0.0000  0.0025  0.0025  0.0000  0.0000  0.0000  0.7240  0.0000  0.2413 </r>
       </set>
       <set comment="band 5">
        <r>  0.0000  0.0000  0.0000  0.0000  0.4912  0.0000  0.0000  0.4912  0.0000 </r>
       </set>
       <set comment="band 6">
        <r>  0.1019  0.0492  0.0492  0.0000  0.0000  0.4584  0.0692  0.0000  0.2075 </r>
       </set>
       <set comment="band 7">
        <r>  0.0000  0.0000  0.0000  0.4550  0.1916  0.0000  0.0000  0.1916  0.0000 </r>
       </set>
       <set comment="band 8">
        <r>  0.2900  0.0926  0.0926  0.0000  0.0000  0.0881  0.0364  0.0000  0.1093 </r>
       </set>
       <set comment="band 9">
        <r>  0.0000  0.2195  0.2195  0.0000  0.0000  0.0000  0.2793  0.0000  0.0931 </r>
       </set>
       <set comment="band 10">
        <r>  0.0818  0.0756  0.0756  0.0000  0.0000  0.0770  0.0280  0.0000  0.0839 </r>
       </set>
       <set comment="band 11">
        <r>  0.0000  0.0000  0.0000  0.1148  0.0491  0.0000  0.0000  0.0491  0.0000 </r>
       </set>
       <set comment="band 12">
        <r>  0.0000  0.0000  0.0000  0.0000  0.3837  0.0000  0.0000  0.3836  0.0000 </r>
       </set>
      </set>
      <set comment="kpoint 35">
       <set comment="band 1">
        <r>  0.4089  0.1032  0.1032  0.0000  0.0000  0.1101  0.0059  0.0000  0.0177 </r>
       </set>
       <set comment="band 2">
        <r>  0.0000  0.0000  0.0000  0.0403  0.4500  0.0000  0.0000  0.4500  0.0000 </r>
       </set>
       <set comment="band 3">
        <r>  0.0000  0.0080  0.0080  0.0000  0.0000  0.3798  0.1383  0.0000  0.4150 </r>
       </set>
       <set comment="band 4">
        <r>  0.0000  0.0014  0.0014  0.0000  0.0000  0.0000  0.7265  0.0000  0.2421 </r>
       </set>
       <set comment="band 5">
        <r>  0.0000  0.0000  0.0000  0.0000  0.4899  0.0000  0.0000  0.4899  0.0000 </r>
       </set>
       <set comment="band 6">
        <r>  0.0463  0.0198  0.0198  0.0000  0.0000  0.4881  0.0991  0.0000  0.2972 </r>
       </set>
       <set comment="band 7">
        <r>  0.0000  0.0000  0.0000  0.4054  0.2131  0.0000  0.0000  0.2131  0.0000 </r>
       </set>
       <set comment="band 8">
        <r>  0.2192  0.1166  0.1166  0.0000  0.0000  0.1292  0.0251  0.0000  0.0754 </r>
       </set>
       <set comment="band 9">
        <r>  0.0511  0.0945  0.0945  0.0000  0.0000  0.0119  0.0277  0.0000  0.0832 </r>
       </set>
       <set comment="band 10">
        <r>  0.0000  0.1800  0.1800  0.0000  0.0000  0.0000  0.3581  0.0000  0.1194 </r>
       </set>
       <set comment="band 11">
        <r>  0.0000  0.0000  0.0000  0.1366  0.0331  0.0000  0.0000  0.0331  0.0000 </r>
       </set>
       <set comment="band 12">
        <r>  0.0000  0.0000  0.0000  0.0000  0.4434  0.0000  0.0000  0.4436  0.0000 </r>
       </set>
      </set>
      <set comment="kpoint 36">
       <set comment="band 1">
        <r>  0.5261  0.0787  0.0787  0.0000  0.0000  0.0385  0.0023  0.0000  0.0069 </r>
       </set>
       <set comment="band 2">
        <r>  0.0000  0.0000  0.0000  0.0238  0.4625  0.0000  0.0000  0.4625  0.0000 </r>
       </set>
       <set comment="band 3">
        <r>  0.0001  0.0059  0.0059  0.0000  0.0000  0.5257  0.1062  0.0000  0.3186 </r>
       </set>
       <set comment="band 4">
        <r>  0.0000  0.0000  0.0000  0.0000  0.4890  0.0000  0.0000  0.4890  0.0000 </r>
       </set>
       <set comment="band 5">
        <r>  0.0000  0.0007  0.0007  0.0000  0.0000  0.0000  0.7307  0.0000  0.2436 </r>
       </set>
       <set comment="band 6">
        <r>  0.0158  0.0071  0.0071  0.0000  0.0000  0.4068  0.1366  0.0000  0.4099 </r>
       </set>
       <set comment="band 7">
        <r>  0.0000  0.0000  0.0000  0.3405  0.2330  0.0000  0.0000  0.2330  0.0000 </r>
       </set>
       <set comment="band 8">
        <r>  0.1539  0.1317  0.1317  0.0000  0.0000  0.1693  0.0162  0.0000  0.0486 </r>
       </set>
       <set comment="band 9">
        <r>  0.0229  0.1034  0.1034  0.0000  0.0000  0.0075  0.0244  0.0000  0.0732 </r>
       </set>
       <set comment="band 10">
        <r>  0.0000  0.1064  0.1064  0.0000  0.0000  0.0000  0.4438  0.0000  0.1479 </r>
       </set>
       <set comment="band 11">
        <r>  0.0000  0.0000  0.0000  0.1638  0.0153  0.0000  0.0000  0.0153  0.0000 </r>
       </set>
       <set comment="band 12">
        <r>  0.0000  0.0009  0.0009  0.0000  0.4934  0.0000  0.0002  0.4945  0.0001 </r>
       </set>
      </set>
      <set comment="kpoint 37">
       <set comment="band 1">
        <r>  0.6124  0.0492  0.0492  0.0000  0.0000  0.0109  0.0007  0.0000  0.0021 </r>
       </set>
       <set comment="band 2">
        <r>  0.0000  0.0000  0.0000  0.0122  0.4725  0.0000  0.0000  0.4725  0.0000 </r>
       </set>
       <set comment="band 3">
        <r>  0.0003  0.0041  0.0041  0.0000  0.0000  0.7380  0.0559  0.0000  0.1678 </r>
       </set>
       <set comment="band 4">
        <r>  0.0000  0.0000  0.0000  0.0000  0.4883  0.0000  0.0000  0.4883  0.0000 </r>
       </set>
       <set comment="band 5">
        <r>  0.0000  0.0003  0.0003  0.0000  0.0000  0.0000  0.7338  0.0000  0.2446 </r>
       </set>
       <set comment="band 6">
        <r>  0.0039  0.0018  0.0018  0.0000  0.0000  0.2205  0.1894  0.0000  0.5683 </r>
       </set>
       <set comment="band 7">
        <r>  0.0000  0.0000  0.0000  0.2603  0.2429  0.0000  0.0000  0.2429  0.0000 </r>
       </set>
       <set comment="band 8">
        <r>  0.0996  0.1391  0.1391  0.0000  0.0000  0.2031  0.0096  0.0000  0.0287 </r>
       </set>
       <set comment="band 9">
        <r>  0.0000  0.0000  0.0000  0.1983  0.0014  0.0000  0.0000  0.0014  0.0000 </r>
       </set>
       <set comment="band 10">
        <r>  0.0030  0.0915  0.0915  0.0000  0.0000  0.1006  0.0179  0.0000  0.0536 </r>
       </set>
       <set comment="band 11">
        <r>  0.0000  0.0284  0.0284  0.0000  0.0000  0.0000  0.3432  0.0000  0.1144 </r>
       </set>
       <set comment="band 12">
        <r>  0.0000  0.0001  0.0001  0.0000  0.5434  0.0000  0.0000  0.5425  0.0000 </r>
       </set>
      </set>
      <set comment="kpoint 38">
       <set comment="band 1">
        <r>  0.6726  0.0234  0.0234  0.0000  0.0000  0.0020  0.0001  0.0000  0.0004 </r>
       </set>
       <set comment="band 2">
        <r>  0.0000  0.0000  0.0000  0.0050  0.4807  0.0000  0.0000  0.4807  0.0000 </r>
       </set>
       <set comment="band 3">
        <r>  0.0000  0.0000  0.0000  0.0000  0.4881  0.0000  0.0000  0.4881  0.0000 </r>
       </set>
       <set comment="band 4">
        <r>  0.0002  0.0022  0.0022  0.0000  0.0000  0.9209  0.0122  0.0000  0.0366 </r>
       </set>
       <set comment="band 5">
        <r>  0.0000  0.0001  0.0001  0.0000  0.0000  0.0000  0.7373  0.0000  0.2458 </r>
       </set>
       <set comment="band 6">
        <r>  0.0006  0.0002  0.0002  0.0000  0.0000  0.0485  0.2343  0.0000  0.7030 </r>
       </set>
       <set comment="band 7">
        <r>  0.0000  0.0000  0.0000  0.1518  0.2109  0.0000  0.0000  0.2109  0.0000 </r>
       </set>
       <set comment="band 8">
        <r>  0.0569  0.1423  0.1423  0.0000  0.0000  0.2219  0.0047  0.0000  0.0142 </r>
       </set>
       <set comment="band 9">
        <r>  0.0000  0.0000  0.0000  0.2549  0.0093  0.0000  0.0000  0.0093  0.0000 </r>
       </set>
       <set comment="band 10">
        <r>  0.0000  0.1446  0.1446  0.0000  0.0000  0.0000  0.0974  0.0000  0.0325 </r>
       </set>
       <set comment="band 11">
        <r>  0.0036  0.0494  0.0494  0.0000  0.0000  0.3435  0.0085  0.0000  0.0257 </r>
       </set>
       <set comment="band 12">
        <r>  0.0000  0.0000  0.0000  0.0000  0.5767  0.0000  0.0000  0.5766  0.0000 </r>
       </set>
      </set>
      <set comment="kpoint 39">
       <set comment="band 1">
        <r>  0.7086  0.0061  0.0061  0.0000  0.0000  0.0001  0.0000  0.0000  0.0000 </r>
       </set>
       <set comment="band 2">
        <r>  0.0000  0.0000  0.0000  0.0012  0.4863  0.0000  0.0000  0.4863  0.0000 </r>
       </set>
       <set comment="band 3">
        <r>  0.0000  0.0000  0.0000  0.0000  0.4880  0.0000  0.0000  0.4880  0.0000 </r>
       </set>
       <set comment="band 4">
        <r>  0.0000  0.0006  0.0006  0.0000  0.0000  0.9721  0.0007  0.0000  0.0020 </r>
       </set>
       <set comment="band 5">
        <r>  0.0000  0.0000  0.0000  0.0000  0.0000  0.0000  0.7403  0.0000  0.2468 </r>
       </set>
       <set comment="band 6">
        <r>  0.0000  0.0000  0.0000  0.0000  0.0000  0.0026  0.2463  0.0000  0.7390 </r>
       </set>
       <set comment="band 7">
        <r>  0.0000  0.0000  0.0000  0.0237  0.0838  0.0000  0.0000  0.0838  0.0000 </r>
       </set>
       <set comment="band 8">
        <r>  0.0233  0.1507  0.1507  0.0000  0.0000  0.1885  0.0015  0.0000  0.0046 </r>
       </set>
       <set comment="band 9">
        <r>  0.0000  0.0000  0.0000  0.3365  0.0677  0.0000  0.0000  0.0677  0.0000 </r>
       </set>
       <set comment="band 10">
        <r>  0.0000  0.1753  0.1753  0.0000  0.0000  0.0000  0.0216  0.0000  0.0072 </r>
       </set>
       <set comment="band 11">
        <r>  0.0000  0.0000  0.0000  0.0000  0.5965  0.0000  0.0000  0.5962  0.0000 </r>
       </set>
       <set comment="band 12">
        <r>  0.0133  0.0021  0.0021  0.0000  0.0000  0.7680  0.0012  0.0000  0.0037 </r>
       </set>
      </set>
      <set comment="kpoint 40">
       <set comment="band 1">
        <r>  0.7207  0.0000  0.0000  0.0000  0.0000  0.0000  0.0000  0.0000  0.0000 </r>
       </set>
       <set comment="band 2">
        <r>  0.0000  0.0000  0.0000  0.0000  0.4880  0.4880  0.0000  0.0000  0.0000 </r>
       </set>
       <set comment="band 3">
        <r>  0.0000  0.0000  0.0000  0.0000  0.0008  0.0008  0.0000  0.9745  0.0000 </r>
       </set>
       <set comment="band 4">
        <r>  0.0000  0.0000  0.0000  0.0000  0.4872  0.4872  0.0000  0.0016  0.0000 </r>
       </set>
       <set comment="band 5">
        <r>  0.0000  0.0000  0.0000  0.0000  0.0000  0.0000  0.2471  0.0000  0.7414 </r>
       </set>
       <set comment="band 6">
        <r>  0.0000  0.0000  0.0000  0.0000  0.0000  0.0000  0.7414  0.0000  0.2471 </r>
       </set>
       <set comment="band 7">
        <r>  0.0000  0.0000  0.0000  0.0000  0.0000  0.0000  0.0000  0.0000  0.0000 </r>
       </set>
       <set comment="band 8">
        <r>  0.0000  0.1195  0.1230  0.1230  0.0000  0.0000  0.0000  0.0000  0.0000 </r>
       </set>
       <set comment="band 9">
        <r>  0.0000  0.0065  0.1460  0.2130  0.0000  0.0000  0.0000  0.0000  0.0000 </r>
       </set>
       <set comment="band 10">
        <r>  0.0000  0.2395  0.0964  0.0295  0.0000  0.0000  0.0000  0.0000  0.0000 </r>
       </set>
       <set comment="band 11">
        <r>  0.0000  0.0000  0.0000  0.0000  0.3154  0.3729  0.0000  0.5188  0.0000 </r>
       </set>
       <set comment="band 12">
        <r>  0.0000  0.0000  0.0000  0.0000  0.4329  0.7251  0.0000  0.0493  0.0000 </r>
       </set>
      </set>
     </set>
    </set>
   </array>
  </projected>
 </calculation>
 <structure name="finalpos" >
  <crystal>
   <varray name="basis" >
    <v>       1.76500000       1.76500000       0.00000000 </v>
    <v>       0.00000000       1.76500000       1.76500000 </v>
    <v>       1.76500000       0.00000000       1.76500000 </v>
   </varray>
   <i name="volume">     10.99674425 </i>
   <varray name="rec_basis" >
    <v>       0.28328612       0.28328612      -0.28328612 </v>
    <v>      -0.28328612       0.28328612       0.28328612 </v>
    <v>       0.28328612      -0.28328612       0.28328612 </v>
   </varray>
  </crystal>
  <varray name="positions" >
   <v>       0.00000000       0.00000000       0.00000000 </v>
  </varray>
 </structure>
</modeling>
