diamond Si                              
   5.60000000000000     
     0.000000    0.500000    0.500000
     0.500000    0.000000    0.500000
     0.500000    0.500000    0.000000
   Si
     2
Direct
  0.875000  0.875000  0.875000
  0.125000  0.125000  0.125000
 
   32   32   32
  22.770      22.743      22.610      22.231      21.390      20.022      18.411      17.092      16.581      17.092    
  18.411      20.022      21.390      22.231      22.610      22.744      22.770      22.744      22.610      22.231    
  21.390      20.022      18.411      17.092      16.581      17.092      18.411      20.022      21.390      22.231    
  22.610      22.743      22.743      23.126      23.217      22.647      21.190      19.064      16.919      15.568    
  15.568      16.919      19.064      21.190      22.647      23.217      23.126      22.744      22.257      21.737    
  21.149      20.413      19.458      18.316      17.238      16.574      16.574      17.238      18.316      19.458    
  20.413      21.149      21.737      22.257      22.610      23.217      23.083      21.778      19.342      16.408    
  14.001      13.069      14.001      16.408      19.342      21.778      23.083      23.217      22.610      21.737    
  20.805      19.888      18.975      18.034      17.078      16.191      15.538      15.295      15.538      16.191    
  17.078      18.034      18.975      19.888      20.805      21.737      22.231      22.647      21.778      19.412    
  16.002      12.612      10.493      10.493      12.612      16.002      19.412      21.778      22.647      22.231    
  21.149      19.888      18.637      17.470      16.392      15.402      14.534      13.869      13.504      13.504    
  13.869      14.534      15.402      16.392      17.470      18.637      19.888      21.149      21.390      21.190    
  19.342      16.002      12.061      8.8652      7.6363      8.8652      12.061      16.002      19.342      21.190    
  21.390      20.413      18.975      17.470      16.054      14.791      13.695      12.776      12.063      11.604    
  11.446      11.604      12.062      12.776      13.695      14.791      16.054      17.470      18.975      20.413    
  20.022      19.064      16.408      12.612      8.8652      6.5364      6.5364      8.8652      12.612      16.408    
  19.064      20.022      19.458      18.034      16.392      14.791      13.352      12.124      11.117      10.339    
  9.8027      9.5279      9.5280      9.8027      10.339      11.117      12.124      13.352      14.791      16.392    
  18.034      19.458      18.411      16.919      14.001      10.493      7.6363      6.5364      7.6363      10.493    
  14.001      16.919      18.412      18.316      17.078      15.402      13.695      12.124      10.772      9.6684    
  8.8132      8.2025      7.8352      7.7125      7.8352      8.2025      8.8132      9.6684      10.772      12.124    
  13.695      15.402      17.078      18.316      17.092      15.568      13.069      10.493      8.8652      8.8652    
  10.493      13.070      15.568      17.092      17.238      16.191      14.534      12.776      11.117      9.6684    
  8.4752      7.5437      6.8625      6.4172      6.1972      6.1972      6.4172      6.8624      7.5437      8.4752    
  9.6684      11.117      12.776      14.534      16.191      17.238      16.581      15.568      14.001      12.612    
  12.061      12.612      14.001      15.568      16.581      16.574      15.538      13.869      12.063      10.339    
  8.8132      7.5437      6.5432      5.7983      5.2868      4.9886      4.8907      4.9886      5.2868      5.7983    
  6.5432      7.5437      8.8132      10.339      12.062      13.869      15.538      16.574      17.092      16.919    
  16.408      16.002      16.002      16.408      16.919      17.092      16.574      15.295      13.504      11.604    
  9.8027      8.2025      6.8625      5.7983      4.9958      4.4275      4.0659      3.8903      3.8903      4.0659    
  4.4276      4.9959      5.7983      6.8624      8.2025      9.8027      11.604      13.504      15.295      16.574    
  18.411      19.064      19.342      19.412      19.342      19.064      18.412      17.238      15.538      13.504    
  11.446      9.5279      7.8352      6.4172      5.2868      4.4276      3.8075      3.3923      3.1545      3.0771    
  3.1545      3.3924      3.8075      4.4276      5.2868      6.4172      7.8352      9.5280      11.446      13.504    
  15.538      17.238      20.022      21.190      21.778      21.778      21.190      20.022      18.316      16.191    
  13.869      11.604      9.5279      7.7125      6.1972      4.9885      4.0659      3.3924      2.9275      2.6369    
  2.4973      2.4973      2.6369      2.9275      3.3924      4.0659      4.9886      6.1972      7.7125      9.5279    
  11.604      13.869      16.191      18.316      21.390      22.647      23.083      22.647      21.390      19.458    
  17.078      14.534      12.063      9.8027      7.8352      6.1972      4.8906      3.8903      3.1546      2.6369    
  2.2965      2.1036      2.0412      2.1036      2.2965      2.6369      3.1545      3.8903      4.8907      6.1972    
  7.8352      9.8027      12.063      14.534      17.078      19.458      22.231      23.217      23.217      22.231    
  20.413      18.034      15.402      12.776      10.339      8.2025      6.4172      4.9885      3.8903      3.0771    
  2.4973      2.1037      1.8601      1.7437      1.7437      1.8600      2.1036      2.4973      3.0771      3.8903    
  4.9886      6.4172      8.2025      10.339      12.776      15.402      18.034      20.413      22.610      23.126    
  22.610      21.149      18.975      16.392      13.695      11.117      8.8132      6.8625      5.2868      4.0659    
  3.1546      2.4973      2.0412      1.7437      1.5758      1.5215      1.5758      1.7437      2.0412      2.4973    
  3.1545      4.0659      5.2868      6.8625      8.8132      11.117      13.695      16.392      18.975      21.149    
  22.744      22.744      21.737      19.888      17.470      14.791      12.124      9.6684      7.5437      5.7983    
  4.4276      3.3924      2.6369      2.1037      1.7437      1.5215      1.4154      1.4154      1.5215      1.7437    
  2.1036      2.6369      3.3923      4.4275      5.7983      7.5437      9.6684      12.124      14.791      17.470    
  19.888      21.737      22.770      22.257      20.805      18.637      16.054      13.352      10.772      8.4752    
  6.5432      4.9958      3.8075      2.9275      2.2965      1.8601      1.5758      1.4154      1.3635      1.4154    
  1.5758      1.8601      2.2965      2.9275      3.8075      4.9958      6.5432      8.4752      10.772      13.352    
  16.054      18.637      20.805      22.257      22.744      21.737      19.888      17.470      14.791      12.124    
  9.6684      7.5437      5.7983      4.4275      3.3923      2.6369      2.1036      1.7437      1.5215      1.4154    
  1.4154      1.5215      1.7437      2.1037      2.6369      3.3924      4.4276      5.7983      7.5437      9.6684    
  12.124      14.791      17.470      19.888      21.737      22.744      22.610      21.149      18.975      16.392    
  13.695      11.117      8.8132      6.8625      5.2868      4.0659      3.1545      2.4973      2.0412      1.7437    
  1.5758      1.5215      1.5758      1.7437      2.0412      2.4973      3.1546      4.0659      5.2868      6.8625    
  8.8132      11.117      13.695      16.392      18.975      21.149      22.610      23.126      22.231      20.413    
  18.034      15.402      12.776      10.339      8.2025      6.4172      4.9886      3.8903      3.0771      2.4973    
  2.1036      1.8600      1.7437      1.7437      1.8601      2.1037      2.4973      3.0771      3.8903      4.9885    
  6.4172      8.2025      10.339      12.776      15.402      18.034      20.413      22.231      23.217      23.217    
  21.390      19.458      17.078      14.534      12.063      9.8027      7.8352      6.1972      4.8907      3.8903    
  3.1545      2.6369      2.2965      2.1036      2.0412      2.1036      2.2965      2.6369      3.1546      3.8903    
  4.8906      6.1972      7.8352      9.8027      12.063      14.534      17.078      19.458      21.390      22.647    
  23.083      22.647      20.022      18.316      16.191      13.869      11.604      9.5279      7.7125      6.1972    
  4.9886      4.0659      3.3924      2.9275      2.6369      2.4973      2.4973      2.6369      2.9275      3.3924    
  4.0659      4.9885      6.1972      7.7125      9.5279      11.604      13.869      16.191      18.316      20.022    
  21.190      21.778      21.778      21.190      18.411      17.238      15.538      13.504      11.446      9.5280    
  7.8352      6.4172      5.2868      4.4276      3.8075      3.3924      3.1545      3.0771      3.1545      3.3923    
  3.8075      4.4276      5.2868      6.4172      7.8352      9.5279      11.446      13.504      15.538      17.238    
  18.412      19.064      19.342      19.412      19.342      19.064      17.092      16.574      15.295      13.504    
  11.604      9.8027      8.2025      6.8624      5.7983      4.9959      4.4276      4.0659      3.8903      3.8903    
  4.0659      4.4275      4.9958      5.7983      6.8625      8.2025      9.8027      11.604      13.504      15.295    
  16.574      17.092      16.919      16.408      16.002      16.002      16.408      16.919      16.581      16.574    
  15.538      13.869      12.062      10.339      8.8132      7.5437      6.5432      5.7983      5.2868      4.9886    
  4.8907      4.9886      5.2868      5.7983      6.5432      7.5437      8.8132      10.339      12.063      13.869    
  15.538      16.574      16.581      15.568      14.001      12.612      12.061      12.612      14.001      15.568    
  17.092      17.238      16.191      14.534      12.776      11.117      9.6684      8.4752      7.5437      6.8624    
  6.4172      6.1972      6.1972      6.4172      6.8625      7.5437      8.4752      9.6684      11.117      12.776    
  14.534      16.191      17.238      17.092      15.568      13.070      10.493      8.8652      8.8652      10.493    
  13.069      15.568      18.411      18.316      17.078      15.402      13.695      12.124      10.772      9.6684    
  8.8132      8.2025      7.8352      7.7125      7.8352      8.2025      8.8132      9.6684      10.772      12.124    
  13.695      15.402      17.078      18.316      18.412      16.919      14.001      10.493      7.6363      6.5364    
  7.6363      10.493      14.001      16.919      20.022      19.458      18.034      16.392      14.791      13.352    
  12.124      11.117      10.339      9.8027      9.5280      9.5279      9.8027      10.339      11.117      12.124    
  13.352      14.791      16.392      18.034      19.458      20.022      19.064      16.408      12.612      8.8652    
  6.5364      6.5364      8.8652      12.612      16.408      19.064      21.390      20.413      18.975      17.470    
  16.054      14.791      13.695      12.776      12.062      11.604      11.446      11.604      12.063      12.776    
  13.695      14.791      16.054      17.470      18.975      20.413      21.390      21.190      19.342      16.002    
  12.061      8.8652      7.6363      8.8652      12.061      16.002      19.342      21.190      22.231      21.149    
  19.888      18.637      17.470      16.392      15.402      14.534      13.869      13.504      13.504      13.869    
  14.534      15.402      16.392      17.470      18.637      19.888      21.149      22.231      22.647      21.778    
  19.412      16.002      12.612      10.493      10.493      12.612      16.002      19.412      21.778      22.647    
  22.610      21.737      20.805      19.888      18.975      18.034      17.078      16.191      15.538      15.295    
  15.538      16.191      17.078      18.034      18.975      19.888      20.805      21.737      22.610      23.217    
  23.083      21.778      19.342      16.408      14.001      13.069      14.001      16.408      19.342      21.778    
  23.083      23.217      22.743      22.257      21.737      21.149      20.413      19.458      18.316      17.238    
  16.574      16.574      17.238      18.316      19.458      20.413      21.149      21.737      22.257      22.744    
  23.126      23.217      22.647      21.190      19.064      16.919      15.568      15.568      16.919      19.064    
  21.190      22.647      23.217      23.126      22.743      23.126      23.217      22.647      21.190      19.064    
  16.919      15.568      15.568      16.919      19.064      21.190      22.647      23.217      23.126      22.744    
  22.257      21.737      21.149      20.413      19.458      18.316      17.238      16.574      16.574      17.238    
  18.316      19.458      20.413      21.149      21.737      22.257      23.126      23.737      23.551      22.124    
  19.510      16.382      13.823      12.835      13.823      16.382      19.510      22.124      23.551      23.737    
  23.126      22.231      21.275      20.336      19.400      18.431      17.441      16.515      15.829      15.573    
  15.829      16.515      17.441      18.431      19.400      20.336      21.275      22.231      23.217      23.551    
  22.437      19.668      15.769      11.928      9.5390      9.5390      11.928      15.769      19.668      22.437    
  23.551      23.217      22.100      20.779      19.468      18.245      17.112      16.065      15.141      14.429    
  14.036      14.036      14.429      15.141      16.065      17.112      18.245      19.468      20.779      22.100    
  22.647      22.124      19.668      15.508      10.710      6.8612      5.3869      6.8613      10.711      15.508    
  19.668      22.124      22.647      21.738      20.220      18.615      17.102      15.751      14.573      13.579    
  12.801      12.299      12.124      12.299      12.801      13.579      14.573      15.751      17.102      18.615    
  20.220      21.738      21.190      19.510      15.769      10.710      5.8326      2.8312      2.8313      5.8327    
  10.711      15.769      19.510      21.190      20.948      19.529      17.770      16.038      14.477      13.139    
  12.038      11.179      10.584      10.278      10.278      10.584      11.179      12.038      13.139      14.477    
  16.038      17.770      19.529      20.948      19.064      16.382      11.928      6.8612      2.8312      1.2945    
  2.8313      6.8613      11.928      16.382      19.064      19.665      18.657      16.908      15.063      13.346    
  11.860      10.641      9.6907      9.0081      8.5954      8.4571      8.5954      9.0081      9.6907      10.641    
  11.860      13.346      15.063      16.908      18.657      19.665      16.919      13.823      9.5390      5.3869    
  2.8313      2.8313      5.3870      9.5390      13.823      16.919      18.152      17.632      16.045      14.176    
  12.372      10.775      9.4500      8.4098      7.6451      7.1427      6.8938      6.8938      7.1428      7.6451    
  8.4098      9.4499      10.775      12.372      14.176      16.045      17.632      18.152      15.568      12.835    
  9.5390      6.8613      5.8327      6.8613      9.5390      12.835      15.568      16.910      16.670      15.264    
  13.410      11.564      9.8929      8.4845      7.3654      6.5274      5.9494      5.6113      5.5002      5.6114    
  5.9494      6.5274      7.3654      8.4845      9.8928      11.564      13.410      15.264      16.670      16.910    
  15.568      13.823      11.928      10.711      10.711      11.928      13.823      15.568      16.428      16.078    
  14.697      12.829      10.945      9.2178      7.7425      6.5564      5.6551      5.0136      4.6041      4.4049    
  4.4049      4.6041      5.0137      5.6551      6.5564      7.7425      9.2177      10.945      12.829      14.697    
  16.078      16.428      16.919      16.382      15.769      15.508      15.769      16.382      16.919      16.910    
  16.078      14.487      12.513      10.551      8.7575      7.2171      5.9688      5.0101      4.3138      3.8459    
  3.5775      3.4900      3.5775      3.8460      4.3139      5.0101      5.9688      7.2171      8.7575      10.551    
  12.513      14.487      16.078      16.910      19.064      19.510      19.668      19.668      19.510      19.064    
  18.152      16.670      14.697      12.513      10.416      8.5234      6.9034      5.5870      4.5694      3.8210    
  3.3022      2.9773      2.8211      2.8211      2.9773      3.3022      3.8210      4.5695      5.5870      6.9034    
  8.5234      10.416      12.513      14.697      16.670      18.152      21.190      22.124      22.437      22.124    
  21.190      19.665      17.632      15.264      12.829      10.551      8.5234      6.7990      5.3992      4.3135    
  3.5083      2.9394      2.5645      2.3520      2.2831      2.3520      2.5645      2.9393      3.5083      4.3135    
  5.3992      6.7990      8.5234      10.551      12.829      15.264      17.632      19.665      22.647      23.551    
  23.551      22.647      20.948      18.657      16.045      13.410      10.945      8.7575      6.9034      5.3992    
  4.2296      3.3568      2.7318      2.3068      2.0438      1.9181      1.9181      2.0437      2.3068      2.7318    
  3.3568      4.2296      5.3992      6.9034      8.7575      10.945      13.410      16.045      18.657      20.948    
  23.217      23.737      23.217      21.738      19.529      16.908      14.176      11.564      9.2178      7.2171    
  5.5870      4.3135      3.3568      2.6643      2.1831      1.8691      1.6921      1.6349      1.6921      1.8691    
  2.1830      2.6643      3.3568      4.3135      5.5870      7.2171      9.2178      11.564      14.176      16.908    
  19.529      21.738      23.126      23.126      22.100      20.220      17.770      15.063      12.372      9.8929    
  7.7425      5.9688      4.5694      3.5083      2.7318      2.1831      1.8126      1.5840      1.4749      1.4749    
  1.5840      1.8126      2.1830      2.7318      3.5083      4.5694      5.9688      7.7425      9.8929      12.372    
  15.063      17.770      20.220      22.100      22.744      22.231      20.779      18.615      16.038      13.346    
  10.775      8.4845      6.5564      5.0101      3.8210      2.9394      2.3068      1.8691      1.5840      1.4231    
  1.3711      1.4231      1.5840      1.8691      2.3068      2.9393      3.8209      5.0100      6.5564      8.4845    
  10.775      13.346      16.038      18.615      20.779      22.231      22.257      21.275      19.468      17.102    
  14.477      11.860      9.4500      7.3654      5.6551      4.3138      3.3022      2.5645      2.0438      1.6921    
  1.4749      1.3711      1.3711      1.4749      1.6921      2.0438      2.5645      3.3022      4.3138      5.6551    
  7.3654      9.4499      11.860      14.477      17.102      19.468      21.275      22.257      21.737      20.336    
  18.245      15.751      13.139      10.641      8.4098      6.5274      5.0136      3.8459      2.9773      2.3520    
  1.9181      1.6349      1.4749      1.4231      1.4749      1.6349      1.9181      2.3520      2.9774      3.8460    
  5.0136      6.5274      8.4098      10.641      13.139      15.751      18.245      20.336      21.737      22.231    
  21.149      19.400      17.112      14.573      12.038      9.6907      7.6451      5.9494      4.6041      3.5775    
  2.8211      2.2831      1.9181      1.6921      1.5840      1.5840      1.6921      1.9181      2.2832      2.8211    
  3.5775      4.6041      5.9494      7.6451      9.6907      12.038      14.573      17.112      19.400      21.149    
  22.100      22.100      20.413      18.431      16.065      13.579      11.179      9.0081      7.1427      5.6113    
  4.4049      3.4900      2.8211      2.3520      2.0437      1.8691      1.8126      1.8691      2.0438      2.3520    
  2.8211      3.4900      4.4049      5.6113      7.1428      9.0081      11.179      13.579      16.065      18.431    
  20.413      21.738      22.204      21.738      19.458      17.441      15.141      12.801      10.584      8.5954    
  6.8938      5.5002      4.4049      3.5775      2.9773      2.5645      2.3068      2.1830      2.1830      2.3068    
  2.5645      2.9774      3.5775      4.4049      5.5001      6.8938      8.5954      10.584      12.801      15.141    
  17.441      19.458      20.948      21.738      21.738      20.948      18.316      16.515      14.429      12.299    
  10.278      8.4571      6.8938      5.6114      4.6041      3.8460      3.3022      2.9393      2.7318      2.6643    
  2.7318      2.9393      3.3022      3.8460      4.6041      5.6113      6.8938      8.4571      10.278      12.299    
  14.429      16.515      18.316      19.665      20.485      20.759      20.485      19.665      17.238      15.829    
  14.036      12.124      10.278      8.5954      7.1428      5.9494      5.0137      4.3139      3.8210      3.5083    
  3.3568      3.3568      3.5083      3.8209      4.3138      5.0136      5.9494      7.1428      8.5954      10.278    
  12.124      14.036      15.829      17.238      18.152      18.626      18.806      18.806      18.626      18.152    
  16.574      15.573      14.036      12.299      10.584      9.0081      7.6451      6.5274      5.6551      5.0101    
  4.5695      4.3135      4.2296      4.3135      4.5694      5.0100      5.6551      6.5274      7.6451      9.0081    
  10.584      12.299      14.036      15.573      16.574      16.910      16.736      16.399      16.240      16.399    
  16.735      16.910      16.574      15.829      14.429      12.801      11.179      9.6907      8.4098      7.3654    
  6.5564      5.9688      5.5870      5.3992      5.3992      5.5870      5.9688      6.5564      7.3654      8.4098    
  9.6907      11.179      12.801      14.429      15.829      16.574      16.428      15.540      14.403      13.628    
  13.628      14.403      15.540      16.428      17.238      16.515      15.141      13.579      12.038      10.641    
  9.4499      8.4845      7.7425      7.2171      6.9034      6.7990      6.9034      7.2171      7.7425      8.4845    
  9.4499      10.641      12.038      13.579      15.141      16.515      17.238      16.910      15.540      13.628    
  11.979      11.330      11.979      13.628      15.540      16.910      18.316      17.441      16.065      14.573    
  13.139      11.860      10.775      9.8928      9.2177      8.7575      8.5234      8.5234      8.7575      9.2178    
  9.8929      10.775      11.860      13.139      14.573      16.065      17.441      18.316      18.152      16.736    
  14.403      11.979      10.438      10.438      11.979      14.403      16.735      18.152      19.458      18.431    
  17.112      15.751      14.477      13.346      12.372      11.564      10.945      10.551      10.416      10.551    
  10.945      11.564      12.372      13.346      14.477      15.751      17.112      18.431      19.458      19.665    
  18.626      16.399      13.628      11.330      10.438      11.330      13.628      16.399      18.626      19.665    
  20.413      19.400      18.245      17.102      16.038      15.063      14.176      13.410      12.829      12.513    
  12.513      12.829      13.410      14.176      15.063      16.038      17.102      18.245      19.400      20.413    
  20.948      20.485      18.806      16.240      13.628      11.979      11.979      13.628      16.240      18.806    
  20.485      20.948      21.149      20.336      19.468      18.615      17.770      16.908      16.045      15.264    
  14.697      14.487      14.697      15.264      16.045      16.908      17.770      18.615      19.468      20.336    
  21.149      21.738      21.738      20.759      18.806      16.399      14.403      13.628      14.403      16.399    
  18.806      20.759      21.738      21.738      21.737      21.275      20.779      20.220      19.529      18.657    
  17.632      16.670      16.078      16.078      16.670      17.632      18.657      19.529      20.220      20.779    
  21.275      21.737      22.100      22.204      21.738      20.485      18.626      16.735      15.540      15.540    
  16.735      18.626      20.485      21.738      22.204      22.100      22.257      22.231      22.100      21.738    
  20.948      19.665      18.152      16.910      16.428      16.910      18.152      19.665      20.948      21.738    
  22.100      22.231      22.257      22.231      22.100      21.738      20.948      19.665      18.152      16.910    
  16.428      16.910      18.152      19.665      20.948      21.738      22.100      22.231      22.610      23.217    
  23.083      21.778      19.342      16.408      14.001      13.069      14.001      16.408      19.342      21.778    
  23.083      23.217      22.610      21.737      20.805      19.888      18.975      18.034      17.078      16.191    
  15.538      15.295      15.538      16.191      17.078      18.034      18.975      19.888      20.805      21.737    
  23.217      23.551      22.437      19.668      15.769      11.928      9.5390      9.5390      11.928      15.769    
  19.668      22.437      23.551      23.217      22.100      20.779      19.468      18.245      17.112      16.065    
  15.141      14.429      14.036      14.036      14.429      15.141      16.065      17.112      18.245      19.468    
  20.779      22.100      23.083      22.437      19.756      15.294      10.182      6.0932      4.5290      6.0932    
  10.182      15.294      19.756      22.437      23.083      22.204      20.659      19.018      17.471      16.088    
  14.882      13.860      13.060      12.542      12.361      12.542      13.060      13.860      14.882      16.088    
  17.471      19.018      20.659      22.204      21.778      19.668      15.294      9.5032      3.9708     0.58085    
 0.58083      3.9708      9.5031      15.294      19.668      21.778      21.738      20.339      18.515      16.712    
  15.083      13.686      12.533      11.631      11.004      10.680      10.680      11.004      11.631      12.532    
  13.686      15.083      16.712      18.515      20.339      21.738      19.342      15.769      10.182      3.9708    
 -.91760     -2.7738     -.91760      3.9708      10.182      15.769      19.342      20.485      19.684      17.906    
  15.968      14.153      12.578      11.282      10.268      9.5378      9.0946      8.9458      9.0946      9.5378    
  10.268      11.282      12.578      14.153      15.968      17.906      19.684      20.485      16.408      11.928    
  6.0932     0.58085     -2.7738     -2.7738     0.58085      6.0933      11.928      16.408      18.626      18.627    
  17.170      15.225      13.310      11.602      10.179      9.0566      8.2287      7.6832      7.4122      7.4122    
  7.6832      8.2287      9.0566      10.179      11.602      13.310      15.225      17.170      18.627      18.626    
  14.001      9.5390      4.5290     0.58083     -.91760     0.58085      4.5290      9.5390      14.001      16.735    
  17.375      16.340      14.497      12.559      10.773      9.2516      8.0358      7.1216      6.4889      6.1180    
  5.9958      6.1180      6.4889      7.1216      8.0358      9.2516      10.773      12.559      14.497      16.340    
  17.375      16.735      13.069      9.5390      6.0932      3.9708      3.9708      6.0933      9.5390      13.069    
  15.540      16.344      15.573      13.854      11.922      10.096      8.5071      7.2163      6.2292      5.5240    
  5.0726      4.8527      4.8527      5.0726      5.5240      6.2293      7.2163      8.5070      10.096      11.922    
  13.854      15.573      16.344      15.540      14.001      11.928      10.182      9.5031      10.182      11.928    
  14.001      15.540      15.943      15.103      13.401      11.448      9.5861      7.9447      6.5927      5.5442    
  4.7784      4.2623      3.9656      3.8690      3.9657      4.2623      4.7785      5.5442      6.5927      7.9446    
  9.5861      11.448      13.401      15.103      15.943      15.540      16.408      15.769      15.294      15.294    
  15.769      16.408      16.735      16.344      15.103      13.235      11.193      9.2665      7.5662      6.1554    
  5.0504      4.2312      3.6610      3.3033      3.1312      3.1313      3.3034      3.6611      4.2312      5.0504    
  6.1554      7.5662      9.2665      11.193      13.235      15.103      16.344      16.735      19.342      19.668    
  19.756      19.668      19.342      18.626      17.375      15.573      13.401      11.193      9.1572      7.3754    
  5.8964      4.7315      3.8592      3.2397      2.8306      2.5985      2.5233      2.5985      2.8306      3.2397    
  3.8592      4.7315      5.8964      7.3754      9.1572      11.193      13.401      15.573      17.375      18.626    
  21.778      22.437      22.437      21.778      20.485      18.627      16.340      13.854      11.448      9.2665    
  7.3754      5.8107      4.5753      3.6439      2.9731      2.5158      2.2327      2.0975      2.0975      2.2327    
  2.5158      2.9731      3.6440      4.5754      5.8107      7.3754      9.2665      11.448      13.854      16.340    
  18.627      20.485      23.083      23.551      23.083      21.738      19.684      17.170      14.497      11.922    
  9.5861      7.5662      5.8964      4.5753      3.5735      2.8442      2.3360      2.0045      1.8176      1.7572    