diamond Si                              
   5.60000000000000     
     0.000000    0.500000    0.500000
     0.500000    0.000000    0.500000
     0.500000    0.500000    0.000000
   Si
     2
Direct
  0.875000  0.875000  0.875000
  0.125000  0.125000  0.125000
 
   32   32   32
 0.22769877377E+02 0.22743452363E+02 0.22609585006E+02 0.22230936604E+02 0.21389656668E+02
 0.20022263599E+02 0.18411497541E+02 0.17091675734E+02 0.16580512229E+02 0.17091672454E+02
 0.18411488429E+02 0.20022256049E+02 0.21389669253E+02 0.22230981677E+02 0.22609656293E+02
 0.22743533990E+02 0.22769960209E+02 0.22743533990E+02 0.22609656293E+02 0.22230981677E+02
 0.21389669253E+02 0.20022256049E+02 0.18411488429E+02 0.17091672454E+02 0.16580512229E+02
 0.17091675734E+02 0.18411497541E+02 0.20022263599E+02 0.21389656668E+02 0.22230936604E+02
 0.22609585006E+02 0.22743452363E+02 0.22743452363E+02 0.23125773681E+02 0.23216619676E+02
 0.22647012075E+02 0.21190182822E+02 0.19063662275E+02 0.16919193703E+02 0.15567840259E+02
 0.15567825381E+02 0.16919172612E+02 0.19063672842E+02 0.21190229329E+02 0.22647072210E+02
 0.23216684373E+02 0.23125852013E+02 0.22743539404E+02 0.22257499037E+02 0.21737080002E+02
 0.21148627433E+02 0.20412968310E+02 0.19457679106E+02 0.18316428332E+02 0.17238414850E+02
 0.16574058991E+02 0.16574075739E+02 0.17238449567E+02 0.18316453810E+02 0.19457687824E+02
 0.20412970902E+02 0.21148623629E+02 0.21737050011E+02 0.22257431236E+02 0.22609585006E+02
 0.23216619676E+02 0.23083140540E+02 0.21777952089E+02 0.19342093531E+02 0.16408153976E+02
 0.14000665893E+02 0.13069429714E+02 0.14000646030E+02 0.16408132844E+02 0.19342090186E+02
 0.21777977181E+02 0.23083199230E+02 0.23216703982E+02 0.22609664370E+02 0.21737088308E+02
 0.20804550307E+02 0.19887698615E+02 0.18975076050E+02 0.18033784878E+02 0.17078251761E+02
 0.16191477467E+02 0.15537796606E+02 0.15294616478E+02 0.15537782786E+02 0.16191463841E+02
 0.17078251560E+02 0.18033802997E+02 0.18975111022E+02 0.19887736691E+02 0.20804562084E+02
 0.21737050011E+02 0.22230936604E+02 0.22647012075E+02 0.21777952089E+02 0.19411665597E+02
 0.16002180632E+02 0.12611548875E+02 0.10493175196E+02 0.10493184736E+02 0.12611553271E+02
 0.16002149156E+02 0.19411623154E+02 0.21777961760E+02 0.22647091091E+02 0.22231022997E+02
 0.21148648411E+02 0.19887700890E+02 0.18636921465E+02 0.17469809256E+02 0.16392240978E+02
 0.15401867771E+02 0.14533788764E+02 0.13868840667E+02 0.13503624507E+02 0.13503573132E+02
 0.13868743802E+02 0.14533741818E+02 0.15401891087E+02 0.16392288762E+02 0.17469854999E+02
 0.18636971623E+02 0.19887736691E+02 0.21148623629E+02 0.21389656668E+02 0.21190182822E+02
 0.19342093531E+02 0.16002180632E+02 0.12060530785E+02 0.88652210019E+01 0.76362725107E+01
 0.88652040593E+01 0.12060522290E+02 0.16002195558E+02 0.19342123572E+02 0.21190219120E+02
 0.21389697832E+02 0.20413003642E+02 0.18975110031E+02 0.17469813343E+02 0.16053814281E+02
 0.14790981792E+02 0.13695096745E+02 0.12775524940E+02 0.12062538499E+02 0.11604403568E+02
 0.11445681233E+02 0.11604372193E+02 0.12062498018E+02 0.12775500102E+02 0.13695102255E+02
 0.14791020567E+02 0.16053871091E+02 0.17469854999E+02 0.18975111022E+02 0.20412970902E+02
 0.20022263599E+02 0.19063662275E+02 0.16408153976E+02 0.12611548875E+02 0.88652210019E+01
 0.65364264749E+01 0.65364181941E+01 0.88652196983E+01 0.12611587004E+02 0.16408220946E+02
 0.19063719790E+02 0.20022296381E+02 0.19457707367E+02 0.18033812403E+02 0.16392278536E+02
 0.14790998688E+02 0.13352198621E+02 0.12123892742E+02 0.11117379825E+02 0.10338840965E+02
 0.98026743685E+01 0.95279426571E+01 0.95279566331E+01 0.98026977987E+01 0.10338841809E+02
 0.11117353804E+02 0.12123869677E+02 0.13352203672E+02 0.14791020567E+02 0.16392288762E+02
 0.18033802997E+02 0.19457687824E+02 0.18411497541E+02 0.16919193703E+02 0.14000665893E+02
 0.10493175196E+02 0.76362725107E+01 0.65364181941E+01 0.76363185803E+01 0.10493236294E+02
 0.14000713700E+02 0.16919227372E+02 0.18411530321E+02 0.18316486762E+02 0.17078274083E+02
 0.15401905229E+02 0.13695126531E+02 0.12123911515E+02 0.10772418513E+02 0.96684324709E+01
 0.88131587289E+01 0.82024794840E+01 0.78351940313E+01 0.77124900940E+01 0.78351813176E+01
 0.82024688761E+01 0.88131515539E+01 0.96684114988E+01 0.10772377509E+02 0.12123869677E+02
 0.13695102255E+02 0.15401891087E+02 0.17078251560E+02 0.18316453810E+02 0.17091675734E+02
 0.15567840259E+02 0.13069429714E+02 0.10493184736E+02 0.88652040593E+01 0.88652196983E+01
 0.10493236294E+02 0.13069510558E+02 0.15567912633E+02 0.17091702586E+02 0.17238443808E+02
 0.16191477771E+02 0.14533801425E+02 0.12775573910E+02 0.11117399068E+02 0.96684292598E+01
 0.84751746573E+01 0.75437151675E+01 0.68624725074E+01 0.64171777085E+01 0.61972294651E+01
 0.61972322416E+01 0.64171728884E+01 0.68624452746E+01 0.75436793773E+01 0.84751527125E+01
 0.96684114988E+01 0.11117353804E+02 0.12775500102E+02 0.14533741818E+02 0.16191463841E+02
 0.17238449567E+02 0.16580512229E+02 0.15567825381E+02 0.14000646030E+02 0.12611553271E+02
 0.12060522290E+02 0.12611587004E+02 0.14000713700E+02 0.15567912633E+02 0.16580589068E+02
 0.16574121219E+02 0.15537806332E+02 0.13868771195E+02 0.12062538025E+02 0.10338879136E+02
 0.88131732578E+01 0.75436909129E+01 0.65432116981E+01 0.57983013554E+01 0.52867630646E+01
 0.49885591761E+01 0.48906566811E+01 0.49885873363E+01 0.52867906090E+01 0.57983083118E+01
 0.65432045155E+01 0.75436793773E+01 0.88131515539E+01 0.10338841809E+02 0.12062498018E+02
 0.13868743802E+02 0.15537782786E+02 0.16574075739E+02 0.17091672454E+02 0.16919172612E+02
 0.16408132844E+02 0.16002149156E+02 0.16002195558E+02 0.16408220946E+02 0.16919227372E+02
 0.17091702586E+02 0.16574121219E+02 0.15294702123E+02 0.13503608315E+02 0.11604334484E+02
 0.98026592632E+01 0.82024910432E+01 0.68624880268E+01 0.57982921404E+01 0.49957916247E+01
 0.44275441243E+01 0.40658938198E+01 0.38903366387E+01 0.38903301933E+01 0.40659055504E+01
 0.44276083134E+01 0.49958682626E+01 0.57983083118E+01 0.68624452746E+01 0.82024688761E+01
 0.98026977987E+01 0.11604372193E+02 0.13503573132E+02 0.15294616478E+02 0.16574058991E+02
 0.18411488429E+02 0.19063672842E+02 0.19342090186E+02 0.19411623154E+02 0.19342123572E+02
 0.19063719790E+02 0.18411530321E+02 0.17238443808E+02 0.15537806332E+02 0.13503608315E+02
 0.11445645675E+02 0.95279240880E+01 0.78351680098E+01 0.64171713444E+01 0.52867806679E+01
 0.44275810715E+01 0.38075139717E+01 0.33923328919E+01 0.31545310336E+01 0.30771499225E+01
 0.31545469531E+01 0.33923628007E+01 0.38075496684E+01 0.44276083134E+01 0.52867906090E+01
 0.64171728884E+01 0.78351813176E+01 0.95279566331E+01 0.11445681233E+02 0.13503624507E+02
 0.15537796606E+02 0.17238414850E+02 0.20022256049E+02 0.21190229329E+02 0.21777977181E+02
 0.21777961760E+02 0.21190219120E+02 0.20022296381E+02 0.18316486762E+02 0.16191477771E+02
 0.13868771195E+02 0.11604334484E+02 0.95279240880E+01 0.77124886698E+01 0.61972009870E+01
 0.49885492675E+01 0.40659134751E+01 0.33924030812E+01 0.29274904569E+01 0.26368728867E+01
 0.24972843432E+01 0.24973153361E+01 0.26369194543E+01 0.29274859627E+01 0.33923628007E+01
 0.40659055504E+01 0.49885873363E+01 0.61972322416E+01 0.77124900940E+01 0.95279426571E+01
 0.11604403568E+02 0.13868840667E+02 0.16191477467E+02 0.18316428332E+02 0.21389669253E+02
 0.22647072210E+02 0.23083199230E+02 0.22647091091E+02 0.21389697832E+02 0.19457707367E+02
 0.17078274083E+02 0.14533801425E+02 0.12062538025E+02 0.98026592632E+01 0.78351680098E+01
 0.61972009870E+01 0.48906356013E+01 0.38903236354E+01 0.31545547140E+01 0.26369336370E+01
 0.22965243276E+01 0.21036386138E+01 0.20411678082E+01 0.21036334103E+01 0.22965128728E+01
 0.26369194543E+01 0.31545469531E+01 0.38903301933E+01 0.48906566811E+01 0.61972294651E+01
 0.78351940313E+01 0.98026743685E+01 0.12062538499E+02 0.14533788764E+02 0.17078251761E+02
 0.19457679106E+02 0.22230981677E+02 0.23216684373E+02 0.23216703982E+02 0.22231022997E+02
 0.20413003642E+02 0.18033812403E+02 0.15401905229E+02 0.12775573910E+02 0.10338879136E+02
 0.82024910432E+01 0.64171713444E+01 0.49885492675E+01 0.38903236354E+01 0.30771334773E+01
 0.24973131528E+01 0.21036641853E+01 0.18600989712E+01 0.17436790198E+01 0.17436545352E+01
 0.18600497114E+01 0.21036334103E+01 0.24973153361E+01 0.30771499225E+01 0.38903366387E+01
 0.49885591761E+01 0.64171777085E+01 0.82024794840E+01 0.10338840965E+02 0.12775524940E+02
 0.15401867771E+02 0.18033784878E+02 0.20412968310E+02 0.22609656293E+02 0.23125852013E+02
 0.22609664370E+02 0.21148648411E+02 0.18975110031E+02 0.16392278536E+02 0.13695126531E+02
 0.11117399068E+02 0.88131732578E+01 0.68624880268E+01 0.52867806679E+01 0.40659134751E+01
 0.31545547140E+01 0.24973131528E+01 0.20411979730E+01 0.17436789708E+01 0.15757882434E+01
 0.15214954278E+01 0.15757750114E+01 0.17436545352E+01 0.20411678082E+01 0.24972843432E+01
 0.31545310336E+01 0.40658938198E+01 0.52867630646E+01 0.68624725074E+01 0.88131587289E+01
 0.11117379825E+02 0.13695096745E+02 0.16392240978E+02 0.18975076050E+02 0.21148627433E+02
 0.22743533990E+02 0.22743539404E+02 0.21737088308E+02 0.19887700890E+02 0.17469813343E+02
 0.14790998688E+02 0.12123911515E+02 0.96684292598E+01 0.75436909129E+01 0.57982921404E+01
 0.44275810715E+01 0.33924030812E+01 0.26369336370E+01 0.21036641853E+01 0.17436789708E+01
 0.15214904381E+01 0.14153720194E+01 0.14153736491E+01 0.15214954278E+01 0.17436790198E+01
 0.21036386138E+01 0.26368728867E+01 0.33923328919E+01 0.44275441243E+01 0.57983013554E+01
 0.75437151675E+01 0.96684324709E+01 0.12123892742E+02 0.14790981792E+02 0.17469809256E+02
 0.19887698615E+02 0.21737080002E+02 0.22769960209E+02 0.22257499037E+02 0.20804550307E+02
 0.18636921465E+02 0.16053814281E+02 0.13352198621E+02 0.10772418513E+02 0.84751746573E+01
 0.65432116981E+01 0.49957916247E+01 0.38075139717E+01 0.29274904569E+01 0.22965243276E+01
 0.18600989712E+01 0.15757882434E+01 0.14153720194E+01 0.13634908112E+01 0.14153720194E+01
 0.15757882434E+01 0.18600989712E+01 0.22965243276E+01 0.29274904569E+01 0.38075139717E+01
 0.49957916247E+01 0.65432116981E+01 0.84751746573E+01 0.10772418513E+02 0.13352198621E+02
 0.16053814281E+02 0.18636921465E+02 0.20804550307E+02 0.22257499037E+02 0.22743533990E+02
 0.21737080002E+02 0.19887698615E+02 0.17469809256E+02 0.14790981792E+02 0.12123892742E+02
 0.96684324709E+01 0.75437151675E+01 0.57983013554E+01 0.44275441243E+01 0.33923328919E+01
 0.26368728867E+01 0.21036386138E+01 0.17436790198E+01 0.15214954278E+01 0.14153736491E+01
 0.14153720194E+01 0.15214904381E+01 0.17436789708E+01 0.21036641853E+01 0.26369336370E+01
 0.33924030812E+01 0.44275810715E+01 0.57982921404E+01 0.75436909129E+01 0.96684292598E+01
 0.12123911515E+02 0.14790998688E+02 0.17469813343E+02 0.19887700890E+02 0.21737088308E+02
 0.22743539404E+02 0.22609656293E+02 0.21148627433E+02 0.18975076050E+02 0.16392240978E+02
 0.13695096745E+02 0.11117379825E+02 0.88131587289E+01 0.68624725074E+01 0.52867630646E+01
 0.40658938198E+01 0.31545310336E+01 0.24972843432E+01 0.20411678082E+01 0.17436545352E+01
 0.15757750114E+01 0.15214954278E+01 0.15757882434E+01 0.17436789708E+01 0.20411979730E+01
 0.24973131528E+01 0.31545547140E+01 0.40659134751E+01 0.52867806679E+01 0.68624880268E+01
 0.88131732578E+01 0.11117399068E+02 0.13695126531E+02 0.16392278536E+02 0.18975110031E+02
 0.21148648411E+02 0.22609664370E+02 0.23125852013E+02 0.22230981677E+02 0.20412968310E+02
 0.18033784878E+02 0.15401867771E+02 0.12775524940E+02 0.10338840965E+02 0.82024794840E+01
 0.64171777085E+01 0.49885591761E+01 0.38903366387E+01 0.30771499225E+01 0.24973153361E+01
 0.21036334103E+01 0.18600497114E+01 0.17436545352E+01 0.17436790198E+01 0.18600989712E+01
 0.21036641853E+01 0.24973131528E+01 0.30771334773E+01 0.38903236354E+01 0.49885492675E+01
 0.64171713444E+01 0.82024910432E+01 0.10338879136E+02 0.12775573910E+02 0.15401905229E+02
 0.18033812403E+02 0.20413003642E+02 0.22231022997E+02 0.23216703982E+02 0.23216684373E+02
 0.21389669253E+02 0.19457679106E+02 0.17078251761E+02 0.14533788764E+02 0.12062538499E+02
 0.98026743685E+01 0.78351940313E+01 0.61972294651E+01 0.48906566811E+01 0.38903301933E+01
 0.31545469531E+01 0.26369194543E+01 0.22965128728E+01 0.21036334103E+01 0.20411678082E+01
 0.21036386138E+01 0.22965243276E+01 0.26369336370E+01 0.31545547140E+01 0.38903236354E+01
 0.48906356013E+01 0.61972009870E+01 0.78351680098E+01 0.98026592632E+01 0.12062538025E+02
 0.14533801425E+02 0.17078274083E+02 0.19457707367E+02 0.21389697832E+02 0.22647091091E+02
 0.23083199230E+02 0.22647072210E+02 0.20022256049E+02 0.18316428332E+02 0.16191477467E+02
 0.13868840667E+02 0.11604403568E+02 0.95279426571E+01 0.77124900940E+01 0.61972322416E+01
 0.49885873363E+01 0.40659055504E+01 0.33923628007E+01 0.29274859627E+01 0.26369194543E+01
 0.24973153361E+01 0.24972843432E+01 0.26368728867E+01 0.29274904569E+01 0.33924030812E+01
 0.40659134751E+01 0.49885492675E+01 0.61972009870E+01 0.77124886698E+01 0.95279240880E+01
 0.11604334484E+02 0.13868771195E+02 0.16191477771E+02 0.18316486762E+02 0.20022296381E+02
 0.21190219120E+02 0.21777961760E+02 0.21777977181E+02 0.21190229329E+02 0.18411488429E+02
 0.17238414850E+02 0.15537796606E+02 0.13503624507E+02 0.11445681233E+02 0.95279566331E+01
 0.78351813176E+01 0.64171728884E+01 0.52867906090E+01 0.44276083134E+01 0.38075496684E+01
 0.33923628007E+01 0.31545469531E+01 0.30771499225E+01 0.31545310336E+01 0.33923328919E+01
 0.38075139717E+01 0.44275810715E+01 0.52867806679E+01 0.64171713444E+01 0.78351680098E+01
 0.95279240880E+01 0.11445645675E+02 0.13503608315E+02 0.15537806332E+02 0.17238443808E+02
 0.18411530321E+02 0.19063719790E+02 0.19342123572E+02 0.19411623154E+02 0.19342090186E+02
 0.19063672842E+02 0.17091672454E+02 0.16574058991E+02 0.15294616478E+02 0.13503573132E+02
 0.11604372193E+02 0.98026977987E+01 0.82024688761E+01 0.68624452746E+01 0.57983083118E+01
 0.49958682626E+01 0.44276083134E+01 0.40659055504E+01 0.38903301933E+01 0.38903366387E+01
 0.40658938198E+01 0.44275441243E+01 0.49957916247E+01 0.57982921404E+01 0.68624880268E+01
 0.82024910432E+01 0.98026592632E+01 0.11604334484E+02 0.13503608315E+02 0.15294702123E+02
 0.16574121219E+02 0.17091702586E+02 0.16919227372E+02 0.16408220946E+02 0.16002195558E+02
 0.16002149156E+02 0.16408132844E+02 0.16919172612E+02 0.16580512229E+02 0.16574075739E+02
 0.15537782786E+02 0.13868743802E+02 0.12062498018E+02 0.10338841809E+02 0.88131515539E+01
 0.75436793773E+01 0.65432045155E+01 0.57983083118E+01 0.52867906090E+01 0.49885873363E+01
 0.48906566811E+01 0.49885591761E+01 0.52867630646E+01 0.57983013554E+01 0.65432116981E+01
 0.75436909129E+01 0.88131732578E+01 0.10338879136E+02 0.12062538025E+02 0.13868771195E+02
 0.15537806332E+02 0.16574121219E+02 0.16580589068E+02 0.15567912633E+02 0.14000713700E+02
 0.12611587004E+02 0.12060522290E+02 0.12611553271E+02 0.14000646030E+02 0.15567825381E+02
 0.17091675734E+02 0.17238449567E+02 0.16191463841E+02 0.14533741818E+02 0.12775500102E+02
 0.11117353804E+02 0.96684114988E+01 0.84751527125E+01 0.75436793773E+01 0.68624452746E+01
 0.64171728884E+01 0.61972322416E+01 0.61972294651E+01 0.64171777085E+01 0.68624725074E+01
 0.75437151675E+01 0.84751746573E+01 0.96684292598E+01 0.11117399068E+02 0.12775573910E+02
 0.14533801425E+02 0.16191477771E+02 0.17238443808E+02 0.17091702586E+02 0.15567912633E+02
 0.13069510558E+02 0.10493236294E+02 0.88652196983E+01 0.88652040593E+01 0.10493184736E+02
 0.13069429714E+02 0.15567840259E+02 0.18411497541E+02 0.18316453810E+02 0.17078251560E+02
 0.15401891087E+02 0.13695102255E+02 0.12123869677E+02 0.10772377509E+02 0.96684114988E+01
 0.88131515539E+01 0.82024688761E+01 0.78351813176E+01 0.77124900940E+01 0.78351940313E+01
 0.82024794840E+01 0.88131587289E+01 0.96684324709E+01 0.10772418513E+02 0.12123911515E+02
 0.13695126531E+02 0.15401905229E+02 0.17078274083E+02 0.18316486762E+02 0.18411530321E+02
 0.16919227372E+02 0.14000713700E+02 0.10493236294E+02 0.76363185803E+01 0.65364181941E+01
 0.76362725107E+01 0.10493175196E+02 0.14000665893E+02 0.16919193703E+02 0.20022263599E+02
 0.19457687824E+02 0.18033802997E+02 0.16392288762E+02 0.14791020567E+02 0.13352203672E+02
 0.12123869677E+02 0.11117353804E+02 0.10338841809E+02 0.98026977987E+01 0.95279566331E+01
 0.95279426571E+01 0.98026743685E+01 0.10338840965E+02 0.11117379825E+02 0.12123892742E+02
 0.13352198621E+02 0.14790998688E+02 0.16392278536E+02 0.18033812403E+02 0.19457707367E+02
 0.20022296381E+02 0.19063719790E+02 0.16408220946E+02 0.12611587004E+02 0.88652196983E+01
 0.65364181941E+01 0.65364264749E+01 0.88652210019E+01 0.12611548875E+02 0.16408153976E+02
 0.19063662275E+02 0.21389656668E+02 0.20412970902E+02 0.18975111022E+02 0.17469854999E+02
 0.16053871091E+02 0.14791020567E+02 0.13695102255E+02 0.12775500102E+02 0.12062498018E+02
 0.11604372193E+02 0.11445681233E+02 0.11604403568E+02 0.12062538499E+02 0.12775524940E+02
 0.13695096745E+02 0.14790981792E+02 0.16053814281E+02 0.17469813343E+02 0.18975110031E+02
 0.20413003642E+02 0.21389697832E+02 0.21190219120E+02 0.19342123572E+02 0.16002195558E+02
 0.12060522290E+02 0.88652040593E+01 0.76362725107E+01 0.88652210019E+01 0.12060530785E+02
 0.16002180632E+02 0.19342093531E+02 0.21190182822E+02 0.22230936604E+02 0.21148623629E+02
 0.19887736691E+02 0.18636971623E+02 0.17469854999E+02 0.16392288762E+02 0.15401891087E+02
 0.14533741818E+02 0.13868743802E+02 0.13503573132E+02 0.13503624507E+02 0.13868840667E+02
 0.14533788764E+02 0.15401867771E+02 0.16392240978E+02 0.17469809256E+02 0.18636921465E+02
 0.19887700890E+02 0.21148648411E+02 0.22231022997E+02 0.22647091091E+02 0.21777961760E+02
 0.19411623154E+02 0.16002149156E+02 0.12611553271E+02 0.10493184736E+02 0.10493175196E+02
 0.12611548875E+02 0.16002180632E+02 0.19411665597E+02 0.21777952089E+02 0.22647012075E+02
 0.22609585006E+02 0.21737050011E+02 0.20804562084E+02 0.19887736691E+02 0.18975111022E+02
 0.18033802997E+02 0.17078251560E+02 0.16191463841E+02 0.15537782786E+02 0.15294616478E+02
 0.15537796606E+02 0.16191477467E+02 0.17078251761E+02 0.18033784878E+02 0.18975076050E+02
 0.19887698615E+02 0.20804550307E+02 0.21737088308E+02 0.22609664370E+02 0.23216703982E+02
 0.23083199230E+02 0.21777977181E+02 0.19342090186E+02 0.16408132844E+02 0.14000646030E+02
 0.13069429714E+02 0.14000665893E+02 0.16408153976E+02 0.19342093531E+02 0.21777952089E+02
 0.23083140540E+02 0.23216619676E+02 0.22743452363E+02 0.22257431236E+02 0.21737050011E+02
 0.21148623629E+02 0.20412970902E+02 0.19457687824E+02 0.18316453810E+02 0.17238449567E+02
 0.16574075739E+02 0.16574058991E+02 0.17238414850E+02 0.18316428332E+02 0.19457679106E+02
 0.20412968310E+02 0.21148627433E+02 0.21737080002E+02 0.22257499037E+02 0.22743539404E+02
 0.23125852013E+02 0.23216684373E+02 0.22647072210E+02 0.21190229329E+02 0.19063672842E+02
 0.16919172612E+02 0.15567825381E+02 0.15567840259E+02 0.16919193703E+02 0.19063662275E+02
 0.21190182822E+02 0.22647012075E+02 0.23216619676E+02 0.23125773681E+02 0.22743449285E+02
 0.23125768940E+02 0.23216615991E+02 0.22647009590E+02 0.21190179816E+02 0.19063659373E+02
 0.16919193065E+02 0.15567841361E+02 0.15567825893E+02 0.16919172691E+02 0.19063674325E+02
 0.21190231533E+02 0.22647072837E+02 0.23216683817E+02 0.23125852486E+02 0.22743540593E+02
 0.22257498868E+02 0.21737078893E+02 0.21148627508E+02 0.20412969203E+02 0.19457678839E+02
 0.18316427547E+02 0.17238415883E+02 0.16574061524E+02 0.16574077606E+02 0.17238451031E+02
 0.18316456749E+02 0.19457691479E+02 0.20412972735E+02 0.21148623644E+02 0.21737050010E+02
 0.22257430679E+02 0.23125768940E+02 0.23737159738E+02 0.23551234397E+02 0.22124002904E+02
 0.19509685450E+02 0.16381935485E+02 0.13823194929E+02 0.12834687112E+02 0.13823221692E+02
 0.16381988657E+02 0.19509753062E+02 0.22124068910E+02 0.23551299460E+02 0.23737235167E+02
 0.23125849745E+02 0.22231166298E+02 0.21275275094E+02 0.20336023316E+02 0.19399828791E+02
 0.18430710788E+02 0.17441086775E+02 0.16514743420E+02 0.15828698061E+02 0.15573000830E+02
 0.15828685788E+02 0.16514743978E+02 0.17441115659E+02 0.18430756068E+02 0.19399867696E+02
 0.20336037803E+02 0.21275252236E+02 0.22231104886E+02 0.23216615991E+02 0.23551234397E+02
 0.22437334151E+02 0.19668317954E+02 0.15769127800E+02 0.11928383166E+02 0.95389676673E+01
 0.95389934133E+01 0.11928434650E+02 0.15769161122E+02 0.19668328885E+02 0.22437362548E+02
 0.23551305646E+02 0.23216697960E+02 0.22100291526E+02 0.20779212789E+02 0.19468374707E+02
 0.18244931007E+02 0.17112147532E+02 0.16065065070E+02 0.15141119448E+02 0.14429368257E+02
 0.14036458383E+02 0.14036428283E+02 0.14429316096E+02 0.15141106536E+02 0.16065099839E+02
 0.17112196291E+02 0.18244975375E+02 0.19468414509E+02 0.20779228068E+02 0.22100252463E+02
 0.22647009590E+02 0.22124002904E+02 0.19668317954E+02 0.15508055240E+02 0.10710490421E+02
 0.68612252807E+01 0.53869417684E+01 0.68612907771E+01 0.10710542501E+02 0.15508039209E+02
 0.19668273811E+02 0.22124008948E+02 0.22647076045E+02 0.21737899866E+02 0.20220207881E+02
 0.18614990502E+02 0.17102368150E+02 0.15751044280E+02 0.14573414064E+02 0.13578517944E+02
 0.12801315226E+02 0.12298858119E+02 0.12124185605E+02 0.12298796767E+02 0.12801256328E+02
 0.13578507488E+02 0.14573442529E+02 0.15751091664E+02 0.17102432623E+02 0.18615053005E+02
 0.20220219389E+02 0.21737843312E+02 0.21190179816E+02 0.19509685450E+02 0.15769127800E+02
 0.10710490421E+02 0.58325728811E+01 0.28312079778E+01 0.28312525130E+01 0.58326637316E+01
 0.10710547921E+02 0.15769122446E+02 0.19509659730E+02 0.21190183011E+02 0.20947961954E+02
 0.19529140306E+02 0.17769799484E+02 0.16038447584E+02 0.14476951298E+02 0.13139355496E+02
 0.12037550057E+02 0.11179391225E+02 0.10584292545E+02 0.10277823804E+02 0.10277807303E+02
 0.10584260892E+02 0.11179373074E+02 0.12037552384E+02 0.13139372498E+02 0.14476985567E+02
 0.16038496345E+02 0.17769835147E+02 0.19529136831E+02 0.20947936607E+02 0.19063659373E+02
 0.16381935485E+02 0.11928383166E+02 0.68612252807E+01 0.28312079778E+01 0.12944507194E+01
 0.28312787200E+01 0.68613144867E+01 0.11928438829E+02 0.16381950013E+02 0.19063658266E+02
 0.19665184899E+02 0.18656619028E+02 0.16907727293E+02 0.15062673389E+02 0.13345641972E+02
 0.11860090341E+02 0.10640680190E+02 0.96906538893E+01 0.90081172246E+01 0.85954219974E+01
 0.84571373603E+01 0.85954372786E+01 0.90081358711E+01 0.96906583291E+01 0.10640663326E+02
 0.11860067017E+02 0.13345635308E+02 0.15062687642E+02 0.16907744387E+02 0.18656624604E+02
 0.19665184914E+02 0.16919193065E+02 0.13823194929E+02 0.95389676673E+01 0.53869417684E+01
 0.28312525130E+01 0.28312787200E+01 0.53870032896E+01 0.95390260989E+01 0.13823220571E+02
 0.16919187603E+02 0.18151575360E+02 0.17632075986E+02 0.16045316930E+02 0.14176372674E+02
 0.12371581778E+02 0.10774785296E+02 0.94499552761E+01 0.84098471743E+01 0.76450640890E+01
 0.71427415706E+01 0.68937754498E+01 0.68937947440E+01 0.71427739242E+01 0.76450668279E+01
 0.84098136466E+01 0.94499146987E+01 0.10774757777E+02 0.12371557066E+02 0.14176336918E+02
 0.16045280391E+02 0.17632060819E+02 0.18151583528E+02 0.15567841361E+02 0.12834687112E+02
 0.95389934133E+01 0.68612907771E+01 0.58326637316E+01 0.68613144867E+01 0.95390260989E+01
 0.12834712241E+02 0.15567853282E+02 0.16909687355E+02 0.16669777201E+02 0.15263876586E+02
 0.13409894016E+02 0.11563694498E+02 0.98928734200E+01 0.84844802342E+01 0.73654433026E+01
 0.65274401382E+01 0.59494037365E+01 0.56113402008E+01 0.55001518902E+01 0.56113513019E+01
 0.59494066146E+01 0.65274262021E+01 0.73654234841E+01 0.84844595742E+01 0.98928379822E+01
 0.11563634431E+02 0.13409824935E+02 0.15263825390E+02 0.16669753866E+02 0.16909679228E+02
 0.15567825893E+02 0.13823221692E+02 0.11928434650E+02 0.10710542501E+02 0.10710547921E+02
 0.11928438829E+02 0.13823220571E+02 0.15567853282E+02 0.16428410626E+02 0.16077762454E+02
 0.14696816675E+02 0.12829326721E+02 0.10945010886E+02 0.92177875229E+01 0.77425322234E+01
 0.65564236526E+01 0.56550598018E+01 0.50136249078E+01 0.46040907069E+01 0.44049333474E+01
 0.44049256900E+01 0.46040904034E+01 0.50136592560E+01 0.56551036629E+01 0.65564217684E+01
 0.77424774855E+01 0.92177370742E+01 0.10945006306E+02 0.12829331824E+02 0.14696769092E+02
 0.16077665308E+02 0.16428329016E+02 0.16919172691E+02 0.16381988657E+02 0.15769161122E+02
 0.15508039209E+02 0.15769122446E+02 0.16381950013E+02 0.16919187603E+02 0.16909687355E+02
 0.16077762454E+02 0.14487272233E+02 0.12512850128E+02 0.10551439962E+02 0.87575015131E+01
 0.72171387255E+01 0.59688333417E+01 0.50100696944E+01 0.43138046275E+01 0.38459433902E+01
 0.35774703491E+01 0.34900411835E+01 0.35774916941E+01 0.38459869786E+01 0.43138542802E+01
 0.50100933550E+01 0.59688182163E+01 0.72171169242E+01 0.87575176215E+01 0.10551488833E+02
 0.12512869196E+02 0.14487212073E+02 0.16077649814E+02 0.16909599594E+02 0.19063674325E+02
 0.19509753062E+02 0.19668328885E+02 0.19668273811E+02 0.19509659730E+02 0.19063658266E+02
 0.18151575360E+02 0.16669777201E+02 0.14696816675E+02 0.12512850128E+02 0.10415895657E+02
 0.85234219108E+01 0.69033720250E+01 0.55869614755E+01 0.45694385370E+01 0.38209779491E+01
 0.33021921163E+01 0.29772808015E+01 0.28211099283E+01 0.28211404539E+01 0.29773297766E+01
 0.33022001672E+01 0.38209610666E+01 0.45694542760E+01 0.55870098496E+01 0.69033987070E+01
 0.85234148057E+01 0.10415906912E+02 0.12512900418E+02 0.14696844204E+02 0.16669730401E+02
 0.18151510231E+02 0.21190231533E+02 0.22124068910E+02 0.22437362548E+02 0.22124008948E+02
 0.21190183011E+02 0.19665184899E+02 0.17632075986E+02 0.15263876586E+02 0.12829326721E+02
 0.10551439962E+02 0.85234219108E+01 0.67990325270E+01 0.53991522569E+01 0.43134793320E+01
 0.35083130589E+01 0.29393526512E+01 0.25644781511E+01 0.23519588095E+01 0.22831357273E+01
 0.23519662677E+01 0.25644718928E+01 0.29393348758E+01 0.35083151253E+01 0.43135109747E+01
 0.53991803174E+01 0.67990334607E+01 0.85234255490E+01 0.10551486027E+02 0.12829395836E+02
 0.15263909468E+02 0.17632061247E+02 0.19665180448E+02 0.22647072837E+02 0.23551299460E+02
 0.23551305646E+02 0.22647076045E+02 0.20947961954E+02 0.18656619028E+02 0.16045316930E+02
 0.13409894016E+02 0.10945010886E+02 0.87575015131E+01 0.69033720250E+01 0.53991522569E+01
 0.42296341277E+01 0.33568346858E+01 0.27318154108E+01 0.23067877501E+01 0.20437676216E+01
 0.19180864916E+01 0.19180659832E+01 0.20437317837E+01 0.23067759258E+01 0.27318266440E+01
 0.33568399771E+01 0.42296309237E+01 0.53991700892E+01 0.69034195936E+01 0.87575419558E+01
 0.10945009513E+02 0.13409867635E+02 0.16045308516E+02 0.18656638085E+02 0.20947978868E+02
 0.23216683817E+02 0.23737235167E+02 0.23216697960E+02 0.21737899866E+02 0.19529140306E+02
 0.16907727293E+02 0.14176372674E+02 0.11563694498E+02 0.92177875229E+01 0.72171387255E+01
 0.55869614755E+01 0.43134793320E+01 0.33568346858E+01 0.26643342554E+01 0.21830522517E+01
 0.18691301041E+01 0.16920871567E+01 0.16348582835E+01 0.16920683254E+01 0.18691023797E+01
 0.21830271425E+01 0.26643202372E+01 0.33568384076E+01 0.43135017114E+01 0.55869890510E+01
 0.72171472442E+01 0.92177634778E+01 0.11563650620E+02 0.14176335240E+02 0.16907707993E+02
 0.19529128675E+02 0.21737884378E+02 0.23125852486E+02 0.23125849745E+02 0.22100291526E+02
 0.20220207881E+02 0.17769799484E+02 0.15062673389E+02 0.12371581778E+02 0.98928734200E+01
 0.77425322234E+01 0.59688333417E+01 0.45694385370E+01 0.35083130589E+01 0.27318154108E+01
 0.21830522517E+01 0.18125767385E+01 0.15840036275E+01 0.14748804673E+01 0.14748807470E+01
 0.15839961572E+01 0.18125513491E+01 0.21830168254E+01 0.27317877387E+01 0.35082963256E+01
 0.45694195287E+01 0.59688061943E+01 0.77425092992E+01 0.98928651118E+01 0.12371577404E+02
 0.15062655775E+02 0.17769771546E+02 0.20220189134E+02 0.22100289847E+02 0.22743540593E+02
 0.22231166298E+02 0.20779212789E+02 0.18614990502E+02 0.16038447584E+02 0.13345641972E+02
 0.10774785296E+02 0.84844802342E+01 0.65564236526E+01 0.50100696944E+01 0.38209779491E+01
 0.29393526512E+01 0.23067877501E+01 0.18691301041E+01 0.15840036275E+01 0.14231240617E+01
 0.13710886741E+01 0.14231223552E+01 0.15840085723E+01 0.18691336891E+01 0.23067639887E+01
 0.29392926039E+01 0.38209114788E+01 0.50100359687E+01 0.65564273684E+01 0.84844927731E+01
 0.10774785877E+02 0.13345638444E+02 0.16038453373E+02 0.18615000334E+02 0.20779213792E+02
 0.22231160680E+02 0.22257498868E+02 0.21275275094E+02 0.19468374707E+02 0.17102368150E+02
 0.14476951298E+02 0.11860090341E+02 0.94499552761E+01 0.73654433026E+01 0.56550598018E+01
 0.43138046275E+01 0.33021921163E+01 0.25644781511E+01 0.20437676216E+01 0.16920871567E+01
 0.14748804673E+01 0.13710886741E+01 0.13710878508E+01 0.14748824363E+01 0.16920971371E+01
 0.20437807169E+01 0.25644838061E+01 0.33021878169E+01 0.43137976619E+01 0.56550552665E+01
 0.73654383189E+01 0.94499483904E+01 0.11860089260E+02 0.14476963457E+02 0.17102387613E+02
 0.19468387301E+02 0.21275276104E+02 0.22257497027E+02 0.21737078893E+02 0.20336023316E+02
 0.18244931007E+02 0.15751044280E+02 0.13139355496E+02 0.10640680190E+02 0.84098471743E+01
 0.65274401382E+01 0.50136249078E+01 0.38459433902E+01 0.29772808015E+01 0.23519588095E+01
 0.19180864916E+01 0.16348582835E+01 0.14748807470E+01 0.14231223552E+01 0.14748824363E+01
 0.16348576080E+01 0.19180958468E+01 0.23520017339E+01 0.29773542409E+01 0.38460044053E+01
 0.50136345255E+01 0.65274108942E+01 0.84098277421E+01 0.10640696236E+02 0.13139387105E+02
 0.15751063876E+02 0.18244939501E+02 0.20336035695E+02 0.21737092691E+02 0.22231158396E+02
 0.21148627508E+02 0.19399828791E+02 0.17112147532E+02 0.14573414064E+02 0.12037550057E+02
 0.96906538893E+01 0.76450640890E+01 0.59494037365E+01 0.46040907069E+01 0.35774703491E+01
 0.28211099283E+01 0.22831357273E+01 0.19180659832E+01 0.16920683254E+01 0.15839961572E+01
 0.15840085723E+01 0.16920971371E+01 0.19180958468E+01 0.22831605041E+01 0.28211338640E+01
 0.35774953177E+01 0.46041105356E+01 0.59494145876E+01 0.76450744869E+01 0.96906776380E+01
 0.12037590565E+02 0.14573461044E+02 0.17112188589E+02 0.19399858979E+02 0.21148646581E+02