   2   2   0   0
  0.2195200E+02  0.3959798E-09  0.3959798E-09  0.3959798E-09  0.5000000E-15
  1.000000000000000E-004
  CAR 
 diamond Si                              
     14.92866809     -7.43330623  301      5.31824202      1.00000000
     -7.433  0.0000E+00  0.0000E+00
     -7.359  0.0000E+00  0.0000E+00
     -7.284  0.0000E+00  0.0000E+00
     -7.210  0.0000E+00  0.0000E+00
     -7.135  0.0000E+00  0.0000E+00
     -7.061  0.0000E+00  0.0000E+00
     -6.986  0.7833E-17  0.5839E-18
     -6.912  0.2659E-13  0.1982E-14
     -6.837  0.2844E-10  0.2122E-11
     -6.762  0.1029E-07  0.7694E-09
     -6.688  0.1277E-05  0.9599E-07
     -6.613  0.5608E-04  0.4276E-05
     -6.539  0.9509E-03  0.7516E-04
     -6.464  0.7703E-02  0.6493E-03
     -6.390  0.3701E-01  0.3408E-02
     -6.315  0.9733E-01  0.1066E-01
     -6.241  0.1309E+00  0.2042E-01
     -6.166  0.1506E+00  0.3165E-01
     -6.092  0.2378E+00  0.4937E-01
     -6.017  0.2987E+00  0.7164E-01
     -5.943  0.2144E+00  0.8762E-01
     -5.868  0.1848E+00  0.1014E+00
     -5.793  0.3420E+00  0.1269E+00
     -5.719  0.4288E+00  0.1588E+00
     -5.644  0.3698E+00  0.1864E+00
     -5.570  0.3716E+00  0.2141E+00
     -5.495  0.3485E+00  0.2401E+00
     -5.421  0.2591E+00  0.2594E+00
     -5.346  0.3677E+00  0.2868E+00
     -5.272  0.6408E+00  0.3346E+00
     -5.197  0.6035E+00  0.3796E+00
     -5.123  0.4558E+00  0.4135E+00
     -5.048  0.5120E+00  0.4517E+00
     -4.973  0.4655E+00  0.4864E+00
     -4.899  0.3273E+00  0.5108E+00
     -4.824  0.4334E+00  0.5431E+00
     -4.750  0.7606E+00  0.5998E+00
     -4.675  0.9155E+00  0.6680E+00
     -4.601  0.8002E+00  0.7277E+00
     -4.526  0.6762E+00  0.7781E+00
     -4.452  0.6079E+00  0.8234E+00
     -4.377  0.5348E+00  0.8633E+00
     -4.303  0.5670E+00  0.9055E+00
     -4.228  0.1001E+01  0.9802E+00
     -4.154  0.1450E+01  0.1088E+01
     -4.079  0.1144E+01  0.1174E+01
     -4.004  0.7337E+00  0.1228E+01
     -3.930  0.8088E+00  0.1289E+01
     -3.855  0.6218E+00  0.1335E+01
     -3.781  0.4722E+00  0.1370E+01
     -3.706  0.8030E+00  0.1430E+01
     -3.632  0.1125E+01  0.1514E+01
     -3.557  0.9902E+00  0.1588E+01
     -3.483  0.5493E+00  0.1628E+01
     -3.408  0.4022E+00  0.1658E+01
     -3.334  0.4321E+00  0.1691E+01
     -3.259  0.4636E+00  0.1725E+01
     -3.185  0.7657E+00  0.1782E+01
     -3.110  0.8168E+00  0.1843E+01
     -3.035  0.4897E+00  0.1880E+01
     -2.961  0.2809E+00  0.1901E+01
     -2.886  0.2047E+00  0.1916E+01
     -2.812  0.2478E+00  0.1934E+01
     -2.737  0.3056E+00  0.1957E+01
     -2.663  0.3067E+00  0.1980E+01
     -2.588  0.2346E+00  0.1998E+01
     -2.514  0.1620E+00  0.2010E+01
     -2.439  0.1271E+00  0.2019E+01
     -2.365  0.1669E+00  0.2031E+01
     -2.290  0.1991E+00  0.2046E+01
     -2.216  0.1454E+00  0.2057E+01
     -2.141  0.1852E+00  0.2071E+01
     -2.066  0.2678E+00  0.2091E+01
     -1.992  0.4648E+00  0.2126E+01
     -1.917  0.8069E+00  0.2186E+01
     -1.843  0.8339E+00  0.2248E+01
     -1.768  0.5216E+00  0.2287E+01
     -1.694  0.3523E+00  0.2313E+01
     -1.619  0.7204E+00  0.2367E+01
     -1.545  0.1324E+01  0.2465E+01
     -1.470  0.1604E+01  0.2585E+01
     -1.396  0.1465E+01  0.2694E+01
     -1.321  0.1075E+01  0.2774E+01
     -1.246  0.9260E+00  0.2843E+01
     -1.172  0.9078E+00  0.2911E+01
     -1.097  0.5327E+00  0.2951E+01
     -1.023  0.3580E+00  0.2977E+01
     -0.948  0.7013E+00  0.3030E+01
     -0.874  0.9871E+00  0.3103E+01
     -0.799  0.7443E+00  0.3159E+01
     -0.725  0.3893E+00  0.3188E+01
     -0.650  0.2927E+00  0.3210E+01
     -0.576  0.4554E+00  0.3244E+01
     -0.501  0.5832E+00  0.3287E+01
     -0.427  0.4320E+00  0.3319E+01
     -0.352  0.3552E+00  0.3346E+01
     -0.277  0.4220E+00  0.3377E+01
     -0.203  0.3731E+00  0.3405E+01
     -0.128  0.4373E+00  0.3438E+01
     -0.054  0.4464E+00  0.3471E+01
      0.021  0.3243E+00  0.3495E+01
      0.095  0.2591E+00  0.3514E+01
      0.170  0.3004E+00  0.3537E+01
      0.244  0.3541E+00  0.3563E+01
      0.319  0.3520E+00  0.3589E+01
      0.393  0.2173E+00  0.3606E+01
      0.468  0.6447E-01  0.3610E+01
      0.542  0.3116E-01  0.3613E+01
      0.617  0.1774E+00  0.3626E+01
      0.692  0.5040E+00  0.3663E+01
      0.766  0.5690E+00  0.3706E+01
      0.841  0.2910E+00  0.3728E+01
      0.915  0.1835E+00  0.3741E+01
      0.990  0.3583E+00  0.3768E+01
      1.064  0.6166E+00  0.3814E+01
      1.139  0.8962E+00  0.3881E+01
      1.213  0.1108E+01  0.3963E+01
      1.288  0.1062E+01  0.4042E+01
      1.362  0.9258E+00  0.4111E+01
      1.437  0.1336E+01  0.4211E+01
      1.511  0.1814E+01  0.4346E+01
      1.586  0.1453E+01  0.4455E+01
      1.661  0.9228E+00  0.4523E+01
      1.735  0.8308E+00  0.4585E+01
      1.810  0.9296E+00  0.4655E+01
      1.884  0.1108E+01  0.4737E+01
      1.959  0.1260E+01  0.4831E+01
      2.033  0.1369E+01  0.4933E+01
      2.108  0.1472E+01  0.5043E+01
      2.182  0.1255E+01  0.5136E+01
      2.257  0.1015E+01  0.5212E+01
      2.331  0.1317E+01  0.5310E+01
      2.406  0.1799E+01  0.5444E+01
      2.481  0.1975E+01  0.5592E+01
      2.555  0.1951E+01  0.5737E+01
      2.630  0.1473E+01  0.5847E+01
      2.704  0.1074E+01  0.5927E+01
      2.779  0.1471E+01  0.6037E+01
      2.853  0.1868E+01  0.6176E+01
      2.928  0.1627E+01  0.6297E+01
      3.002  0.1169E+01  0.6384E+01
      3.077  0.1012E+01  0.6460E+01
      3.151  0.1384E+01  0.6563E+01
      3.226  0.1815E+01  0.6698E+01
      3.300  0.1801E+01  0.6832E+01
      3.375  0.1429E+01  0.6939E+01
      3.450  0.1092E+01  0.7020E+01
      3.524  0.1229E+01  0.7112E+01
      3.599  0.1536E+01  0.7226E+01
      3.673  0.1216E+01  0.7317E+01
      3.748  0.7664E+00  0.7374E+01
      3.822  0.8296E+00  0.7436E+01
      3.897  0.1288E+01  0.7532E+01
      3.971  0.1223E+01  0.7623E+01
      4.046  0.6957E+00  0.7675E+01
      4.120  0.5964E+00  0.7720E+01
      4.195  0.8004E+00  0.7779E+01
      4.269  0.7353E+00  0.7834E+01
      4.344  0.4242E+00  0.7866E+01
      4.419  0.2290E+00  0.7883E+01
      4.493  0.3202E+00  0.7907E+01
      4.568  0.3792E+00  0.7935E+01
      4.642  0.2099E+00  0.7950E+01
      4.717  0.1104E+00  0.7959E+01
      4.791  0.1975E+00  0.7973E+01
      4.866  0.2126E+00  0.7989E+01
      4.940  0.1005E+00  0.7997E+01
      5.015  0.3329E-01  0.7999E+01
      5.089  0.9105E-02  0.8000E+01
      5.164  0.1198E-02  0.8000E+01
      5.238  0.5858E-04  0.8000E+01
      5.313  0.1006E-05  0.8000E+01
      5.388  0.5186E-06  0.8000E+01
      5.462  0.4575E-04  0.8000E+01
      5.537  0.1432E-02  0.8000E+01
      5.611  0.1599E-01  0.8001E+01
      5.686  0.6531E-01  0.8006E+01
      5.760  0.1081E+00  0.8014E+01
      5.835  0.1380E+00  0.8025E+01
      5.909  0.2553E+00  0.8044E+01
      5.984  0.3305E+00  0.8068E+01
      6.058  0.3482E+00  0.8094E+01
      6.133  0.4394E+00  0.8127E+01
      6.207  0.4292E+00  0.8159E+01
      6.282  0.3567E+00  0.8185E+01
      6.357  0.5855E+00  0.8229E+01
      6.431  0.8480E+00  0.8292E+01
      6.506  0.7275E+00  0.8347E+01
      6.580  0.6365E+00  0.8394E+01
      6.655  0.9406E+00  0.8464E+01
      6.729  0.1487E+01  0.8575E+01
      6.804  0.1825E+01  0.8711E+01
      6.878  0.1619E+01  0.8832E+01
      6.953  0.1371E+01  0.8934E+01
      7.027  0.1236E+01  0.9026E+01
      7.102  0.1228E+01  0.9117E+01
      7.177  0.1470E+01  0.9227E+01
      7.251  0.1638E+01  0.9349E+01
      7.326  0.1597E+01  0.9468E+01
      7.400  0.1705E+01  0.9595E+01
      7.475  0.1803E+01  0.9730E+01
      7.549  0.1367E+01  0.9832E+01
      7.624  0.7674E+00  0.9889E+01
      7.698  0.7532E+00  0.9945E+01
      7.773  0.9370E+00  0.1001E+02
      7.847  0.9368E+00  0.1008E+02
      7.922  0.9915E+00  0.1016E+02
      7.996  0.1215E+01  0.1025E+02
      8.071  0.1604E+01  0.1037E+02
      8.146  0.2187E+01  0.1053E+02
      8.220  0.2764E+01  0.1074E+02
      8.295  0.2560E+01  0.1093E+02
      8.369  0.1889E+01  0.1107E+02
      8.444  0.1615E+01  0.1119E+02
      8.518  0.1480E+01  0.1130E+02
      8.593  0.1748E+01  0.1143E+02
      8.667  0.2130E+01  0.1159E+02
      8.742  0.1624E+01  0.1171E+02
      8.816  0.1136E+01  0.1179E+02
      8.891  0.9082E+00  0.1186E+02
      8.965  0.9062E+00  0.1193E+02
      9.040  0.1484E+01  0.1204E+02
      9.115  0.1703E+01  0.1217E+02
      9.189  0.1082E+01  0.1225E+02
      9.264  0.5247E+00  0.1229E+02
      9.338  0.6780E+00  0.1234E+02
      9.413  0.1277E+01  0.1243E+02
      9.487  0.2104E+01  0.1259E+02
      9.562  0.2665E+01  0.1279E+02
      9.636  0.2135E+01  0.1295E+02
      9.711  0.1303E+01  0.1304E+02
      9.785  0.1287E+01  0.1314E+02
      9.860  0.1648E+01  0.1326E+02
      9.934  0.1420E+01  0.1337E+02
     10.009  0.9821E+00  0.1344E+02
     10.084  0.8597E+00  0.1351E+02
     10.158  0.7858E+00  0.1357E+02
     10.233  0.8923E+00  0.1363E+02
     10.307  0.1192E+01  0.1372E+02
     10.382  0.1143E+01  0.1381E+02
     10.456  0.9821E+00  0.1388E+02
     10.531  0.1146E+01  0.1396E+02
     10.605  0.1236E+01  0.1406E+02
     10.680  0.1077E+01  0.1414E+02
     10.754  0.8284E+00  0.1420E+02
     10.829  0.9614E+00  0.1427E+02
     10.904  0.1647E+01  0.1439E+02
     10.978  0.1848E+01  0.1453E+02
     11.053  0.1507E+01  0.1464E+02
     11.127  0.1036E+01  0.1472E+02
     11.202  0.6642E+00  0.1477E+02
     11.276  0.6645E+00  0.1482E+02
     11.351  0.6769E+00  0.1487E+02
     11.425  0.6122E+00  0.1492E+02
     11.500  0.7422E+00  0.1497E+02
     11.574  0.9407E+00  0.1504E+02
     11.649  0.7021E+00  0.1509E+02
     11.723  0.3713E+00  0.1512E+02
     11.798  0.5253E+00  0.1516E+02
     11.873  0.8869E+00  0.1523E+02
     11.947  0.8561E+00  0.1529E+02
     12.022  0.5703E+00  0.1533E+02
     12.096  0.4455E+00  0.1537E+02
     12.171  0.4501E+00  0.1540E+02
     12.245  0.7449E+00  0.1545E+02
     12.320  0.9799E+00  0.1553E+02
     12.394  0.9782E+00  0.1560E+02
     12.469  0.8979E+00  0.1567E+02
     12.543  0.7362E+00  0.1572E+02
     12.618  0.7893E+00  0.1578E+02
     12.692  0.8088E+00  0.1584E+02
     12.767  0.5500E+00  0.1588E+02
     12.842  0.2712E+00  0.1590E+02
     12.916  0.7996E-01  0.1591E+02
     12.991  0.1034E-01  0.1591E+02
     13.065  0.5045E-03  0.1591E+02
     13.140  0.8737E-05  0.1591E+02
     13.214  0.5310E-07  0.1591E+02
     13.289  0.2819E-06  0.1591E+02
     13.363  0.3377E-04  0.1591E+02
     13.438  0.1396E-02  0.1591E+02
     13.512  0.2022E-01  0.1591E+02
     13.587  0.1047E+00  0.1592E+02
     13.661  0.2040E+00  0.1593E+02
     13.736  0.1910E+00  0.1595E+02
     13.811  0.1860E+00  0.1596E+02
     13.885  0.2265E+00  0.1598E+02
     13.960  0.1882E+00  0.1599E+02
     14.034  0.7463E-01  0.1600E+02
     14.109  0.1204E-01  0.1600E+02
     14.183  0.7360E-03  0.1600E+02
     14.258  0.1637E-04  0.1600E+02
     14.332  0.1286E-06  0.1600E+02
     14.407  0.3492E-09  0.1600E+02
     14.481  0.3232E-12  0.1600E+02
     14.556  0.1074E-15  0.1600E+02
     14.631  0.0000E+00  0.1600E+02
     14.705  0.0000E+00  0.1600E+02
     14.780  0.0000E+00  0.1600E+02
     14.854  0.0000E+00  0.1600E+02
     14.929  0.0000E+00  0.1600E+02
