    2    2    1    1
  0.2195200E+02  0.3959798E-09  0.3959798E-09  0.3959798E-09  0.5000000E-15
  1.000000000000000E-004
  CAR 
 diamond Si                              
      8     56      8
 
  0.0000000E+00  0.0000000E+00  0.0000000E+00  0.7513148E-03
      1         -6.416853   1.000000
      2          4.945083   1.000000
      3          4.945103   1.000000
      4          4.945103   1.000000
      5          7.277576   0.000000
      6          7.470643   0.000000
      7          7.470661   0.000000
      8          7.470661   0.000000
 
  0.9090909E-01 -0.4541821E-17 -0.4718448E-17  0.6010518E-02
      1         -6.317030   1.000000
      2          3.944319   1.000000
      3          4.791170   1.000000
      4          4.791187   1.000000
      5          7.246585   0.000000
      6          7.695146   0.000000
      7          7.695162   0.000000
      8          8.341308   0.000000
 
  0.1818182E+00  0.2018587E-17 -0.6661338E-17  0.6010518E-02
      1         -6.021639   1.000000
      2          2.341923   1.000000
      3          4.474732   1.000000
      4          4.474750   1.000000
      5          6.911267   0.000000
      6          8.140938   0.000000
      7          8.140959   0.000000
      8          9.933529   0.000000
 
  0.2727273E+00  0.3027881E-17 -0.9992007E-17  0.6010518E-02
      1         -5.547822   1.000000
      2          0.786599   1.000000
      3          4.170080   1.000000
      4          4.170098   1.000000
      5          6.568182   0.000000
      6          8.416174   0.000000
      7          8.416205   0.000000
      8         11.510372   0.000000
 
  0.3636364E+00  0.3734387E-16 -0.7771561E-17  0.6010518E-02
      1         -4.947271   1.000000
      2         -0.561283   1.000000
      3          3.949431   1.000000
      4          3.949450   1.000000
      5          6.313216   0.000000
      6          8.412787   0.000000
      7          8.412823   0.000000
      8         12.555021   0.000000
 
  0.4545455E+00 -0.5046468E-18 -0.1110223E-16  0.6010518E-02
      1         -4.405864   1.000000
      2         -1.483599   1.000000
      3          3.835532   1.000000
      4          3.835551   1.000000
      5          6.179267   0.000000
      6          8.339231   0.000000
      7          8.339269   0.000000
      8         12.556773   0.000000
 
  0.9090909E-01  0.9090909E-01 -0.9175110E-17  0.4507889E-02
      1         -6.283526   1.000000
      2          4.048045   1.000000
      3          4.499288   1.000000
      4          4.499301   1.000000
      5          7.175419   0.000000
      6          8.077697   0.000000
      7          8.077710   0.000000
      8          8.117753   0.000000
 
  0.1818182E+00  0.9090909E-01 -0.6585641E-17  0.1803156E-01
      1         -6.052415   1.000000
      2          2.777748   1.000000
      3          4.133579   1.000000
      4          4.266461   1.000000
      5          7.189988   0.000000
      6          7.907831   0.000000
      7          8.630893   0.000000
      8          9.416956   0.000000
 
  0.2727273E+00  0.9090909E-01 -0.2977416E-17  0.1803156E-01
      1         -5.635396   1.000000
      2          1.266972   1.000000
      3          3.833410   1.000000
      4          3.910429   1.000000
      5          7.179299   0.000000
      6          8.029368   0.000000
      7          8.990341   0.000000
      8         10.152472   0.000000
 
  0.3636364E+00  0.9090909E-01 -0.6308085E-17  0.1803156E-01
      1         -5.067213   1.000000
      2         -0.129967   1.000000
      3          3.551258   1.000000
      4          3.653276   1.000000
      5          6.965064   0.000000
      6          8.194295   0.000000
      7          8.980864   0.000000
      8         10.913852   0.000000
 
  0.4545455E+00  0.9090909E-01 -0.1796543E-16  0.1803156E-01
      1         -4.466390   1.000000
      2         -1.219672   1.000000
      3          3.273981   1.000000
      4          3.608911   1.000000
      5          6.804192   0.000000
      6          8.216473   0.000000
      7          8.794180   0.000000
      8         12.068295   0.000000
 
 -0.4545455E+00  0.9090909E-01  0.3199461E-16  0.1803156E-01
      1         -4.231389   1.000000
      2         -1.577669   1.000000
      3          3.113732   1.000000
      4          3.698110   1.000000
      5          6.762498   0.000000
      6          8.290345   0.000000
      7          8.629932   0.000000
      8         12.773096   0.000000
 
 -0.3636364E+00  0.9090909E-01  0.1201059E-16  0.1803156E-01
      1         -4.656241   1.000000
      2         -0.904666   1.000000
      3          3.089702   1.000000
      4          3.906029   1.000000
      5          6.848115   0.000000
      6          8.463145   0.000000
      7          8.541887   0.000000
      8         12.365077   0.000000
 
 -0.2727273E+00  0.9090909E-01  0.3128810E-17  0.1803156E-01
      1         -5.270878   1.000000
      2          0.315389   1.000000
      3          3.215633   1.000000
      4          4.205715   1.000000
      5          7.051689   0.000000
      6          8.433981   0.000000
      7          8.624647   0.000000
      8         11.267471   0.000000
 
 -0.1818182E+00  0.9090909E-01  0.1367593E-16  0.1803156E-01
      1         -5.794863   1.000000
      2          1.753517   1.000000
      3          3.509970   1.000000
      4          4.544200   1.000000
      5          7.336578   0.000000
      6          8.128190   0.000000
      7          8.436724   0.000000
      8         10.302330   0.000000
 
 -0.9090909E-01  0.9090909E-01  0.4794145E-17  0.9015778E-02
      1         -6.151640   1.000000
      2          3.134588   1.000000
      3          4.048771   1.000000
      4          4.802261   1.000000
      5          7.533495   0.000000
      6          7.746340   0.000000
      7          7.880382   0.000000
      8          9.294298   0.000000
 
  0.1818182E+00  0.1818182E+00 -0.1835022E-16  0.4507889E-02
      1         -5.885746   1.000000
      2          2.555755   1.000000
      3          3.735604   1.000000
      4          3.735616   1.000000
      5          6.579406   0.000000
      6          8.722751   0.000000
      7          9.328690   0.000000
      8          9.328703   0.000000
 
  0.2727273E+00  0.1818182E+00 -0.3065729E-16  0.1803156E-01
      1         -5.529010   1.000000
      2          1.487746   1.000000
      3          3.327228   1.000000
      4          3.415603   1.000000
      5          6.626358   0.000000
      6          8.467179   0.000000
      7          9.633215   0.000000
      8          9.890295   0.000000
 
  0.3636364E+00  0.1818182E+00 -0.1872240E-16  0.1803156E-01
      1         -5.005340   1.000000
      2          0.232998   1.000000
      3          2.819473   1.000000
      4          3.228555   1.000000
      5          6.846519   0.000000
      6          8.789305   0.000000
      7          9.471237   0.000000
      8         10.018142   0.000000
 
  0.4545455E+00  0.1818182E+00 -0.8175279E-17  0.1803156E-01
      1         -4.389309   1.000000
      2         -0.893731   1.000000
      3          2.372003   1.000000
      4          3.192903   1.000000
      5          6.874915   0.000000
      6          9.104675   0.000000
      7          9.819807   0.000000
      8         10.084519   0.000000
 
 -0.4545455E+00  0.1818182E+00  0.2513141E-16  0.1803156E-01
      1         -3.964253   1.000000
      2         -1.526464   1.000000
      3          2.063925   1.000000
      4          3.309878   1.000000
      5          6.946538   0.000000
      6          9.030498   0.000000
      7          9.561271   0.000000
      8         11.585446   0.000000
 
 -0.3636364E+00  0.1818182E+00 -0.5954833E-17  0.1803156E-01
      1         -4.215325   1.000000
      2         -1.160162   1.000000
      3          1.934101   1.000000
      4          3.563043   1.000000
      5          7.144439   0.000000
      6          9.053521   0.000000
      7          9.336034   0.000000
      8         12.252633   0.000000
 
 -0.2727273E+00  0.1818182E+00  0.1291896E-16  0.1803156E-01
      1         -4.819761   1.000000
      2         -0.150346   1.000000
      3          2.033153   1.000000
      4          3.917141   1.000000
      5          7.435195   0.000000
      6          9.061059   0.000000
      7          9.134261   0.000000
      8         10.902808   0.000000
 
 -0.1818182E+00  0.1818182E+00  0.4037175E-17  0.9015778E-02
      1         -5.383324   1.000000
      2          0.948655   1.000000
      3          2.501230   1.000000
      4          4.296393   1.000000
      5          7.667587   0.000000
      6          8.575145   0.000000
      7          8.831456   0.000000
      8         10.270351   0.000000
 
  0.2727273E+00  0.2727273E+00 -0.2752533E-16  0.4507889E-02
      1         -5.232077   1.000000
      2          1.011073   1.000000
      3          3.065052   1.000000
      4          3.065063   1.000000
      5          6.039999   0.000000
      6          7.772334   0.000000
      7         10.790813   0.000000
      8         10.790828   0.000000
 
  0.3636364E+00  0.2727273E+00 -0.3391227E-16  0.1803156E-01
      1         -4.759510   1.000000
      2          0.123716   1.000000
      3          2.573980   1.000000
      4          2.848220   1.000000
      5          6.168432   0.000000
      6          7.510752   0.000000
      7         11.011514   0.000000
      8         11.260343   0.000000
 
  0.4545455E+00  0.2727273E+00 -0.1503848E-16  0.1803156E-01
      1         -4.157232   1.000000
      2         -0.819214   1.000000
      3          1.909514   1.000000
      4          2.788386   1.000000
      5          6.375041   0.000000
      6          8.193669   0.000000
      7         10.824490   0.000000
      8         11.187545   0.000000
 
 -0.4545455E+00  0.2727273E+00 -0.2058959E-16  0.1803156E-01
      1         -3.609209   1.000000
      2         -1.538721   1.000000
      3          1.384265   1.000000
      4          2.889671   1.000000
      5          6.498808   0.000000
      6          9.596920   0.000000
      7         10.639140   0.000000
      8         10.894262   0.000000
 
 -0.3636364E+00  0.2727273E+00  0.3835316E-17  0.1803156E-01
      1         -3.664168   1.000000
      2         -1.463356   1.000000
      3          1.131078   1.000000
      4          3.140514   1.000000
      5          6.751115   0.000000
      6         10.519147   0.000000
      7         10.537158   0.000000
      8         11.341324   0.000000
 
 -0.2727273E+00  0.2727273E+00 -0.1059758E-16  0.9015778E-02
      1         -4.235640   1.000000
      2         -0.769132   1.000000
      3          1.286272   1.000000
      4          3.508368   1.000000
      5          7.127338   0.000000
      6          9.935744   0.000000
      7         10.286311   0.000000
      8         10.875867   0.000000
 
  0.3636364E+00  0.3636364E+00 -0.3670044E-16  0.4507889E-02
      1         -4.337231   1.000000
      2         -0.501856   1.000000
      3          2.593153   1.000000
      4          2.593164   1.000000
      5          5.724298   0.000000
      6          6.737905   0.000000
      7         12.345719   0.000000
      8         12.345736   0.000000
 
  0.4545455E+00  0.3636364E+00 -0.4133058E-16  0.1803156E-01
      1         -3.765463   1.000000
      2         -1.259226   1.000000
      3          2.117259   1.000000
      4          2.494039   1.000000
      5          5.932318   0.000000
      6          6.727118   0.000000
      7         12.603611   0.000000
      8         12.693091   0.000000
 
 -0.4545455E+00  0.3636364E+00  0.1140502E-16  0.1803156E-01
      1         -3.155839   1.000000
      2         -1.920647   1.000000
      3          1.425055   1.000000
      4          2.560298   1.000000
      5          6.101991   0.000000
      6          7.811038   0.000000
      7         12.442309   0.000000
      8         12.450038   0.000000
 
 -0.3636364E+00  0.3636364E+00  0.1917658E-16  0.9015778E-02
      1         -3.115193   1.000000
      2         -1.936069   1.000000
      3          0.991083   1.000000
      4          2.784550   1.000000
      5          6.351284   0.000000
      6          9.438104   0.000000
      7         11.767091   0.000000
      8         12.290662   0.000000
 
  0.4545455E+00  0.4545455E+00 -0.4587555E-16  0.4507889E-02
      1         -3.225118   1.000000
      2         -1.931385   1.000000
      3          2.350727   1.000000
      4          2.350741   1.000000
      5          5.706205   0.000000
      6          6.035198   0.000000
      7         13.870820   0.000000
      8         13.870839   0.000000
 
 -0.4545455E+00  0.4545455E+00 -0.1009294E-17  0.9015778E-02
      1         -2.636775   1.000000
      2         -2.524515   1.000000
      3          1.965612   1.000000
      4          2.373736   1.000000
      5          5.885594   0.000000
      6          6.420283   0.000000
      7         13.780675   0.000000
      8         13.912215   0.000000
 
  0.2727273E+00  0.1818182E+00  0.9090909E-01  0.1803156E-01
      1         -5.759050   1.000000
      2          1.928859   1.000000
      3          3.276554   1.000000
      4          4.167403   1.000000
      5          7.258771   0.000000
      6          8.181597   0.000000
      7          9.139827   0.000000
      8          9.615910   0.000000
 
  0.3636364E+00  0.1818182E+00  0.9090909E-01  0.3606311E-01
      1         -5.287865   1.000000
      2          0.706452   1.000000
      3          2.735620   1.000000
      4          3.877346   1.000000
      5          7.505988   0.000000
      6          8.242133   0.000000
      7          9.495234   0.000000
      8          9.759844   0.000000
 
  0.4545455E+00  0.1818182E+00  0.9090909E-01  0.3606311E-01
      1         -4.688363   1.000000
      2         -0.522298   1.000000
      3          2.472234   1.000000
      4          3.567150   1.000000
      5          7.457286   0.000000
      6          8.239090   0.000000
      7          9.570255   0.000000
      8         10.543530   0.000000
 
 -0.4545455E+00  0.1818182E+00  0.9090909E-01  0.3606311E-01
      1         -4.141028   1.000000
      2         -1.407191   1.000000
      3          2.365503   1.000000
      4          3.379314   1.000000
      5          7.385612   0.000000
      6          8.133820   0.000000
      7          9.529921   0.000000
      8         11.892419   0.000000
 
  0.3636364E+00  0.2727273E+00  0.9090909E-01  0.1803156E-01
      1         -5.115531   1.000000
      2          0.674273   1.000000
      3          2.614168   1.000000
      4          3.257003   1.000000
      5          6.745942   0.000000
      6          8.196838   0.000000
      7          9.700873   0.000000
      8         10.686000   0.000000
 
  0.4545455E+00  0.2727273E+00  0.9090909E-01  0.3606311E-01
      1         -4.550255   1.000000
      2         -0.321528   1.000000
      3          2.073088   1.000000
      4          2.978201   1.000000
      5          7.091196   0.000000
      6          8.595453   0.000000
      7          9.400345   0.000000
      8         11.071848   0.000000
 
 -0.4545455E+00  0.2727273E+00  0.9090909E-01  0.3606311E-01
      1         -3.943463   1.000000
      2         -1.231683   1.000000
      3          1.703665   1.000000
      4          2.839940   1.000000
      5          7.217190   0.000000
      6          9.073848   0.000000
      7          9.844447   0.000000
      8         11.039953   0.000000
 
 -0.3636364E+00  0.2727273E+00  0.9090909E-01  0.3606311E-01
      1         -3.710451   1.000000
      2         -1.538748   1.000000
      3          1.493552   1.000000
      4          2.919659   1.000000
      5          7.400142   0.000000
      6          8.832447   0.000000
      7         10.887666   0.000000
      8         11.501699   0.000000
 
 -0.2727273E+00  0.2727273E+00  0.9090909E-01  0.3606311E-01
      1         -4.160636   1.000000
      2         -0.924978   1.000000
      3          1.501231   1.000000
      4          3.185655   1.000000
      5          7.705439   0.000000
      6          8.667367   0.000000
      7         10.250376   0.000000
      8         10.917786   0.000000
 
 -0.1818182E+00  0.2727273E+00  0.9090909E-01  0.1803156E-01
      1         -4.773963   1.000000
      2         -0.024583   1.000000
      3          1.863790   1.000000
      4          3.558690   1.000000
      5          8.048254   0.000000
      6          8.256852   0.000000
      7          9.502058   0.000000
      8         10.426445   0.000000
 
  0.4545455E+00  0.3636364E+00  0.9090909E-01  0.1803156E-01
      1         -4.239614   1.000000
      2         -0.628641   1.000000
      3          2.174658   1.000000
      4          2.535515   1.000000
      5          6.427572   0.000000
      6          7.281931   0.000000
      7         10.983054   0.000000
      8         12.312799   0.000000
 
 -0.4545455E+00  0.3636364E+00  0.9090909E-01  0.3606311E-01
      1         -3.619542   1.000000
      2         -1.391065   1.000000
      3          1.598204   1.000000
      4          2.375037   1.000000
      5          6.768354   0.000000
      6          8.020887   0.000000
      7         10.662435   0.000000
      8         12.631158   0.000000
 
 -0.3636364E+00  0.3636364E+00  0.9090909E-01  0.3606311E-01
      1         -3.205471   1.000000
      2         -1.838389   1.000000
      3          1.130985   1.000000
      4          2.479010   1.000000
      5          6.966066   0.000000
      6          9.521080   0.000000
      7         10.367694   0.000000
      8         11.865340   0.000000
 
 -0.2727273E+00  0.3636364E+00  0.9090909E-01  0.1803156E-01
      1         -3.557509   1.000000
      2         -1.465926   1.000000
      3          1.036687   1.000000
      4          2.772541   1.000000
      5          7.295622   0.000000
      6          9.866307   0.000000
      7         10.508241   0.000000
      8         11.386787   0.000000
 
 -0.4545455E+00  0.4545455E+00  0.9090909E-01  0.1803156E-01
      1         -3.162204   1.000000
      2         -1.934497   1.000000
      3          2.000052   1.000000
      4          2.114442   1.000000
      5          6.384167   0.000000
      6          6.658901   0.000000
      7         12.433448   0.000000
      8         13.632511   0.000000
 
 -0.3636364E+00  0.4545455E+00  0.9090909E-01  0.1803156E-01
      1         -2.713654   1.000000
      2         -2.342726   1.000000
      3          1.419461   1.000000
      4          2.179383   1.000000
      5          6.653016   0.000000
      6          7.819571   0.000000
      7         12.021730   0.000000
      8         12.225066   0.000000
 
 -0.4545455E+00  0.3636364E+00  0.1818182E+00  0.1803156E-01
      1         -3.962136   1.000000
      2         -0.986412   1.000000
      3          1.493297   1.000000
      4          2.565676   1.000000
      5          7.971793   0.000000
      6          8.658560   0.000000
      7          9.013033   0.000000
      8         12.227718   0.000000
 
 -0.3636364E+00  0.3636364E+00  0.1818182E+00  0.3606311E-01
      1         -3.389913   1.000000
      2         -1.630104   1.000000
      3          1.236480   1.000000
      4          2.278993   1.000000
      5          8.362725   0.000000
      6          8.635882   0.000000
      7          9.834397   0.000000
      8         11.573836   0.000000
 
 -0.3636364E+00  0.4545455E+00  0.1818182E+00  0.1803156E-01
      1         -3.003463   1.000000
      2         -1.983665   1.000000
      3          1.456905   1.000000
      4          1.811057   1.000000
      5          7.915137   0.000000
      6          8.133171   0.000000
      7         10.287673   0.000000
      8         11.793326   0.000000
 
 -0.2727273E+00  0.4545455E+00  0.1818182E+00  0.1803156E-01
      1         -2.829360   1.000000
      2         -2.132631   1.000000
      3          1.211544   1.000000
      4          1.842563   1.000000
      5          8.253927   0.000000
      6          9.546541   0.000000
      7          9.997810   0.000000
      8         10.084688   0.000000
