       N       E                     dE             d eps       ncg     rms          rms(c)
DAV:   1    -0.238979034258E+01   -0.23898E+01   -0.20462E+03   936   0.420E+02
DAV:   2    -0.108199181212E+02   -0.84301E+01   -0.81554E+01  1440   0.524E+01
DAV:   3    -0.109054799715E+02   -0.85562E-01   -0.85562E-01  1120   0.650E+00
DAV:   4    -0.109057517155E+02   -0.27174E-03   -0.27174E-03  1456   0.372E-01
DAV:   5    -0.109057518609E+02   -0.14536E-06   -0.14504E-06  1096   0.765E-03    0.482E+00
DAV:   6    -0.108170551122E+02    0.88697E-01   -0.54036E-02  1056   0.121E+00    0.293E+00
DAV:   7    -0.107737658651E+02    0.43289E-01   -0.11116E-01  1112   0.187E+00    0.142E-01
DAV:   8    -0.107748972856E+02   -0.11314E-02   -0.28658E-03   944   0.387E-01    0.710E-02
DAV:   9    -0.107751304573E+02   -0.23317E-03   -0.24930E-04  1312   0.115E-01    0.506E-02
DAV:  10    -0.107751514255E+02   -0.20968E-04   -0.23237E-05   512   0.361E-02
   1 F= -.10775151E+02 E0= -.10775151E+02  d E =-.205580E-09
