 vasp.6.3.0 20Jan22 (build Feb 01 2022 16:52:37) complex                        
  
 executed on           TETRA_NSC1 date 2022.02.23  07:07:35
 running    4 mpi-ranks, with    1 threads/rank
 distrk:  each k-point on    4 cores,    1 groups
 distr:  one band on NCORE=   1 cores,    4 groups


--------------------------------------------------------------------------------------------------------


 INCAR:
   SYSTEM = diamond Si
   ISTART = 0
   ICHARG = 2
   ENCUT = 240
   ISMEAR = 0
   SIGMA = 0.1

 POTCAR:    PAW_PBE Si 05Jan2001                  
 POTCAR:    PAW_PBE Si 05Jan2001                  
   VRHFIN =Si: s2p2                                                                                 
   LEXCH  = PE                                                                                      
   EATOM  =   103.0669 eV,    7.5752 Ry                                                             
                                                                                                    
   TITEL  = PAW_PBE Si 05Jan2001                                                                    
   LULTRA =        F    use ultrasoft PP ?                                                          
   IUNSCR =        1    unscreen: 0-lin 1-nonlin 2-no                                               
   RPACOR =    1.500    partial core radius                                                         
   POMASS =   28.085; ZVAL   =    4.000    mass and valenz                                          
   RCORE  =    1.900    outmost cutoff radius                                                       
   RWIGS  =    2.480; RWIGS  =    1.312    wigner-seitz radius (au A)                               
   ENMAX  =  245.345; ENMIN  =  184.009 eV                                                          
   ICORE  =        2    local potential                                                             
   LCOR   =        T    correct aug charges                                                         
   LPAW   =        T    paw PP                                                                      
   EAUG   =  322.069                                                                                
   DEXC   =    0.000                                                                                
   RMAX   =    1.950    core radius for proj-oper                                                   
   RAUG   =    1.300    factor for augmentation sphere                                              
   RDEP   =    1.993    radius for radial grids                                                     
   RDEPT  =    1.837    core radius for aug-charge                                                  
                                                                                                    
   Atomic configuration                                                                             
    6 entries                                                                                       
     n  l   j            E        occ.                                                              
     1  0  0.50     -1785.8828   2.0000                                                             
     2  0  0.50      -139.4969   2.0000                                                             
     2  1  1.50       -95.5546   6.0000                                                             
     3  0  0.50       -10.8127   2.0000                                                             
     3  1  0.50        -4.0811   2.0000                                                             
     3  2  1.50        -4.0817   0.0000                                                             
   Description                                                                                      
     l       E           TYP  RCUT    TYP  RCUT                                                     
     0    -10.8127223     23  1.900                                                                 
     0     -7.6451159     23  1.900                                                                 
     1     -4.0811372     23  1.900                                                                 
     1      2.4879257     23  1.900                                                                 
     2     -4.0817478      7  1.900                                                                 
  local pseudopotential read in
  partial core-charges read in
  partial kinetic energy density read in
  atomic valenz-charges read in
  non local Contribution for L=           0  read in
    real space projection operators read in
  non local Contribution for L=           0  read in
    real space projection operators read in
  non local Contribution for L=           1  read in
    real space projection operators read in
  non local Contribution for L=           1  read in
    real space projection operators read in
    PAW grid and wavefunctions read in
 
   number of l-projection  operators is LMAX  =           4
   number of lm-projection operators is LMMAX =           8
 
  PAW_PBE Si 05Jan2001                  :
 energy of atom  1       EATOM= -103.0669
 kinetic energy error for atom=    0.0061 (will be added to EATOM!!)
 
 
 POSCAR: cubic diamond Si
  positions in direct lattice
  No initial velocities read in
 exchange correlation table for  LEXCH =        8
   RHO(1)=    0.500       N(1)  =     2000
   RHO(2)=  100.500       N(2)  =     4000
 


--------------------------------------------------------------------------------------------------------


 ion  position               nearest neighbor table
   1  0.875  0.875  0.875-   2 2.42   2 2.42   2 2.42   2 2.42
   2  0.125  0.125  0.125-   1 2.42   1 2.42   1 2.42   1 2.42
 
  LATTYP: Found a face centered cubic cell.
 ALAT       =     5.6000000000
  
  Lattice vectors:
  
 A1 = (   0.0000000000,   2.8000000000,   2.8000000000)
 A2 = (   2.8000000000,   0.0000000000,   2.8000000000)
 A3 = (   2.8000000000,   2.8000000000,   0.0000000000)


Analysis of symmetry for initial positions (statically):
=====================================================================
 Subroutine PRICEL returns:
 Original cell was already a primitive cell.
 

 Routine SETGRP: Setting up the symmetry group for a 
 face centered cubic supercell.


 Subroutine GETGRP returns: Found 48 space group operations
 (whereof 12 operations were pure point group operations)
 out of a pool of 48 trial point group operations.


The static configuration has the point symmetry D_3d.
 The point group associated with its full space group is O_h .


Analysis of symmetry for dynamics (positions and initial velocities):
=====================================================================
 Subroutine PRICEL returns:
 Original cell was already a primitive cell.
 

 Routine SETGRP: Setting up the symmetry group for a 
 face centered cubic supercell.


 Subroutine GETGRP returns: Found 48 space group operations
 (whereof 12 operations were pure point group operations)
 out of a pool of 48 trial point group operations.


The dynamic configuration has the point symmetry D_3d.
 The point group associated with its full space group is O_h .


 Subroutine INISYM returns: Found 48 space group operations
 (whereof 12 operations are pure point group operations),
 and found     1 'primitive' translations


----------------------------------------------------------------------------------------

                                     Primitive cell                                     

  volume of cell :      43.9040

  direct lattice vectors                    reciprocal lattice vectors
     0.000000000  2.800000000  2.800000000    -0.178571429  0.178571429  0.178571429
     2.800000000  0.000000000  2.800000000     0.178571429 -0.178571429  0.178571429
     2.800000000  2.800000000  0.000000000     0.178571429  0.178571429 -0.178571429

  length of vectors
     3.959797975  3.959797975  3.959797975     0.309294787  0.309294787  0.309294787

  position of ions in fractional coordinates (direct lattice)
     0.875000000  0.875000000  0.875000000
     0.125000000  0.125000000  0.125000000

  ion indices of the primitive-cell ions
   primitive index   ion index
                 1           1
                 2           2

----------------------------------------------------------------------------------------

 
 
 KPOINTS: k-points                                

Automatic generation of k-mesh.
 Grid dimensions read from file:
 generate k-points for:   11   11   11

 Generating k-lattice:

  Cartesian coordinates                     Fractional coordinates (reciprocal lattice)
    -0.016233766  0.016233766  0.016233766     0.090909091  0.000000000 -0.000000000
     0.016233766 -0.016233766  0.016233766     0.000000000  0.090909091  0.000000000
     0.016233766  0.016233766 -0.016233766    -0.000000000 -0.000000000  0.090909091

  Length of vectors
     0.028117708  0.028117708  0.028117708

  Shift w.r.t. Gamma in fractional coordinates (k-lattice)
     0.000000000  0.000000000  0.000000000

 
 Subroutine IBZKPT returns following result:
 ===========================================
 
 Found     56 irreducible k-points:
 
 Following reciprocal coordinates:
            Coordinates               Weight
  0.000000  0.000000  0.000000      1.000000
  0.090909 -0.000000 -0.000000      8.000000
  0.181818  0.000000 -0.000000      8.000000
  0.272727  0.000000 -0.000000      8.000000
  0.363636  0.000000 -0.000000      8.000000
  0.454545 -0.000000 -0.000000      8.000000
  0.090909  0.090909 -0.000000      6.000000
  0.181818  0.090909 -0.000000     24.000000
  0.272727  0.090909 -0.000000     24.000000
  0.363636  0.090909 -0.000000     24.000000
  0.454545  0.090909 -0.000000     24.000000
 -0.454545  0.090909  0.000000     24.000000
 -0.363636  0.090909  0.000000     24.000000
 -0.272727  0.090909  0.000000     24.000000
 -0.181818  0.090909  0.000000     24.000000
 -0.090909  0.090909  0.000000     12.000000
  0.181818  0.181818 -0.000000      6.000000
  0.272727  0.181818 -0.000000     24.000000
  0.363636  0.181818 -0.000000     24.000000
  0.454545  0.181818 -0.000000     24.000000
 -0.454545  0.181818  0.000000     24.000000
 -0.363636  0.181818 -0.000000     24.000000
 -0.272727  0.181818  0.000000     24.000000
 -0.181818  0.181818  0.000000     12.000000
  0.272727  0.272727 -0.000000      6.000000
  0.363636  0.272727 -0.000000     24.000000
  0.454545  0.272727 -0.000000     24.000000
 -0.454545  0.272727 -0.000000     24.000000
 -0.363636  0.272727  0.000000     24.000000
 -0.272727  0.272727 -0.000000     12.000000
  0.363636  0.363636 -0.000000      6.000000
  0.454545  0.363636 -0.000000     24.000000
 -0.454545  0.363636  0.000000     24.000000
 -0.363636  0.363636  0.000000     12.000000
  0.454545  0.454545 -0.000000      6.000000
 -0.454545  0.454545 -0.000000     12.000000
  0.272727  0.181818  0.090909     24.000000
  0.363636  0.181818  0.090909     48.000000
  0.454545  0.181818  0.090909     48.000000
 -0.454545  0.181818  0.090909     48.000000
  0.363636  0.272727  0.090909     24.000000
  0.454545  0.272727  0.090909     48.000000
 -0.454545  0.272727  0.090909     48.000000
 -0.363636  0.272727  0.090909     48.000000
 -0.272727  0.272727  0.090909     48.000000
 -0.181818  0.272727  0.090909     24.000000
  0.454545  0.363636  0.090909     24.000000
 -0.454545  0.363636  0.090909     48.000000
 -0.363636  0.363636  0.090909     48.000000
 -0.272727  0.363636  0.090909     24.000000
 -0.454545  0.454545  0.090909     24.000000
 -0.363636  0.454545  0.090909     24.000000
 -0.454545  0.363636  0.181818     24.000000
 -0.363636  0.363636  0.181818     48.000000
 -0.363636  0.454545  0.181818     24.000000
 -0.272727  0.454545  0.181818     24.000000
 
 Following cartesian coordinates:
            Coordinates               Weight
  0.000000  0.000000  0.000000      1.000000
 -0.090909  0.090909  0.090909      8.000000
 -0.181818  0.181818  0.181818      8.000000
 -0.272727  0.272727  0.272727      8.000000
 -0.363636  0.363636  0.363636      8.000000
 -0.454545  0.454545  0.454545      8.000000
 -0.000000 -0.000000  0.181818      6.000000
 -0.090909  0.090909  0.272727     24.000000
 -0.181818  0.181818  0.363636     24.000000
 -0.272727  0.272727  0.454545     24.000000
 -0.363636  0.363636  0.545455     24.000000
  0.545455 -0.545455 -0.363636     24.000000
  0.454545 -0.454545 -0.272727     24.000000
  0.363636 -0.363636 -0.181818     24.000000
  0.272727 -0.272727 -0.090909     24.000000
  0.181818 -0.181818  0.000000     12.000000
 -0.000000 -0.000000  0.363636      6.000000
 -0.090909  0.090909  0.454545     24.000000
 -0.181818  0.181818  0.545455     24.000000
 -0.272727  0.272727  0.636364     24.000000
  0.636364 -0.636364 -0.272727     24.000000
  0.545455 -0.545455 -0.181818     24.000000
  0.454545 -0.454545 -0.090909     24.000000
  0.363636 -0.363636  0.000000     12.000000
 -0.000000 -0.000000  0.545455      6.000000
 -0.090909  0.090909  0.636364     24.000000
 -0.181818  0.181818  0.727273     24.000000
  0.727273 -0.727273 -0.181818     24.000000
  0.636364 -0.636364 -0.090909     24.000000
  0.545455 -0.545455  0.000000     12.000000
 -0.000000 -0.000000  0.727273      6.000000
 -0.090909  0.090909  0.818182     24.000000
  0.818182 -0.818182 -0.090909     24.000000
  0.727273 -0.727273  0.000000     12.000000
 -0.000000 -0.000000  0.909091      6.000000
  0.909091 -0.909091  0.000000     12.000000
 -0.000000  0.181818  0.363636     24.000000
 -0.090909  0.272727  0.454545     48.000000
 -0.181818  0.363636  0.545455     48.000000
  0.727273 -0.545455 -0.363636     48.000000
 -0.000000  0.181818  0.545455     24.000000
 -0.090909  0.272727  0.636364     48.000000
  0.818182 -0.636364 -0.272727     48.000000
  0.727273 -0.545455 -0.181818     48.000000
  0.636364 -0.454545 -0.090909     48.000000
  0.545455 -0.363636  0.000000     24.000000
  0.000000  0.181818  0.727273     24.000000
  0.909091 -0.727273 -0.181818     48.000000
  0.818182 -0.636364 -0.090909     48.000000
  0.727273 -0.545455  0.000000     24.000000
  1.000000 -0.818182 -0.090909     24.000000
  0.909091 -0.727273 -0.000000     24.000000
  1.000000 -0.636364 -0.272727     24.000000
  0.909091 -0.545455 -0.181818     48.000000
  1.000000 -0.636364 -0.090909     24.000000
  0.909091 -0.545455 -0.000000     24.000000
 


--------------------------------------------------------------------------------------------------------




 Dimension of arrays:
   k-points           NKPTS =     56   k-points in BZ     NKDIM =     56   number of bands    NBANDS=      8
   number of dos      NEDOS =    301   number of ions     NIONS =      2
   non local maximal  LDIM  =      4   non local SUM 2l+1 LMDIM =      8
   total plane-waves  NPLWV =   4096
   max r-space proj   IRMAX =      1   max aug-charges    IRDMAX=   3318
   dimension x,y,z NGX =    16 NGY =   16 NGZ =   16
   dimension x,y,z NGXF=    32 NGYF=   32 NGZF=   32
   support grid    NGXF=    32 NGYF=   32 NGZF=   32
   ions per type =               2
   NGX,Y,Z   is equivalent  to a cutoff of   6.72,  6.72,  6.72 a.u.
   NGXF,Y,Z  is equivalent  to a cutoff of  13.43, 13.43, 13.43 a.u.

 SYSTEM =  diamond Si                              
 POSCAR =  cubic diamond Si                        

 Startparameter for this run:
   NWRITE =      2    write-flag & timer
   PREC   = normal    normal or accurate (medium, high low for compatibility)
   ISTART =      0    job   : 0-new  1-cont  2-samecut
   ICHARG =      2    charge: 1-file 2-atom 10-const
   ISPIN  =      1    spin polarized calculation?
   LNONCOLLINEAR =      F non collinear calculations
   LSORBIT =      F    spin-orbit coupling
   INIWAV =      1    electr: 0-lowe 1-rand  2-diag
   LASPH  =      F    aspherical Exc in radial PAW
 Electronic Relaxation 1
   ENCUT  =  240.0 eV  17.64 Ry    4.20 a.u.   5.00  5.00  5.00*2*pi/ulx,y,z
   ENINI  =  240.0     initial cutoff
   ENAUG  =  322.1 eV  augmentation charge cutoff
   NELM   =     60;   NELMIN=  2; NELMDL= -5     # of ELM steps 
   EDIFF  = 0.1E-03   stopping-criterion for ELM
   LREAL  =      F    real-space projection
   NLSPLINE    = F    spline interpolate recip. space projectors
   LCOMPAT=      F    compatible to vasp.4.4
   GGA_COMPAT  = T    GGA compatible to vasp.4.4-vasp.4.6
   LMAXPAW     = -100 max onsite density
   LMAXMIX     =    2 max onsite mixed and CHGCAR
   VOSKOWN=      0    Vosko Wilk Nusair interpolation
   ROPT   =    0.00000
 Ionic relaxation
   EDIFFG = 0.1E-02   stopping-criterion for IOM
   NSW    =      0    number of steps for IOM
   NBLOCK =      1;   KBLOCK =      1    inner block; outer block 
   IBRION =     -1    ionic relax: 0-MD 1-quasi-New 2-CG
   NFREE  =      0    steps in history (QN), initial steepest desc. (CG)
   ISIF   =      2    stress and relaxation
   IWAVPR =     10    prediction:  0-non 1-charg 2-wave 3-comb
   ISYM   =      2    0-nonsym 1-usesym 2-fastsym
   LCORR  =      T    Harris-Foulkes like correction to forces

   POTIM  = 0.5000    time-step for ionic-motion
   TEIN   =    0.0    initial temperature
   TEBEG  =    0.0;   TEEND  =   0.0 temperature during run
   SMASS  =  -3.00    Nose mass-parameter (am)
   estimated Nose-frequenzy (Omega)   =  0.10E-29 period in steps = 0.13E+47 mass=  -0.358E-27a.u.
   SCALEE = 1.0000    scale energy and forces
   NPACO  =    256;   APACO  = 10.0  distance and # of slots for P.C.
   PSTRESS=    0.0 pullay stress

  Mass of Ions in am
   POMASS =  28.09
  Ionic Valenz
   ZVAL   =   4.00
  Atomic Wigner-Seitz radii
   RWIGS  =  -1.00
  virtual crystal weights 
   VCA    =   1.00
   NELECT =       8.0000    total number of electrons
   NUPDOWN=      -1.0000    fix difference up-down

 DOS related values:
   EMIN   =  10.00;   EMAX   =-10.00  energy-range for DOS
   EFERMI =   0.00
   ISMEAR =     0;   SIGMA  =   0.10  broadening in eV -4-tet -1-fermi 0-gaus

 Electronic relaxation 2 (details)
   IALGO  =     38    algorithm
   LDIAG  =      T    sub-space diagonalisation (order eigenvalues)
   LSUBROT=      F    optimize rotation matrix (better conditioning)
   TURBO    =      0    0=normal 1=particle mesh
   IRESTART =      0    0=no restart 2=restart with 2 vectors
   NREBOOT  =      0    no. of reboots
   NMIN     =      0    reboot dimension
   EREF     =   0.00    reference energy to select bands
   IMIX   =      4    mixing-type and parameters
     AMIX     =   0.40;   BMIX     =  1.00
     AMIX_MAG =   1.60;   BMIX_MAG =  1.00
     AMIN     =   0.10
     WC   =   100.;   INIMIX=   1;  MIXPRE=   1;  MAXMIX= -45

 Intra band minimization:
   WEIMIN = 0.0000     energy-eigenvalue tresh-hold
   EBREAK =  0.31E-05  absolut break condition
   DEPER  =   0.30     relativ break condition  

   TIME   =   0.40     timestep for ELM

  volume/ion in A,a.u.               =      21.95       148.14
  Fermi-wavevector in a.u.,A,eV,Ry     =   0.928119  1.753890 11.720114  0.861404
  Thomas-Fermi vector in A             =   2.054261
 
 Write flags
   LWAVE        =      T    write WAVECAR
   LDOWNSAMPLE  =      F    k-point downsampling of WAVECAR
   LCHARG       =      T    write CHGCAR
   LVTOT        =      F    write LOCPOT, total local potential
   LVHAR        =      F    write LOCPOT, Hartree potential only
   LELF         =      F    write electronic localiz. function (ELF)
   LORBIT       =      0    0 simple, 1 ext, 2 COOP (PROOUT), +10 PAW based schemes


 Dipole corrections
   LMONO  =      F    monopole corrections only (constant potential shift)
   LDIPOL =      F    correct potential (dipole corrections)
   IDIPOL =      0    1-x, 2-y, 3-z, 4-all directions 
   EPSILON=  1.0000000 bulk dielectric constant

 Exchange correlation treatment:
   GGA     =    --    GGA type
   LEXCH   =     8    internal setting for exchange type
   LIBXC   =     F    Libxc                    
   VOSKOWN =     0    Vosko Wilk Nusair interpolation
   LHFCALC =     F    Hartree Fock is set to
   LHFONE  =     F    Hartree Fock one center treatment
   AEXX    =    0.0000 exact exchange contribution

 Linear response parameters
   LEPSILON=     F    determine dielectric tensor
   LRPA    =     F    only Hartree local field effects (RPA)
   LNABLA  =     F    use nabla operator in PAW spheres
   LVEL    =     F    velocity operator in full k-point grid
   CSHIFT  =0.1000    complex shift for real part using Kramers Kronig
   OMEGAMAX=  -1.0    maximum frequency
   DEG_THRESHOLD= 0.2000000E-02 threshold for treating states as degnerate
   RTIME   =   -0.100 relaxation time in fs
  (WPLASMAI=    0.000 imaginary part of plasma frequency in eV, 0.658/RTIME)
   DFIELD  = 0.0000000 0.0000000 0.0000000 field for delta impulse in time
 
  Optional k-point grid parameters
   LKPOINTS_OPT  =     F    use optional k-point grid
   KPOINTS_OPT_MODE=     1    mode for optional k-point grid
 
 Orbital magnetization related:
   ORBITALMAG=     F  switch on orbital magnetization
   LCHIMAG   =     F  perturbation theory with respect to B field
   DQ        =  0.001000  dq finite difference perturbation B field
   LLRAUG    =     F  two centre corrections for induced B field



--------------------------------------------------------------------------------------------------------


 Static calculation
 charge density and potential will be updated during run
 non-spin polarized calculation
 Variant of blocked Davidson
 Davidson routine will perform the subspace rotation
 perform sub-space diagonalisation
    after iterative eigenvector-optimisation
 modified Broyden-mixing scheme, WC =      100.0
 initial mixing is a Kerker type mixing with AMIX =  0.4000 and BMIX =      1.0000
 Hartree-type preconditioning will be used
 using additional bands            4
 reciprocal scheme for non local part
 use partial core corrections
 calculate Harris-corrections to forces 
   (improved forces if not selfconsistent)
 use gradient corrections 
 use of overlap-Matrix (Vanderbilt PP)
 Gauss-broadening in eV      SIGMA  =   0.10


--------------------------------------------------------------------------------------------------------


  energy-cutoff  :      240.00
  volume of cell :       43.90
      direct lattice vectors                 reciprocal lattice vectors
     0.000000000  2.800000000  2.800000000    -0.178571429  0.178571429  0.178571429
     2.800000000  0.000000000  2.800000000     0.178571429 -0.178571429  0.178571429
     2.800000000  2.800000000  0.000000000     0.178571429  0.178571429 -0.178571429

  length of vectors
     3.959797975  3.959797975  3.959797975     0.309294787  0.309294787  0.309294787


 
 k-points in units of 2pi/SCALE and weight: k-points                                
   0.00000000  0.00000000  0.00000000       0.001
  -0.09090909  0.09090909  0.09090909       0.006
  -0.18181818  0.18181818  0.18181818       0.006
  -0.27272727  0.27272727  0.27272727       0.006
  -0.36363636  0.36363636  0.36363636       0.006
  -0.45454545  0.45454545  0.45454545       0.006
  -0.00000000 -0.00000000  0.18181818       0.005
  -0.09090909  0.09090909  0.27272727       0.018
  -0.18181818  0.18181818  0.36363636       0.018
  -0.27272727  0.27272727  0.45454545       0.018
  -0.36363636  0.36363636  0.54545455       0.018
   0.54545455 -0.54545455 -0.36363636       0.018
   0.45454545 -0.45454545 -0.27272727       0.018
   0.36363636 -0.36363636 -0.18181818       0.018
   0.27272727 -0.27272727 -0.09090909       0.018
   0.18181818 -0.18181818  0.00000000       0.009
  -0.00000000 -0.00000000  0.36363636       0.005
  -0.09090909  0.09090909  0.45454545       0.018
  -0.18181818  0.18181818  0.54545455       0.018
  -0.27272727  0.27272727  0.63636364       0.018
   0.63636364 -0.63636364 -0.27272727       0.018
   0.54545455 -0.54545455 -0.18181818       0.018
   0.45454545 -0.45454545 -0.09090909       0.018
   0.36363636 -0.36363636  0.00000000       0.009
  -0.00000000 -0.00000000  0.54545455       0.005
  -0.09090909  0.09090909  0.63636364       0.018
  -0.18181818  0.18181818  0.72727273       0.018
   0.72727273 -0.72727273 -0.18181818       0.018
   0.63636364 -0.63636364 -0.09090909       0.018
   0.54545455 -0.54545455  0.00000000       0.009
  -0.00000000 -0.00000000  0.72727273       0.005
  -0.09090909  0.09090909  0.81818182       0.018
   0.81818182 -0.81818182 -0.09090909       0.018
   0.72727273 -0.72727273  0.00000000       0.009
  -0.00000000 -0.00000000  0.90909091       0.005
   0.90909091 -0.90909091  0.00000000       0.009
  -0.00000000  0.18181818  0.36363636       0.018
  -0.09090909  0.27272727  0.45454545       0.036
  -0.18181818  0.36363636  0.54545455       0.036
   0.72727273 -0.54545455 -0.36363636       0.036
  -0.00000000  0.18181818  0.54545455       0.018
  -0.09090909  0.27272727  0.63636364       0.036
   0.81818182 -0.63636364 -0.27272727       0.036
   0.72727273 -0.54545455 -0.18181818       0.036
   0.63636364 -0.45454545 -0.09090909       0.036
   0.54545455 -0.36363636  0.00000000       0.018
   0.00000000  0.18181818  0.72727273       0.018
   0.90909091 -0.72727273 -0.18181818       0.036
   0.81818182 -0.63636364 -0.09090909       0.036
   0.72727273 -0.54545455  0.00000000       0.018
   1.00000000 -0.81818182 -0.09090909       0.018
   0.90909091 -0.72727273 -0.00000000       0.018
   1.00000000 -0.63636364 -0.27272727       0.018
   0.90909091 -0.54545455 -0.18181818       0.036
   1.00000000 -0.63636364 -0.09090909       0.018
   0.90909091 -0.54545455 -0.00000000       0.018
 
 k-points in reciprocal lattice and weights: k-points                                
   0.00000000  0.00000000  0.00000000       0.001
   0.09090909 -0.00000000 -0.00000000       0.006
   0.18181818  0.00000000 -0.00000000       0.006
   0.27272727  0.00000000 -0.00000000       0.006
   0.36363636  0.00000000 -0.00000000       0.006
   0.45454545 -0.00000000 -0.00000000       0.006
   0.09090909  0.09090909 -0.00000000       0.005
   0.18181818  0.09090909 -0.00000000       0.018
   0.27272727  0.09090909 -0.00000000       0.018
   0.36363636  0.09090909 -0.00000000       0.018
   0.45454545  0.09090909 -0.00000000       0.018
  -0.45454545  0.09090909  0.00000000       0.018
  -0.36363636  0.09090909  0.00000000       0.018
  -0.27272727  0.09090909  0.00000000       0.018
  -0.18181818  0.09090909  0.00000000       0.018
  -0.09090909  0.09090909  0.00000000       0.009
   0.18181818  0.18181818 -0.00000000       0.005
   0.27272727  0.18181818 -0.00000000       0.018
   0.36363636  0.18181818 -0.00000000       0.018
   0.45454545  0.18181818 -0.00000000       0.018
  -0.45454545  0.18181818  0.00000000       0.018
  -0.36363636  0.18181818 -0.00000000       0.018
  -0.27272727  0.18181818  0.00000000       0.018
  -0.18181818  0.18181818  0.00000000       0.009
   0.27272727  0.27272727 -0.00000000       0.005
   0.36363636  0.27272727 -0.00000000       0.018
   0.45454545  0.27272727 -0.00000000       0.018
  -0.45454545  0.27272727 -0.00000000       0.018
  -0.36363636  0.27272727  0.00000000       0.018
  -0.27272727  0.27272727 -0.00000000       0.009
   0.36363636  0.36363636 -0.00000000       0.005
   0.45454545  0.36363636 -0.00000000       0.018
  -0.45454545  0.36363636  0.00000000       0.018
  -0.36363636  0.36363636  0.00000000       0.009
   0.45454545  0.45454545 -0.00000000       0.005
  -0.45454545  0.45454545 -0.00000000       0.009
   0.27272727  0.18181818  0.09090909       0.018
   0.36363636  0.18181818  0.09090909       0.036
   0.45454545  0.18181818  0.09090909       0.036
  -0.45454545  0.18181818  0.09090909       0.036
   0.36363636  0.27272727  0.09090909       0.018
   0.45454545  0.27272727  0.09090909       0.036
  -0.45454545  0.27272727  0.09090909       0.036
  -0.36363636  0.27272727  0.09090909       0.036
  -0.27272727  0.27272727  0.09090909       0.036
  -0.18181818  0.27272727  0.09090909       0.018
   0.45454545  0.36363636  0.09090909       0.018
  -0.45454545  0.36363636  0.09090909       0.036
  -0.36363636  0.36363636  0.09090909       0.036
  -0.27272727  0.36363636  0.09090909       0.018
  -0.45454545  0.45454545  0.09090909       0.018
  -0.36363636  0.45454545  0.09090909       0.018
  -0.45454545  0.36363636  0.18181818       0.018
  -0.36363636  0.36363636  0.18181818       0.036
  -0.36363636  0.45454545  0.18181818       0.018
  -0.27272727  0.45454545  0.18181818       0.018
 
 position of ions in fractional coordinates (direct lattice) 
   0.87500000  0.87500000  0.87500000
   0.12500000  0.12500000  0.12500000
 
 position of ions in cartesian coordinates  (Angst):
   4.90000000  4.90000000  4.90000000
   0.70000000  0.70000000  0.70000000
 


--------------------------------------------------------------------------------------------------------


 k-point   1 :   0.0000 0.0000 0.0000  plane waves:     339
 k-point   2 :   0.0909-0.0000-0.0000  plane waves:     353
 k-point   3 :   0.1818 0.0000-0.0000  plane waves:     362
 k-point   4 :   0.2727 0.0000-0.0000  plane waves:     365
 k-point   5 :   0.3636 0.0000-0.0000  plane waves:     362
 k-point   6 :   0.4545-0.0000-0.0000  plane waves:     368
 k-point   7 :   0.0909 0.0909-0.0000  plane waves:     355
 k-point   8 :   0.1818 0.0909-0.0000  plane waves:     360
 k-point   9 :   0.2727 0.0909-0.0000  plane waves:     368
 k-point  10 :   0.3636 0.0909-0.0000  plane waves:     366
 k-point  11 :   0.4545 0.0909-0.0000  plane waves:     371
 k-point  12 :  -0.4545 0.0909 0.0000  plane waves:     370
 k-point  13 :  -0.3636 0.0909 0.0000  plane waves:     368
 k-point  14 :  -0.2727 0.0909 0.0000  plane waves:     368
 k-point  15 :  -0.1818 0.0909 0.0000  plane waves:     366
 k-point  16 :  -0.0909 0.0909 0.0000  plane waves:     361
 k-point  17 :   0.1818 0.1818-0.0000  plane waves:     355
 k-point  18 :   0.2727 0.1818-0.0000  plane waves:     361
 k-point  19 :   0.3636 0.1818-0.0000  plane waves:     366
 k-point  20 :   0.4545 0.1818-0.0000  plane waves:     376
 k-point  21 :  -0.4545 0.1818 0.0000  plane waves:     372
 k-point  22 :  -0.3636 0.1818-0.0000  plane waves:     374
 k-point  23 :  -0.2727 0.1818 0.0000  plane waves:     369
 k-point  24 :  -0.1818 0.1818 0.0000  plane waves:     367
 k-point  25 :   0.2727 0.2727-0.0000  plane waves:     359
 k-point  26 :   0.3636 0.2727-0.0000  plane waves:     367
 k-point  27 :   0.4545 0.2727-0.0000  plane waves:     366
 k-point  28 :  -0.4545 0.2727-0.0000  plane waves:     371
 k-point  29 :  -0.3636 0.2727 0.0000  plane waves:     371
 k-point  30 :  -0.2727 0.2727-0.0000  plane waves:     371
 k-point  31 :   0.3636 0.3636-0.0000  plane waves:     363
 k-point  32 :   0.4545 0.3636-0.0000  plane waves:     366
 k-point  33 :  -0.4545 0.3636 0.0000  plane waves:     368
 k-point  34 :  -0.3636 0.3636 0.0000  plane waves:     375
 k-point  35 :   0.4545 0.4545-0.0000  plane waves:     379
 k-point  36 :  -0.4545 0.4545-0.0000  plane waves:     371
 k-point  37 :   0.2727 0.1818 0.0909  plane waves:     364
 k-point  38 :   0.3636 0.1818 0.0909  plane waves:     370
 k-point  39 :   0.4545 0.1818 0.0909  plane waves:     373
 k-point  40 :  -0.4545 0.1818 0.0909  plane waves:     371
 k-point  41 :   0.3636 0.2727 0.0909  plane waves:     364
 k-point  42 :   0.4545 0.2727 0.0909  plane waves:     371
 k-point  43 :  -0.4545 0.2727 0.0909  plane waves:     373
 k-point  44 :  -0.3636 0.2727 0.0909  plane waves:     376
 k-point  45 :  -0.2727 0.2727 0.0909  plane waves:     373
 k-point  46 :  -0.1818 0.2727 0.0909  plane waves:     372
 k-point  47 :   0.4545 0.3636 0.0909  plane waves:     373
 k-point  48 :  -0.4545 0.3636 0.0909  plane waves:     372
 k-point  49 :  -0.3636 0.3636 0.0909  plane waves:     376
 k-point  50 :  -0.2727 0.3636 0.0909  plane waves:     378
 k-point  51 :  -0.4545 0.4545 0.0909  plane waves:     367
 k-point  52 :  -0.3636 0.4545 0.0909  plane waves:     372
 k-point  53 :  -0.4545 0.3636 0.1818  plane waves:     373
 k-point  54 :  -0.3636 0.3636 0.1818  plane waves:     377
 k-point  55 :  -0.3636 0.4545 0.1818  plane waves:     372
 k-point  56 :  -0.2727 0.4545 0.1818  plane waves:     378

 maximum and minimum number of plane-waves per node :       379      339

 maximum number of plane-waves:       379
 maximum index in each direction: 
   IXMAX=    5   IYMAX=    4   IZMAX=    5
   IXMIN=   -5   IYMIN=   -5   IZMIN=   -5


 serial   3D FFT for wavefunctions
 parallel 3D FFT for charge:
    minimum data exchange during FFTs selected (reduces bandwidth)


 total amount of memory used by VASP MPI-rank0    32968. kBytes
=======================================================================

   base      :      30000. kBytes
   nonl-proj :       1374. kBytes
   fftplans  :        302. kBytes
   grid      :        577. kBytes
   one-center:          6. kBytes
   wavefun   :        709. kBytes
 
     INWAV:  cpu time      0.0000: real time      0.0001
 Broyden mixing: mesh for mixing (old mesh)
   NGX =  9   NGY =  9   NGZ =  9
  (NGX  = 32   NGY  = 32   NGZ  = 32)
  gives a total of    729 points

 initial charge density was supplied:
 charge density of overlapping atoms calculated
 number of electron       8.0000000 magnetization 
 keeping initial charge density in first step


--------------------------------------------------------------------------------------------------------


 Maximum index for augmentation-charges          769 (set IRDMAX)


--------------------------------------------------------------------------------------------------------


 First call to EWALD:  gamma=   0.502
 Maximum number of real-space cells 3x 3x 3
 Maximum number of reciprocal cells 3x 3x 3

    FEWALD:  cpu time      0.0015: real time      0.0015


--------------------------------------- Iteration      1(   1)  ---------------------------------------


    POTLOK:  cpu time      0.0043: real time      0.0045
    SETDIJ:  cpu time      0.0013: real time      0.0013
     EDDAV:  cpu time      0.0767: real time      0.0769
       DOS:  cpu time      0.0007: real time      0.0007
    --------------------------------------------
      LOOP:  cpu time      0.0830: real time      0.0835

 eigenvalue-minimisations  :   936
 total energy-change (2. order) :-0.2389790E+01  (-0.2046177E+03)
 number of electron       8.0000000 magnetization 
 augmentation part        8.0000000 magnetization 

 Free energy of the ion-electron system (eV)
  ---------------------------------------------------
  alpha Z        PSCENC =         3.06697620
  Ewald energy   TEWEN  =      -221.62498935
  -Hartree energ DENC   =       -12.43281018
  -exchange      EXHF   =         0.00000000
  -V(xc)+E(xc)   XCENC  =       -18.95516422
  PAW double counting   =       176.24759923     -141.06103558
  entropy T*S    EENTRO =        -0.00190326
  eigenvalues    EBANDS =         6.24998366
  atomic energy  EATOM  =       206.12155316
  Solvation  Ediel_sol  =         0.00000000
  ---------------------------------------------------
  free energy    TOTEN  =        -2.38979034 eV

  energy without entropy =       -2.38788708  energy(sigma->0) =       -2.38883871


--------------------------------------------------------------------------------------------------------




--------------------------------------- Iteration      1(   2)  ---------------------------------------


     EDDAV:  cpu time      0.1190: real time      0.1217
       DOS:  cpu time      0.0004: real time      0.0004
    --------------------------------------------
      LOOP:  cpu time      0.1194: real time      0.1221

 eigenvalue-minimisations  :  1440
 total energy-change (2. order) :-0.8430128E+01  (-0.8155357E+01)
 number of electron       8.0000000 magnetization 
 augmentation part        8.0000000 magnetization 

 Free energy of the ion-electron system (eV)
  ---------------------------------------------------
  alpha Z        PSCENC =         3.06697620
  Ewald energy   TEWEN  =      -221.62498935
  -Hartree energ DENC   =       -12.43281018
  -exchange      EXHF   =         0.00000000
  -V(xc)+E(xc)   XCENC  =       -18.95516422
  PAW double counting   =       176.24759923     -141.06103558
  entropy T*S    EENTRO =        -0.00000000
  eigenvalues    EBANDS =        -2.18204738
  atomic energy  EATOM  =       206.12155316
  Solvation  Ediel_sol  =         0.00000000
  ---------------------------------------------------
  free energy    TOTEN  =       -10.81991812 eV

  energy without entropy =      -10.81991812  energy(sigma->0) =      -10.81991812


--------------------------------------------------------------------------------------------------------




--------------------------------------- Iteration      1(   3)  ---------------------------------------


     EDDAV:  cpu time      0.0869: real time      0.0872
       DOS:  cpu time      0.0005: real time      0.0005
    --------------------------------------------
      LOOP:  cpu time      0.0873: real time      0.0876

 eigenvalue-minimisations  :  1120
 total energy-change (2. order) :-0.8556185E-01  (-0.8556185E-01)
 number of electron       8.0000000 magnetization 
 augmentation part        8.0000000 magnetization 

 Free energy of the ion-electron system (eV)
  ---------------------------------------------------
  alpha Z        PSCENC =         3.06697620
  Ewald energy   TEWEN  =      -221.62498935
  -Hartree energ DENC   =       -12.43281018
  -exchange      EXHF   =         0.00000000
  -V(xc)+E(xc)   XCENC  =       -18.95516422
  PAW double counting   =       176.24759923     -141.06103558
  entropy T*S    EENTRO =        -0.00000000
  eigenvalues    EBANDS =        -2.26760923
  atomic energy  EATOM  =       206.12155316
  Solvation  Ediel_sol  =         0.00000000
  ---------------------------------------------------
  free energy    TOTEN  =       -10.90547997 eV

  energy without entropy =      -10.90547997  energy(sigma->0) =      -10.90547997


--------------------------------------------------------------------------------------------------------




--------------------------------------- Iteration      1(   4)  ---------------------------------------


     EDDAV:  cpu time      0.1166: real time      0.1170
       DOS:  cpu time      0.0005: real time      0.0005
    --------------------------------------------
      LOOP:  cpu time      0.1171: real time      0.1174

 eigenvalue-minimisations  :  1456
 total energy-change (2. order) :-0.2717440E-03  (-0.2717442E-03)
 number of electron       8.0000000 magnetization 
 augmentation part        8.0000000 magnetization 

 Free energy of the ion-electron system (eV)
  ---------------------------------------------------
  alpha Z        PSCENC =         3.06697620
  Ewald energy   TEWEN  =      -221.62498935
  -Hartree energ DENC   =       -12.43281018
  -exchange      EXHF   =         0.00000000
  -V(xc)+E(xc)   XCENC  =       -18.95516422
  PAW double counting   =       176.24759923     -141.06103558
  entropy T*S    EENTRO =        -0.00000000
  eigenvalues    EBANDS =        -2.26788097
  atomic energy  EATOM  =       206.12155316
  Solvation  Ediel_sol  =         0.00000000
  ---------------------------------------------------
  free energy    TOTEN  =       -10.90575172 eV

  energy without entropy =      -10.90575172  energy(sigma->0) =      -10.90575172


--------------------------------------------------------------------------------------------------------




--------------------------------------- Iteration      1(   5)  ---------------------------------------


     EDDAV:  cpu time      0.0842: real time      0.0845
       DOS:  cpu time      0.0005: real time      0.0005
    CHARGE:  cpu time      0.0031: real time      0.0032
    MIXING:  cpu time      0.0005: real time      0.0005
    --------------------------------------------
      LOOP:  cpu time      0.0883: real time      0.0886

 eigenvalue-minimisations  :  1096
 total energy-change (2. order) :-0.1453579E-06  (-0.1450438E-06)
 number of electron       8.0000013 magnetization 
 augmentation part       -0.4653938 magnetization 

 Broyden mixing:
  rms(total) = 0.48164E+00    rms(broyden)= 0.48161E+00
  rms(prec ) = 0.87775E+00
  weight for this iteration     100.00

 Free energy of the ion-electron system (eV)
  ---------------------------------------------------
  alpha Z        PSCENC =         3.06697620
  Ewald energy   TEWEN  =      -221.62498935
  -Hartree energ DENC   =       -12.43281018
  -exchange      EXHF   =         0.00000000
  -V(xc)+E(xc)   XCENC  =       -18.95516422
  PAW double counting   =       176.24759923     -141.06103558
  entropy T*S    EENTRO =        -0.00000000
  eigenvalues    EBANDS =        -2.26788112
  atomic energy  EATOM  =       206.12155316
  Solvation  Ediel_sol  =         0.00000000
  ---------------------------------------------------
  free energy    TOTEN  =       -10.90575186 eV

  energy without entropy =      -10.90575186  energy(sigma->0) =      -10.90575186


--------------------------------------------------------------------------------------------------------




--------------------------------------- Iteration      1(   6)  ---------------------------------------


    POTLOK:  cpu time      0.0036: real time      0.0037
    SETDIJ:  cpu time      0.0011: real time      0.0011
     EDDAV:  cpu time      0.0802: real time      0.0804
       DOS:  cpu time      0.0005: real time      0.0004
    CHARGE:  cpu time      0.0029: real time      0.0029
    MIXING:  cpu time      0.0004: real time      0.0004
    --------------------------------------------
      LOOP:  cpu time      0.0886: real time      0.0889

 eigenvalue-minimisations  :  1056
 total energy-change (2. order) : 0.8869675E-01  (-0.5403648E-02)
 number of electron       8.0000013 magnetization 
 augmentation part       -0.4608666 magnetization 

 Broyden mixing:
  rms(total) = 0.29272E+00    rms(broyden)= 0.29272E+00
  rms(prec ) = 0.52782E+00
  weight for this iteration     100.00

 eigenvalues of (default mixing * dielectric matrix)
  average eigenvalue GAMMA=   2.5441
  2.5441

 Free energy of the ion-electron system (eV)
  ---------------------------------------------------
  alpha Z        PSCENC =         3.06697620
  Ewald energy   TEWEN  =      -221.62498935
  -Hartree energ DENC   =       -13.77035568
  -exchange      EXHF   =         0.00000000
  -V(xc)+E(xc)   XCENC  =       -18.74216486
  PAW double counting   =       380.52542537     -345.41834386
  entropy T*S    EENTRO =        -0.00000000
  eigenvalues    EBANDS =        -0.97515609
  atomic energy  EATOM  =       206.12155316
  Solvation  Ediel_sol  =         0.00000000
  ---------------------------------------------------
  free energy    TOTEN  =       -10.81705511 eV

  energy without entropy =      -10.81705511  energy(sigma->0) =      -10.81705511


--------------------------------------------------------------------------------------------------------




--------------------------------------- Iteration      1(   7)  ---------------------------------------


    POTLOK:  cpu time      0.0036: real time      0.0037
    SETDIJ:  cpu time      0.0011: real time      0.0011
     EDDAV:  cpu time      0.0845: real time      0.0851
       DOS:  cpu time      0.0005: real time      0.0005
    CHARGE:  cpu time      0.0029: real time      0.0029
    MIXING:  cpu time      0.0003: real time      0.0003
    --------------------------------------------
      LOOP:  cpu time      0.0930: real time      0.0936

 eigenvalue-minimisations  :  1112
 total energy-change (2. order) : 0.4328925E-01  (-0.1111650E-01)
 number of electron       8.0000013 magnetization 
 augmentation part       -0.4554202 magnetization 

 Broyden mixing:
  rms(total) = 0.14171E-01    rms(broyden)= 0.14170E-01
  rms(prec ) = 0.34688E-01
  weight for this iteration     100.00

 eigenvalues of (default mixing * dielectric matrix)
  average eigenvalue GAMMA=   2.0043
  1.6112  2.3974

 Free energy of the ion-electron system (eV)
  ---------------------------------------------------
  alpha Z        PSCENC =         3.06697620
  Ewald energy   TEWEN  =      -221.62498935
  -Hartree energ DENC   =       -16.02901886
  -exchange      EXHF   =         0.00000000
  -V(xc)+E(xc)   XCENC  =       -18.37713003
  PAW double counting   =       872.87490125     -837.86986245
  entropy T*S    EENTRO =        -0.00000000
  eigenvalues    EBANDS =         1.06380422
  atomic energy  EATOM  =       206.12155316
  Solvation  Ediel_sol  =         0.00000000
  ---------------------------------------------------
  free energy    TOTEN  =       -10.77376587 eV

  energy without entropy =      -10.77376586  energy(sigma->0) =      -10.77376586


--------------------------------------------------------------------------------------------------------




--------------------------------------- Iteration      1(   8)  ---------------------------------------


    POTLOK:  cpu time      0.0036: real time      0.0037
    SETDIJ:  cpu time      0.0011: real time      0.0011
     EDDAV:  cpu time      0.0710: real time      0.0711
       DOS:  cpu time      0.0005: real time      0.0005
    CHARGE:  cpu time      0.0029: real time      0.0029
    MIXING:  cpu time      0.0004: real time      0.0004
    --------------------------------------------
      LOOP:  cpu time      0.0794: real time      0.0797

 eigenvalue-minimisations  :   944
 total energy-change (2. order) :-0.1131421E-02  (-0.2865758E-03)
 number of electron       8.0000013 magnetization 
 augmentation part       -0.4562189 magnetization 

 Broyden mixing:
  rms(total) = 0.70959E-02    rms(broyden)= 0.70954E-02
  rms(prec ) = 0.13126E-01
  weight for this iteration     100.00

 eigenvalues of (default mixing * dielectric matrix)
  average eigenvalue GAMMA=   2.2236
  2.8465  1.7337  2.0905

 Free energy of the ion-electron system (eV)
  ---------------------------------------------------
  alpha Z        PSCENC =         3.06697620
  Ewald energy   TEWEN  =      -221.62498935
  -Hartree energ DENC   =       -15.96940249
  -exchange      EXHF   =         0.00000000
  -V(xc)+E(xc)   XCENC  =       -18.37929415
  PAW double counting   =       862.45270517     -827.42480500
  entropy T*S    EENTRO =        -0.00000000
  eigenvalues    EBANDS =         0.98235918
  atomic energy  EATOM  =       206.12155316
  Solvation  Ediel_sol  =         0.00000000
  ---------------------------------------------------
  free energy    TOTEN  =       -10.77489729 eV

  energy without entropy =      -10.77489729  energy(sigma->0) =      -10.77489729


--------------------------------------------------------------------------------------------------------




--------------------------------------- Iteration      1(   9)  ---------------------------------------


    POTLOK:  cpu time      0.0037: real time      0.0037
    SETDIJ:  cpu time      0.0011: real time      0.0011
     EDDAV:  cpu time      0.1025: real time      0.1028
       DOS:  cpu time      0.0005: real time      0.0005
    CHARGE:  cpu time      0.0029: real time      0.0029
    MIXING:  cpu time      0.0003: real time      0.0003
    --------------------------------------------
      LOOP:  cpu time      0.1110: real time      0.1114

 eigenvalue-minimisations  :  1312
 total energy-change (2. order) :-0.2331717E-03  (-0.2493040E-04)
 number of electron       8.0000013 magnetization 
 augmentation part       -0.4563453 magnetization 

 Broyden mixing:
  rms(total) = 0.50622E-02    rms(broyden)= 0.50621E-02
  rms(prec ) = 0.58932E-02
  weight for this iteration     100.00

 eigenvalues of (default mixing * dielectric matrix)
  average eigenvalue GAMMA=   2.1230
  0.9719  2.6515  2.6515  2.2170

 Free energy of the ion-electron system (eV)
  ---------------------------------------------------
  alpha Z        PSCENC =         3.06697620
  Ewald energy   TEWEN  =      -221.62498935
  -Hartree energ DENC   =       -16.01653448
  -exchange      EXHF   =         0.00000000
  -V(xc)+E(xc)   XCENC  =       -18.37076329
  PAW double counting   =       862.30575610     -827.27450737
  entropy T*S    EENTRO =        -0.00000000
  eigenvalues    EBANDS =         1.01737857
  atomic energy  EATOM  =       206.12155316
  Solvation  Ediel_sol  =         0.00000000
  ---------------------------------------------------
  free energy    TOTEN  =       -10.77513046 eV

  energy without entropy =      -10.77513046  energy(sigma->0) =      -10.77513046


--------------------------------------------------------------------------------------------------------




--------------------------------------- Iteration      1(  10)  ---------------------------------------


    POTLOK:  cpu time      0.0036: real time      0.0037
    SETDIJ:  cpu time      0.0011: real time      0.0011
     EDDAV:  cpu time      0.0432: real time      0.0433
       DOS:  cpu time      0.0005: real time      0.0005
    --------------------------------------------
      LOOP:  cpu time      0.0485: real time      0.0487

 eigenvalue-minimisations  :   512
 total energy-change (2. order) :-0.2096814E-04  (-0.2323680E-05)
 number of electron       8.0000013 magnetization 
 augmentation part       -0.4563453 magnetization 

 Free energy of the ion-electron system (eV)
  ---------------------------------------------------
  alpha Z        PSCENC =         3.06697620
  Ewald energy   TEWEN  =      -221.62498935
  -Hartree energ DENC   =       -16.02591597
  -exchange      EXHF   =         0.00000000
  -V(xc)+E(xc)   XCENC  =       -18.37056068
  PAW double counting   =       852.08985040     -817.05920042
  entropy T*S    EENTRO =        -0.00000000
  eigenvalues    EBANDS =         1.02713525
  atomic energy  EATOM  =       206.12155316
  Solvation  Ediel_sol  =         0.00000000
  ---------------------------------------------------
  free energy    TOTEN  =       -10.77515143 eV

  energy without entropy =      -10.77515143  energy(sigma->0) =      -10.77515143


--------------------------------------------------------------------------------------------------------




 average (electrostatic) potential at core
  the test charge radii are     0.9892
  (the norm of the test charge is              1.0000)
       1 -84.2559       2 -84.2559
 
 
 
 E-fermi :   5.3182     XC(G=0):  -9.0537     alpha+bet :-10.9259

 Fermi energy:         5.3182420215

 k-point     1 :       0.0000    0.0000    0.0000
  band No.  band energies     occupation 
      1      -6.4169      2.00000
      2       4.9451      2.00000
      3       4.9451      2.00000
      4       4.9451      2.00000
      5       7.2776      0.00000
      6       7.4706      0.00000
      7       7.4707      0.00000
      8       7.4707      0.00000

 k-point     2 :       0.0909   -0.0000   -0.0000
  band No.  band energies     occupation 
      1      -6.3170      2.00000
      2       3.9443      2.00000
      3       4.7912      2.00000
      4       4.7912      2.00000
      5       7.2466      0.00000
      6       7.6951      0.00000
      7       7.6952      0.00000
      8       8.3413      0.00000

 k-point     3 :       0.1818    0.0000   -0.0000
  band No.  band energies     occupation 
      1      -6.0216      2.00000
      2       2.3419      2.00000
      3       4.4747      2.00000
      4       4.4747      2.00000
      5       6.9113      0.00000
      6       8.1409      0.00000
      7       8.1410      0.00000
      8       9.9335      0.00000

 k-point     4 :       0.2727    0.0000   -0.0000
  band No.  band energies     occupation 
      1      -5.5478      2.00000
      2       0.7866      2.00000
      3       4.1701      2.00000
      4       4.1701      2.00000
      5       6.5682      0.00000
      6       8.4162      0.00000
      7       8.4162      0.00000
      8      11.5104      0.00000

 k-point     5 :       0.3636    0.0000   -0.0000
  band No.  band energies     occupation 
      1      -4.9473      2.00000
      2      -0.5613      2.00000
      3       3.9494      2.00000
      4       3.9495      2.00000
      5       6.3132      0.00000
      6       8.4128      0.00000
      7       8.4128      0.00000
      8      12.5550      0.00000

 k-point     6 :       0.4545   -0.0000   -0.0000
  band No.  band energies     occupation 
      1      -4.4059      2.00000
      2      -1.4836      2.00000
      3       3.8355      2.00000
      4       3.8356      2.00000
      5       6.1793      0.00000
      6       8.3392      0.00000
      7       8.3393      0.00000
      8      12.5568      0.00000

 k-point     7 :       0.0909    0.0909   -0.0000
  band No.  band energies     occupation 
      1      -6.2835      2.00000
      2       4.0480      2.00000
      3       4.4993      2.00000
      4       4.4993      2.00000
      5       7.1754      0.00000
      6       8.0777      0.00000
      7       8.0777      0.00000
      8       8.1178      0.00000

 k-point     8 :       0.1818    0.0909   -0.0000
  band No.  band energies     occupation 
      1      -6.0524      2.00000
      2       2.7777      2.00000
      3       4.1336      2.00000
      4       4.2665      2.00000
      5       7.1900      0.00000
      6       7.9078      0.00000
      7       8.6309      0.00000
      8       9.4170      0.00000

 k-point     9 :       0.2727    0.0909   -0.0000
  band No.  band energies     occupation 
      1      -5.6354      2.00000
      2       1.2670      2.00000
      3       3.8334      2.00000
      4       3.9104      2.00000
      5       7.1793      0.00000
      6       8.0294      0.00000
      7       8.9903      0.00000
      8      10.1525      0.00000

 k-point    10 :       0.3636    0.0909   -0.0000
  band No.  band energies     occupation 
      1      -5.0672      2.00000
      2      -0.1300      2.00000
      3       3.5513      2.00000
      4       3.6533      2.00000
      5       6.9651      0.00000
      6       8.1943      0.00000
      7       8.9809      0.00000
      8      10.9139      0.00000

 k-point    11 :       0.4545    0.0909   -0.0000
  band No.  band energies     occupation 
      1      -4.4664      2.00000
      2      -1.2197      2.00000
      3       3.2740      2.00000
      4       3.6089      2.00000
      5       6.8042      0.00000
      6       8.2165      0.00000
      7       8.7942      0.00000
      8      12.0683      0.00000

 k-point    12 :      -0.4545    0.0909    0.0000
  band No.  band energies     occupation 
      1      -4.2314      2.00000
      2      -1.5777      2.00000
      3       3.1137      2.00000
      4       3.6981      2.00000
      5       6.7625      0.00000
      6       8.2903      0.00000
      7       8.6299      0.00000
      8      12.7731      0.00000

 k-point    13 :      -0.3636    0.0909    0.0000
  band No.  band energies     occupation 
      1      -4.6562      2.00000
      2      -0.9047      2.00000
      3       3.0897      2.00000
      4       3.9060      2.00000
      5       6.8481      0.00000
      6       8.4631      0.00000
      7       8.5419      0.00000
      8      12.3651      0.00000

 k-point    14 :      -0.2727    0.0909    0.0000
  band No.  band energies     occupation 
      1      -5.2709      2.00000
      2       0.3154      2.00000
      3       3.2156      2.00000
      4       4.2057      2.00000
      5       7.0517      0.00000
      6       8.4340      0.00000
      7       8.6246      0.00000
      8      11.2675      0.00000

 k-point    15 :      -0.1818    0.0909    0.0000
  band No.  band energies     occupation 
      1      -5.7949      2.00000
      2       1.7535      2.00000
      3       3.5100      2.00000
      4       4.5442      2.00000
      5       7.3366      0.00000
      6       8.1282      0.00000
      7       8.4367      0.00000
      8      10.3023      0.00000

 k-point    16 :      -0.0909    0.0909    0.0000
  band No.  band energies     occupation 
      1      -6.1516      2.00000
      2       3.1346      2.00000
      3       4.0488      2.00000
      4       4.8023      2.00000
      5       7.5335      0.00000
      6       7.7463      0.00000
      7       7.8804      0.00000
      8       9.2943      0.00000

 k-point    17 :       0.1818    0.1818   -0.0000
  band No.  band energies     occupation 
      1      -5.8857      2.00000
      2       2.5558      2.00000
      3       3.7356      2.00000
      4       3.7356      2.00000
      5       6.5794      0.00000
      6       8.7228      0.00000
      7       9.3287      0.00000
      8       9.3287      0.00000

 k-point    18 :       0.2727    0.1818   -0.0000
  band No.  band energies     occupation 
      1      -5.5290      2.00000
      2       1.4877      2.00000
      3       3.3272      2.00000
      4       3.4156      2.00000
      5       6.6264      0.00000
      6       8.4672      0.00000
      7       9.6332      0.00000
      8       9.8903      0.00000

 k-point    19 :       0.3636    0.1818   -0.0000
  band No.  band energies     occupation 
      1      -5.0053      2.00000
      2       0.2330      2.00000
      3       2.8195      2.00000
      4       3.2286      2.00000
      5       6.8465      0.00000
      6       8.7893      0.00000
      7       9.4712      0.00000
      8      10.0181      0.00000

 k-point    20 :       0.4545    0.1818   -0.0000
  band No.  band energies     occupation 
      1      -4.3893      2.00000
      2      -0.8937      2.00000
      3       2.3720      2.00000
      4       3.1929      2.00000
      5       6.8749      0.00000
      6       9.1047      0.00000
      7       9.8198      0.00000
      8      10.0845      0.00000

 k-point    21 :      -0.4545    0.1818    0.0000
  band No.  band energies     occupation 
      1      -3.9643      2.00000
      2      -1.5265      2.00000
      3       2.0639      2.00000
      4       3.3099      2.00000
      5       6.9465      0.00000
      6       9.0305      0.00000
      7       9.5613      0.00000
      8      11.5854      0.00000

 k-point    22 :      -0.3636    0.1818   -0.0000
  band No.  band energies     occupation 
      1      -4.2153      2.00000
      2      -1.1602      2.00000
      3       1.9341      2.00000
      4       3.5630      2.00000
      5       7.1444      0.00000
      6       9.0535      0.00000
      7       9.3360      0.00000
      8      12.2526      0.00000

 k-point    23 :      -0.2727    0.1818    0.0000
  band No.  band energies     occupation 
      1      -4.8198      2.00000
      2      -0.1503      2.00000
      3       2.0332      2.00000
      4       3.9171      2.00000
      5       7.4352      0.00000
      6       9.0611      0.00000
      7       9.1343      0.00000
      8      10.9028      0.00000

 k-point    24 :      -0.1818    0.1818    0.0000
  band No.  band energies     occupation 
      1      -5.3833      2.00000
      2       0.9487      2.00000
      3       2.5012      2.00000
      4       4.2964      2.00000
      5       7.6676      0.00000
      6       8.5751      0.00000
      7       8.8315      0.00000
      8      10.2704      0.00000

 k-point    25 :       0.2727    0.2727   -0.0000
  band No.  band energies     occupation 
      1      -5.2321      2.00000
      2       1.0111      2.00000
      3       3.0651      2.00000
      4       3.0651      2.00000
      5       6.0400      0.00000
      6       7.7723      0.00000
      7      10.7908      0.00000
      8      10.7908      0.00000

 k-point    26 :       0.3636    0.2727   -0.0000
  band No.  band energies     occupation 
      1      -4.7595      2.00000
      2       0.1237      2.00000
      3       2.5740      2.00000
      4       2.8482      2.00000
      5       6.1684      0.00000
      6       7.5108      0.00000
      7      11.0115      0.00000
      8      11.2603      0.00000

 k-point    27 :       0.4545    0.2727   -0.0000
  band No.  band energies     occupation 
      1      -4.1572      2.00000
      2      -0.8192      2.00000
      3       1.9095      2.00000
      4       2.7884      2.00000
      5       6.3750      0.00000
      6       8.1937      0.00000
      7      10.8245      0.00000
      8      11.1875      0.00000

 k-point    28 :      -0.4545    0.2727   -0.0000
  band No.  band energies     occupation 
      1      -3.6092      2.00000
      2      -1.5387      2.00000
      3       1.3843      2.00000
      4       2.8897      2.00000
      5       6.4988      0.00000
      6       9.5969      0.00000
      7      10.6391      0.00000
      8      10.8943      0.00000

 k-point    29 :      -0.3636    0.2727    0.0000
  band No.  band energies     occupation 
      1      -3.6642      2.00000
      2      -1.4634      2.00000
      3       1.1311      2.00000
      4       3.1405      2.00000
      5       6.7511      0.00000
      6      10.5191      0.00000
      7      10.5372      0.00000
      8      11.3413      0.00000

 k-point    30 :      -0.2727    0.2727   -0.0000
  band No.  band energies     occupation 
      1      -4.2356      2.00000
      2      -0.7691      2.00000
      3       1.2863      2.00000
      4       3.5084      2.00000
      5       7.1273      0.00000
      6       9.9357      0.00000
      7      10.2863      0.00000
      8      10.8759      0.00000

 k-point    31 :       0.3636    0.3636   -0.0000
  band No.  band energies     occupation 
      1      -4.3372      2.00000
      2      -0.5019      2.00000
      3       2.5932      2.00000
      4       2.5932      2.00000
      5       5.7243      0.00000
      6       6.7379      0.00000
      7      12.3457      0.00000
      8      12.3457      0.00000

 k-point    32 :       0.4545    0.3636   -0.0000
  band No.  band energies     occupation 
      1      -3.7655      2.00000
      2      -1.2592      2.00000
      3       2.1173      2.00000
      4       2.4940      2.00000
      5       5.9323      0.00000
      6       6.7271      0.00000
      7      12.6036      0.00000
      8      12.6931      0.00000

 k-point    33 :      -0.4545    0.3636    0.0000
  band No.  band energies     occupation 
      1      -3.1558      2.00000
      2      -1.9206      2.00000
      3       1.4251      2.00000
      4       2.5603      2.00000
      5       6.1020      0.00000
      6       7.8110      0.00000
      7      12.4423      0.00000
      8      12.4500      0.00000

 k-point    34 :      -0.3636    0.3636    0.0000
  band No.  band energies     occupation 
      1      -3.1152      2.00000
      2      -1.9361      2.00000
      3       0.9911      2.00000
      4       2.7846      2.00000
      5       6.3513      0.00000
      6       9.4381      0.00000
      7      11.7671      0.00000
      8      12.2907      0.00000

 k-point    35 :       0.4545    0.4545   -0.0000
  band No.  band energies     occupation 
      1      -3.2251      2.00000
      2      -1.9314      2.00000
      3       2.3507      2.00000
      4       2.3507      2.00000
      5       5.7062      0.00000
      6       6.0352      0.00000
      7      13.8708      0.00000
      8      13.8708      0.00000

 k-point    36 :      -0.4545    0.4545   -0.0000
  band No.  band energies     occupation 
      1      -2.6368      2.00000
      2      -2.5245      2.00000
      3       1.9656      2.00000
      4       2.3737      2.00000
      5       5.8856      0.00000
      6       6.4203      0.00000
      7      13.7807      0.00000
      8      13.9122      0.00000

 k-point    37 :       0.2727    0.1818    0.0909
  band No.  band energies     occupation 
      1      -5.7590      2.00000
      2       1.9289      2.00000
      3       3.2766      2.00000
      4       4.1674      2.00000
      5       7.2588      0.00000
      6       8.1816      0.00000
      7       9.1398      0.00000
      8       9.6159      0.00000

 k-point    38 :       0.3636    0.1818    0.0909
  band No.  band energies     occupation 
      1      -5.2879      2.00000
      2       0.7065      2.00000
      3       2.7356      2.00000
      4       3.8773      2.00000
      5       7.5060      0.00000
      6       8.2421      0.00000
      7       9.4952      0.00000
      8       9.7598      0.00000

 k-point    39 :       0.4545    0.1818    0.0909
  band No.  band energies     occupation 
      1      -4.6884      2.00000
      2      -0.5223      2.00000
      3       2.4722      2.00000
      4       3.5671      2.00000
      5       7.4573      0.00000
      6       8.2391      0.00000
      7       9.5703      0.00000
      8      10.5435      0.00000

 k-point    40 :      -0.4545    0.1818    0.0909
  band No.  band energies     occupation 
      1      -4.1410      2.00000
      2      -1.4072      2.00000
      3       2.3655      2.00000
      4       3.3793      2.00000
      5       7.3856      0.00000
      6       8.1338      0.00000
      7       9.5299      0.00000
      8      11.8924      0.00000

 k-point    41 :       0.3636    0.2727    0.0909
  band No.  band energies     occupation 
      1      -5.1155      2.00000
      2       0.6743      2.00000
      3       2.6142      2.00000
      4       3.2570      2.00000
      5       6.7459      0.00000
      6       8.1968      0.00000
      7       9.7009      0.00000
      8      10.6860      0.00000

 k-point    42 :       0.4545    0.2727    0.0909
  band No.  band energies     occupation 
      1      -4.5503      2.00000
      2      -0.3215      2.00000
      3       2.0731      2.00000
      4       2.9782      2.00000
      5       7.0912      0.00000
      6       8.5955      0.00000
      7       9.4003      0.00000
      8      11.0718      0.00000

 k-point    43 :      -0.4545    0.2727    0.0909
  band No.  band energies     occupation 
      1      -3.9435      2.00000
      2      -1.2317      2.00000
      3       1.7037      2.00000
      4       2.8399      2.00000
      5       7.2172      0.00000
      6       9.0738      0.00000
      7       9.8444      0.00000
      8      11.0400      0.00000

 k-point    44 :      -0.3636    0.2727    0.0909
  band No.  band energies     occupation 
      1      -3.7105      2.00000
      2      -1.5387      2.00000
      3       1.4936      2.00000
      4       2.9197      2.00000
      5       7.4001      0.00000
      6       8.8324      0.00000
      7      10.8877      0.00000
      8      11.5017      0.00000

 k-point    45 :      -0.2727    0.2727    0.0909
  band No.  band energies     occupation 
      1      -4.1606      2.00000
      2      -0.9250      2.00000
      3       1.5012      2.00000
      4       3.1857      2.00000
      5       7.7054      0.00000
      6       8.6674      0.00000
      7      10.2504      0.00000
      8      10.9178      0.00000

 k-point    46 :      -0.1818    0.2727    0.0909
  band No.  band energies     occupation 
      1      -4.7740      2.00000
      2      -0.0246      2.00000
      3       1.8638      2.00000
      4       3.5587      2.00000
      5       8.0483      0.00000
      6       8.2569      0.00000
      7       9.5021      0.00000
      8      10.4264      0.00000

 k-point    47 :       0.4545    0.3636    0.0909
  band No.  band energies     occupation 
      1      -4.2396      2.00000
      2      -0.6286      2.00000
      3       2.1747      2.00000
      4       2.5355      2.00000
      5       6.4276      0.00000
      6       7.2819      0.00000
      7      10.9831      0.00000
      8      12.3128      0.00000

 k-point    48 :      -0.4545    0.3636    0.0909
  band No.  band energies     occupation 
      1      -3.6195      2.00000
      2      -1.3911      2.00000
      3       1.5982      2.00000
      4       2.3750      2.00000
      5       6.7684      0.00000
      6       8.0209      0.00000
      7      10.6624      0.00000
      8      12.6312      0.00000

 k-point    49 :      -0.3636    0.3636    0.0909
  band No.  band energies     occupation 
      1      -3.2055      2.00000
      2      -1.8384      2.00000
      3       1.1310      2.00000
      4       2.4790      2.00000
      5       6.9661      0.00000
      6       9.5211      0.00000
      7      10.3677      0.00000
      8      11.8653      0.00000

 k-point    50 :      -0.2727    0.3636    0.0909
  band No.  band energies     occupation 
      1      -3.5575      2.00000
      2      -1.4659      2.00000
      3       1.0367      2.00000
      4       2.7725      2.00000
      5       7.2956      0.00000
      6       9.8663      0.00000
      7      10.5082      0.00000
      8      11.3868      0.00000

 k-point    51 :      -0.4545    0.4545    0.0909
  band No.  band energies     occupation 
      1      -3.1622      2.00000
      2      -1.9345      2.00000
      3       2.0001      2.00000
      4       2.1144      2.00000
      5       6.3842      0.00000
      6       6.6589      0.00000
      7      12.4334      0.00000
      8      13.6325      0.00000

 k-point    52 :      -0.3636    0.4545    0.0909
  band No.  band energies     occupation 
      1      -2.7137      2.00000
      2      -2.3427      2.00000
      3       1.4195      2.00000
      4       2.1794      2.00000
      5       6.6530      0.00000
      6       7.8196      0.00000
      7      12.0217      0.00000
      8      12.2251      0.00000

 k-point    53 :      -0.4545    0.3636    0.1818
  band No.  band energies     occupation 
      1      -3.9621      2.00000
      2      -0.9864      2.00000
      3       1.4933      2.00000
      4       2.5657      2.00000
      5       7.9718      0.00000
      6       8.6586      0.00000
      7       9.0130      0.00000
      8      12.2277      0.00000

 k-point    54 :      -0.3636    0.3636    0.1818
  band No.  band energies     occupation 
      1      -3.3899      2.00000
      2      -1.6301      2.00000
      3       1.2365      2.00000
      4       2.2790      2.00000
      5       8.3627      0.00000
      6       8.6359      0.00000
      7       9.8344      0.00000
      8      11.5738      0.00000

 k-point    55 :      -0.3636    0.4545    0.1818
  band No.  band energies     occupation 
      1      -3.0035      2.00000
      2      -1.9837      2.00000
      3       1.4569      2.00000
      4       1.8111      2.00000
      5       7.9151      0.00000
      6       8.1332      0.00000
      7      10.2877      0.00000
      8      11.7933      0.00000

 k-point    56 :      -0.2727    0.4545    0.1818
  band No.  band energies     occupation 
      1      -2.8294      2.00000
      2      -2.1326      2.00000
      3       1.2115      2.00000
      4       1.8426      2.00000
      5       8.2539      0.00000
      6       9.5465      0.00000
      7       9.9978      0.00000
      8      10.0847      0.00000


--------------------------------------------------------------------------------------------------------


 soft charge-density along one line, spin component           1
         0         1         2         3         4         5         6         7         8         9
 total charge-density along one line
 
 pseudopotential strength for first ion, spin component:           1
 18.518  25.836   0.000   0.000   0.000   0.000   0.000   0.000
 25.836  36.052   0.000   0.000   0.000   0.000   0.000   0.000
  0.000   0.000   4.189  -0.000  -0.000   7.807  -0.000  -0.000
  0.000   0.000  -0.000   4.189  -0.000  -0.000   7.807  -0.000
  0.000   0.000  -0.000  -0.000   4.189  -0.000  -0.000   7.807
  0.000   0.000   7.807  -0.000  -0.000  14.561  -0.000  -0.000
  0.000   0.000  -0.000   7.807  -0.000  -0.000  14.561  -0.000
  0.000   0.000  -0.000  -0.000   7.807  -0.000  -0.000  14.561
 total augmentation occupancy for first ion, spin component:           1
  5.398  -1.979   0.000   0.000  -0.000   0.000   0.000  -0.000
 -1.979   0.839   0.000  -0.000   0.000  -0.000  -0.000  -0.000
  0.000   0.000   3.041   0.000  -0.000  -0.723  -0.000   0.000
  0.000   0.000   0.000   3.041  -0.000  -0.000  -0.723   0.000
  0.000  -0.000  -0.000  -0.000   3.041   0.000   0.000  -0.723
 -0.000  -0.000  -0.723  -0.000   0.000   0.179   0.000  -0.000
  0.000  -0.000  -0.000  -0.723   0.000   0.000   0.179  -0.000
 -0.000   0.000   0.000   0.000  -0.723  -0.000  -0.000   0.179


------------------------ aborting loop because EDIFF is reached ----------------------------------------


    CHARGE:  cpu time      0.0029: real time      0.0029
    FORLOC:  cpu time      0.0003: real time      0.0003
    FORNL :  cpu time      0.0048: real time      0.0048
    STRESS:  cpu time      0.0807: real time      0.0809
    FORCOR:  cpu time      0.0035: real time      0.0036
    FORHAR:  cpu time      0.0008: real time      0.0008
    MIXING:  cpu time      0.0003: real time      0.0003
    OFIELD:  cpu time      0.0000: real time      0.0000

  FORCE on cell =-STRESS in cart. coord.  units (eV):
  Direction    XX          YY          ZZ          XY          YZ          ZX
  --------------------------------------------------------------------------------------
  Alpha Z     3.06698     3.06698     3.06698
  Ewald     -73.87503   -73.87503   -73.87503     0.00000    -0.00000    -0.00000
  Hartree     5.34219     5.34219     5.34219    -0.00000    -0.00000    -0.00000
  E(xc)     -24.87272   -24.87272   -24.87272     0.00000     0.00000     0.00000
  Local     -30.67430   -30.67430   -30.67430     0.00005     0.00005     0.00005
  n-local    77.46583    78.82678    73.15330     2.06769    -1.18116     0.48210
  augment   -11.61726   -11.61726   -11.61726    -0.00006    -0.00006    -0.00006
  Kinetic    56.75843    54.74174    52.36582     3.56652    -0.79479     1.02670
  Fock        0.00000     0.00000     0.00000     0.00000     0.00000     0.00000
  -------------------------------------------------------------------------------------
  Total      -1.52617    -1.52617    -1.52617     0.00000    -0.00000    -0.00000
  in kB     -55.69423   -55.69423   -55.69423     0.00000    -0.00000    -0.00000
  external pressure =      -55.69 kB  Pullay stress =        0.00 kB


 VOLUME and BASIS-vectors are now :
 -----------------------------------------------------------------------------
  energy-cutoff  :      240.00
  volume of cell :       43.90
      direct lattice vectors                 reciprocal lattice vectors
     0.000000000  2.800000000  2.800000000    -0.178571429  0.178571429  0.178571429
     2.800000000  0.000000000  2.800000000     0.178571429 -0.178571429  0.178571429
     2.800000000  2.800000000  0.000000000     0.178571429  0.178571429 -0.178571429

  length of vectors
     3.959797975  3.959797975  3.959797975     0.309294787  0.309294787  0.309294787


 FORCES acting on ions
    electron-ion (+dipol)            ewald-force                    non-local-force                 convergence-correction
 -----------------------------------------------------------------------------------------------
   0.472E-05 0.472E-05 0.502E-05   -.112E-14 -.390E-14 -.149E-14   0.891E-16 0.787E-16 0.352E-16   0.500E-06 0.500E-06 0.500E-06
   -.472E-05 -.472E-05 -.502E-05   0.978E-15 0.357E-14 0.158E-14   0.240E-16 -.129E-15 -.137E-16   -.500E-06 -.500E-06 -.500E-06
 -----------------------------------------------------------------------------------------------
   -.124E-12 -.243E-13 0.539E-13   -.144E-15 -.327E-15 0.896E-16   0.113E-15 -.500E-16 0.215E-16   -.490E-15 0.839E-16 -.207E-15
 
 
 POSITION                                       TOTAL-FORCE (eV/Angst)
 -----------------------------------------------------------------------------------
      4.90000      4.90000      4.90000         0.000000      0.000000      0.000000
      0.70000      0.70000      0.70000        -0.000000     -0.000000     -0.000000
 -----------------------------------------------------------------------------------
    total drift:                               -0.000000     -0.000000      0.000000


--------------------------------------------------------------------------------------------------------



  FREE ENERGIE OF THE ION-ELECTRON SYSTEM (eV)
  ---------------------------------------------------
  free  energy   TOTEN  =       -10.77515143 eV

  energy  without entropy=      -10.77515143  energy(sigma->0) =      -10.77515143
 


--------------------------------------------------------------------------------------------------------


    POTLOK:  cpu time      0.0048: real time      0.0048


--------------------------------------------------------------------------------------------------------


 writing wavefunctions
     LOOP+:  cpu time      1.0709: real time      1.0800
    4ORBIT:  cpu time      0.0000: real time      0.0000

 total amount of memory used by VASP MPI-rank0    32968. kBytes
=======================================================================

   base      :      30000. kBytes
   nonl-proj :       1374. kBytes
   fftplans  :        302. kBytes
   grid      :        577. kBytes
   one-center:          6. kBytes
   wavefun   :        709. kBytes
 
  
  
 General timing and accounting informations for this job:
 ========================================================
  
                  Total CPU time used (sec):        1.299
                            User time (sec):        1.188
                          System time (sec):        0.111
                         Elapsed time (sec):        1.419
  
                   Maximum memory used (kb):       45908.
                   Average memory used (kb):          N/A
  
                          Minor page faults:         9585
                          Major page faults:            0
                 Voluntary context switches:          153
