fcc Ni                                  
   3.30000000000000     
     0.500000    0.500000    0.000000
     0.000000    0.500000    0.500000
     0.500000    0.000000    0.500000
   Ni
     1
Direct
  0.000000  0.000000  0.000000
 
   20   20   20
  123.81      116.85      98.086      72.896      47.537      26.919      13.405      6.6993      4.5291      3.9301    
  3.7207      3.9301      4.5291      6.6993      13.405      26.919      47.537      72.896      98.086      116.85    
  116.85      104.00      82.151      57.193      34.727      18.329      8.9302      5.1279      4.1369      3.7388    
  3.7389      4.1370      5.1279      8.9302      18.329      34.727      57.193      82.151      104.00      116.85    
  98.086      82.151      60.791      39.392      22.189      11.165      5.9291      4.3270      3.7862      3.5931    
  3.7862      4.3270      5.9291      11.165      22.189      39.392      60.791      82.151      98.086      104.00    
  72.896      57.193      39.392      23.651      12.568      6.6421      4.5070      3.8442      3.5034      3.5034    
  3.8443      4.5070      6.6421      12.568      23.651      39.392      57.193      72.897      82.151      82.151    
  47.537      34.727      22.189      12.568      6.9285      4.6320      3.8908      3.4606      3.3141      3.4606    
  3.8908      4.6320      6.9285      12.568      22.189      34.727      47.537      57.193      60.791      57.193    
  26.919      18.329      11.165      6.6421      4.6320      3.9085      3.4462      3.2126      3.2127      3.4462    
  3.9085      4.6320      6.6421      11.166      18.329      26.919      34.727      39.392      39.392      34.727    
  13.405      8.9302      5.9291      4.5070      3.8908      3.4462      3.1816      3.0963      3.1817      3.4462    
  3.8908      4.5070      5.9291      8.9301      13.404      18.329      22.189      23.651      22.189      18.329    
  6.6993      5.1279      4.3270      3.8442      3.4606      3.2126      3.0963      3.0963      3.2126      3.4606    
  3.8443      4.3270      5.1279      6.6993      8.9301      11.166      12.568      12.568      11.165      8.9302    
  4.5291      4.1369      3.7862      3.5034      3.3141      3.2127      3.1817      3.2126      3.3140      3.5033    
  3.7862      4.1370      4.5291      5.1279      5.9291      6.6421      6.9285      6.6421      5.9291      5.1279    
  3.9301      3.7388      3.5931      3.5034      3.4606      3.4462      3.4462      3.4606      3.5033      3.5930    
  3.7388      3.9301      4.1370      4.3270      4.5070      4.6320      4.6320      4.5070      4.3270      4.1370    
  3.7207      3.7389      3.7862      3.8443      3.8908      3.9085      3.8908      3.8443      3.7862      3.7388    
  3.7206      3.7388      3.7862      3.8443      3.8908      3.9085      3.8908      3.8443      3.7862      3.7389    
  3.9301      4.1370      4.3270      4.5070      4.6320      4.6320      4.5070      4.3270      4.1370      3.9301    
  3.7388      3.5930      3.5033      3.4606      3.4462      3.4462      3.4606      3.5034      3.5931      3.7388    
  4.5291      5.1279      5.9291      6.6421      6.9285      6.6421      5.9291      5.1279      4.5291      4.1370    
  3.7862      3.5033      3.3140      3.2126      3.1817      3.2127      3.3141      3.5034      3.7862      4.1369    
  6.6993      8.9302      11.165      12.568      12.568      11.166      8.9301      6.6993      5.1279      4.3270    
  3.8443      3.4606      3.2126      3.0963      3.0963      3.2126      3.4606      3.8442      4.3270      5.1279    
  13.405      18.329      22.189      23.651      22.189      18.329      13.404      8.9301      5.9291      4.5070    
  3.8908      3.4462      3.1817      3.0963      3.1816      3.4462      3.8908      4.5070      5.9291      8.9302    
  26.919      34.727      39.392      39.392      34.727      26.919      18.329      11.166      6.6421      4.6320    
  3.9085      3.4462      3.2127      3.2126      3.4462      3.9085      4.6320      6.6421      11.165      18.329    
  47.537      57.193      60.791      57.193      47.537      34.727      22.189      12.568      6.9285      4.6320    
  3.8908      3.4606      3.3141      3.4606      3.8908      4.6320      6.9285      12.568      22.189      34.727    
  72.896      82.151      82.151      72.897      57.193      39.392      23.651      12.568      6.6421      4.5070    
  3.8443      3.5034      3.5034      3.8442      4.5070      6.6421      12.568      23.651      39.392      57.193    
  98.086      104.00      98.086      82.151      60.791      39.392      22.189      11.165      5.9291      4.3270    
  3.7862      3.5931      3.7862      4.3270      5.9291      11.165      22.189      39.392      60.791      82.151    
  116.85      116.85      104.00      82.151      57.193      34.727      18.329      8.9302      5.1279      4.1370    
  3.7389      3.7388      4.1369      5.1279      8.9302      18.329      34.727      57.193      82.151      104.00    
  116.85      104.00      82.151      57.193      34.727      18.329      8.9302      5.1279      4.1369      3.7388    
  3.7389      4.1370      5.1279      8.9301      18.330      34.727      57.193      82.151      104.00      116.85    
  104.00      87.076      64.430      41.776      23.551      11.810      6.1558      4.3957      3.8417      3.6440    
  3.8417      4.3957      6.1558      11.810      23.551      41.776      64.430      87.076      104.00      110.30    
  82.151      64.430      44.398      26.680      14.113      7.2479      4.6803      3.9504      3.5934      3.5934    
  3.9503      4.6802      7.2479      14.113      26.680      44.398      64.430      82.151      92.624      92.624    
  57.193      41.776      26.680      14.992      7.9545      4.9407      4.0394      3.5789      3.4193      3.5790    
  4.0394      4.9407      7.9545      14.992      26.680      41.776      57.193      68.846      73.198      68.845    
  34.727      23.551      14.113      7.9545      5.0487      4.0891      3.5823      3.3189      3.3190      3.5824    
  4.0890      5.0486      7.9545      14.113      23.551      34.727      44.863      50.925      50.925      44.863    
  18.329      11.810      7.2479      4.9407      4.0891      3.5859      3.2760      3.1745      3.2760      3.5859    
  4.0890      4.9407      7.2479      11.810      18.329      25.370      30.850      32.922      30.850      25.370    
  8.9302      6.1558      4.6803      4.0394      3.5823      3.2760      3.1294      3.1294      3.2760      3.5824    
  4.0394      4.6803      6.1558      8.9301      12.654      16.274      18.515      18.515      16.274      12.654    
  5.1279      4.3957      3.9504      3.5789      3.3189      3.1745      3.1294      3.1745      3.3190      3.5790    
  3.9503      4.3957      5.1279      6.4244      8.0662      9.4632      10.013      9.4632      8.0661      6.4244    
  4.1369      3.8417      3.5934      3.4193      3.3190      3.2760      3.2760      3.3190      3.4193      3.5934    
  3.8417      4.1370      4.4486      4.8672      5.3525      5.6886      5.6886      5.3526      4.8672      4.4486    
  3.7388      3.6440      3.5934      3.5790      3.5824      3.5859      3.5824      3.5790      3.5934      3.6440    
  3.7388      3.8692      4.0119      4.1382      4.2283      4.2639      4.2283      4.1382      4.0119      3.8692    
  3.7389      3.8417      3.9503      4.0394      4.0890      4.0890      4.0394      3.9503      3.8417      3.7388    
  3.6643      3.6292      3.6292      3.6473      3.6630      3.6630      3.6472      3.6292      3.6293      3.6643    
  4.1370      4.3957      4.6802      4.9407      5.0486      4.9407      4.6803      4.3957      4.1370      3.8692    
  3.6292      3.4501      3.3399      3.2859      3.2705      3.2859      3.3399      3.4502      3.6292      3.8692    
  5.1279      6.1558      7.2479      7.9545      7.9545      7.2479      6.1558      5.1279      4.4486      4.0119    
  3.6292      3.3399      3.1605      3.0784      3.0785      3.1605      3.3399      3.6292      4.0118      4.4486    
  8.9301      11.810      14.113      14.992      14.113      11.810      8.9301      6.4244      4.8672      4.1382    
  3.6473      3.2859      3.0784      3.0125      3.0784      3.2859      3.6473      4.1381      4.8671      6.4244    
  18.330      23.551      26.680      26.680      23.551      18.329      12.654      8.0662      5.3525      4.2283    
  3.6630      3.2705      3.0785      3.0784      3.2704      3.6630      4.2283      5.3526      8.0662      12.654    
  34.727      41.776      44.398      41.776      34.727      25.370      16.274      9.4632      5.6886      4.2639    
  3.6630      3.2859      3.1605      3.2859      3.6630      4.2639      5.6885      9.4632      16.274      25.370    
  57.193      64.430      64.430      57.193      44.863      30.850      18.515      10.013      5.6886      4.2283    
  3.6472      3.3399      3.3399      3.6473      4.2283      5.6885      10.013      18.515      30.850      44.863    
  82.151      87.076      82.151      68.846      50.925      32.922      18.515      9.4632      5.3526      4.1382    
  3.6292      3.4502      3.6292      4.1381      5.3526      9.4632      18.515      32.922      50.925      68.845    
  104.00      104.00      92.624      73.198      50.925      30.850      16.274      8.0661      4.8672      4.0119    
  3.6293      3.6292      4.0118      4.8671      8.0662      16.274      30.850      50.925      73.198      92.624    
  116.85      110.30      92.624      68.845      44.863      25.370      12.654      6.4244      4.4486      3.8692    
  3.6643      3.8692      4.4486      6.4244      12.654      25.370      44.863      68.845      92.624      110.30    
  98.086      82.151      60.791      39.392      22.189      11.165      5.9291      4.3270      3.7862      3.5930    
  3.7862      4.3271      5.9291      11.165      22.189      39.392      60.791      82.151      98.086      104.00    
  82.151      64.430      44.398      26.681      14.113      7.2479      4.6803      3.9504      3.5934      3.5934    
  3.9503      4.6803      7.2479      14.113      26.681      44.398      64.430      82.151      92.624      92.624    
  60.791      44.398      28.354      15.904      8.3511      5.0634      4.0906      3.6208      3.4568      3.6209    
  4.0906      5.0634      8.3511      15.904      28.354      44.398      60.791      73.198      77.837      73.198    
  39.392      26.681      15.904      8.7805      5.3228      4.1835      3.6564      3.3779      3.3779      3.6565    
  4.1835      5.3227      8.7804      15.904      26.681      39.392      50.925      57.832      57.832      50.925    
  22.189      14.113      8.3511      5.3228      4.2169      3.6805      3.3423      3.2303      3.3423      3.6805    
  4.2168      5.3228      8.3511      14.113      22.189      30.850      37.582      40.128      37.582      30.850    
  11.165      7.2479      5.0634      4.1835      3.6805      3.3329      3.1641      3.1640      3.3329      3.6804    
  4.1835      5.0635      7.2479      11.165      16.274      21.176      24.197      24.197      21.176      16.274    
  5.9291      4.6803      4.0906      3.6564      3.3423      3.1641      3.1079      3.1641      3.3423      3.6564    
  4.0906      4.6803      5.9291      8.0661      10.659      12.816      13.656      12.816      10.659      8.0662    
  4.3270      3.9504      3.6208      3.3779      3.2303      3.1640      3.1641      3.2304      3.3779      3.6208    
  3.9503      4.3270      4.8672      5.7210      6.6773      7.3177      7.3177      6.6773      5.7210      4.8672    
  3.7862      3.5934      3.4568      3.3779      3.3423      3.3329      3.3423      3.3779      3.4568      3.5934    
  3.7862      4.0118      4.2341      4.4622      4.6744      4.7642      4.6744      4.4622      4.2340      4.0118    
  3.5930      3.5934      3.6209      3.6565      3.6805      3.6804      3.6564      3.6208      3.5934      3.5931    
  3.6292      3.6972      3.7795      3.8526      3.8954      3.8954      3.8526      3.7795      3.6972      3.6292    
  3.7862      3.9503      4.0906      4.1835      4.2168      4.1835      4.0906      3.9503      3.7862      3.6292    
  3.5066      3.4310      3.3975      3.3892      3.3888      3.3891      3.3974      3.4310      3.5066      3.6293    
  4.3271      4.6803      5.0634      5.3227      5.3228      5.0635      4.6803      4.3270      4.0118      3.6972    
  3.4310      3.2424      3.1318      3.0834      3.0834      3.1317      3.2423      3.4310      3.6972      4.0119    
  5.9291      7.2479      8.3511      8.7804      8.3511      7.2479      5.9291      4.8672      4.2341      3.7795    
  3.3975      3.1318      2.9844      2.9383      2.9844      3.1318      3.3975      3.7795      4.2340      4.8672    
  11.165      14.113      15.904      15.904      14.113      11.165      8.0661      5.7210      4.4622      3.8526    
  3.3892      3.0834      2.9383      2.9383      3.0834      3.3892      3.8527      4.4622      5.7209      8.0661    
  22.189      26.681      28.354      26.681      22.189      16.274      10.659      6.6773      4.6744      3.8954    
  3.3888      3.0834      2.9844      3.0834      3.3887      3.8953      4.6744      6.6774      10.659      16.274    
  39.392      44.398      44.398      39.392      30.850      21.176      12.816      7.3177      4.7642      3.8954    
  3.3891      3.1317      3.1318      3.3892      3.8953      4.7642      7.3176      12.816      21.176      30.850    
  60.791      64.430      60.791      50.925      37.582      24.197      13.656      7.3177      4.6744      3.8526    
  3.3974      3.2423      3.3975      3.8527      4.6744      7.3176      13.656      24.196      37.582      50.925    
  82.151      82.151      73.198      57.832      40.128      24.197      12.816      6.6773      4.4622      3.7795    
  3.4310      3.4310      3.7795      4.4622      6.6774      12.816      24.196      40.128      57.832      73.198    
  98.086      92.624      77.837      57.832      37.582      21.176      10.659      5.7210      4.2340      3.6972    
  3.5066      3.6972      4.2340      5.7209      10.659      21.176      37.582      57.832      77.837      92.624    
  104.00      92.624      73.198      50.925      30.850      16.274      8.0662      4.8672      4.0118      3.6292    
  3.6293      4.0119      4.8672      8.0661      16.274      30.850      50.925      73.198      92.624      104.00    
  72.896      57.193      39.392      23.651      12.568      6.6421      4.5070      3.8443      3.5033      3.5033    
  3.8443      4.5070      6.6421      12.568      23.651      39.392      57.193      72.896      82.151      82.151    
  57.193      41.776      26.681      14.992      7.9545      4.9408      4.0394      3.5789      3.4193      3.5790    
  4.0394      4.9407      7.9545      14.992      26.680      41.776      57.193      68.845      73.198      68.845    
  39.392      26.681      15.904      8.7805      5.3228      4.1835      3.6564      3.3778      3.3779      3.6565    
  4.1835      5.3227      8.7804      15.904      26.681      39.392      50.925      57.832      57.832      50.925    
  23.651      14.992      8.7805      5.4765      4.2625      3.7138      3.3662      3.2507      3.3662      3.7138    
  4.2625      5.4764      8.7804      14.992      23.651      32.922      40.128      42.855      40.128      32.922    
  12.568      7.9545      5.3228      4.2625      3.7348      3.3665      3.1859      3.1859      3.3665      3.7349    
  4.2625      5.3228      7.9545      12.568      18.515      24.197      27.692      27.692      24.196      18.515    
  6.6421      4.9408      4.1835      3.7138      3.3665      3.1669      3.1035      3.1668      3.3664      3.7137    
  4.1835      4.9408      6.6422      9.4631      12.816      15.576      16.648      15.576      12.816      9.4631    
  4.5070      4.0394      3.6564      3.3662      3.1859      3.1035      3.1035      3.1859      3.3662      3.6564    
  4.0394      4.5070      5.3526      6.6773      8.1143      9.0592      9.0592      8.1144      6.6774      5.3526    
  3.8443      3.5789      3.3778      3.2507      3.1859      3.1668      3.1859      3.2507      3.3779      3.5790    
  3.8442      4.1382      4.4622      4.8867      5.2891      5.4569      5.2891      4.8868      4.4623      4.1382    
  3.5033      3.4193      3.3779      3.3662      3.3665      3.3664      3.3662      3.3779      3.4193      3.5034    
  3.6292      3.7795      3.9263      4.0415      4.1084      4.1084      4.0415      3.9263      3.7794      3.6291    
  3.5033      3.5790      3.6565      3.7138      3.7349      3.7137      3.6564      3.5790      3.5034      3.4502    
  3.4310      3.4439      3.4750      3.5048      3.5170      3.5049      3.4750      3.4439      3.4309      3.4501    
  3.8443      4.0394      4.1835      4.2625      4.2625      4.1835      4.0394      3.8442      3.6292      3.4310    
  3.2780      3.1799      3.1291      3.1096      3.1096      3.1291      3.1799      3.2779      3.4310      3.6292    
  4.5070      4.9407      5.3227      5.4764      5.3228      4.9408      4.5070      4.1382      3.7795      3.4439    
  3.1799      3.0052      2.9115      2.8827      2.9115      3.0052      3.1799      3.4439      3.7795      4.1382    
  6.6421      7.9545      8.7804      8.7804      7.9545      6.6422      5.3526      4.4622      3.9263      3.4750    
  3.1291      2.9115      2.8107      2.8107      2.9115      3.1291      3.4750      3.9263      4.4622      5.3525    
  12.568      14.992      15.904      14.992      12.568      9.4631      6.6773      4.8867      4.0415      3.5048    
  3.1096      2.8827      2.8107      2.8828      3.1096      3.5048      4.0415      4.8867      6.6773      9.4631    
  23.651      26.680      26.681      23.651      18.515      12.816      8.1143      5.2891      4.1084      3.5170    
  3.1096      2.9115      2.9115      3.1096      3.5169      4.1084      5.2892      8.1144      12.816      18.515    
  39.392      41.776      39.392      32.922      24.197      15.576      9.0592      5.4569      4.1084      3.5049    
  3.1291      3.0052      3.1291      3.5048      4.1084      5.4570      9.0593      15.576      24.197      32.922    
  57.193      57.193      50.925      40.128      27.692      16.648      9.0592      5.2891      4.0415      3.4750    
  3.1799      3.1799      3.4750      4.0415      5.2892      9.0593      16.648      27.692      40.128      50.925    
  72.896      68.845      57.832      42.855      27.692      15.576      8.1144      4.8868      3.9263      3.4439    
  3.2779      3.4439      3.9263      4.8867      8.1144      15.576      27.692      42.855      57.832      68.846    
  82.151      73.198      57.832      40.128      24.196      12.816      6.6774      4.4623      3.7794      3.4309    
  3.4310      3.7795      4.4622      6.6773      12.816      24.197      40.128      57.832      73.198      82.151    
  82.151      68.845      50.925      32.922      18.515      9.4631      5.3526      4.1382      3.6291      3.4501    
  3.6292      4.1382      5.3525      9.4631      18.515      32.922      50.925      68.846      82.151      87.076    
  47.537      34.727      22.189      12.568      6.9284      4.6320      3.8909      3.4606      3.3141      3.4606    
  3.8908      4.6320      6.9284      12.568      22.189      34.727      47.537      57.193      60.791      57.193    
  34.727      23.551      14.113      7.9545      5.0486      4.0891      3.5824      3.3189      3.3189      3.5824    
  4.0891      5.0486      7.9545      14.113      23.551      34.727      44.863      50.925      50.925      44.863    
  22.189      14.113      8.3512      5.3228      4.2168      3.6805      3.3423      3.2303      3.3423      3.6805    
  4.2168      5.3228      8.3511      14.113      22.189      30.850      37.582      40.128      37.582      30.850    
  12.568      7.9545      5.3228      4.2625      3.7348      3.3665      3.1859      3.1859      3.3665      3.7349    
  4.2626      5.3228      7.9544      12.568      18.515      24.197      27.692      27.692      24.197      18.515    
  6.9284      5.0486      4.2168      3.7348      3.3764      3.1696      3.1038      3.1696      3.3765      3.7348    
  4.2168      5.0486      6.9285      10.013      13.656      16.648      17.809      16.648      13.656      10.013    
  4.6320      4.0891      3.6805      3.3665      3.1696      3.0790      3.0790      3.1695      3.3665      3.6804    
  4.0890      4.6320      5.6886      7.3176      9.0592      10.196      10.196      9.0592      7.3176      5.6885    
  3.8909      3.5824      3.3423      3.1859      3.1038      3.0790      3.1038      3.1859      3.3423      3.5823    
  3.8908      4.2283      4.6744      5.2891      5.8628      6.0994      5.8629      5.2891      4.6744      4.2283    
  3.4606      3.3189      3.2303      3.1859      3.1696      3.1695      3.1859      3.2304      3.3190      3.4606    
  3.6472      3.8526      4.0415      4.2016      4.3087      4.3087      4.2016      4.0415      3.8527      3.6473    
  3.3141      3.3189      3.3423      3.3665      3.3765      3.3665      3.3423      3.3190      3.3141      3.3399    
  3.3975      3.4750      3.5525      3.6091      3.6298      3.6091      3.5525      3.4750      3.3975      3.3399    
  3.4606      3.5824      3.6805      3.7349      3.7348      3.6804      3.5823      3.4606      3.3399      3.2424    
  3.1799      3.1514      3.1453      3.1472      3.1473      3.1454      3.1514      3.1799      3.2423      3.3399    
  3.8908      4.0891      4.2168      4.2626      4.2168      4.0890      3.8908      3.6472      3.3975      3.1799    
  3.0182      2.9161      2.8635      2.8478      2.8635      2.9161      3.0182      3.1799      3.3975      3.6472    
  4.6320      5.0486      5.3228      5.3228      5.0486      4.6320      4.2283      3.8526      3.4750      3.1514    
  2.9161      2.7726      2.7071      2.7071      2.7725      2.9161      3.1514      3.4751      3.8527      4.2283    
  6.9284      7.9545      8.3511      7.9544      6.9285      5.6886      4.6744      4.0415      3.5525      3.1453    
  2.8635      2.7071      2.6581      2.7071      2.8635      3.1453      3.5525      4.0415      4.6744      5.6885    
  12.568      14.113      14.113      12.568      10.013      7.3176      5.2891      4.2016      3.6091      3.1472    
  2.8478      2.7071      2.7071      2.8479      3.1473      3.6091      4.2015      5.2891      7.3176      10.013    
  22.189      23.551      22.189      18.515      13.656      9.0592      5.8628      4.3087      3.6298      3.1473    
  2.8635      2.7725      2.8635      3.1473      3.6298      4.3087      5.8629      9.0592      13.656      18.515    
  34.727      34.727      30.850      24.197      16.648      10.196      6.0994      4.3087      3.6091      3.1454    
  2.9161      2.9161      3.1453      3.6091      4.3087      6.0995      10.196      16.648      24.197      30.850    
  47.537      44.863      37.582      27.692      17.809      10.196      5.8629      4.2016      3.5525      3.1514    
  3.0182      3.1514      3.5525      4.2015      5.8629      10.196      17.809      27.692      37.582      44.863    
  57.193      50.925      40.128      27.692      16.648      9.0592      5.2891      4.0415      3.4750      3.1799    
  3.1799      3.4751      4.0415      5.2891      9.0592      16.648      27.692      40.128      50.925      57.193    
  60.791      50.925      37.582      24.197      13.656      7.3176      4.6744      3.8527      3.3975      3.2423    
  3.3975      3.8527      4.6744      7.3176      13.656      24.197      37.582      50.925      60.791      64.430    
  57.193      44.863      30.850      18.515      10.013      5.6885      4.2283      3.6473      3.3399      3.3399    
  3.6472      4.2283      5.6885      10.013      18.515      30.850      44.863      57.193      64.430      64.430    
  26.919      18.329      11.165      6.6421      4.6320      3.9085      3.4462      3.2126      3.2126      3.4462    
  3.9085      4.6320      6.6421      11.166      18.330      26.919      34.727      39.392      39.392      34.727    
  18.329      11.810      7.2479      4.9407      4.0891      3.5859      3.2760      3.1745      3.2759      3.5859    
  4.0891      4.9407      7.2479      11.810      18.329      25.370      30.850      32.922      30.850      25.370    
  11.165      7.2479      5.0634      4.1835      3.6804      3.3329      3.1641      3.1640      3.3328      3.6804    
  4.1836      5.0635      7.2479      11.165      16.274      21.176      24.197      24.197      21.176      16.274    
  6.6421      4.9407      4.1835      3.7137      3.3664      3.1669      3.1036      3.1668      3.3664      3.7138    
  4.1835      4.9408      6.6421      9.4631      12.816      15.576      16.648      15.576      12.816      9.4631    
  4.6320      4.0891      3.6804      3.3664      3.1695      3.0790      3.0790      3.1696      3.3665      3.6804    
  4.0890      4.6320      5.6886      7.3176      9.0592      10.196      10.196      9.0592      7.3176      5.6885    
  3.9085      3.5859      3.3329      3.1669      3.0790      3.0523      3.0790      3.1668      3.3329      3.5859    
  3.9085      4.2639      4.7642      5.4569      6.0994      6.3634      6.0995      5.4569      4.7641      4.2638    
  3.4462      3.2760      3.1641      3.1036      3.0790      3.0790      3.1035      3.1641      3.2760      3.4462    
  3.6630      3.8953      4.1084      4.3087      4.4479      4.4479      4.3088      4.1084      3.8954      3.6631    
  3.2126      3.1745      3.1640      3.1668      3.1696      3.1668      3.1641      3.1745      3.2126      3.2859    
  3.3891      3.5048      3.6091      3.6805      3.7058      3.6805      3.6091      3.5049      3.3892      3.2859    
  3.2126      3.2759      3.3328      3.3664      3.3665      3.3329      3.2760      3.2126      3.1605      3.1317    
  3.1291      3.1454      3.1675      3.1825      3.1825      3.1675      3.1453      3.1291      3.1318      3.1605    
  3.4462      3.5859      3.6804      3.7138      3.6804      3.5859      3.4462      3.2859      3.1317      3.0052    
  2.9161      2.8629      2.8370      2.8296      2.8370      2.8629      2.9161      3.0051      3.1317      3.2859    
  3.9085      4.0891      4.1836      4.1835      4.0890      3.9085      3.6630      3.3891      3.1291      2.9161    
  2.7649      2.6734      2.6315      2.6315      2.6733      2.7649      2.9161      3.1291      3.3891      3.6630    
  4.6320      4.9407      5.0635      4.9408      4.6320      4.2639      3.8953      3.5048      3.1454      2.8629    
  2.6734      2.5693      2.5367      2.5693      2.6733      2.8629      3.1454      3.5049      3.8954      4.2639    
  6.6421      7.2479      7.2479      6.6421      5.6886      4.7642      4.1084      3.6091      3.1675      2.8370    
  2.6315      2.5367      2.5367      2.6316      2.8370      3.1675      3.6091      4.1084      4.7642      5.6885    
  11.166      11.810      11.165      9.4631      7.3176      5.4569      4.3087      3.6805      3.1825      2.8296    
  2.6315      2.5693      2.6316      2.8296      3.1825      3.6805      4.3087      5.4569      7.3176      9.4632    
  18.330      18.329      16.274      12.816      9.0592      6.0994      4.4479      3.7058      3.1825      2.8370    
  2.6733      2.6733      2.8370      3.1825      3.7058      4.4479      6.0994      9.0592      12.816      16.274    
  26.919      25.370      21.176      15.576      10.196      6.3634      4.4479      3.6805      3.1675      2.8629    
  2.7649      2.8629      3.1675      3.6805      4.4479      6.3634      10.196      15.576      21.176      25.370    
  34.727      30.850      24.197      16.648      10.196      6.0995      4.3088      3.6091      3.1453      2.9161    
  2.9161      3.1454      3.6091      4.3087      6.0994      10.196      16.648      24.197      30.850      34.727    
  39.392      32.922      24.197      15.576      9.0592      5.4569      4.1084      3.5049      3.1291      3.0051    
  3.1291      3.5049      4.1084      5.4569      9.0592      15.576      24.197      32.922      39.392      41.776    
  39.392      30.850      21.176      12.816      7.3176      4.7641      3.8954      3.3892      3.1318      3.1317    
  3.3891      3.8954      4.7642      7.3176      12.816      21.176      30.850      39.392      44.398      44.398    
  34.727      25.370      16.274      9.4631      5.6885      4.2638      3.6631      3.2859      3.1605      3.2859    
  3.6630      4.2639      5.6885      9.4632      16.274      25.370      34.727      41.776      44.398      41.776    
  13.404      8.9302      5.9291      4.5070      3.8908      3.4462      3.1817      3.0963      3.1816      3.4462    
  3.8909      4.5070      5.9290      8.9302      13.405      18.329      22.189      23.651      22.189      18.329    
  8.9302      6.1558      4.6803      4.0394      3.5823      3.2760      3.1295      3.1294      3.2759      3.5824    
  4.0394      4.6803      6.1557      8.9301      12.654      16.274      18.515      18.515      16.274      12.654    
  5.9291      4.6803      4.0907      3.6564      3.3423      3.1641      3.1079      3.1640      3.3423      3.6564    