fcc Ni                                  
   3.30000000000000     
     0.500000    0.500000    0.000000
     0.000000    0.500000    0.500000
     0.500000    0.000000    0.500000
   Ni
     1
Direct
  0.000000  0.000000  0.000000
 
   20   20   20
 0.12380920995E+03 0.11684622494E+03 0.98086099212E+02 0.72896327644E+02 0.47536826760E+02
 0.26919064031E+02 0.13404535760E+02 0.66993378760E+01 0.45290685731E+01 0.39300859154E+01
 0.37206903277E+01 0.39300859154E+01 0.45290685731E+01 0.66993378760E+01 0.13404535760E+02
 0.26919064031E+02 0.47536826760E+02 0.72896327644E+02 0.98086099212E+02 0.11684622494E+03
 0.11684622494E+03 0.10400303017E+03 0.82151230406E+02 0.57192611882E+02 0.34727336581E+02
 0.18329479211E+02 0.89302016912E+01 0.51279017766E+01 0.41369273761E+01 0.37388382141E+01
 0.37388741823E+01 0.41369764177E+01 0.51278858726E+01 0.89301532570E+01 0.18329487035E+02
 0.34727397876E+02 0.57192626076E+02 0.82151136701E+02 0.10400289056E+03 0.11684615922E+03
 0.98086099212E+02 0.82151230406E+02 0.60791415950E+02 0.39392415640E+02 0.22188533363E+02
 0.11165479098E+02 0.59290853517E+01 0.43270097972E+01 0.37861814562E+01 0.35930503797E+01
 0.37862267995E+01 0.43270380642E+01 0.59290776303E+01 0.11165473007E+02 0.22188534768E+02
 0.39392394076E+02 0.60791386864E+02 0.82151241850E+02 0.98086136365E+02 0.10400289056E+03
 0.72896327644E+02 0.57192611882E+02 0.39392415640E+02 0.23650581375E+02 0.12568206969E+02
 0.66421277453E+01 0.45069861408E+01 0.38442474310E+01 0.35033524530E+01 0.35033599852E+01
 0.38442548970E+01 0.45069868041E+01 0.66421408535E+01 0.12568215524E+02 0.23650543348E+02
 0.39392378846E+02 0.57192695203E+02 0.72896518704E+02 0.82151241850E+02 0.82151136701E+02
 0.47536826760E+02 0.34727336581E+02 0.22188533363E+02 0.12568206969E+02 0.69284795144E+01
 0.46320274986E+01 0.38908220713E+01 0.34605922865E+01 0.33140882774E+01 0.34606109569E+01
 0.38908010987E+01 0.46319773465E+01 0.69284736897E+01 0.12568248711E+02 0.22188559162E+02
 0.34727347167E+02 0.47536878094E+02 0.57192695203E+02 0.60791386864E+02 0.57192626076E+02
 0.26919064031E+02 0.18329479211E+02 0.11165479098E+02 0.66421277453E+01 0.46320274986E+01
 0.39085259560E+01 0.34461846615E+01 0.32126157358E+01 0.32126560117E+01 0.34462334329E+01
 0.39084965790E+01 0.46319694672E+01 0.66421316205E+01 0.11165519168E+02 0.18329469976E+02
 0.26919003281E+02 0.34727347167E+02 0.39392378846E+02 0.39392394076E+02 0.34727397876E+02
 0.13404535760E+02 0.89302016912E+01 0.59290853517E+01 0.45069861408E+01 0.38908220713E+01
 0.34461846615E+01 0.31816094615E+01 0.30963113067E+01 0.31816739156E+01 0.34462359276E+01
 0.38908254548E+01 0.45069723797E+01 0.59290602547E+01 0.89301407486E+01 0.13404466292E+02
 0.18329469976E+02 0.22188559162E+02 0.23650543348E+02 0.22188534768E+02 0.18329487035E+02
 0.66993378760E+01 0.51279017766E+01 0.43270097972E+01 0.38442474310E+01 0.34605922865E+01
 0.32126157358E+01 0.30963113067E+01 0.30963170365E+01 0.32126249892E+01 0.34606037349E+01
 0.38442750340E+01 0.43270381591E+01 0.51278876707E+01 0.66992896032E+01 0.89301407486E+01
 0.11165519168E+02 0.12568248711E+02 0.12568215524E+02 0.11165473007E+02 0.89301532570E+01
 0.45290685731E+01 0.41369273761E+01 0.37861814562E+01 0.35033524530E+01 0.33140882774E+01
 0.32126560117E+01 0.31816739156E+01 0.32126249892E+01 0.33140401464E+01 0.35033290038E+01
 0.37862180761E+01 0.41370012250E+01 0.45291183998E+01 0.51278876707E+01 0.59290602547E+01
 0.66421316205E+01 0.69284736897E+01 0.66421408535E+01 0.59290776303E+01 0.51278858726E+01
 0.39300859154E+01 0.37388382141E+01 0.35930503797E+01 0.35033599852E+01 0.34606109569E+01
 0.34462334329E+01 0.34462359276E+01 0.34606037349E+01 0.35033290038E+01 0.35930179406E+01
 0.37388375210E+01 0.39301145639E+01 0.41370012250E+01 0.43270381591E+01 0.45069723797E+01
 0.46319694672E+01 0.46319773465E+01 0.45069868041E+01 0.43270380642E+01 0.41369764177E+01
 0.37206903277E+01 0.37388741823E+01 0.37862267995E+01 0.38442548970E+01 0.38908010987E+01
 0.39084965790E+01 0.38908254548E+01 0.38442750340E+01 0.37862180761E+01 0.37388375210E+01
 0.37206432409E+01 0.37388375210E+01 0.37862180761E+01 0.38442750340E+01 0.38908254548E+01
 0.39084965790E+01 0.38908010987E+01 0.38442548970E+01 0.37862267995E+01 0.37388741823E+01
 0.39300859154E+01 0.41369764177E+01 0.43270380642E+01 0.45069868041E+01 0.46319773465E+01
 0.46319694672E+01 0.45069723797E+01 0.43270381591E+01 0.41370012250E+01 0.39301145639E+01
 0.37388375210E+01 0.35930179406E+01 0.35033290038E+01 0.34606037349E+01 0.34462359276E+01
 0.34462334329E+01 0.34606109569E+01 0.35033599852E+01 0.35930503797E+01 0.37388382141E+01
 0.45290685731E+01 0.51278858726E+01 0.59290776303E+01 0.66421408535E+01 0.69284736897E+01
 0.66421316205E+01 0.59290602547E+01 0.51278876707E+01 0.45291183998E+01 0.41370012250E+01
 0.37862180761E+01 0.35033290038E+01 0.33140401464E+01 0.32126249892E+01 0.31816739156E+01
 0.32126560117E+01 0.33140882774E+01 0.35033524530E+01 0.37861814562E+01 0.41369273761E+01
 0.66993378760E+01 0.89301532570E+01 0.11165473007E+02 0.12568215524E+02 0.12568248711E+02
 0.11165519168E+02 0.89301407486E+01 0.66992896032E+01 0.51278876707E+01 0.43270381591E+01
 0.38442750340E+01 0.34606037349E+01 0.32126249892E+01 0.30963170365E+01 0.30963113067E+01
 0.32126157358E+01 0.34605922865E+01 0.38442474310E+01 0.43270097972E+01 0.51279017766E+01
 0.13404535760E+02 0.18329487035E+02 0.22188534768E+02 0.23650543348E+02 0.22188559162E+02
 0.18329469976E+02 0.13404466292E+02 0.89301407486E+01 0.59290602547E+01 0.45069723797E+01
 0.38908254548E+01 0.34462359276E+01 0.31816739156E+01 0.30963113067E+01 0.31816094615E+01
 0.34461846615E+01 0.38908220713E+01 0.45069861408E+01 0.59290853517E+01 0.89302016912E+01
 0.26919064031E+02 0.34727397876E+02 0.39392394076E+02 0.39392378846E+02 0.34727347167E+02
 0.26919003281E+02 0.18329469976E+02 0.11165519168E+02 0.66421316205E+01 0.46319694672E+01
 0.39084965790E+01 0.34462334329E+01 0.32126560117E+01 0.32126157358E+01 0.34461846615E+01
 0.39085259560E+01 0.46320274986E+01 0.66421277453E+01 0.11165479098E+02 0.18329479211E+02
 0.47536826760E+02 0.57192626076E+02 0.60791386864E+02 0.57192695203E+02 0.47536878094E+02
 0.34727347167E+02 0.22188559162E+02 0.12568248711E+02 0.69284736897E+01 0.46319773465E+01
 0.38908010987E+01 0.34606109569E+01 0.33140882774E+01 0.34605922865E+01 0.38908220713E+01
 0.46320274986E+01 0.69284795144E+01 0.12568206969E+02 0.22188533363E+02 0.34727336581E+02
 0.72896327644E+02 0.82151136701E+02 0.82151241850E+02 0.72896518704E+02 0.57192695203E+02
 0.39392378846E+02 0.23650543348E+02 0.12568215524E+02 0.66421408535E+01 0.45069868041E+01
 0.38442548970E+01 0.35033599852E+01 0.35033524530E+01 0.38442474310E+01 0.45069861408E+01
 0.66421277453E+01 0.12568206969E+02 0.23650581375E+02 0.39392415640E+02 0.57192611882E+02
 0.98086099212E+02 0.10400289056E+03 0.98086136365E+02 0.82151241850E+02 0.60791386864E+02
 0.39392394076E+02 0.22188534768E+02 0.11165473007E+02 0.59290776303E+01 0.43270380642E+01
 0.37862267995E+01 0.35930503797E+01 0.37861814562E+01 0.43270097972E+01 0.59290853517E+01
 0.11165479098E+02 0.22188533363E+02 0.39392415640E+02 0.60791415950E+02 0.82151230406E+02
 0.11684622494E+03 0.11684615922E+03 0.10400289056E+03 0.82151136701E+02 0.57192626076E+02
 0.34727397876E+02 0.18329487035E+02 0.89301532570E+01 0.51278858726E+01 0.41369764177E+01
 0.37388741823E+01 0.37388382141E+01 0.41369273761E+01 0.51279017766E+01 0.89302016912E+01
 0.18329479211E+02 0.34727336581E+02 0.57192611882E+02 0.82151230406E+02 0.10400303017E+03
 0.11684619358E+03 0.10400298009E+03 0.82151200514E+02 0.57192603315E+02 0.34727325868E+02
 0.18329472170E+02 0.89302190469E+01 0.51279283962E+01 0.41369317587E+01 0.37388274983E+01
 0.37388765620E+01 0.41369860095E+01 0.51278792481E+01 0.89301432182E+01 0.18329504160E+02
 0.34727433897E+02 0.57192649199E+02 0.82151146598E+02 0.10400290478E+03 0.11684616353E+03
 0.10400298009E+03 0.87075878811E+02 0.64429757716E+02 0.41776175676E+02 0.23551059482E+02
 0.11810283960E+02 0.61558319004E+01 0.43957112483E+01 0.38417296111E+01 0.36440073456E+01
 0.38417297530E+01 0.43956557099E+01 0.61557724520E+01 0.11810338926E+02 0.23551192913E+02
 0.41776208737E+02 0.64429625673E+02 0.87075704542E+02 0.10400288381E+03 0.11029589911E+03
 0.82151200514E+02 0.64429757716E+02 0.44398366312E+02 0.26680471765E+02 0.14112783893E+02
 0.72478831239E+01 0.46802847163E+01 0.39503558225E+01 0.35934173749E+01 0.35934085378E+01
 0.39503156008E+01 0.46802395115E+01 0.72479173700E+01 0.14112885046E+02 0.26680493030E+02
 0.44398249403E+02 0.64429642045E+02 0.82151197565E+02 0.92624309017E+02 0.92624281382E+02
 0.57192603315E+02 0.41776175676E+02 0.26680471765E+02 0.14991639417E+02 0.79544967463E+01
 0.49407490622E+01 0.40393504304E+01 0.35789476318E+01 0.34193066811E+01 0.35790026259E+01
 0.40393613211E+01 0.49407027820E+01 0.79544767878E+01 0.14991656553E+02 0.26680463431E+02
 0.41776163943E+02 0.57192668187E+02 0.68845551556E+02 0.73198247565E+02 0.68845453447E+02
 0.34727325868E+02 0.23551059482E+02 0.14112783893E+02 0.79544967463E+01 0.50486616766E+01
 0.40890965296E+01 0.35823416522E+01 0.33189199203E+01 0.33189695358E+01 0.35823961929E+01
 0.40890402099E+01 0.50485594146E+01 0.79544828936E+01 0.14112854525E+02 0.23551118870E+02
 0.34727349858E+02 0.44863106404E+02 0.50925075286E+02 0.50925060547E+02 0.44863083596E+02
 0.18329472170E+02 0.11810283960E+02 0.72478831239E+01 0.49407490622E+01 0.40890965296E+01
 0.35859296424E+01 0.32759541205E+01 0.31744844447E+01 0.32759704734E+01 0.35859064156E+01
 0.40890432008E+01 0.49407373426E+01 0.72479171699E+01 0.11810291154E+02 0.18329432443E+02
 0.25370056015E+02 0.30849770907E+02 0.32922251288E+02 0.30849769363E+02 0.25370086416E+02
 0.89302190469E+01 0.61558319004E+01 0.46802847163E+01 0.40393504304E+01 0.35823416522E+01
 0.32759541205E+01 0.31294190597E+01 0.31294315478E+01 0.32759808452E+01 0.35823697323E+01
 0.40393733784E+01 0.46802731406E+01 0.61557557707E+01 0.89301221060E+01 0.12653594840E+02
 0.16273707883E+02 0.18515263149E+02 0.18515217177E+02 0.16273642415E+02 0.12653616835E+02
 0.51279283962E+01 0.43957112483E+01 0.39503558225E+01 0.35789476318E+01 0.33189199203E+01
 0.31744844447E+01 0.31294315478E+01 0.31745394815E+01 0.33189794044E+01 0.35789686302E+01
 0.39503346086E+01 0.43956658046E+01 0.51278872074E+01 0.64244116305E+01 0.80661665082E+01
 0.94632151364E+01 0.10012812854E+02 0.94631547088E+01 0.80661109620E+01 0.64244101844E+01
 0.41369317587E+01 0.38417296111E+01 0.35934173749E+01 0.34193066811E+01 0.33189695358E+01
 0.32759704734E+01 0.32759808452E+01 0.33189794044E+01 0.34192889596E+01 0.35933888000E+01
 0.38417340324E+01 0.41369808223E+01 0.44486212004E+01 0.48671900401E+01 0.53525478082E+01
 0.56885743440E+01 0.56885829970E+01 0.53525560111E+01 0.48671667112E+01 0.44485650359E+01
 0.37388274983E+01 0.36440073456E+01 0.35934085378E+01 0.35790026259E+01 0.35823961929E+01
 0.35859064156E+01 0.35823697323E+01 0.35789686302E+01 0.35933888000E+01 0.36440086668E+01
 0.37388392614E+01 0.38692009155E+01 0.40118767215E+01 0.41381608956E+01 0.42282796194E+01
 0.42638680692E+01 0.42282703486E+01 0.41381501021E+01 0.40118679635E+01 0.38691904331E+01
 0.37388765620E+01 0.38417297530E+01 0.39503156008E+01 0.40393613211E+01 0.40890402099E+01
 0.40890432008E+01 0.40393733784E+01 0.39503346086E+01 0.38417340324E+01 0.37388392614E+01
 0.36642702497E+01 0.36292100801E+01 0.36291914198E+01 0.36472688873E+01 0.36630469322E+01
 0.36630114260E+01 0.36472053310E+01 0.36291759386E+01 0.36292627506E+01 0.36643419898E+01
 0.41369860095E+01 0.43956557099E+01 0.46802395115E+01 0.49407027820E+01 0.50485594146E+01
 0.49407373426E+01 0.46802731406E+01 0.43956658046E+01 0.41369808223E+01 0.38692009155E+01
 0.36292100801E+01 0.34501488634E+01 0.33398960980E+01 0.32858747030E+01 0.32704735052E+01
 0.32858746915E+01 0.33399065105E+01 0.34501682354E+01 0.36292261925E+01 0.38692107407E+01
 0.51278792481E+01 0.61557724520E+01 0.72479173700E+01 0.79544767878E+01 0.79544828936E+01
 0.72479171699E+01 0.61557557707E+01 0.51278872074E+01 0.44486212004E+01 0.40118767215E+01
 0.36291914198E+01 0.33398960980E+01 0.31604521349E+01 0.30784167947E+01 0.30784501061E+01
 0.31605275142E+01 0.33399494955E+01 0.36291678574E+01 0.40117929925E+01 0.44485540288E+01
 0.89301432182E+01 0.11810338926E+02 0.14112885046E+02 0.14991656553E+02 0.14112854525E+02
 0.11810291154E+02 0.89301221060E+01 0.64244116305E+01 0.48671900401E+01 0.41381608956E+01
 0.36472688873E+01 0.32858747030E+01 0.30784167947E+01 0.30125414574E+01 0.30784086857E+01
 0.32858889046E+01 0.36472922005E+01 0.41381417400E+01 0.48671293294E+01 0.64243735260E+01
 0.18329504160E+02 0.23551192913E+02 0.26680493030E+02 0.26680463431E+02 0.23551118870E+02
 0.18329432443E+02 0.12653594840E+02 0.80661665082E+01 0.53525478082E+01 0.42282796194E+01
 0.36630469322E+01 0.32704735052E+01 0.30784501061E+01 0.30784086857E+01 0.32704082572E+01
 0.36630396771E+01 0.42283130741E+01 0.53525559165E+01 0.80661522256E+01 0.12653616604E+02
 0.34727433897E+02 0.41776208737E+02 0.44398249403E+02 0.41776163943E+02 0.34727349858E+02
 0.25370056015E+02 0.16273707883E+02 0.94632151364E+01 0.56885743440E+01 0.42638680692E+01
 0.36630114260E+01 0.32858746915E+01 0.31605275142E+01 0.32858889046E+01 0.36630396771E+01
 0.42638780276E+01 0.56885342567E+01 0.94631599776E+01 0.16273710853E+02 0.25370129479E+02
 0.57192649199E+02 0.64429625673E+02 0.64429642045E+02 0.57192668187E+02 0.44863106404E+02
 0.30849770907E+02 0.18515263149E+02 0.10012812854E+02 0.56885829970E+01 0.42282703486E+01
 0.36472053310E+01 0.33399065105E+01 0.33399494955E+01 0.36472922005E+01 0.42283130741E+01
 0.56885342567E+01 0.10012718872E+02 0.18515209064E+02 0.30849776868E+02 0.44863117433E+02
 0.82151146598E+02 0.87075704542E+02 0.82151197565E+02 0.68845551556E+02 0.50925075286E+02
 0.32922251288E+02 0.18515217177E+02 0.94631547088E+01 0.53525560111E+01 0.41381501021E+01
 0.36291759386E+01 0.34501682354E+01 0.36291678574E+01 0.41381417400E+01 0.53525559165E+01
 0.94631599776E+01 0.18515209064E+02 0.32922209822E+02 0.50925001611E+02 0.68845471912E+02
 0.10400290478E+03 0.10400288381E+03 0.92624309017E+02 0.73198247565E+02 0.50925060547E+02
 0.30849769363E+02 0.16273642415E+02 0.80661109620E+01 0.48671667112E+01 0.40118679635E+01
 0.36292627506E+01 0.36292261925E+01 0.40117929925E+01 0.48671293294E+01 0.80661522256E+01
 0.16273710853E+02 0.30849776868E+02 0.50925001611E+02 0.73198204841E+02 0.92624325498E+02
 0.11684616353E+03 0.11029589911E+03 0.92624281382E+02 0.68845453447E+02 0.44863083596E+02
 0.25370086416E+02 0.12653616835E+02 0.64244101844E+01 0.44485650359E+01 0.38691904331E+01
 0.36643419898E+01 0.38692107407E+01 0.44485540288E+01 0.64243735260E+01 0.12653616604E+02
 0.25370129479E+02 0.44863117433E+02 0.68845471912E+02 0.92624325498E+02 0.11029595348E+03
 0.98086029920E+02 0.82151162582E+02 0.60791406853E+02 0.39392439028E+02 0.22188539201E+02
 0.11165486020E+02 0.59291264043E+01 0.43270484361E+01 0.37861726419E+01 0.35930271976E+01
 0.37862381313E+01 0.43270589981E+01 0.59290688160E+01 0.11165467530E+02 0.22188575821E+02
 0.39392445114E+02 0.60791392702E+02 0.82151221122E+02 0.98086127269E+02 0.10400286685E+03
 0.82151162582E+02 0.64429739963E+02 0.44398387108E+02 0.26680503721E+02 0.14112800445E+02
 0.72478970871E+01 0.46803084133E+01 0.39503678418E+01 0.35934041779E+01 0.35933960716E+01
 0.39503245530E+01 0.46802508537E+01 0.72479151801E+01 0.14112889607E+02 0.26680516958E+02
 0.44398264420E+02 0.64429624759E+02 0.82151166939E+02 0.92624285697E+02 0.92624253369E+02
 0.60791406853E+02 0.44398387108E+02 0.28354323841E+02 0.15904231839E+02 0.83511070082E+01
 0.50634119977E+01 0.40906343710E+01 0.36208283649E+01 0.34567927530E+01 0.36208564104E+01
 0.40906223997E+01 0.50633763646E+01 0.83511273810E+01 0.15904279089E+02 0.28354286188E+02
 0.44398267393E+02 0.60791323183E+02 0.73198171532E+02 0.77836739061E+02 0.73198181521E+02
 0.39392439028E+02 0.26680503721E+02 0.15904231839E+02 0.87804623456E+01 0.53228128918E+01
 0.41835106902E+01 0.36564001907E+01 0.33778613725E+01 0.33779226437E+01 0.36564920080E+01
 0.41835067232E+01 0.53227427630E+01 0.87804321753E+01 0.15904251576E+02 0.26680515814E+02
 0.39392439371E+02 0.50925031520E+02 0.57831826632E+02 0.57831812757E+02 0.50925015102E+02
 0.22188539201E+02 0.14112800445E+02 0.83511070082E+01 0.53228128918E+01 0.42168612455E+01
 0.36804845664E+01 0.33422885518E+01 0.32303361377E+01 0.33423064434E+01 0.36804694935E+01
 0.42168140569E+01 0.53227951597E+01 0.83511401975E+01 0.14112841176E+02 0.22188563897E+02
 0.30849788367E+02 0.37581555710E+02 0.40128147978E+02 0.37581524715E+02 0.30849759582E+02
 0.11165486020E+02 0.72478970871E+01 0.50634119977E+01 0.41835106902E+01 0.36804845664E+01
 0.33329428553E+01 0.31640741561E+01 0.31640361141E+01 0.33328602108E+01 0.36804289339E+01
 0.41835305104E+01 0.50634782793E+01 0.72479338415E+01 0.11165461246E+02 0.16273636793E+02
 0.21175860368E+02 0.24196550774E+02 0.24196552514E+02 0.21175880970E+02 0.16273681754E+02
 0.59291264043E+01 0.46803084133E+01 0.40906343710E+01 0.36564001907E+01 0.33422885518E+01
 0.31640741561E+01 0.31078612286E+01 0.31640690648E+01 0.33422888369E+01 0.36564114125E+01
 0.40906465310E+01 0.46803030240E+01 0.59290959847E+01 0.80661318296E+01 0.10659399816E+02
 0.12815947345E+02 0.13656418377E+02 0.12815968918E+02 0.10659439147E+02 0.80661761537E+01
 0.43270484361E+01 0.39503678418E+01 0.36208283649E+01 0.33778613725E+01 0.32303361377E+01
 0.31640361141E+01 0.31640690648E+01 0.32304039490E+01 0.33779013009E+01 0.36208087455E+01
 0.39503209836E+01 0.43270287064E+01 0.48671943340E+01 0.57209839716E+01 0.66773311604E+01
 0.73176677464E+01 0.73176771544E+01 0.66773395075E+01 0.57209690252E+01 0.48671780071E+01
 0.37861726419E+01 0.35934041779E+01 0.34567927530E+01 0.33779226437E+01 0.33423064434E+01
 0.33328602108E+01 0.33422888369E+01 0.33779013009E+01 0.34567791847E+01 0.35934056147E+01
 0.37861981638E+01 0.40118374102E+01 0.42340632055E+01 0.44622248478E+01 0.46744342364E+01
 0.47642346663E+01 0.46744484795E+01 0.44622198373E+01 0.42340244779E+01 0.40117908027E+01
 0.35930271976E+01 0.35933960716E+01 0.36208564104E+01 0.36564920080E+01 0.36804694935E+01
 0.36804289339E+01 0.36564114125E+01 0.36208087455E+01 0.35934056147E+01 0.35930609371E+01
 0.36292161680E+01 0.36971655167E+01 0.37794760125E+01 0.38526241329E+01 0.38953568125E+01
 0.38953515302E+01 0.38526130566E+01 0.37794670640E+01 0.36971561803E+01 0.36291934186E+01
 0.37862381313E+01 0.39503245530E+01 0.40906223997E+01 0.41835067232E+01 0.42168140569E+01
 0.41835305104E+01 0.40906465310E+01 0.39503209836E+01 0.37861981638E+01 0.36292161680E+01
 0.35065571688E+01 0.34309777452E+01 0.33974631534E+01 0.33891526537E+01 0.33887574422E+01
 0.33891180096E+01 0.33974248299E+01 0.34309712424E+01 0.35065927194E+01 0.36292717028E+01
 0.43270589981E+01 0.46802508537E+01 0.50633763646E+01 0.53227427630E+01 0.53227951597E+01
 0.50634782793E+01 0.46803030240E+01 0.43270287064E+01 0.40118374102E+01 0.36971655167E+01
 0.34309777452E+01 0.32423626147E+01 0.31317571598E+01 0.30833832098E+01 0.30833809558E+01
 0.31317476745E+01 0.32423469269E+01 0.34309748094E+01 0.36972002964E+01 0.40118996133E+01
 0.59290688160E+01 0.72479151801E+01 0.83511273810E+01 0.87804321753E+01 0.83511401975E+01
 0.72479338415E+01 0.59290959847E+01 0.48671943340E+01 0.42340632055E+01 0.37794760125E+01
 0.33974631534E+01 0.31317571598E+01 0.29843558612E+01 0.29382973425E+01 0.29843700654E+01
 0.31317843512E+01 0.33974844215E+01 0.37794664490E+01 0.42340244779E+01 0.48671535142E+01
 0.11165467530E+02 0.14112889607E+02 0.15904279089E+02 0.15904251576E+02 0.14112841176E+02
 0.11165461246E+02 0.80661318296E+01 0.57209839716E+01 0.44622248478E+01 0.38526241329E+01
 0.33891526537E+01 0.30833832098E+01 0.29382973425E+01 0.29382806866E+01 0.30833644483E+01
 0.33891729001E+01 0.38526607962E+01 0.44622184277E+01 0.57209249091E+01 0.80660788652E+01
 0.22188575821E+02 0.26680516958E+02 0.28354286188E+02 0.26680515814E+02 0.22188563897E+02
 0.16273636793E+02 0.10659399816E+02 0.66773311604E+01 0.46744342364E+01 0.38953568125E+01
 0.33887574422E+01 0.30833809558E+01 0.29843700654E+01 0.30833644483E+01 0.33887339002E+01
 0.38953421373E+01 0.46744422792E+01 0.66773622248E+01 0.10659439147E+02 0.16273666112E+02
 0.39392445114E+02 0.44398264420E+02 0.44398267393E+02 0.39392439371E+02 0.30849788367E+02
 0.21175860368E+02 0.12815947345E+02 0.73176677464E+01 0.47642346663E+01 0.38953515302E+01
 0.33891180096E+01 0.31317476745E+01 0.31317843512E+01 0.33891729001E+01 0.38953421373E+01
 0.47641717412E+01 0.73176342299E+01 0.12815983507E+02 0.21175925087E+02 0.30849827442E+02
 0.60791392702E+02 0.64429624759E+02 0.60791323183E+02 0.50925031520E+02 0.37581555710E+02
 0.24196550774E+02 0.13656418377E+02 0.73176771544E+01 0.46744484795E+01 0.38526130566E+01
 0.33974248299E+01 0.32423469269E+01 0.33974844215E+01 0.38526607962E+01 0.46744422792E+01
 0.73176342299E+01 0.13656356632E+02 0.24196481322E+02 0.37581524715E+02 0.50925077098E+02
 0.82151221122E+02 0.82151166939E+02 0.73198171532E+02 0.57831826632E+02 0.40128147978E+02
 0.24196552514E+02 0.12815968918E+02 0.66773395075E+01 0.44622198373E+01 0.37794670640E+01
 0.34309712424E+01 0.34309748094E+01 0.37794664490E+01 0.44622184277E+01 0.66773622248E+01
 0.12815983507E+02 0.24196481322E+02 0.40128014460E+02 0.57831768641E+02 0.73198235404E+02
 0.98086127269E+02 0.92624285697E+02 0.77836739061E+02 0.57831812757E+02 0.37581524715E+02
 0.21175880970E+02 0.10659439147E+02 0.57209690252E+01 0.42340244779E+01 0.36971561803E+01
 0.35065927194E+01 0.36972002964E+01 0.42340244779E+01 0.57209249091E+01 0.10659439147E+02
 0.21175925087E+02 0.37581524715E+02 0.57831768641E+02 0.77836739061E+02 0.92624329813E+02
 0.10400286685E+03 0.92624253369E+02 0.73198181521E+02 0.50925015102E+02 0.30849759582E+02
 0.16273681754E+02 0.80661761537E+01 0.48671780071E+01 0.40117908027E+01 0.36291934186E+01
 0.36292717028E+01 0.40118996133E+01 0.48671535142E+01 0.80660788652E+01 0.16273666112E+02
 0.30849827442E+02 0.50925077098E+02 0.73198235404E+02 0.92624329813E+02 0.10400291018E+03
 0.72896272736E+02 0.57192579766E+02 0.39392453412E+02 0.23650627693E+02 0.12568206545E+02
 0.66421273462E+01 0.45070268134E+01 0.38442738125E+01 0.35033222804E+01 0.35033331567E+01
 0.38442808249E+01 0.45070125086E+01 0.66421216879E+01 0.12568205724E+02 0.23650584252E+02
 0.39392408226E+02 0.57192660942E+02 0.72896473716E+02 0.82151235506E+02 0.82151123050E+02
 0.57192579766E+02 0.41776193632E+02 0.26680539430E+02 0.14991694302E+02 0.79545070350E+01
 0.49407557043E+01 0.40393737474E+01 0.35789473937E+01 0.34192721258E+01 0.35789865133E+01
 0.40393848693E+01 0.49407188946E+01 0.79544642468E+01 0.14991656791E+02 0.26680487210E+02
 0.41776157301E+02 0.57192610802E+02 0.68845496670E+02 0.73198226997E+02 0.68845435492E+02
 0.39392453412E+02 0.26680539430E+02 0.15904278707E+02 0.87804852754E+01 0.53228066293E+01
 0.41835033692E+01 0.36563998108E+01 0.33778491151E+01 0.33779012854E+01 0.36564883617E+01
 0.41835213191E+01 0.53227475334E+01 0.87804218241E+01 0.15904247252E+02 0.26680515665E+02
 0.39392417712E+02 0.50924991420E+02 0.57831802373E+02 0.57831815509E+02 0.50925025159E+02
 0.23650627693E+02 0.14991694302E+02 0.87804852754E+01 0.54764605004E+01 0.42625003578E+01
 0.37137504790E+01 0.33661756086E+01 0.32506525003E+01 0.33662358764E+01 0.37138258957E+01
 0.42625353596E+01 0.54764306984E+01 0.87804166354E+01 0.14991645506E+02 0.23650645202E+02
 0.32922320449E+02 0.40128148997E+02 0.42854765841E+02 0.40128081506E+02 0.32922246242E+02
 0.12568206545E+02 0.79545070350E+01 0.53228066293E+01 0.42625003578E+01 0.37348211656E+01
 0.33664922142E+01 0.31859320391E+01 0.31859169157E+01 0.33664800011E+01 0.37348508731E+01
 0.42625407798E+01 0.53228007441E+01 0.79544678595E+01 0.12568209794E+02 0.18515269878E+02
 0.24196588579E+02 0.27692448531E+02 0.27692396460E+02 0.24196475059E+02 0.18515185516E+02
 0.66421273462E+01 0.49407557043E+01 0.41835033692E+01 0.37137504790E+01 0.33664922142E+01
 0.31668861657E+01 0.31035420998E+01 0.31668329101E+01 0.33664479967E+01 0.37137498908E+01
 0.41835253858E+01 0.49407811435E+01 0.66421587220E+01 0.94631444140E+01 0.12815916820E+02
 0.15576387526E+02 0.16648134640E+02 0.15576419053E+02 0.12815932070E+02 0.94631235573E+01
 0.45070268134E+01 0.40393737474E+01 0.36563998108E+01 0.33661756086E+01 0.31859320391E+01
 0.31035420998E+01 0.31035358101E+01 0.31859271876E+01 0.33661826090E+01 0.36564015738E+01
 0.40393668020E+01 0.45070330792E+01 0.53525866895E+01 0.66773172078E+01 0.81142875037E+01
 0.90591648862E+01 0.90592164353E+01 0.81143815026E+01 0.66773618448E+01 0.53525794647E+01
 0.38442738125E+01 0.35789473937E+01 0.33778491151E+01 0.32506525003E+01 0.31859169157E+01
 0.31668329101E+01 0.31859271876E+01 0.32506894096E+01 0.33778918433E+01 0.35789512490E+01
 0.38442409118E+01 0.41381514231E+01 0.44622389812E+01 0.48867479779E+01 0.52891096439E+01
 0.54569279185E+01 0.52891385163E+01 0.48867702493E+01 0.44622502864E+01 0.41381781603E+01
 0.35033222804E+01 0.34192721258E+01 0.33779012854E+01 0.33662358764E+01 0.33664800011E+01
 0.33664479967E+01 0.33661826090E+01 0.33778918433E+01 0.34193082435E+01 0.35033612982E+01
 0.36291666079E+01 0.37794573501E+01 0.39262650373E+01 0.40415097546E+01 0.41084170794E+01
 0.41084264246E+01 0.40415234198E+01 0.39262646757E+01 0.37794450907E+01 0.36291443092E+01
 0.35033331567E+01 0.35789865133E+01 0.36564883617E+01 0.37138258957E+01 0.37348508731E+01
 0.37137498908E+01 0.36564015738E+01 0.35789512490E+01 0.35033612982E+01 0.34501959822E+01
 0.34309863901E+01 0.34438811293E+01 0.34749924261E+01 0.35048451906E+01 0.35169519659E+01
 0.35048854330E+01 0.34750236147E+01 0.34438636081E+01 0.34309270469E+01 0.34501318152E+01
 0.38442808249E+01 0.40393848693E+01 0.41835213191E+01 0.42625353596E+01 0.42625407798E+01
 0.41835253858E+01 0.40393668020E+01 0.38442409118E+01 0.36291666079E+01 0.34309863901E+01
 0.32779520681E+01 0.31799154252E+01 0.31290822579E+01 0.31096125350E+01 0.31096206496E+01
 0.31290901154E+01 0.31799015224E+01 0.32779281912E+01 0.34309858383E+01 0.36291994868E+01
 0.45070125086E+01 0.49407188946E+01 0.53227475334E+01 0.54764306984E+01 0.53228007441E+01
 0.49407811435E+01 0.45070330792E+01 0.41381514231E+01 0.37794573501E+01 0.34438811293E+01
 0.31799154252E+01 0.30051930577E+01 0.29114984697E+01 0.28827400047E+01 0.29114693550E+01
 0.30051576333E+01 0.31799065768E+01 0.34439161411E+01 0.37795159506E+01 0.41381865223E+01
 0.66421216879E+01 0.79544642468E+01 0.87804218241E+01 0.87804166354E+01 0.79544678595E+01
 0.66421587220E+01 0.53525866895E+01 0.44622389812E+01 0.39262650373E+01 0.34749924261E+01
 0.31290822579E+01 0.29114984697E+01 0.28107471920E+01 0.28107392122E+01 0.29114871014E+01
 0.31290889846E+01 0.34750166879E+01 0.39262756828E+01 0.44622094861E+01 0.53525324629E+01
 0.12568205724E+02 0.14991656791E+02 0.15904247252E+02 0.14991645506E+02 0.12568209794E+02
 0.94631444140E+01 0.66773172078E+01 0.48867479779E+01 0.40415097546E+01 0.35048451906E+01
 0.31096125350E+01 0.28827400047E+01 0.28107392122E+01 0.28827634403E+01 0.31096306795E+01
 0.35048446351E+01 0.40415009723E+01 0.48867340672E+01 0.66772910680E+01 0.94631182885E+01
 0.23650584252E+02 0.26680487210E+02 0.26680515665E+02 0.23650645202E+02 0.18515269878E+02
 0.12815916820E+02 0.81142875037E+01 0.52891096439E+01 0.41084170794E+01 0.35169519659E+01
 0.31096206496E+01 0.29114693550E+01 0.29114871014E+01 0.31096306795E+01 0.35169103130E+01
 0.41083779125E+01 0.52891500377E+01 0.81143817338E+01 0.12815968769E+02 0.18515240725E+02
 0.39392408226E+02 0.41776157301E+02 0.39392417712E+02 0.32922320449E+02 0.24196588579E+02
 0.15576387526E+02 0.90591648862E+01 0.54569279185E+01 0.41084264246E+01 0.35048854330E+01
 0.31290901154E+01 0.30051576333E+01 0.31290889846E+01 0.35048446351E+01 0.41083779125E+01
 0.54569541710E+01 0.90592583413E+01 0.15576448831E+02 0.24196574971E+02 0.32922287709E+02
 0.57192660942E+02 0.57192610802E+02 0.50924991420E+02 0.40128148997E+02 0.27692448531E+02
 0.16648134640E+02 0.90592164353E+01 0.52891385163E+01 0.40415234198E+01 0.34750236147E+01
 0.31799015224E+01 0.31799065768E+01 0.34750166879E+01 0.40415009723E+01 0.52891500377E+01
 0.90592583413E+01 0.16648119946E+02 0.27692362623E+02 0.40128107878E+02 0.50925051737E+02
 0.72896473716E+02 0.68845496670E+02 0.57831802373E+02 0.42854765841E+02 0.27692396460E+02
 0.15576419053E+02 0.81143815026E+01 0.48867702493E+01 0.39262646757E+01 0.34438636081E+01
 0.32779281912E+01 0.34439161411E+01 0.39262756828E+01 0.48867340672E+01 0.81143817338E+01
 0.15576448831E+02 0.27692362623E+02 0.42854674535E+02 0.57831758257E+02 0.68845515135E+02
 0.82151235506E+02 0.73198226997E+02 0.57831815509E+02 0.40128081506E+02 0.24196475059E+02
 0.12815932070E+02 0.66773618448E+01 0.44622502864E+01 0.37794450907E+01 0.34309270469E+01
 0.34309858383E+01 0.37795159506E+01 0.44622094861E+01 0.66772910680E+01 0.12815968769E+02
 0.24196574971E+02 0.40128107878E+02 0.57831758257E+02 0.73198174284E+02 0.82151221113E+02
 0.82151123050E+02 0.68845435492E+02 0.50925025159E+02 0.32922246242E+02 0.18515185516E+02
 0.94631235573E+01 0.53525794647E+01 0.41381781603E+01 0.36291443092E+01 0.34501318152E+01
 0.36291994868E+01 0.41381865223E+01 0.53525324629E+01 0.94631182885E+01 0.18515240725E+02
 0.32922287709E+02 0.50925051737E+02 0.68845515135E+02 0.82151221113E+02 0.87075740962E+02
 0.47536789195E+02 0.34727319662E+02 0.22188570928E+02 0.12568223887E+02 0.69284419494E+01
 0.46320105802E+01 0.38908596363E+01 0.34606092049E+01 0.33140507125E+01 0.34605940384E+01
 0.38908386636E+01 0.46319942650E+01 0.69284361248E+01 0.12568231793E+02 0.22188596727E+02
 0.34727364085E+02 0.47536840529E+02 0.57192678284E+02 0.60791424429E+02 0.57192642994E+02
 0.34727319662E+02 0.23551092635E+02 0.14112851351E+02 0.79545222323E+01 0.50486348248E+01
 0.40890866523E+01 0.35823618615E+01 0.33189102191E+01 0.33189275882E+01 0.35823899903E+01