   1   1   1   0
  0.8984250E+01  0.2333452E-09  0.2333452E-09  0.2333452E-09  0.5000000E-15
  1.000000000000000E-004
  CAR 
 fcc Ni                                  
     64.31688598     -1.03545054  301     12.36524787      1.00000000
     -1.035  0.0000E+00  0.0000E+00  0.0000E+00  0.0000E+00
     -0.818  0.0000E+00  0.0000E+00  0.0000E+00  0.0000E+00
     -0.600  0.0000E+00  0.0000E+00  0.0000E+00  0.0000E+00
     -0.382  0.0000E+00  0.0000E+00  0.0000E+00  0.0000E+00
     -0.164  0.0000E+00  0.0000E+00  0.0000E+00  0.0000E+00
      0.054  0.0000E+00  0.0000E+00  0.0000E+00  0.0000E+00
      0.272 -0.1093E-32 -0.7290E-32 -0.2380E-33 -0.1588E-32
      0.489 -0.2756E-25 -0.1431E-24 -0.6003E-26 -0.3117E-25
      0.707 -0.6335E-19 -0.2558E-18 -0.1380E-19 -0.5573E-19
      0.925 -0.1268E-13 -0.3971E-13 -0.2762E-14 -0.8651E-14
      1.143 -0.2295E-09 -0.5560E-09 -0.4999E-10 -0.1211E-09
      1.361 -0.3487E-06 -0.6482E-06 -0.7601E-07 -0.1413E-06
      1.579 -0.3764E-04 -0.5154E-04 -0.8276E-05 -0.1137E-04
      1.796  0.5085E-04  0.1733E-03  0.2801E-05  0.2638E-04
      2.014  0.1747E-02  0.1734E-02  0.3834E-03  0.4041E-03
      2.232  0.4907E-02  0.6850E-02  0.1452E-02  0.1896E-02
      2.450  0.3227E-01  0.3330E-01  0.8482E-02  0.9151E-02
      2.668  0.1254E-01  0.9374E-02  0.1121E-01  0.1119E-01
      2.886  0.1267E-01  0.1581E-01  0.1397E-01  0.1464E-01
      3.104  0.2781E-01  0.2712E-01  0.2003E-01  0.2054E-01
      3.321  0.6469E-01  0.6943E-01  0.3412E-01  0.3567E-01
      3.539  0.4866E-01  0.4179E-01  0.4472E-01  0.4477E-01
      3.757  0.1965E-02  0.2537E-02  0.4515E-01  0.4533E-01
      3.975  0.1319E-01  0.1327E-01  0.4802E-01  0.4822E-01
      4.193  0.7923E-01  0.8262E-01  0.6528E-01  0.6621E-01
      4.411  0.8792E-01  0.8446E-01  0.8444E-01  0.8461E-01
      4.628  0.3978E-01  0.3619E-01  0.9310E-01  0.9250E-01
      4.846  0.7539E-01  0.7232E-01  0.1095E+00  0.1083E+00
      5.064  0.7656E-01  0.8083E-01  0.1262E+00  0.1259E+00
      5.282  0.1524E-02  0.4540E-02  0.1265E+00  0.1268E+00
      5.500  0.5814E-01  0.3026E-01  0.1392E+00  0.1334E+00
      5.718  0.2121E+00  0.1968E+00  0.1854E+00  0.1763E+00
      5.935  0.1142E+00  0.1059E+00  0.2103E+00  0.1994E+00
      6.153  0.1410E+00  0.1232E+00  0.2410E+00  0.2262E+00
      6.371  0.1345E+00  0.1174E+00  0.2703E+00  0.2518E+00
      6.589  0.3372E+00  0.7556E-01  0.3437E+00  0.2682E+00
      6.807  0.5073E+00  0.2267E+00  0.4542E+00  0.3176E+00
      7.025  0.6149E+00  0.5897E+00  0.5882E+00  0.4461E+00
      7.243  0.5456E+00  0.4141E+00  0.7071E+00  0.5363E+00
      7.460  0.6037E+00  0.4570E+00  0.8386E+00  0.6358E+00
      7.678  0.9817E+00  0.3640E+00  0.1052E+01  0.7151E+00
      7.896  0.6959E+00  0.7345E+00  0.1204E+01  0.8751E+00
      8.114  0.6484E+00  0.7733E+00  0.1345E+01  0.1044E+01
      8.332  0.7539E+00  0.6582E+00  0.1510E+01  0.1187E+01
      8.550  0.5079E+00  0.6198E+00  0.1620E+01  0.1322E+01
      8.767  0.8309E+00  0.7616E+00  0.1801E+01  0.1488E+01
      8.985  0.9719E+00  0.4789E+00  0.2013E+01  0.1592E+01
      9.203  0.8532E+00  0.6643E+00  0.2199E+01  0.1737E+01
      9.421  0.1058E+01  0.1017E+01  0.2429E+01  0.1959E+01
      9.639  0.1208E+01  0.6670E+00  0.2692E+01  0.2104E+01
      9.857  0.1299E+01  0.1052E+01  0.2975E+01  0.2333E+01
     10.074  0.9292E+00  0.1012E+01  0.3178E+01  0.2553E+01
     10.292  0.7534E+00  0.1174E+01  0.3342E+01  0.2809E+01
     10.510  0.7371E+00  0.1146E+01  0.3502E+01  0.3059E+01
     10.728  0.9377E+00  0.8440E+00  0.3706E+01  0.3243E+01
     10.946  0.1293E+01  0.7509E+00  0.3988E+01  0.3406E+01
     11.164  0.7409E+00  0.7442E+00  0.4150E+01  0.3568E+01
     11.381  0.8820E+00  0.9225E+00  0.4342E+01  0.3769E+01
     11.599  0.1186E+01  0.1296E+01  0.4600E+01  0.4052E+01
     11.817  0.1546E+01  0.6104E+00  0.4937E+01  0.4185E+01
     12.035  0.1477E+01  0.7433E+00  0.5259E+01  0.4347E+01
     12.253  0.1424E+00  0.1106E+01  0.5290E+01  0.4587E+01
     12.471 -0.2126E-01  0.1338E+01  0.5285E+01  0.4879E+01
     12.689  0.7772E-01  0.1482E+01  0.5302E+01  0.5202E+01
     12.906  0.1543E+00  0.3921E+00  0.5335E+01  0.5287E+01
     13.124  0.2762E+00  0.3409E-01  0.5396E+01  0.5294E+01
     13.342  0.1998E+00  0.1098E+00  0.5439E+01  0.5318E+01
     13.560  0.1441E+00  0.1977E+00  0.5471E+01  0.5361E+01
     13.778  0.5316E-01  0.3384E+00  0.5482E+01  0.5435E+01
     13.996  0.9591E-01  0.1750E+00  0.5503E+01  0.5473E+01
     14.213  0.6489E-01  0.6242E-01  0.5517E+01  0.5487E+01
     14.431  0.6397E-01  0.1321E+00  0.5531E+01  0.5516E+01
     14.649  0.2090E+00  0.2655E-01  0.5577E+01  0.5521E+01
     14.867  0.1557E+00  0.1111E+00  0.5611E+01  0.5546E+01
     15.085  0.6220E-01  0.1537E+00  0.5624E+01  0.5579E+01
     15.303  0.1316E+00  0.1432E+00  0.5653E+01  0.5610E+01
     15.520  0.1761E+00  0.8127E-01  0.5691E+01  0.5628E+01
     15.738  0.1128E+00  0.2112E+00  0.5716E+01  0.5674E+01
     15.956  0.1858E+00  0.1592E+00  0.5756E+01  0.5709E+01
     16.174  0.4650E-02  0.2024E+00  0.5757E+01  0.5753E+01
     16.392 -0.6718E-02  0.2208E-01  0.5756E+01  0.5758E+01
     16.610  0.1514E-01 -0.6568E-02  0.5759E+01  0.5756E+01
     16.828  0.2124E+00 -0.3883E-02  0.5805E+01  0.5755E+01
     17.045  0.1721E+00  0.1690E+00  0.5843E+01  0.5792E+01
     17.263  0.5316E-01  0.2036E+00  0.5854E+01  0.5836E+01
     17.481  0.4583E-01  0.5790E-01  0.5864E+01  0.5849E+01
     17.699  0.1461E-01  0.6073E-01  0.5868E+01  0.5862E+01
     17.917  0.1660E+00  0.9882E-02  0.5904E+01  0.5864E+01
     18.135  0.8835E-01  0.1569E+00  0.5923E+01  0.5899E+01
     18.352  0.5600E-01  0.1101E+00  0.5935E+01  0.5923E+01
     18.570  0.2278E-01  0.5484E-01  0.5940E+01  0.5935E+01
     18.788  0.1284E+00  0.1966E-01  0.5968E+01  0.5939E+01
     19.006  0.2632E-01  0.1252E+00  0.5974E+01  0.5966E+01
     19.224 -0.4729E-02  0.3595E-01  0.5973E+01  0.5974E+01
     19.442 -0.9967E-04 -0.5202E-02  0.5973E+01  0.5973E+01
     19.659  0.5887E-01  0.2338E-02  0.5986E+01  0.5973E+01
     19.877  0.1053E+00  0.2833E-01  0.6009E+01  0.5980E+01
     20.095  0.1446E+00  0.6765E-01  0.6040E+01  0.5994E+01
     20.313  0.1689E+00  0.1501E+00  0.6077E+01  0.6027E+01
     20.531  0.1133E+00  0.1675E+00  0.6101E+01  0.6063E+01
     20.749  0.1359E+00  0.1302E+00  0.6131E+01  0.6092E+01
     20.967  0.2452E+00  0.1982E+00  0.6185E+01  0.6135E+01
     21.184  0.1814E+00  0.2096E+00  0.6224E+01  0.6181E+01
     21.402  0.3981E-01  0.1678E+00  0.6233E+01  0.6217E+01
     21.620  0.1007E+00  0.6648E-01  0.6255E+01  0.6232E+01
     21.838  0.1393E+00  0.9312E-01  0.6285E+01  0.6252E+01
     22.056  0.1526E+00  0.1520E+00  0.6318E+01  0.6285E+01
     22.274  0.1632E+00  0.1463E+00  0.6354E+01  0.6317E+01
     22.491  0.1938E-01  0.1545E+00  0.6358E+01  0.6351E+01
     22.709  0.4655E-01  0.3381E-01  0.6368E+01  0.6358E+01
     22.927  0.3148E-01  0.4355E-01  0.6375E+01  0.6367E+01
     23.145  0.4003E-01  0.3468E-01  0.6384E+01  0.6375E+01
     23.363  0.2145E+00  0.4777E-01  0.6430E+01  0.6385E+01
     23.581  0.1351E+00  0.2205E+00  0.6460E+01  0.6433E+01
     23.798  0.4879E-01  0.1237E+00  0.6471E+01  0.6460E+01
     24.016  0.1834E+00  0.6095E-01  0.6510E+01  0.6474E+01
     24.234  0.5395E-01  0.1783E+00  0.6522E+01  0.6513E+01
     24.452  0.3426E+00  0.6854E-01  0.6597E+01  0.6527E+01
     24.670  0.2222E+00  0.3929E+00  0.6645E+01  0.6613E+01
     24.888  0.6577E-01  0.1542E+00  0.6660E+01  0.6647E+01
     25.105  0.2099E+00  0.9101E-01  0.6705E+01  0.6666E+01
     25.323  0.1534E+00  0.2186E+00  0.6739E+01  0.6714E+01
     25.541  0.1795E+00  0.1450E+00  0.6778E+01  0.6746E+01
     25.759  0.6695E-01  0.1737E+00  0.6792E+01  0.6783E+01
     25.977  0.9716E-02  0.3672E-01  0.6795E+01  0.6791E+01
     26.195  0.1838E+00  0.4801E-01  0.6835E+01  0.6802E+01
     26.413  0.1527E+00  0.1887E+00  0.6868E+01  0.6843E+01
     26.630  0.2797E+00  0.1963E+00  0.6929E+01  0.6886E+01
     26.848  0.3204E+00  0.3271E+00  0.6999E+01  0.6957E+01
     27.066  0.1641E+00  0.2623E+00  0.7034E+01  0.7014E+01
     27.284  0.1645E+00  0.1622E+00  0.7070E+01  0.7050E+01
     27.502  0.9981E-01  0.1370E+00  0.7092E+01  0.7079E+01
     27.720  0.3786E-01  0.7509E-01  0.7100E+01  0.7096E+01
     27.937  0.9269E-01  0.4908E-01  0.7120E+01  0.7106E+01
     28.155  0.2051E+00  0.1778E+00  0.7165E+01  0.7145E+01
     28.373  0.2414E+00  0.1750E+00  0.7218E+01  0.7183E+01
     28.591  0.4597E+00  0.3769E+00  0.7318E+01  0.7265E+01
     28.809  0.1829E+00  0.3600E+00  0.7358E+01  0.7344E+01
     29.027  0.1631E-01  0.7758E-01  0.7361E+01  0.7361E+01
     29.244  0.1734E+00  0.6867E-01  0.7399E+01  0.7376E+01
     29.462  0.2057E+00  0.2566E+00  0.7444E+01  0.7432E+01
     29.680  0.1106E+00  0.1121E+00  0.7468E+01  0.7456E+01
     29.898  0.2138E+00  0.1516E+00  0.7514E+01  0.7489E+01
     30.116  0.2871E+00  0.2564E+00  0.7577E+01  0.7545E+01
     30.334  0.3586E+00  0.3755E+00  0.7655E+01  0.7627E+01
     30.552  0.1436E+00  0.2353E+00  0.7686E+01  0.7678E+01
     30.769  0.9498E-01  0.8723E-01  0.7707E+01  0.7697E+01
     30.987  0.1352E+00  0.1486E+00  0.7736E+01  0.7729E+01
     31.205  0.1502E+00  0.1254E+00  0.7769E+01  0.7757E+01
     31.423  0.2076E+00  0.1557E+00  0.7814E+01  0.7791E+01
     31.641  0.1414E+00  0.2092E+00  0.7845E+01  0.7836E+01
     31.859  0.8719E-01  0.8856E-01  0.7864E+01  0.7855E+01
     32.076  0.7483E-01  0.7804E-01  0.7880E+01  0.7872E+01
     32.294  0.2207E+00  0.1585E+00  0.7929E+01  0.7907E+01
     32.512  0.4351E+00  0.3788E+00  0.8023E+01  0.7989E+01
     32.730  0.4083E+00  0.4736E+00  0.8112E+01  0.8093E+01
     32.948  0.1001E+00  0.1616E+00  0.8134E+01  0.8128E+01
     33.166  0.1149E+00  0.1062E+00  0.8159E+01  0.8151E+01
     33.383  0.1210E-01  0.4996E-01  0.8162E+01  0.8162E+01
     33.601  0.3875E-01  0.2252E-01  0.8170E+01  0.8167E+01
     33.819  0.1586E+00  0.1038E+00  0.8205E+01  0.8189E+01
     34.037  0.1162E+00  0.1756E+00  0.8230E+01  0.8228E+01
     34.255  0.4402E-01  0.5025E-01  0.8240E+01  0.8239E+01
     34.473  0.5207E-01  0.5258E-01  0.8251E+01  0.8250E+01
     34.690  0.2649E+00  0.1856E+00  0.8309E+01  0.8290E+01
     34.908  0.5023E+00  0.4562E+00  0.8418E+01  0.8390E+01
     35.126  0.7159E-01  0.1996E+00  0.8434E+01  0.8433E+01
     35.344  0.8286E-01  0.8225E-01  0.8452E+01  0.8451E+01
     35.562  0.1668E+00  0.1325E+00  0.8488E+01  0.8480E+01
     35.780  0.1283E+00  0.1274E+00  0.8516E+01  0.8508E+01
     35.998  0.2172E+00  0.2059E+00  0.8563E+01  0.8553E+01
     36.215  0.2846E+00  0.2886E+00  0.8625E+01  0.8616E+01
     36.433  0.1089E+00  0.1521E+00  0.8649E+01  0.8649E+01
     36.651  0.8397E-01  0.3826E-01  0.8667E+01  0.8657E+01
     36.869  0.1344E+00  0.1556E+00  0.8697E+01  0.8691E+01
     37.087  0.2469E+00  0.2263E+00  0.8750E+01  0.8740E+01
     37.305  0.1833E+00  0.2183E+00  0.8790E+01  0.8788E+01
     37.522  0.1645E+00  0.1216E+00  0.8826E+01  0.8814E+01
     37.740  0.3110E+00  0.2872E+00  0.8894E+01  0.8877E+01
     37.958  0.1822E+00  0.2316E+00  0.8934E+01  0.8927E+01
     38.176  0.3940E+00  0.3660E+00  0.9019E+01  0.9007E+01
     38.394  0.2406E+00  0.2515E+00  0.9072E+01  0.9062E+01
     38.612  0.1207E+00  0.1626E+00  0.9098E+01  0.9097E+01
     38.829  0.1182E+00  0.9899E-01  0.9124E+01  0.9119E+01
     39.047  0.2217E+00  0.1777E+00  0.9172E+01  0.9157E+01
     39.265  0.3260E+00  0.3204E+00  0.9243E+01  0.9227E+01
     39.483  0.1186E+00  0.1942E+00  0.9269E+01  0.9270E+01
     39.701  0.8074E-01  0.3976E-01  0.9287E+01  0.9278E+01
     39.919  0.1722E+00  0.1730E+00  0.9324E+01  0.9316E+01
     40.137  0.4253E+00  0.4093E+00  0.9417E+01  0.9405E+01
     40.354  0.3096E+00  0.3282E+00  0.9484E+01  0.9477E+01
     40.572  0.1752E+00  0.1800E+00  0.9522E+01  0.9516E+01
     40.790  0.3113E+00  0.2554E+00  0.9590E+01  0.9571E+01
     41.008  0.3037E+00  0.3336E+00  0.9656E+01  0.9644E+01
     41.226  0.1154E+00  0.1324E+00  0.9682E+01  0.9673E+01
     41.444  0.1262E+00  0.1206E+00  0.9709E+01  0.9699E+01
     41.661  0.2522E+00  0.2816E+00  0.9764E+01  0.9761E+01
     41.879  0.2681E+00  0.2524E+00  0.9822E+01  0.9816E+01
     42.097  0.1003E+00  0.8521E-01  0.9844E+01  0.9834E+01
     42.315  0.1913E+00  0.1846E+00  0.9886E+01  0.9874E+01
     42.533  0.1430E+00  0.1403E+00  0.9917E+01  0.9905E+01
     42.751  0.1406E+00  0.1672E+00  0.9948E+01  0.9941E+01
     42.968  0.8486E-01  0.1090E+00  0.9966E+01  0.9965E+01
     43.186  0.4557E-01  0.4479E-01  0.9976E+01  0.9975E+01
     43.404  0.4640E-01  0.2825E-01  0.9986E+01  0.9981E+01
     43.622  0.1360E+00  0.1367E+00  0.1002E+02  0.1001E+02
     43.840  0.2012E+00  0.2061E+00  0.1006E+02  0.1006E+02
     44.058  0.1751E+00  0.1504E+00  0.1010E+02  0.1009E+02
     44.276  0.9429E-01  0.1319E+00  0.1012E+02  0.1012E+02
     44.493  0.5150E-01  0.6685E-01  0.1013E+02  0.1013E+02
     44.711  0.1524E+00  0.9041E-01  0.1016E+02  0.1015E+02
     44.929  0.2366E+00  0.2383E+00  0.1021E+02  0.1020E+02
     45.147  0.1428E+00  0.1438E+00  0.1025E+02  0.1023E+02
     45.365  0.1406E+00  0.1225E+00  0.1028E+02  0.1026E+02
     45.583  0.2267E+00  0.1925E+00  0.1033E+02  0.1030E+02
     45.800  0.2421E+00  0.2872E+00  0.1038E+02  0.1037E+02
     46.018  0.5607E+00  0.4974E+00  0.1050E+02  0.1047E+02
     46.236  0.5969E+00  0.6917E+00  0.1063E+02  0.1062E+02
     46.454  0.2092E+00  0.2104E+00  0.1068E+02  0.1067E+02
     46.672  0.2592E+00  0.2309E+00  0.1073E+02  0.1072E+02
     46.890  0.2548E+00  0.2481E+00  0.1079E+02  0.1078E+02
     47.107  0.8085E-01  0.1070E+00  0.1081E+02  0.1080E+02
     47.325  0.2294E+00  0.1653E+00  0.1086E+02  0.1083E+02
     47.543  0.1270E+00  0.2077E+00  0.1088E+02  0.1088E+02
     47.761  0.7988E-01  0.9013E-01  0.1090E+02  0.1090E+02
     47.979  0.2101E+00  0.2122E+00  0.1095E+02  0.1095E+02
     48.197  0.4362E-01  0.4552E-01  0.1096E+02  0.1096E+02
     48.414  0.1895E+00  0.1421E+00  0.1100E+02  0.1099E+02
     48.632  0.4064E+00  0.4407E+00  0.1109E+02  0.1108E+02
     48.850  0.1562E+00  0.1680E+00  0.1112E+02  0.1112E+02
     49.068  0.1216E-02  0.5439E-02  0.1112E+02  0.1112E+02
     49.286  0.3493E-01  0.3960E-01  0.1113E+02  0.1113E+02
     49.504  0.2148E+00  0.1827E+00  0.1117E+02  0.1117E+02
     49.722  0.1075E+00  0.1112E+00  0.1120E+02  0.1119E+02
     49.939  0.2413E+00  0.2474E+00  0.1125E+02  0.1125E+02
     50.157  0.2383E+00  0.1696E+00  0.1130E+02  0.1128E+02
     50.375  0.2196E+00  0.2520E+00  0.1135E+02  0.1134E+02
     50.593  0.2097E+00  0.2111E+00  0.1140E+02  0.1138E+02
     50.811  0.3133E+00  0.2876E+00  0.1146E+02  0.1145E+02
     51.029  0.1606E+00  0.2459E+00  0.1150E+02  0.1150E+02
     51.246  0.5359E-01  0.5159E-01  0.1151E+02  0.1151E+02
     51.464  0.8984E-01  0.5277E-01  0.1153E+02  0.1152E+02
     51.682  0.8220E-01  0.1193E+00  0.1155E+02  0.1155E+02
     51.900  0.1587E+00  0.1312E+00  0.1158E+02  0.1158E+02
     52.118  0.3646E+00  0.2950E+00  0.1166E+02  0.1164E+02
     52.336  0.1532E+00  0.2083E+00  0.1170E+02  0.1169E+02
     52.553 -0.2956E-02  0.4079E-01  0.1169E+02  0.1170E+02
     52.771  0.7858E-02  0.1694E-02  0.1170E+02  0.1170E+02
     52.989  0.5479E-01  0.4283E-01  0.1171E+02  0.1171E+02
     53.207  0.2036E+00  0.1817E+00  0.1175E+02  0.1175E+02
     53.425  0.1624E+00  0.1875E+00  0.1179E+02  0.1179E+02
     53.643  0.2334E-02  0.1031E-01  0.1179E+02  0.1179E+02
     53.861 -0.2433E-02 -0.3489E-02  0.1179E+02  0.1179E+02
     54.078 -0.1945E-02 -0.2603E-02  0.1179E+02  0.1179E+02
     54.296  0.1081E-02  0.8621E-02  0.1179E+02  0.1179E+02
     54.514  0.1302E+00  0.1347E+00  0.1182E+02  0.1182E+02
     54.732  0.2373E+00  0.2001E+00  0.1187E+02  0.1186E+02
     54.950  0.1540E+00  0.1774E+00  0.1190E+02  0.1190E+02
     55.168  0.2131E-01  0.2417E-01  0.1191E+02  0.1191E+02
     55.385 -0.3777E-02 -0.4169E-02  0.1191E+02  0.1191E+02
     55.603 -0.1087E-03 -0.1289E-03  0.1191E+02  0.1191E+02
     55.821 -0.4439E-06 -0.1215E-05  0.1191E+02  0.1191E+02
     56.039 -0.1157E-03 -0.2751E-03  0.1191E+02  0.1191E+02
     56.257 -0.3099E-02 -0.3337E-02  0.1190E+02  0.1190E+02
     56.475  0.2736E-01  0.4367E-01  0.1191E+02  0.1191E+02
     56.692  0.7461E-01  0.6296E-01  0.1193E+02  0.1193E+02
     56.910  0.4783E-01  0.4377E-01  0.1194E+02  0.1194E+02
     57.128  0.5386E-01  0.5482E-01  0.1195E+02  0.1195E+02
     57.346  0.6238E-01  0.6207E-01  0.1196E+02  0.1196E+02
     57.564  0.7739E-02  0.6825E-02  0.1196E+02  0.1196E+02
     57.782 -0.1538E-02 -0.1456E-02  0.1196E+02  0.1196E+02
     57.999 -0.2480E-04 -0.2198E-04  0.1196E+02  0.1196E+02
     58.217 -0.3281E-07 -0.2806E-07  0.1196E+02  0.1196E+02
     58.435 -0.9493E-05 -0.8957E-05  0.1196E+02  0.1196E+02
     58.653 -0.9643E-03 -0.9356E-03  0.1196E+02  0.1196E+02
     58.871  0.2135E-02  0.1875E-02  0.1196E+02  0.1196E+02
     59.089  0.6051E-01  0.6011E-01  0.1198E+02  0.1198E+02
     59.307  0.2374E-01  0.2441E-01  0.1198E+02  0.1198E+02
     59.524 -0.3147E-02 -0.3164E-02  0.1198E+02  0.1198E+02
     59.742  0.2127E-02  0.2027E-02  0.1198E+02  0.1198E+02
     59.960  0.3155E-01  0.3147E-01  0.1199E+02  0.1199E+02
     60.178  0.9405E-02  0.9579E-02  0.1199E+02  0.1199E+02
     60.396 -0.1153E-02 -0.1163E-02  0.1199E+02  0.1199E+02
     60.614 -0.3597E-04 -0.3754E-04  0.1199E+02  0.1199E+02
     60.831 -0.9429E-04 -0.1563E-03  0.1199E+02  0.1199E+02
     61.049 -0.1276E-02 -0.8556E-03  0.1199E+02  0.1199E+02
     61.267  0.1571E-01  0.1756E-01  0.1199E+02  0.1199E+02
     61.485  0.2727E-01  0.2470E-01  0.1200E+02  0.1200E+02
     61.703  0.1441E-03  0.5142E-03  0.1200E+02  0.1200E+02
     61.921 -0.3603E-03 -0.3633E-03  0.1200E+02  0.1200E+02
     62.138 -0.3107E-05 -0.4068E-05  0.1200E+02  0.1200E+02
     62.356 -0.2023E-08 -0.3382E-08  0.1200E+02  0.1200E+02
     62.574 -0.1144E-12 -0.2393E-12  0.1200E+02  0.1200E+02
     62.792  0.0000E+00  0.0000E+00  0.1200E+02  0.1200E+02
     63.010  0.0000E+00  0.0000E+00  0.1200E+02  0.1200E+02
     63.228  0.0000E+00  0.0000E+00  0.1200E+02  0.1200E+02
     63.446  0.0000E+00  0.0000E+00  0.1200E+02  0.1200E+02
     63.663  0.0000E+00  0.0000E+00  0.1200E+02  0.1200E+02
     63.881  0.0000E+00  0.0000E+00  0.1200E+02  0.1200E+02
     64.099  0.0000E+00  0.0000E+00  0.1200E+02  0.1200E+02
     64.317  0.0000E+00  0.0000E+00  0.1200E+02  0.1200E+02
     64.31688598     -1.03545054  301     12.36524787      1.00000000
     -1.035  0.0000E+00  0.0000E+00  0.0000E+00  0.0000E+00  0.0000E+00  0.0000E+00  0.0000E+00  0.0000E+00  0.0000E+00  0.0000E+00  0.0000E+00  0.0000E+00  0.0000E+00  0.0000E+00  0.0000E+00  0.0000E+00  0.0000E+00  0.0000E+00
     -0.818  0.0000E+00  0.0000E+00  0.0000E+00  0.0000E+00  0.0000E+00  0.0000E+00  0.0000E+00  0.0000E+00  0.0000E+00  0.0000E+00  0.0000E+00  0.0000E+00  0.0000E+00  0.0000E+00  0.0000E+00  0.0000E+00  0.0000E+00  0.0000E+00
     -0.600  0.0000E+00  0.0000E+00  0.0000E+00  0.0000E+00  0.0000E+00  0.0000E+00  0.0000E+00  0.0000E+00  0.0000E+00  0.0000E+00  0.0000E+00  0.0000E+00  0.0000E+00  0.0000E+00  0.0000E+00  0.0000E+00  0.0000E+00  0.0000E+00
     -0.382  0.0000E+00  0.0000E+00  0.0000E+00  0.0000E+00  0.0000E+00  0.0000E+00  0.0000E+00  0.0000E+00  0.0000E+00  0.0000E+00  0.0000E+00  0.0000E+00  0.0000E+00  0.0000E+00  0.0000E+00  0.0000E+00  0.0000E+00  0.0000E+00
     -0.164  0.0000E+00  0.0000E+00  0.0000E+00  0.0000E+00  0.0000E+00  0.0000E+00  0.0000E+00  0.0000E+00  0.0000E+00  0.0000E+00  0.0000E+00  0.0000E+00  0.0000E+00  0.0000E+00  0.0000E+00  0.0000E+00  0.0000E+00  0.0000E+00
      0.054  0.0000E+00  0.0000E+00  0.0000E+00  0.0000E+00  0.0000E+00  0.0000E+00  0.0000E+00  0.0000E+00  0.0000E+00  0.0000E+00  0.0000E+00  0.0000E+00  0.0000E+00  0.0000E+00  0.0000E+00  0.0000E+00  0.0000E+00  0.0000E+00
      0.272 -0.9939E-33 -0.6651E-32 -0.1214E-46 -0.2375E-46 -0.1214E-46 -0.2375E-46 -0.1214E-46 -0.2375E-46 -0.2835E-43 -0.2066E-43 -0.2835E-43 -0.2066E-43 -0.6037E-49 -0.1025E-46 -0.2835E-43 -0.2066E-43 -0.6037E-49 -0.1025E-46
      0.489 -0.2506E-25 -0.1305E-24 -0.3062E-39 -0.4661E-39 -0.3062E-39 -0.4661E-39 -0.3062E-39 -0.4661E-39 -0.7150E-36 -0.4055E-36 -0.7150E-36 -0.4055E-36 -0.1522E-41 -0.2012E-39 -0.7150E-36 -0.4055E-36 -0.1522E-41 -0.2012E-39
      0.707 -0.5762E-19 -0.2334E-18 -0.1781E-31 -0.1017E-30 -0.1781E-31 -0.1017E-30 -0.1781E-31 -0.1017E-30 -0.1644E-29 -0.7276E-30 -0.1644E-29 -0.7276E-30 -0.3527E-35 -0.3599E-33 -0.1644E-29 -0.7276E-30 -0.3527E-35 -0.3599E-33
      0.925 -0.1153E-13 -0.3623E-13 -0.2137E-24 -0.9874E-24 -0.2137E-24 -0.9874E-24 -0.2137E-24 -0.9874E-24 -0.3351E-24 -0.1376E-24 -0.3351E-24 -0.1376E-24 -0.1976E-29 -0.6206E-28 -0.3351E-24 -0.1376E-24 -0.1976E-29 -0.6206E-28
      1.143 -0.2087E-09 -0.5073E-09 -0.2426E-18 -0.8474E-18 -0.2426E-18 -0.8474E-18 -0.2426E-18 -0.8474E-18 -0.1287E-19 -0.2303E-19 -0.1287E-19 -0.2303E-19 -0.5609E-23 -0.2220E-22 -0.1287E-19 -0.2303E-19 -0.5609E-23 -0.2220E-22
      1.361 -0.3172E-06 -0.5914E-06 -0.2382E-13 -0.6738E-13 -0.2382E-13 -0.6738E-13 -0.2382E-13 -0.6738E-13 -0.6874E-15 -0.1705E-14 -0.6874E-15 -0.1705E-14 -0.2152E-17 -0.6449E-17 -0.6874E-15 -0.1705E-14 -0.2152E-17 -0.6449E-17
      1.579 -0.3424E-04 -0.4703E-04 -0.2109E-09 -0.4648E-09 -0.2109E-09 -0.4648E-09 -0.2109E-09 -0.4648E-09 -0.5971E-11 -0.1167E-10 -0.5971E-11 -0.1167E-10 -0.7514E-13 -0.1760E-12 -0.5971E-11 -0.1167E-10 -0.7514E-13 -0.1760E-12
      1.796  0.4672E-04  0.1589E-03 -0.1555E-06 -0.2647E-06 -0.1555E-06 -0.2647E-06 -0.1555E-06 -0.2647E-06 -0.4294E-08 -0.6455E-08 -0.4294E-08 -0.6455E-08 -0.2244E-09 -0.4083E-09 -0.4294E-08 -0.6455E-08 -0.2244E-09 -0.4083E-09
      2.014  0.1613E-02  0.1611E-02 -0.7806E-05 -0.9708E-05 -0.7806E-05 -0.9708E-05 -0.7806E-05 -0.9708E-05 -0.1897E-06 -0.2023E-06 -0.1897E-06 -0.2023E-06 -0.5119E-07 -0.7071E-07 -0.1897E-06 -0.2023E-06 -0.5119E-07 -0.7071E-07
      2.232  0.4351E-02  0.6066E-02  0.3730E-04  0.6109E-04  0.3730E-04  0.6109E-04  0.3730E-04  0.6109E-04  0.1294E-05  0.1677E-05  0.1294E-05  0.1677E-05 -0.3556E-06 -0.2093E-06  0.1294E-05  0.1677E-05 -0.3556E-06 -0.2093E-06
      2.450  0.2824E-01  0.2923E-01  0.3661E-03  0.3835E-03  0.3661E-03  0.3835E-03  0.3661E-03  0.3835E-03  0.6184E-05  0.5287E-05  0.6184E-05  0.5287E-05  0.6473E-05  0.6993E-05  0.6184E-05  0.5287E-05  0.6473E-05  0.6993E-05
      2.668  0.1097E-01  0.8234E-02  0.1448E-03  0.1063E-03  0.1448E-03  0.1063E-03  0.1448E-03  0.1063E-03 -0.1269E-05 -0.1479E-05 -0.1269E-05 -0.1479E-05  0.5974E-05  0.4522E-05 -0.1269E-05 -0.1479E-05  0.5974E-05  0.4522E-05
      2.886  0.1046E-01  0.1311E-01  0.3381E-03  0.4197E-03  0.3381E-03  0.4197E-03  0.3381E-03  0.4197E-03  0.2016E-04  0.2200E-04  0.2016E-04  0.2200E-04  0.5736E-05  0.6543E-05  0.2016E-04  0.2200E-04  0.5736E-05  0.6543E-05
      3.104  0.2304E-01  0.2248E-01  0.7192E-03  0.7220E-03  0.7192E-03  0.7220E-03  0.7192E-03  0.7220E-03  0.3878E-04  0.3410E-04  0.3878E-04  0.3410E-04  0.1647E-04  0.1898E-04  0.3878E-04  0.3410E-04  0.1647E-04  0.1898E-04
      3.321  0.5143E-01  0.5537E-01  0.2267E-02  0.2461E-02  0.2267E-02  0.2461E-02  0.2267E-02  0.2461E-02  0.1569E-03  0.1510E-03  0.1569E-03  0.1510E-03  0.1524E-03  0.1497E-03  0.1569E-03  0.1510E-03  0.1524E-03  0.1497E-03
      3.539  0.3857E-01  0.3325E-01  0.1723E-02  0.1495E-02  0.1723E-02  0.1495E-02  0.1723E-02  0.1495E-02  0.1741E-03  0.1360E-03  0.1741E-03  0.1360E-03  0.7123E-04  0.5076E-04  0.1741E-03  0.1360E-03  0.7123E-04  0.5076E-04
      3.757  0.1361E-02  0.1780E-02  0.1195E-03  0.1525E-03  0.1195E-03  0.1525E-03  0.1195E-03  0.1525E-03 -0.1033E-04 -0.1237E-04 -0.1033E-04 -0.1237E-04  0.5075E-04  0.5834E-04 -0.1033E-04 -0.1237E-04  0.5075E-04  0.5834E-04
      3.975  0.9821E-02  0.9922E-02  0.6298E-03  0.6390E-03  0.6298E-03  0.6390E-03  0.6298E-03  0.6390E-03 -0.1366E-04 -0.5770E-05 -0.1366E-04 -0.5770E-05  0.1773E-03  0.1547E-03 -0.1366E-04 -0.5770E-05  0.1773E-03  0.1547E-03
      4.193  0.5635E-01  0.5910E-01  0.4347E-02  0.4612E-02  0.4347E-02  0.4612E-02  0.4347E-02  0.4612E-02  0.8007E-03  0.7154E-03  0.8007E-03  0.7154E-03  0.3534E-03  0.3444E-03  0.8007E-03  0.7154E-03  0.3534E-03  0.3444E-03
      4.411  0.6213E-01  0.6005E-01  0.4969E-02  0.4838E-02  0.4969E-02  0.4838E-02  0.4969E-02  0.4838E-02  0.6807E-03  0.5594E-03  0.6807E-03  0.5594E-03  0.6578E-03  0.5830E-03  0.6807E-03  0.5594E-03  0.6578E-03  0.5830E-03
      4.628  0.2627E-01  0.2414E-01  0.2439E-02  0.2288E-02  0.2439E-02  0.2288E-02  0.2439E-02  0.2288E-02  0.8202E-03  0.6311E-03  0.8202E-03  0.6311E-03  0.2355E-03  0.1959E-03  0.8202E-03  0.6311E-03  0.2355E-03  0.1959E-03
      4.846  0.4831E-01  0.4712E-01  0.4745E-02  0.4692E-02  0.4745E-02  0.4692E-02  0.4745E-02  0.4692E-02  0.1617E-02  0.1256E-02  0.1617E-02  0.1256E-02  0.9278E-03  0.7773E-03  0.1617E-02  0.1256E-02  0.9278E-03  0.7773E-03
      5.064  0.4714E-01  0.5052E-01  0.5201E-02  0.5618E-02  0.5201E-02  0.5618E-02  0.5201E-02  0.5618E-02  0.9520E-03  0.9162E-03  0.9520E-03  0.9162E-03  0.2279E-02  0.2049E-02  0.9520E-03  0.9162E-03  0.2279E-02  0.2049E-02
      5.282  0.1295E-02  0.2995E-02  0.1288E-03  0.3218E-03  0.1288E-03  0.3218E-03  0.1288E-03  0.3218E-03 -0.1697E-03 -0.4532E-04 -0.1697E-03 -0.4532E-04  0.8642E-04  0.1586E-03 -0.1697E-03 -0.4532E-04  0.8642E-04  0.1586E-03
      5.500  0.3202E-01  0.1756E-01  0.4401E-02  0.2479E-02  0.4401E-02  0.2479E-02  0.4401E-02  0.2479E-02  0.2223E-02  0.7643E-03  0.2223E-02  0.7643E-03  0.8903E-03  0.2997E-03  0.2223E-02  0.7643E-03  0.8903E-03  0.2997E-03
      5.718  0.1127E+00  0.1073E+00  0.1571E-01  0.1535E-01  0.1571E-01  0.1535E-01  0.1571E-01  0.1535E-01  0.8842E-02  0.6802E-02  0.8842E-02  0.6802E-02  0.4827E-02  0.4084E-02  0.8842E-02  0.6802E-02  0.4827E-02  0.4084E-02
      5.935  0.5388E-01  0.5631E-01  0.7798E-02  0.8362E-02  0.7798E-02  0.8362E-02  0.7798E-02  0.8362E-02  0.6617E-02  0.3336E-02  0.6617E-02  0.3336E-02  0.4492E-02  0.3193E-02  0.6617E-02  0.3336E-02  0.4492E-02  0.3193E-02
      6.153  0.6113E-01  0.5612E-01  0.9098E-02  0.8813E-02  0.9098E-02  0.8813E-02  0.9098E-02  0.8813E-02  0.1023E-01  0.6887E-02  0.1023E-01  0.6887E-02  0.6197E-02  0.5696E-02  0.1023E-01  0.6887E-02  0.6197E-02  0.5696E-02
      6.371  0.4430E-01  0.5140E-01  0.7010E-02  0.8229E-02  0.7010E-02  0.8229E-02  0.7010E-02  0.8229E-02  0.1045E-01  0.7606E-02  0.1045E-01  0.7606E-02  0.1462E-01  0.5335E-02  0.1045E-01  0.7606E-02  0.1462E-01  0.5335E-02
      6.589  0.7238E-01  0.2595E-01  0.8096E-02  0.5128E-02  0.8096E-02  0.5128E-02  0.8096E-02  0.5128E-02  0.4371E-01  0.9944E-03  0.4371E-01  0.9944E-03  0.4671E-01  0.1266E-01  0.4371E-01  0.9944E-03  0.4671E-01  0.1266E-01
      6.807  0.1116E+00  0.6229E-01  0.1971E-01  0.8836E-02  0.1971E-01  0.8836E-02  0.1971E-01  0.8836E-02  0.4802E-01  0.2782E-01  0.4802E-01  0.2782E-01  0.8205E-01  0.2168E-01  0.4802E-01  0.2782E-01  0.8205E-01  0.2168E-01
      7.025  0.1113E+00  0.1455E+00  0.2387E-01  0.2633E-01  0.2387E-01  0.2633E-01  0.2387E-01  0.2633E-01  0.6151E-01  0.5585E-01  0.6151E-01  0.5585E-01  0.1068E+00  0.8235E-01  0.6151E-01  0.5585E-01  0.1068E+00  0.8235E-01
      7.243  0.5282E-01  0.8483E-01  0.1076E-01  0.1919E-01  0.1076E-01  0.1919E-01  0.1076E-01  0.1919E-01  0.8429E-01  0.2693E-01  0.8429E-01  0.2693E-01  0.9252E-01  0.8250E-01  0.8429E-01  0.2693E-01  0.9252E-01  0.8250E-01
      7.460  0.3000E-01  0.5941E-01  0.1110E-01  0.1169E-01  0.1110E-01  0.1169E-01  0.1110E-01  0.1169E-01  0.1133E+00  0.4815E-01  0.1133E+00  0.4815E-01  0.8976E-01  0.9742E-01  0.1133E+00  0.4815E-01  0.8976E-01  0.9742E-01
      7.678  0.5635E-01  0.3696E-01  0.2657E-01  0.8415E-02  0.2657E-01  0.8415E-02  0.2657E-01  0.8415E-02  0.1833E+00  0.5413E-01  0.1833E+00  0.5413E-01  0.1302E+00  0.6213E-01  0.1833E+00  0.5413E-01  0.1302E+00  0.6213E-01
      7.896  0.1682E-01  0.5594E-01  0.1951E-01  0.2373E-01  0.1951E-01  0.2373E-01  0.1951E-01  0.2373E-01  0.1460E+00  0.1078E+00  0.1460E+00  0.1078E+00  0.8013E-01  0.1260E+00  0.1460E+00  0.1078E+00  0.8013E-01  0.1260E+00
      8.114  0.5267E-02  0.3905E-01  0.1913E-01  0.2206E-01  0.1913E-01  0.2206E-01  0.1913E-01  0.2206E-01  0.1404E+00  0.1390E+00  0.1404E+00  0.1390E+00  0.7212E-01  0.1113E+00  0.1404E+00  0.1390E+00  0.7212E-01  0.1113E+00
      8.332  0.5347E-02  0.1228E-01  0.2315E-01  0.1843E-01  0.2315E-01  0.1843E-01  0.2315E-01  0.1843E-01  0.1367E+00  0.1558E+00  0.1367E+00  0.1558E+00  0.1206E+00  0.5296E-01  0.1367E+00  0.1558E+00  0.1206E+00  0.5296E-01
      8.550  0.1371E-02  0.5489E-02  0.1384E-01  0.2052E-01  0.1384E-01  0.2052E-01  0.1384E-01  0.2052E-01  0.9832E-01  0.1287E+00  0.9832E-01  0.1287E+00  0.7594E-01  0.7334E-01  0.9832E-01  0.1287E+00  0.7594E-01  0.7334E-01
      8.767  0.6857E-02  0.6239E-02  0.2524E-01  0.2403E-01  0.2524E-01  0.2403E-01  0.2524E-01  0.2403E-01  0.1785E+00  0.1495E+00  0.1785E+00  0.1495E+00  0.9361E-01  0.1044E+00  0.1785E+00  0.1495E+00  0.9361E-01  0.1044E+00
      8.985  0.1352E-01  0.1502E-02  0.3172E-01  0.1432E-01  0.3172E-01  0.1432E-01  0.3172E-01  0.1432E-01  0.2077E+00  0.1011E+00  0.2077E+00  0.1011E+00  0.1053E+00  0.5779E-01  0.2077E+00  0.1011E+00  0.1053E+00  0.5779E-01
      9.203  0.1254E-01  0.2958E-02  0.2394E-01  0.2251E-01  0.2394E-01  0.2251E-01  0.2394E-01  0.2251E-01  0.1866E+00  0.1314E+00  0.1866E+00  0.1314E+00  0.9406E-01  0.8826E-01  0.1866E+00  0.1314E+00  0.9406E-01  0.8826E-01
      9.421  0.1435E-01  0.1078E-01  0.2659E-01  0.3743E-01  0.2659E-01  0.3743E-01  0.2659E-01  0.3743E-01  0.2143E+00  0.2241E+00  0.2143E+00  0.2241E+00  0.1488E+00  0.9577E-01  0.2143E+00  0.2241E+00  0.1488E+00  0.9577E-01
      9.639  0.8672E-02  0.8594E-02  0.2468E-01  0.2037E-01  0.2468E-01  0.2037E-01  0.2468E-01  0.2037E-01  0.2444E+00  0.1589E+00  0.2444E+00  0.1589E+00  0.1844E+00  0.5230E-01  0.2444E+00  0.1589E+00  0.1844E+00  0.5230E-01
      9.857  0.1566E-01  0.1454E-01  0.2856E-01  0.3104E-01  0.2856E-01  0.3104E-01  0.2856E-01  0.3104E-01  0.2795E+00  0.2121E+00  0.2795E+00  0.2121E+00  0.1668E+00  0.1418E+00  0.2795E+00  0.2121E+00  0.1668E+00  0.1418E+00