    1    1    1    2
  0.8984250E+01  0.2333452E-09  0.2333452E-09  0.2333452E-09  0.5000000E-15
  1.000000000000000E-004
  CAR 
 fcc Ni                                  
     10     56     12
 
  0.0000000E+00  0.0000000E+00  0.0000000E+00  0.7513148E-03
      1          1.957934        1.935110   1.000000   1.000000
      2          9.420400       10.077572   1.000000   1.000000
      3          9.420401       10.077572   1.000000   1.000000
      4          9.420406       10.077584   1.000000   1.000000
      5         10.939233       11.514931   1.000000   1.000000
      6         10.939233       11.514931   1.000000   1.000000
      7         37.732798       37.609462   0.000000   0.000000
      8         43.136541       43.106151   0.000000   0.000000
      9         43.136783       43.106325   0.000000   0.000000
     10         43.136784       43.106326   0.000000   0.000000
     11         47.321278       47.400020   0.000000   0.000000
     12         47.321343       47.400099   0.000000   0.000000
 
  0.9090909E-01 -0.6757298E-18 -0.6757298E-18  0.6010518E-02
      1          2.329596        2.307455   1.000000   1.000000
      2          9.308861        9.954461   1.000000   1.000000
      3          9.511879       10.171307   1.000000   1.000000
      4          9.511885       10.171308   1.000000   1.000000
      5         10.895984       11.470282   1.000000   1.000000
      6         10.895999       11.470298   1.000000   1.000000
      7         36.894039       36.845463   0.000000   0.000000
      8         40.092219       40.048026   0.000000   0.000000
      9         42.689043       42.694005   0.000000   0.000000
     10         42.689307       42.694210   0.000000   0.000000
     11         47.800271       47.781451   0.000000   0.000000
     12         48.008182       48.047948   0.000000   0.000000
 
  0.1818182E+00  0.1807744E-16  0.4199656E-17  0.6010518E-02
      1          3.383813        3.368489   1.000000   1.000000
      2          9.065595        9.674759   1.000000   1.000000
      3          9.677573       10.329104   1.000000   1.000000
      4          9.677633       10.329163   1.000000   1.000000
      5         10.877170       11.462687   1.000000   1.000000
      6         10.877232       11.462760   1.000000   1.000000
      7         32.659615       32.744905   0.000000   0.000000
      8         38.747499       38.646846   0.000000   0.000000
      9         41.874817       41.930061   0.000000   0.000000
     10         41.875198       41.930387   0.000000   0.000000
     11         47.567909       47.540414   0.000000   0.000000
     12         48.419179       48.423140   0.000000   0.000000
 
  0.2727273E+00  0.5952539E-17  0.5952539E-17  0.6010518E-02
      1          4.855750        4.886890   1.000000   1.000000
      2          9.013910        9.529435   1.000000   1.000000
      3          9.680079       10.292647   1.000000   1.000000
      4          9.680158       10.292728   1.000000   1.000000
      5         11.114655       11.745348   1.000000   1.000053
      6         11.114774       11.745478   1.000000   1.000053
      7         27.760551       27.917048   0.000000   0.000000
      8         37.820721       37.716811   0.000000   0.000000
      9         41.292398       41.375419   0.000000   0.000000
     10         41.292652       41.375667   0.000000   0.000000
     11         46.718762       46.746416   0.000000   0.000000
     12         46.718809       46.746463   0.000000   0.000000
 
  0.3636364E+00  0.1672598E-16 -0.1102959E-16  0.6010518E-02
      1          6.009320        6.216813   1.000000   1.000000
      2          9.529038       10.082375   1.000000   1.000000
      3          9.529129       10.111085   1.000000   1.000000
      4          9.815036       10.111174   1.000000   1.000000
      5         11.519795       12.191023   1.000000   1.006073
      6         11.519949       12.191185   1.000000   1.005914
      7         23.311436       23.553113   0.000000   0.000000
      8         36.816652       36.704956   0.000000   0.000000
      9         40.851748       40.944195   0.000000   0.000000
     10         40.851870       40.944369   0.000000   0.000000
     11         44.810729       44.849550   0.000000   0.000000
     12         44.811147       44.849881   0.000000   0.000000
 
  0.4545455E+00  0.1131632E-17  0.1131632E-17  0.6010518E-02
      1          6.359524        6.718766   1.000000   1.000000
      2          9.411178        9.979623   1.000000   1.000000
      3          9.411270        9.979713   1.000000   1.000000
      4         11.389645       11.395558   1.000000   1.000000
      5         11.810543       12.502907   1.000313   0.044279
      6         11.810706       12.503079   1.000314   0.043969
      7         20.112806       20.469886   0.000000   0.000000
      8         36.209628       36.091168   0.000000   0.000000
      9         40.620180       40.707121   0.000000   0.000000
     10         40.620222       40.707194   0.000000   0.000000
     11         43.789457       43.835094   0.000000   0.000000
     12         43.790166       43.835635   0.000000   0.000000
 
  0.9090909E-01  0.9090909E-01  0.4992751E-17  0.4507889E-02
      1          2.452315        2.430299   1.000000   1.000000
      2          9.212807        9.856425   1.000000   1.000000
      3          9.579383       10.240390   1.000000   1.000000
      4          9.579387       10.240398   1.000000   1.000000
      5         10.741996       11.308126   1.000000   1.000000
      6         11.007768       11.586072   1.000000   1.000000
      7         37.234332       37.161801   0.000000   0.000000
      8         40.732727       40.774303   0.000000   0.000000
      9         40.732844       40.774394   0.000000   0.000000
     10         40.961930       40.903342   0.000000   0.000000
     11         48.944343       48.985975   0.000000   0.000000
     12         49.358159       49.355619   0.000000   0.000000
 
  0.1818182E+00  0.9090909E-01 -0.8492021E-18  0.1803156E-01
      1          3.277733        3.259653   1.000000   1.000000
      2          8.968652        9.589959   1.000000   1.000000
      3          9.753919       10.408410   1.000000   1.000000
      4          9.770246       10.430262   1.000000   1.000000
      5         10.601217       11.166320   1.000000   1.000000
      6         11.077231       11.663180   1.000000   1.000004
      7         34.559577       34.613210   0.000000   0.000000
      8         38.096739       38.042921   0.000000   0.000000
      9         39.196196       39.263254   0.000000   0.000000
     10         42.183544       42.157564   0.000000   0.000000
     11         47.301011       47.372604   0.000000   0.000000
     12         50.124675       50.273336   0.000000   0.000000
 
  0.2727273E+00  0.9090909E-01  0.4199656E-17  0.1803156E-01
      1          4.633378        4.641345   1.000000   1.000000
      2          8.767279        9.337664   1.000000   1.000000
      3          9.703374       10.301945   1.000000   1.000000
      4          9.857189       10.489725   1.000000   1.000000
      5         10.862826       11.472804   1.000000   1.000000
      6         11.274357       11.896262   1.000000   1.002251
      7         29.599469       29.727864   0.000000   0.000000
      8         37.146863       37.092965   0.000000   0.000000
      9         38.139419       38.221987   0.000000   0.000000
     10         42.532242       42.574185   0.000000   0.000000
     11         45.989153       46.017807   0.000000   0.000000
     12         49.438564       49.509421   0.000000   0.000000
 
  0.3636364E+00  0.9090909E-01  0.5660646E-16  0.1803156E-01
      1          5.969464        6.107322   1.000000   1.000000
      2          9.028814        9.450946   1.000000   1.000000
      3          9.465826       10.040109   1.000000   1.000000
      4          9.754718       10.352710   1.000000   1.000000
      5         11.604476       12.208467   1.000001   0.985815
      6         11.611950       12.277368   1.000001   0.835021
      7         24.905912       25.107504   0.000000   0.000000
      8         36.169302       36.110193   0.000000   0.000000
      9         37.659357       37.745238   0.000000   0.000000
     10         40.801388       40.897490   0.000000   0.000000
     11         46.121203       46.123405   0.000000   0.000000
     12         48.359450       48.380383   0.000000   0.000000
 
  0.4545455E+00  0.9090909E-01  0.3615489E-16  0.1803156E-01
      1          6.528603        6.864746   1.000000   1.000000
      2          9.237685        9.733062   1.000000   1.000000
      3          9.611871       10.188672   1.000000   1.000000
      4         10.014653       10.374588   1.000000   1.000000
      5         11.846300       12.537788   1.000751  -0.004395
      6         12.754233       13.219363  -0.009513  -0.000000
      7         21.075510       21.378343   0.000000   0.000000
      8         35.302358       35.248156   0.000000   0.000000
      9         37.868865       37.951444   0.000000   0.000000
     10         39.222569       39.303090   0.000000   0.000000
     11         46.099100       46.112988   0.000000   0.000000
     12         46.809303       46.846384   0.000000   0.000000
 
 -0.4545455E+00  0.9090909E-01 -0.1190508E-16  0.1803156E-01
      1          6.605092        6.989322   1.000000   1.000000
      2          9.210975        9.727037   1.000000   1.000000
      3          9.552927       10.121319   1.000000   1.000000
      4         10.434213       10.773510   1.000000   1.000000
      5         11.794352       12.489898   1.000206   0.069824
      6         13.469767       13.828662  -0.000000  -0.000000
      7         19.701929       20.073465   0.000000   0.000000
      8         34.728537       34.699984   0.000000   0.000000
      9         38.498524       38.541060   0.000000   0.000000
     10         38.911693       38.992785   0.000000   0.000000
     11         45.779673       45.823723   0.000000   0.000000
     12         46.292740       46.309618   0.000000   0.000000
 
 -0.3636364E+00  0.9090909E-01  0.2561465E-18  0.1803156E-01
      1          6.439093        6.721693   1.000000   1.000000
      2          9.337429        9.846461   1.000000   1.000000
      3          9.618482       10.110250   1.000000   1.000000
      4          9.759878       10.191781   1.000000   1.000000
      5         11.440575       12.119807   1.000000   1.035457
      6         12.575107       13.135573  -0.029515  -0.000000
      7         22.213711       22.479460   0.000000   0.000000
      8         34.531343       34.537154   0.000000   0.000000
      9         38.805203       38.812676   0.000000   0.000000
     10         40.801500       40.886629   0.000000   0.000000
     11         45.084851       45.136387   0.000000   0.000000
     12         46.382701       46.394222   0.000000   0.000000
 
 -0.2727273E+00  0.9090909E-01  0.1102959E-16  0.1803156E-01
      1          5.598061        5.672336   1.000000   1.000000
      2          8.920248        9.409722   1.000000   1.000000
      3          9.554203       10.132733   1.000000   1.000000
      4          9.780124       10.376437   1.000000   1.000000
      5         10.940435       11.584000   1.000000   1.000000
      6         11.796333       12.430403   1.000217   0.239854
      7         26.419039       26.595629   0.000000   0.000000
      8         34.762321       34.791114   0.000000   0.000000
      9         40.019051       40.007186   0.000000   0.000000
     10         43.385761       43.460066   0.000000   0.000000
     11         44.870673       44.933305   0.000000   0.000000
     12         45.810654       45.795757   0.000000   0.000000
 
 -0.1818182E+00  0.9090909E-01 -0.5952539E-17  0.1803156E-01
      1          4.147996        4.141747   1.000000   1.000000
      2          8.866076        9.459593   1.000000   1.000000
      3          9.709145       10.326454   1.000000   1.000000
      4          9.851556       10.504442   1.000000   1.000000
      5         10.609336       11.188293   1.000000   1.000000
      6         11.271650       11.886576   1.000000   1.001840
      7         31.247195       31.354658   0.000000   0.000000
      8         35.412435       35.443289   0.000000   0.000000
      9         41.567648       41.536555   0.000000   0.000000
     10         44.734506       44.710833   0.000000   0.000000
     11         44.740740       44.733675   0.000000   0.000000
     12         46.630868       46.732370   0.000000   0.000000
 
 -0.9090909E-01  0.9090909E-01  0.1351460E-17  0.9015778E-02
      1          2.930304        2.910291   1.000000   1.000000
      2          9.116393        9.746648   1.000000   1.000000
      3          9.649785       10.307618   1.000000   1.000000
      4          9.655985       10.315912   1.000000   1.000000
      5         10.703313       11.267702   1.000000   1.000000
      6         11.007082       11.592141   1.000000   1.000000
      7         35.586341       35.608100   0.000000   0.000000
      8         37.083532       37.101809   0.000000   0.000000
      9         41.674313       41.634289   0.000000   0.000000
     10         44.412775       44.381437   0.000000   0.000000
     11         45.688326       45.686527   0.000000   0.000000
     12         47.560705       47.633777   0.000000   0.000000
 
  0.1818182E+00  0.1818182E+00 -0.5973954E-17  0.4507889E-02
      1          3.833746        3.819543   1.000000   1.000000
      2          8.675700        9.285922   1.000000   1.000000
      3         10.036058       10.710062   1.000000   1.000000
      4         10.036061       10.710069   1.000000   1.000000
      5         10.302040       10.832517   1.000000   1.000000
      6         11.203011       11.787353   1.000000   1.000171
      7         36.391455       36.400906   0.000000   0.000000
      8         37.006682       37.083482   0.000000   0.000000
      9         37.006781       37.083568   0.000000   0.000000
     10         37.614868       37.565656   0.000000   0.000000
     11         45.898193       46.119006   0.000000   0.000000
     12         52.621033       52.570517   0.000000   0.000000
 
  0.2727273E+00  0.1818182E+00 -0.6757298E-18  0.1803156E-01
      1          4.928735        4.936850   1.000000   1.000000
      2          8.377421        8.963509   1.000000   1.000000
      3          9.829827       10.383428   1.000000   1.000000
      4         10.260428       10.923730   1.000000   1.000000
      5         10.738251       11.359994   1.000000   1.000000
      6         11.378347       11.986415   1.000000   1.011083
      7         31.869017       31.965361   0.000000   0.000000
      8         35.501215       35.581670   0.000000   0.000000
      9         35.858602       35.854585   0.000000   0.000000
     10         38.450202       38.494531   0.000000   0.000000
     11         44.653249       44.836713   0.000000   0.000000
     12         52.072408       52.031351   0.000000   0.000000
 
  0.3636364E+00  0.1818182E+00  0.2640412E-16  0.1803156E-01
      1          6.196739        6.294251   1.000000   1.000000
      2          8.275913        8.803060   1.000000   1.000000
      3          9.450779        9.986274   1.000000   1.000000
      4         10.251432       10.875858   1.000000   1.000000
      5         11.683011       12.340553   1.000008   0.603614
      6         11.831040       12.403658   1.000521   0.340749
      7         27.014027       27.167505   0.000000   0.000000
      8         34.211292       34.235818   0.000000   0.000000
      9         34.745791       34.824472   0.000000   0.000000
     10         38.299484       38.380063   0.000000   0.000000
     11         46.926829       47.035503   0.000000   0.000000
     12         51.132833       51.100728   0.000000   0.000000
 
  0.4545455E+00  0.1818182E+00  0.5952539E-17  0.1803156E-01
      1          6.943243        7.250929   1.000000   1.000000
      2          8.519174        8.919402   1.000000   1.000000
      3          9.330248        9.861378   1.000000   1.000000
      4         10.110365       10.705389   1.000000   1.000000
      5         11.888668       12.580368   1.001923  -0.031298
      6         13.560022       14.001570  -0.000000  -0.000000
      7         22.688806       22.916223   0.000000   0.000000
      8         32.485151       32.540407   0.000000   0.000000
      9         34.800714       34.878134   0.000000   0.000000
     10         37.700462       37.764560   0.000000   0.000000
     11         49.864410       49.862768   0.000000   0.000000
     12         50.687520       50.706440   0.000000   0.000000
 
 -0.4545455E+00  0.1818182E+00  0.3689274E-17  0.1803156E-01
      1          7.145031        7.561328   1.000000   1.000000
      2          8.648857        9.039140   1.000000   1.000000
      3          9.552759       10.047969   1.000000   1.000000
      4          9.995818       10.572928   1.000000   1.000000
      5         11.804017       12.506121   1.000265   0.038612
      6         15.382237       15.674497  -0.000000  -0.000000
      7         19.870101       20.202830   0.000000   0.000000
      8         31.102062       31.179932   0.000000   0.000000
      9         35.795546       35.875077   0.000000   0.000000
     10         37.542463       37.573239   0.000000   0.000000
     11         49.423613       49.439160   0.000000   0.000000
     12         49.453254       49.454075   0.000000   0.000000
 
 -0.3636364E+00  0.1818182E+00 -0.1190508E-16  0.1803156E-01
      1          7.152636        7.512864   1.000000   1.000000
      2          8.828642        9.242838   1.000000   1.000000
      3          9.309370        9.787026   1.000000   1.000000
      4          9.982932       10.551732   1.000000   1.000000
      5         11.408667       12.103023   1.000000   1.034438
      6         14.510815       14.925957  -0.000000  -0.000000
      7         21.528278       21.798285   0.000000   0.000000
      8         30.254071       30.347600   0.000000   0.000000
      9         37.654946       37.740373   0.000000   0.000000
     10         38.056772       38.060045   0.000000   0.000000
     11         48.500533       48.471881   0.000000   0.000000
     12         48.645658       48.685970   0.000000   0.000000
 
 -0.2727273E+00  0.1818182E+00 -0.1131632E-17  0.1803156E-01
      1          6.690305        6.835003   1.000000   1.000000
      2          8.682839        9.184739   1.000000   1.000000
      3          9.171723        9.696491   1.000000   1.000000
      4         10.098169       10.667157   1.000000   1.000000
      5         10.838168       11.515176   1.000000   1.000000
      6         12.989913       13.566418  -0.000046  -0.000000
      7         25.549702       25.737681   0.000000   0.000000
      8         30.039758       30.141659   0.000000   0.000000
      9         39.335351       39.325327   0.000000   0.000000
     10         40.206957       40.292085   0.000000   0.000000
     11         46.676071       46.620141   0.000000   0.000000
     12         48.420619       48.470607   0.000000   0.000000
 
 -0.1818182E+00  0.1818182E+00 -0.8399311E-17  0.9015778E-02
      1          5.420680        5.443224   1.000000   1.000000
      2          8.616487        9.193091   1.000000   1.000000
      3          9.522999       10.088368   1.000000   1.000000
      4         10.247988       10.888662   1.000000   1.000000
      5         10.344530       10.938629   1.000000   1.000000
      6         11.961217       12.589739   1.007486  -0.033612
      7         29.927236       30.075970   0.000000   0.000000
      8         30.773672       30.850836   0.000000   0.000000
      9         41.275614       41.265228   0.000000   0.000000
     10         43.058378       43.116968   0.000000   0.000000
     11         44.388767       44.319227   0.000000   0.000000
     12         48.597236       48.646470   0.000000   0.000000
 
  0.2727273E+00  0.2727273E+00 -0.9812030E-18  0.4507889E-02
      1          5.597997        5.646539   1.000000   1.000000
      2          8.007836        8.580730   1.000000   1.000000
      3         10.203798       10.627914   1.000000   1.000000
      4         10.722607       11.420471   1.000000   1.000000
      5         10.722610       11.420478   1.000000   1.000000
      6         11.465188       12.057665   1.000000   1.025934
      7         33.476392       33.508091   0.000000   0.000000
      8         33.545618       33.619459   0.000000   0.000000
      9         33.545715       33.619544   0.000000   0.000000
     10         35.658749       35.739486   0.000000   0.000000
     11         41.850948       42.035195   0.000000   0.000000
     12         56.533923       56.478155   0.000000   0.000000
 
  0.3636364E+00  0.2727273E+00  0.1771234E-16  0.1803156E-01
      1          6.373583        6.517012   1.000000   1.000000
      2          7.763705        8.316290   1.000000   1.000000
      3         10.084384       10.541405   1.000000   1.000000
      4         10.898343       11.563068   1.000000   1.000000
      5         11.702961       12.345743   1.000015   0.582100
      6         11.835781       12.397705   1.000585   0.364649
      7         29.385305       29.486073   0.000000   0.000000
      8         31.400253       31.492205   0.000000   0.000000
      9         32.389105       32.455141   0.000000   0.000000
     10         36.667991       36.752254   0.000000   0.000000
     11         42.282393       42.426856   0.000000   0.000000
     12         56.542155       56.506293   0.000000   0.000000
 
  0.4545455E+00  0.2727273E+00 -0.4820906E-17  0.1803156E-01
      1          6.984668        7.261209   1.000000   1.000000
      2          7.762159        8.267052   1.000000   1.000000
      3          9.781674       10.271660   1.000000   1.000000
      4         10.801631       11.422376   1.000000   1.000000
      5         11.923724       12.617090   1.003864  -0.035283
      6         13.946135       14.357114  -0.000000  -0.000000
      7         24.973934       25.126721   0.000000   0.000000
      8         29.202300       29.322120   0.000000   0.000000
      9         32.188401       32.250386   0.000000   0.000000
     10         36.971635       37.057900   0.000000   0.000000
     11         45.627126       45.731799   0.000000   0.000000
     12         54.798551       54.804891   0.000000   0.000000
 
 -0.4545455E+00  0.2727273E+00 -0.7084171E-17  0.1803156E-01
      1          7.395311        7.805648   1.000000   1.000000
      2          7.953199        8.363248   1.000000   1.000000
      3          9.492402       10.009554   1.000000   1.000000
      4         10.649728       11.239527   1.000000   1.000000
      5         11.842286       12.557099   1.000683  -0.020366
      6         16.680949       16.971515  -0.000000  -0.000000
      7         21.136180       21.362823   0.000000   0.000000
      8         27.481416       27.620264   0.000000   0.000000
      9         33.008125       33.075482   0.000000   0.000000
     10         37.059986       37.126290   0.000000   0.000000
     11         50.217794       50.294586   0.000000   0.000000
     12         53.299488       53.308154   0.000000   0.000000
 
 -0.3636364E+00  0.2727273E+00 -0.2267852E-16  0.1803156E-01
      1          7.731280        8.187433   1.000000   1.000000
      2          8.196825        8.545965   1.000000   1.000000
      3          9.102674        9.624903   1.000000   1.000000
      4         10.522350       11.084761   1.000000   1.000000
      5         11.461591       12.182989   1.000000   1.013305
      6         16.997073       17.295347  -0.000000  -0.000000
      7         21.026191       21.276966   0.000000   0.000000
      8         26.388154       26.536405   0.000000   0.000000
      9         34.760697       34.839967   0.000000   0.000000
     10         37.405737       37.445349   0.000000   0.000000
     11         51.859118       51.802833   0.000000   0.000000
     12         52.045384       52.058613   0.000000   0.000000
 
 -0.2727273E+00  0.2727273E+00 -0.1190508E-16  0.9015778E-02
      1          7.638577        7.904064   1.000000   1.000000
      2          8.643354        9.093152   1.000000   1.000000
      3          8.643799        9.177329   1.000000   1.000000
      4         10.398806       10.938761   1.000000   1.000000
      5         11.000674       11.722470   1.000000   1.000027
      6         14.716220       15.168705  -0.000000  -0.000000
      7         24.383753       24.588848   0.000000   0.000000
      8         26.474913       26.610862   0.000000   0.000000
      9         37.239875       37.327789   0.000000   0.000000
     10         38.209940       38.222590   0.000000   0.000000
     11         49.291726       49.219545   0.000000   0.000000
     12         50.864537       50.883528   0.000000   0.000000
 
  0.3636364E+00  0.3636364E+00  0.2690990E-16  0.4507889E-02
      1          6.456199        6.685429   1.000000   1.000000
      2          7.428068        7.971292   1.000000   1.000000
      3         11.466523       11.952673   1.000000   1.006490
      4         11.466525       12.198219   1.000000   0.998500
      5         11.711671       12.198226   1.000019   0.998492
      6         11.768353       12.311952   1.000102   0.716880
      7         28.445337       28.577751   0.000000   0.000000
      8         30.833880       30.883243   0.000000   0.000000
      9         30.833979       30.883329   0.000000   0.000000
     10         35.192317       35.321443   0.000000   0.000000
     11         40.214855       40.369413   0.000000   0.000000
     12         61.280006       61.241533   0.000000   0.000000
 
  0.4545455E+00  0.3636364E+00  0.3020235E-16  0.1803156E-01
      1          6.629468        6.921348   1.000000   1.000000
      2          7.315388        7.846179   1.000000   1.000000
      3         11.056807       11.606692   1.000000   1.000001
      4         11.492097       12.132822   1.000000   1.034801
      5         11.938703       12.642750   1.005087  -0.032219
      6         13.999346       14.284193  -0.000000  -0.000000
      7         26.118219       26.289618   0.000000   0.000000
      8         27.889655       27.977997   0.000000   0.000000
      9         30.267517       30.307617   0.000000   0.000000
     10         36.111057       36.222724   0.000000   0.000000
     11         41.327487       41.465889   0.000000   0.000000
     12         59.027752       59.029857   0.000000   0.000000
 
 -0.4545455E+00  0.3636364E+00 -0.1785762E-16  0.1803156E-01
      1          6.957961        7.297948   1.000000   1.000000
      2          7.460547        7.968331   1.000000   1.000000
      3         10.387649       10.926207   1.000000   1.000000
      4         11.322666       11.920303   1.000000   1.003621
      5         11.909190       12.648130   1.002919  -0.031233
      6         16.802184       17.038636  -0.000000  -0.000000
      7         23.468867       23.627546   0.000000   0.000000
      8         25.006570       25.187954   0.000000   0.000000
      9         30.812016       30.858517   0.000000   0.000000
     10         36.618600       36.720417   0.000000   0.000000
     11         45.067446       45.179786   0.000000   0.000000
     12         56.903310       56.900819   0.000000   0.000000
 
 -0.3636364E+00  0.3636364E+00  0.1234473E-16  0.9015778E-02
      1          7.432936        7.830408   1.000000   1.000000
      2          7.783268        8.232951   1.000000   1.000000
      3          9.625732       10.151654   1.000000   1.000000
      4         11.023949       11.586986   1.000000   1.000000
      5         11.647938       12.396722   1.000002   0.368635
      6         19.571845       19.790549   0.000000   0.000000
      7         20.036529       20.245043   0.000000   0.000000
      8         24.415130       24.614279   0.000000   0.000000
      9         32.380302       32.444339   0.000000   0.000000
     10         36.924939       37.002000   0.000000   0.000000
     11         50.116630       50.216462   0.000000   0.000000
     12         54.731801       54.728697   0.000000   0.000000
 
  0.4545455E+00  0.4545455E+00  0.1594319E-16  0.4507889E-02
      1          6.441730        6.752902   1.000000   1.000000
      2          7.097994        7.625278   1.000000   1.000000
      3         11.860713       12.465800   1.001046   0.128389
      4         11.982054       12.742866   1.010388  -0.011283
      5         11.982057       12.742873   1.010389  -0.011281
      6         14.406710       14.423628  -0.000000  -0.000000
      7         24.227280       24.458949   0.000000   0.000000
      8         29.308696       29.332097   0.000000   0.000000
      9         29.308797       29.332185   0.000000   0.000000
     10         34.979036       35.131783   0.000000   0.000000
     11         39.720752       39.875331   0.000000   0.000000
     12         61.330153       61.346325   0.000000   0.000000
 
 -0.4545455E+00  0.4545455E+00 -0.2263265E-17  0.9015778E-02
      1          6.559774        6.882919   1.000000   1.000000
      2          7.152749        7.676184   1.000000   1.000000
      3         11.465504       12.094806   1.000000   1.033366
      4         11.756505       12.355100   1.000073   0.542880
      5         12.009396       12.772944   1.015241  -0.007046
      6         15.813499       15.931563  -0.000000  -0.000000
      7         23.481508       23.734354   0.000000   0.000000
      8         27.148563       27.218052   0.000000   0.000000
      9         29.502738       29.529083   0.000000   0.000000
     10         35.945164       36.067843   0.000000   0.000000