       N       E                     dE             d eps       ncg     rms          rms(c)
DAV:   1     0.175053577028E+02    0.17505E+02   -0.28861E+03  3056   0.635E+02
DAV:   2    -0.573314258990E+01   -0.23239E+02   -0.21926E+02  2968   0.123E+02
DAV:   3    -0.613557085364E+01   -0.40243E+00   -0.40183E+00  2996   0.174E+01
DAV:   4    -0.613758221227E+01   -0.20114E-02   -0.20112E-02  3164   0.108E+00
DAV:   5    -0.613760385383E+01   -0.21642E-04   -0.21640E-04  2976   0.103E-01    0.123E+01
DAV:   6    -0.534209556770E+01    0.79551E+00   -0.94102E+00  3408   0.383E+01    0.465E+00
DAV:   7    -0.520182294909E+01    0.14027E+00   -0.97859E-01  3328   0.118E+01    0.271E+00
DAV:   8    -0.517938792254E+01    0.22435E-01   -0.23346E-02  3444   0.122E+00    0.803E-01
DAV:   9    -0.517852264994E+01    0.86527E-03   -0.39361E-04  3088   0.138E-01    0.235E-01
DAV:  10    -0.517828217195E+01    0.24048E-03   -0.22555E-04  2052   0.859E-02    0.577E-02
DAV:  11    -0.517828599690E+01   -0.38249E-05   -0.10897E-05  1460   0.356E-02
   1 F= -.51782860E+01 E0= -.51786607E+01  d E =0.112419E-02  mag=     0.5682
