 vasp.6.3.0 20Jan22 (build Feb 01 2022 16:52:37) complex                        
  
 executed on           TETRA_NSC1 date 2022.02.23  15:19:18
 running    4 mpi-ranks, with    1 threads/rank
 distrk:  each k-point on    4 cores,    1 groups
 distr:  one band on NCORE=   1 cores,    4 groups


--------------------------------------------------------------------------------------------------------


 INCAR:
   SYSTEM = fcc Ni
   ISTART = 0
   ICHARG = 2
   ENCUT = 270
   ISMEAR = 1
   SIGMA = 0.2
   LORBIT = 11
   ISPIN = 2
   MAGMOM = 1

 POTCAR:    PAW_PBE Ni 02Aug2007                  
 POTCAR:    PAW_PBE Ni 02Aug2007                  
   VRHFIN =Ni:                                                                                      
   LEXCH  = PE                                                                                      
   EATOM  =  1077.6739 eV,   79.2068 Ry                                                             
                                                                                                    
   TITEL  = PAW_PBE Ni 02Aug2007                                                                    
   LULTRA =        F    use ultrasoft PP ?                                                          
   IUNSCR =        1    unscreen: 0-lin 1-nonlin 2-no                                               
   RPACOR =    2.000    partial core radius                                                         
   POMASS =   58.690; ZVAL   =   10.000    mass and valenz                                          
   RCORE  =    2.300    outmost cutoff radius                                                       
   RWIGS  =    2.430; RWIGS  =    1.286    wigner-seitz radius (au A)                               
   ENMAX  =  269.532; ENMIN  =  202.149 eV                                                          
   RCLOC  =    1.201    cutoff for local pot                                                        
   LCOR   =        T    correct aug charges                                                         
   LPAW   =        T    paw PP                                                                      
   EAUG   =  544.565                                                                                
   DEXC   =    0.000                                                                                
   RMAX   =    2.357    core radius for proj-oper                                                   
   RAUG   =    1.300    factor for augmentation sphere                                              
   RDEP   =    2.390    radius for radial grids                                                     
   RDEPT  =    1.838    core radius for aug-charge                                                  
                                                                                                    
   Atomic configuration                                                                             
    9 entries                                                                                       
     n  l   j            E        occ.                                                              
     1  0  0.50     -8206.4253   2.0000                                                             
     2  0  0.50      -976.1748   2.0000                                                             
     2  1  1.50      -839.0571   6.0000                                                             
     3  0  0.50      -105.9991   2.0000                                                             
     3  1  1.50       -66.4603   6.0000                                                             
     3  2  2.50        -4.6458   9.0000                                                             
     4  0  0.50        -4.4926   1.0000                                                             
     4  1  1.50        -4.0817   0.0000                                                             
     4  3  2.50        -1.3606   0.0000                                                             
   Description                                                                                      
     l       E           TYP  RCUT    TYP  RCUT                                                     
     2     -4.6457903     23  2.300                                                                 
     2     -6.0063729     23  2.300                                                                 
     0     -4.4925590     23  2.300                                                                 
     0      5.0102601     23  2.300                                                                 
     1     -2.7211652     23  2.300                                                                 
     1     16.5183231     23  2.300                                                                 
  local pseudopotential read in
  partial core-charges read in
  partial kinetic energy density read in
  atomic valenz-charges read in
  non local Contribution for L=           2  read in
    real space projection operators read in
  non local Contribution for L=           2  read in
    real space projection operators read in
  non local Contribution for L=           0  read in
    real space projection operators read in
  non local Contribution for L=           0  read in
    real space projection operators read in
  non local Contribution for L=           1  read in
    real space projection operators read in
  non local Contribution for L=           1  read in
    real space projection operators read in
    PAW grid and wavefunctions read in
 
   number of l-projection  operators is LMAX  =           6
   number of lm-projection operators is LMMAX =          18
 
  PAW_PBE Ni 02Aug2007                  :
 energy of atom  1       EATOM=-1077.6739
 kinetic energy error for atom=    0.0378 (will be added to EATOM!!)
 
 
 POSCAR: fcc Ni
  positions in cartesian coordinates
  No initial velocities read in
 exchange correlation table for  LEXCH =        8
   RHO(1)=    0.500       N(1)  =     2000
   RHO(2)=  100.500       N(2)  =     4000
 


--------------------------------------------------------------------------------------------------------


 ion  position               nearest neighbor table
   1  0.000  0.000  0.000-
 
  LATTYP: Found a face centered cubic cell.
 ALAT       =     3.3000000000
  
  Lattice vectors:
  
 A1 = (   1.6500000000,   1.6500000000,   0.0000000000)
 A2 = (   0.0000000000,   1.6500000000,   1.6500000000)
 A3 = (   1.6500000000,   0.0000000000,   1.6500000000)


Analysis of symmetry for initial positions (statically):
=====================================================================
 Subroutine PRICEL returns:
 Original cell was already a primitive cell.
 

 Routine SETGRP: Setting up the symmetry group for a 
 face centered cubic supercell.


 Subroutine GETGRP returns: Found 48 space group operations
 (whereof 48 operations were pure point group operations)
 out of a pool of 48 trial point group operations.


The static configuration has the point symmetry O_h .


Analysis of symmetry for dynamics (positions and initial velocities):
=====================================================================
 Subroutine PRICEL returns:
 Original cell was already a primitive cell.
 

 Routine SETGRP: Setting up the symmetry group for a 
 face centered cubic supercell.


 Subroutine GETGRP returns: Found 48 space group operations
 (whereof 48 operations were pure point group operations)
 out of a pool of 48 trial point group operations.


The dynamic configuration has the point symmetry O_h .


Analysis of structural, dynamic, and magnetic symmetry:
=====================================================================
 Subroutine PRICEL returns:
 Original cell was already a primitive cell.
 

 Routine SETGRP: Setting up the symmetry group for a 
 face centered cubic supercell.


 Subroutine GETGRP returns: Found 48 space group operations
 (whereof 48 operations were pure point group operations)
 out of a pool of 48 trial point group operations.


The overall configuration has the point symmetry O_h .


 Subroutine INISYM returns: Found 48 space group operations
 (whereof 48 operations are pure point group operations),
 and found     1 'primitive' translations


----------------------------------------------------------------------------------------

                                     Primitive cell                                     

  volume of cell :       8.9842

  direct lattice vectors                    reciprocal lattice vectors
     1.650000000  1.650000000  0.000000000     0.303030303  0.303030303 -0.303030303
     0.000000000  1.650000000  1.650000000    -0.303030303  0.303030303  0.303030303
     1.650000000  0.000000000  1.650000000     0.303030303 -0.303030303  0.303030303

  length of vectors
     2.333452378  2.333452378  2.333452378     0.524863881  0.524863881  0.524863881

  position of ions in fractional coordinates (direct lattice)
     0.000000000  0.000000000  0.000000000

  ion indices of the primitive-cell ions
   primitive index   ion index
                 1           1

----------------------------------------------------------------------------------------

 
 
 KPOINTS: k-points                                

Automatic generation of k-mesh.
 Grid dimensions read from file:
 generate k-points for:   11   11   11

 Generating k-lattice:

  Cartesian coordinates                     Fractional coordinates (reciprocal lattice)
     0.027548209  0.027548209 -0.027548209     0.090909091  0.000000000  0.000000000
    -0.027548209  0.027548209  0.027548209     0.000000000  0.090909091 -0.000000000
     0.027548209 -0.027548209  0.027548209    -0.000000000 -0.000000000  0.090909091

  Length of vectors
     0.047714898  0.047714898  0.047714898

  Shift w.r.t. Gamma in fractional coordinates (k-lattice)
     0.000000000  0.000000000  0.000000000

 
 Subroutine IBZKPT returns following result:
 ===========================================
 
 Found     56 irreducible k-points:
 
 Following reciprocal coordinates:
            Coordinates               Weight
  0.000000  0.000000  0.000000      1.000000
  0.090909 -0.000000 -0.000000      8.000000
  0.181818  0.000000  0.000000      8.000000
  0.272727  0.000000  0.000000      8.000000
  0.363636  0.000000 -0.000000      8.000000
  0.454545  0.000000  0.000000      8.000000
  0.090909  0.090909  0.000000      6.000000
  0.181818  0.090909 -0.000000     24.000000
  0.272727  0.090909  0.000000     24.000000
  0.363636  0.090909  0.000000     24.000000
  0.454545  0.090909  0.000000     24.000000
 -0.454545  0.090909 -0.000000     24.000000
 -0.363636  0.090909  0.000000     24.000000
 -0.272727  0.090909  0.000000     24.000000
 -0.181818  0.090909 -0.000000     24.000000
 -0.090909  0.090909  0.000000     12.000000
  0.181818  0.181818 -0.000000      6.000000
  0.272727  0.181818 -0.000000     24.000000
  0.363636  0.181818  0.000000     24.000000
  0.454545  0.181818  0.000000     24.000000
 -0.454545  0.181818  0.000000     24.000000
 -0.363636  0.181818 -0.000000     24.000000
 -0.272727  0.181818 -0.000000     24.000000
 -0.181818  0.181818 -0.000000     12.000000
  0.272727  0.272727 -0.000000      6.000000
  0.363636  0.272727  0.000000     24.000000
  0.454545  0.272727 -0.000000     24.000000
 -0.454545  0.272727 -0.000000     24.000000
 -0.363636  0.272727 -0.000000     24.000000
 -0.272727  0.272727 -0.000000     12.000000
  0.363636  0.363636  0.000000      6.000000
  0.454545  0.363636  0.000000     24.000000
 -0.454545  0.363636 -0.000000     24.000000
 -0.363636  0.363636  0.000000     12.000000
  0.454545  0.454545  0.000000      6.000000
 -0.454545  0.454545 -0.000000     12.000000
  0.272727  0.181818  0.090909     24.000000
  0.363636  0.181818  0.090909     48.000000
  0.454545  0.181818  0.090909     48.000000
 -0.454545  0.181818  0.090909     48.000000
  0.363636  0.272727  0.090909     24.000000
  0.454545  0.272727  0.090909     48.000000
 -0.454545  0.272727  0.090909     48.000000
 -0.363636  0.272727  0.090909     48.000000
 -0.272727  0.272727  0.090909     48.000000
 -0.181818  0.272727  0.090909     24.000000
  0.454545  0.363636  0.090909     24.000000
 -0.454545  0.363636  0.090909     48.000000
 -0.363636  0.363636  0.090909     48.000000
 -0.272727  0.363636  0.090909     24.000000
 -0.454545  0.454545  0.090909     24.000000
 -0.363636  0.454545  0.090909     24.000000
 -0.454545  0.363636  0.181818     24.000000
 -0.363636  0.363636  0.181818     48.000000
 -0.363636  0.454545  0.181818     24.000000
 -0.272727  0.454545  0.181818     24.000000
 
 Following cartesian coordinates:
            Coordinates               Weight
  0.000000  0.000000  0.000000      1.000000
  0.090909  0.090909 -0.090909      8.000000
  0.181818  0.181818 -0.181818      8.000000
  0.272727  0.272727 -0.272727      8.000000
  0.363636  0.363636 -0.363636      8.000000
  0.454545  0.454545 -0.454545      8.000000
  0.000000  0.181818  0.000000      6.000000
  0.090909  0.272727 -0.090909     24.000000
  0.181818  0.363636 -0.181818     24.000000
  0.272727  0.454545 -0.272727     24.000000
  0.363636  0.545455 -0.363636     24.000000
 -0.545455 -0.363636  0.545455     24.000000
 -0.454545 -0.272727  0.454545     24.000000
 -0.363636 -0.181818  0.363636     24.000000
 -0.272727 -0.090909  0.272727     24.000000
 -0.181818  0.000000  0.181818     12.000000
 -0.000000  0.363636 -0.000000      6.000000
  0.090909  0.454545 -0.090909     24.000000
  0.181818  0.545455 -0.181818     24.000000
  0.272727  0.636364 -0.272727     24.000000
 -0.636364 -0.272727  0.636364     24.000000
 -0.545455 -0.181818  0.545455     24.000000
 -0.454545 -0.090909  0.454545     24.000000
 -0.363636  0.000000  0.363636     12.000000
 -0.000000  0.545455  0.000000      6.000000
  0.090909  0.636364 -0.090909     24.000000
  0.181818  0.727273 -0.181818     24.000000
 -0.727273 -0.181818  0.727273     24.000000
 -0.636364 -0.090909  0.636364     24.000000
 -0.545455  0.000000  0.545455     12.000000
  0.000000  0.727273  0.000000      6.000000
  0.090909  0.818182 -0.090909     24.000000
 -0.818182 -0.090909  0.818182     24.000000
 -0.727273  0.000000  0.727273     12.000000
  0.000000  0.909091  0.000000      6.000000
 -0.909091  0.000000  0.909091     12.000000
  0.181818  0.363636 -0.000000     24.000000
  0.272727  0.454545 -0.090909     48.000000
  0.363636  0.545455 -0.181818     48.000000
 -0.545455 -0.363636  0.727273     48.000000
  0.181818  0.545455 -0.000000     24.000000
  0.272727  0.636364 -0.090909     48.000000
 -0.636364 -0.272727  0.818182     48.000000
 -0.545455 -0.181818  0.727273     48.000000
 -0.454545 -0.090909  0.636364     48.000000
 -0.363636  0.000000  0.545455     24.000000
  0.181818  0.727273  0.000000     24.000000
 -0.727273 -0.181818  0.909091     48.000000
 -0.636364 -0.090909  0.818182     48.000000
 -0.545455  0.000000  0.727273     24.000000
 -0.818182 -0.090909  1.000000     24.000000
 -0.727273 -0.000000  0.909091     24.000000
 -0.636364 -0.272727  1.000000     24.000000
 -0.545455 -0.181818  0.909091     48.000000
 -0.636364 -0.090909  1.000000     24.000000
 -0.545455  0.000000  0.909091     24.000000
 


--------------------------------------------------------------------------------------------------------




 Dimension of arrays:
   k-points           NKPTS =     56   k-points in BZ     NKDIM =     56   number of bands    NBANDS=     12
   number of dos      NEDOS =    301   number of ions     NIONS =      1
   non local maximal  LDIM  =      6   non local SUM 2l+1 LMDIM =     18
   total plane-waves  NPLWV =   1000
   max r-space proj   IRMAX =      1   max aug-charges    IRDMAX=   3807
   dimension x,y,z NGX =    10 NGY =   10 NGZ =   10
   dimension x,y,z NGXF=    20 NGYF=   20 NGZF=   20
   support grid    NGXF=    20 NGYF=   20 NGZF=   20
   ions per type =               1
   NGX,Y,Z   is equivalent  to a cutoff of   7.12,  7.12,  7.12 a.u.
   NGXF,Y,Z  is equivalent  to a cutoff of  14.25, 14.25, 14.25 a.u.

 SYSTEM =  fcc Ni                                  
 POSCAR =  fcc Ni                                  

 Startparameter for this run:
   NWRITE =      2    write-flag & timer
   PREC   = normal    normal or accurate (medium, high low for compatibility)
   ISTART =      0    job   : 0-new  1-cont  2-samecut
   ICHARG =      2    charge: 1-file 2-atom 10-const
   ISPIN  =      2    spin polarized calculation?
   LNONCOLLINEAR =      F non collinear calculations
   LSORBIT =      F    spin-orbit coupling
   INIWAV =      1    electr: 0-lowe 1-rand  2-diag
   LASPH  =      F    aspherical Exc in radial PAW
 Electronic Relaxation 1
   ENCUT  =  270.0 eV  19.84 Ry    4.45 a.u.   3.13  3.13  3.13*2*pi/ulx,y,z
   ENINI  =  270.0     initial cutoff
   ENAUG  =  544.6 eV  augmentation charge cutoff
   NELM   =     60;   NELMIN=  2; NELMDL= -5     # of ELM steps 
   EDIFF  = 0.1E-03   stopping-criterion for ELM
   LREAL  =      F    real-space projection
   NLSPLINE    = F    spline interpolate recip. space projectors
   LCOMPAT=      F    compatible to vasp.4.4
   GGA_COMPAT  = T    GGA compatible to vasp.4.4-vasp.4.6
   LMAXPAW     = -100 max onsite density
   LMAXMIX     =    2 max onsite mixed and CHGCAR
   VOSKOWN=      0    Vosko Wilk Nusair interpolation
   ROPT   =    0.00000
 Ionic relaxation
   EDIFFG = 0.1E-02   stopping-criterion for IOM
   NSW    =      0    number of steps for IOM
   NBLOCK =      1;   KBLOCK =      1    inner block; outer block 
   IBRION =     -1    ionic relax: 0-MD 1-quasi-New 2-CG
   NFREE  =      0    steps in history (QN), initial steepest desc. (CG)
   ISIF   =      2    stress and relaxation
   IWAVPR =     10    prediction:  0-non 1-charg 2-wave 3-comb
   ISYM   =      2    0-nonsym 1-usesym 2-fastsym
   LCORR  =      T    Harris-Foulkes like correction to forces

   POTIM  = 0.5000    time-step for ionic-motion
   TEIN   =    0.0    initial temperature
   TEBEG  =    0.0;   TEEND  =   0.0 temperature during run
   SMASS  =  -3.00    Nose mass-parameter (am)
   estimated Nose-frequenzy (Omega)   =  0.10E-29 period in steps = 0.13E+47 mass=  -0.124E-27a.u.
   SCALEE = 1.0000    scale energy and forces
   NPACO  =    256;   APACO  = 10.0  distance and # of slots for P.C.
   PSTRESS=    0.0 pullay stress

  Mass of Ions in am
   POMASS =  58.69
  Ionic Valenz
   ZVAL   =  10.00
  Atomic Wigner-Seitz radii
   RWIGS  =  -1.00
  virtual crystal weights 
   VCA    =   1.00
   NELECT =      10.0000    total number of electrons
   NUPDOWN=      -1.0000    fix difference up-down

 DOS related values:
   EMIN   =  10.00;   EMAX   =-10.00  energy-range for DOS
   EFERMI =   0.00
   ISMEAR =     1;   SIGMA  =   0.20  broadening in eV -4-tet -1-fermi 0-gaus

 Electronic relaxation 2 (details)
   IALGO  =     38    algorithm
   LDIAG  =      T    sub-space diagonalisation (order eigenvalues)
   LSUBROT=      F    optimize rotation matrix (better conditioning)
   TURBO    =      0    0=normal 1=particle mesh
   IRESTART =      0    0=no restart 2=restart with 2 vectors
   NREBOOT  =      0    no. of reboots
   NMIN     =      0    reboot dimension
   EREF     =   0.00    reference energy to select bands
   IMIX   =      4    mixing-type and parameters
     AMIX     =   0.40;   BMIX     =  1.00
     AMIX_MAG =   1.60;   BMIX_MAG =  1.00
     AMIN     =   0.10
     WC   =   100.;   INIMIX=   1;  MIXPRE=   1;  MAXMIX= -45

 Intra band minimization:
   WEIMIN = 0.0000     energy-eigenvalue tresh-hold
   EBREAK =  0.21E-05  absolut break condition
   DEPER  =   0.30     relativ break condition  

   TIME   =   0.40     timestep for ELM

  volume/ion in A,a.u.               =       8.98        60.63
  Fermi-wavevector in a.u.,A,eV,Ry     =   1.696606  3.206120 39.163968  2.878470
  Thomas-Fermi vector in A             =   2.777438
 
 Write flags
   LWAVE        =      T    write WAVECAR
   LDOWNSAMPLE  =      F    k-point downsampling of WAVECAR
   LCHARG       =      T    write CHGCAR
   LVTOT        =      F    write LOCPOT, total local potential
   LVHAR        =      F    write LOCPOT, Hartree potential only
   LELF         =      F    write electronic localiz. function (ELF)
   LORBIT       =     11    0 simple, 1 ext, 2 COOP (PROOUT), +10 PAW based schemes


 Dipole corrections
   LMONO  =      F    monopole corrections only (constant potential shift)
   LDIPOL =      F    correct potential (dipole corrections)
   IDIPOL =      0    1-x, 2-y, 3-z, 4-all directions 
   EPSILON=  1.0000000 bulk dielectric constant

 Exchange correlation treatment:
   GGA     =    --    GGA type
   LEXCH   =     8    internal setting for exchange type
   LIBXC   =     F    Libxc                    
   VOSKOWN =     0    Vosko Wilk Nusair interpolation
   LHFCALC =     F    Hartree Fock is set to
   LHFONE  =     F    Hartree Fock one center treatment
   AEXX    =    0.0000 exact exchange contribution

 Linear response parameters
   LEPSILON=     F    determine dielectric tensor
   LRPA    =     F    only Hartree local field effects (RPA)
   LNABLA  =     F    use nabla operator in PAW spheres
   LVEL    =     F    velocity operator in full k-point grid
   CSHIFT  =0.1000    complex shift for real part using Kramers Kronig
   OMEGAMAX=  -1.0    maximum frequency
   DEG_THRESHOLD= 0.2000000E-02 threshold for treating states as degnerate
   RTIME   =   -0.100 relaxation time in fs
  (WPLASMAI=    0.000 imaginary part of plasma frequency in eV, 0.658/RTIME)
   DFIELD  = 0.0000000 0.0000000 0.0000000 field for delta impulse in time
 
  Optional k-point grid parameters
   LKPOINTS_OPT  =     F    use optional k-point grid
   KPOINTS_OPT_MODE=     1    mode for optional k-point grid
 
 Orbital magnetization related:
   ORBITALMAG=     F  switch on orbital magnetization
   LCHIMAG   =     F  perturbation theory with respect to B field
   DQ        =  0.001000  dq finite difference perturbation B field
   LLRAUG    =     F  two centre corrections for induced B field



--------------------------------------------------------------------------------------------------------


 Static calculation
 charge density and potential will be updated during run
 spin polarized calculation
 Variant of blocked Davidson
 Davidson routine will perform the subspace rotation
 perform sub-space diagonalisation
    after iterative eigenvector-optimisation
 modified Broyden-mixing scheme, WC =      100.0
 initial mixing is a Kerker type mixing with AMIX =  0.4000 and BMIX =      1.0000
 Hartree-type preconditioning will be used
 using additional bands            7
 reciprocal scheme for non local part
 use partial core corrections
 calculate Harris-corrections to forces 
   (improved forces if not selfconsistent)
 use gradient corrections 
 use of overlap-Matrix (Vanderbilt PP)
 Methfessel and Paxton  Order N= 1 SIGMA  =   0.20


--------------------------------------------------------------------------------------------------------


  energy-cutoff  :      270.00
  volume of cell :        8.98
      direct lattice vectors                 reciprocal lattice vectors
     1.650000000  1.650000000  0.000000000     0.303030303  0.303030303 -0.303030303
     0.000000000  1.650000000  1.650000000    -0.303030303  0.303030303  0.303030303
     1.650000000  0.000000000  1.650000000     0.303030303 -0.303030303  0.303030303

  length of vectors
     2.333452378  2.333452378  2.333452378     0.524863881  0.524863881  0.524863881


 
 k-points in units of 2pi/SCALE and weight: k-points                                
   0.00000000  0.00000000  0.00000000       0.001
   0.09090909  0.09090909 -0.09090909       0.006
   0.18181818  0.18181818 -0.18181818       0.006
   0.27272727  0.27272727 -0.27272727       0.006
   0.36363636  0.36363636 -0.36363636       0.006
   0.45454545  0.45454545 -0.45454545       0.006
   0.00000000  0.18181818  0.00000000       0.005
   0.09090909  0.27272727 -0.09090909       0.018
   0.18181818  0.36363636 -0.18181818       0.018
   0.27272727  0.45454545 -0.27272727       0.018
   0.36363636  0.54545455 -0.36363636       0.018
  -0.54545455 -0.36363636  0.54545455       0.018
  -0.45454545 -0.27272727  0.45454545       0.018
  -0.36363636 -0.18181818  0.36363636       0.018
  -0.27272727 -0.09090909  0.27272727       0.018
  -0.18181818  0.00000000  0.18181818       0.009
  -0.00000000  0.36363636 -0.00000000       0.005
   0.09090909  0.45454545 -0.09090909       0.018
   0.18181818  0.54545455 -0.18181818       0.018
   0.27272727  0.63636364 -0.27272727       0.018
  -0.63636364 -0.27272727  0.63636364       0.018
  -0.54545455 -0.18181818  0.54545455       0.018
  -0.45454545 -0.09090909  0.45454545       0.018
  -0.36363636  0.00000000  0.36363636       0.009
  -0.00000000  0.54545455  0.00000000       0.005
   0.09090909  0.63636364 -0.09090909       0.018
   0.18181818  0.72727273 -0.18181818       0.018
  -0.72727273 -0.18181818  0.72727273       0.018
  -0.63636364 -0.09090909  0.63636364       0.018
  -0.54545455  0.00000000  0.54545455       0.009
   0.00000000  0.72727273  0.00000000       0.005
   0.09090909  0.81818182 -0.09090909       0.018
  -0.81818182 -0.09090909  0.81818182       0.018
  -0.72727273  0.00000000  0.72727273       0.009
   0.00000000  0.90909091  0.00000000       0.005
  -0.90909091  0.00000000  0.90909091       0.009
   0.18181818  0.36363636 -0.00000000       0.018
   0.27272727  0.45454545 -0.09090909       0.036
   0.36363636  0.54545455 -0.18181818       0.036
  -0.54545455 -0.36363636  0.72727273       0.036
   0.18181818  0.54545455 -0.00000000       0.018
   0.27272727  0.63636364 -0.09090909       0.036
  -0.63636364 -0.27272727  0.81818182       0.036
  -0.54545455 -0.18181818  0.72727273       0.036
  -0.45454545 -0.09090909  0.63636364       0.036
  -0.36363636  0.00000000  0.54545455       0.018
   0.18181818  0.72727273  0.00000000       0.018
  -0.72727273 -0.18181818  0.90909091       0.036
  -0.63636364 -0.09090909  0.81818182       0.036
  -0.54545455  0.00000000  0.72727273       0.018
  -0.81818182 -0.09090909  1.00000000       0.018
  -0.72727273 -0.00000000  0.90909091       0.018
  -0.63636364 -0.27272727  1.00000000       0.018
  -0.54545455 -0.18181818  0.90909091       0.036
  -0.63636364 -0.09090909  1.00000000       0.018
  -0.54545455  0.00000000  0.90909091       0.018
 
 k-points in reciprocal lattice and weights: k-points                                
   0.00000000  0.00000000  0.00000000       0.001
   0.09090909 -0.00000000 -0.00000000       0.006
   0.18181818  0.00000000  0.00000000       0.006
   0.27272727  0.00000000  0.00000000       0.006
   0.36363636  0.00000000 -0.00000000       0.006
   0.45454545  0.00000000  0.00000000       0.006
   0.09090909  0.09090909  0.00000000       0.005
   0.18181818  0.09090909 -0.00000000       0.018
   0.27272727  0.09090909  0.00000000       0.018
   0.36363636  0.09090909  0.00000000       0.018
   0.45454545  0.09090909  0.00000000       0.018
  -0.45454545  0.09090909 -0.00000000       0.018
  -0.36363636  0.09090909  0.00000000       0.018
  -0.27272727  0.09090909  0.00000000       0.018
  -0.18181818  0.09090909 -0.00000000       0.018
  -0.09090909  0.09090909  0.00000000       0.009
   0.18181818  0.18181818 -0.00000000       0.005
   0.27272727  0.18181818 -0.00000000       0.018
   0.36363636  0.18181818  0.00000000       0.018
   0.45454545  0.18181818  0.00000000       0.018
  -0.45454545  0.18181818  0.00000000       0.018
  -0.36363636  0.18181818 -0.00000000       0.018
  -0.27272727  0.18181818 -0.00000000       0.018
  -0.18181818  0.18181818 -0.00000000       0.009
   0.27272727  0.27272727 -0.00000000       0.005
   0.36363636  0.27272727  0.00000000       0.018
   0.45454545  0.27272727 -0.00000000       0.018
  -0.45454545  0.27272727 -0.00000000       0.018
  -0.36363636  0.27272727 -0.00000000       0.018
  -0.27272727  0.27272727 -0.00000000       0.009
   0.36363636  0.36363636  0.00000000       0.005
   0.45454545  0.36363636  0.00000000       0.018
  -0.45454545  0.36363636 -0.00000000       0.018
  -0.36363636  0.36363636  0.00000000       0.009
   0.45454545  0.45454545  0.00000000       0.005
  -0.45454545  0.45454545 -0.00000000       0.009
   0.27272727  0.18181818  0.09090909       0.018
   0.36363636  0.18181818  0.09090909       0.036
   0.45454545  0.18181818  0.09090909       0.036
  -0.45454545  0.18181818  0.09090909       0.036
   0.36363636  0.27272727  0.09090909       0.018
   0.45454545  0.27272727  0.09090909       0.036
  -0.45454545  0.27272727  0.09090909       0.036
  -0.36363636  0.27272727  0.09090909       0.036
  -0.27272727  0.27272727  0.09090909       0.036
  -0.18181818  0.27272727  0.09090909       0.018
   0.45454545  0.36363636  0.09090909       0.018
  -0.45454545  0.36363636  0.09090909       0.036
  -0.36363636  0.36363636  0.09090909       0.036
  -0.27272727  0.36363636  0.09090909       0.018
  -0.45454545  0.45454545  0.09090909       0.018
  -0.36363636  0.45454545  0.09090909       0.018
  -0.45454545  0.36363636  0.18181818       0.018
  -0.36363636  0.36363636  0.18181818       0.036
  -0.36363636  0.45454545  0.18181818       0.018
  -0.27272727  0.45454545  0.18181818       0.018
 
 position of ions in fractional coordinates (direct lattice) 
   0.00000000  0.00000000  0.00000000
 
 position of ions in cartesian coordinates  (Angst):
   0.00000000  0.00000000  0.00000000
 


--------------------------------------------------------------------------------------------------------


 k-point   1 :   0.0000 0.0000 0.0000  plane waves:      89
 k-point   2 :   0.0909-0.0000-0.0000  plane waves:      89
 k-point   3 :   0.1818 0.0000 0.0000  plane waves:      95
 k-point   4 :   0.2727 0.0000 0.0000  plane waves:      89
 k-point   5 :   0.3636 0.0000-0.0000  plane waves:      92
 k-point   6 :   0.4545 0.0000 0.0000  plane waves:      90
 k-point   7 :   0.0909 0.0909 0.0000  plane waves:      89
 k-point   8 :   0.1818 0.0909-0.0000  plane waves:      85
 k-point   9 :   0.2727 0.0909 0.0000  plane waves:      87
 k-point  10 :   0.3636 0.0909 0.0000  plane waves:      89
 k-point  11 :   0.4545 0.0909 0.0000  plane waves:      89
 k-point  12 :  -0.4545 0.0909-0.0000  plane waves:      86
 k-point  13 :  -0.3636 0.0909 0.0000  plane waves:      88
 k-point  14 :  -0.2727 0.0909 0.0000  plane waves:      89
 k-point  15 :  -0.1818 0.0909-0.0000  plane waves:      89
 k-point  16 :  -0.0909 0.0909 0.0000  plane waves:      91
 k-point  17 :   0.1818 0.1818-0.0000  plane waves:      85
 k-point  18 :   0.2727 0.1818-0.0000  plane waves:      87
 k-point  19 :   0.3636 0.1818 0.0000  plane waves:      85
 k-point  20 :   0.4545 0.1818 0.0000  plane waves:      91
 k-point  21 :  -0.4545 0.1818 0.0000  plane waves:      91
 k-point  22 :  -0.3636 0.1818-0.0000  plane waves:      90
 k-point  23 :  -0.2727 0.1818-0.0000  plane waves:      91
 k-point  24 :  -0.1818 0.1818-0.0000  plane waves:      91
 k-point  25 :   0.2727 0.2727-0.0000  plane waves:      84
 k-point  26 :   0.3636 0.2727 0.0000  plane waves:      89
 k-point  27 :   0.4545 0.2727-0.0000  plane waves:      91
 k-point  28 :  -0.4545 0.2727-0.0000  plane waves:      90
 k-point  29 :  -0.3636 0.2727-0.0000  plane waves:      90
 k-point  30 :  -0.2727 0.2727-0.0000  plane waves:      89
 k-point  31 :   0.3636 0.3636 0.0000  plane waves:      88
 k-point  32 :   0.4545 0.3636 0.0000  plane waves:      91
 k-point  33 :  -0.4545 0.3636-0.0000  plane waves:      96
 k-point  34 :  -0.3636 0.3636 0.0000  plane waves:      97
 k-point  35 :   0.4545 0.4545 0.0000  plane waves:      92
 k-point  36 :  -0.4545 0.4545-0.0000  plane waves:      92
 k-point  37 :   0.2727 0.1818 0.0909  plane waves:      90
 k-point  38 :   0.3636 0.1818 0.0909  plane waves:      88
 k-point  39 :   0.4545 0.1818 0.0909  plane waves:      90
 k-point  40 :  -0.4545 0.1818 0.0909  plane waves:      89
 k-point  41 :   0.3636 0.2727 0.0909  plane waves:      89
 k-point  42 :   0.4545 0.2727 0.0909  plane waves:      89
 k-point  43 :  -0.4545 0.2727 0.0909  plane waves:      90
 k-point  44 :  -0.3636 0.2727 0.0909  plane waves:      93
 k-point  45 :  -0.2727 0.2727 0.0909  plane waves:      92
 k-point  46 :  -0.1818 0.2727 0.0909  plane waves:      91
 k-point  47 :   0.4545 0.3636 0.0909  plane waves:      90
 k-point  48 :  -0.4545 0.3636 0.0909  plane waves:      92
 k-point  49 :  -0.3636 0.3636 0.0909  plane waves:      95
 k-point  50 :  -0.2727 0.3636 0.0909  plane waves:      93
 k-point  51 :  -0.4545 0.4545 0.0909  plane waves:      94
 k-point  52 :  -0.3636 0.4545 0.0909  plane waves:      97
 k-point  53 :  -0.4545 0.3636 0.1818  plane waves:      90
 k-point  54 :  -0.3636 0.3636 0.1818  plane waves:      92
 k-point  55 :  -0.3636 0.4545 0.1818  plane waves:      92
 k-point  56 :  -0.2727 0.4545 0.1818  plane waves:      96

 maximum and minimum number of plane-waves per node :        97       84

 maximum number of plane-waves:        97
 maximum index in each direction: 
   IXMAX=    3   IYMAX=    3   IZMAX=    3
   IXMIN=   -3   IYMIN=   -3   IZMIN=   -3


 serial   3D FFT for wavefunctions
 parallel 3D FFT for charge:
    minimum data exchange during FFTs selected (reduces bandwidth)


 total amount of memory used by VASP MPI-rank0    31793. kBytes
=======================================================================

   base      :      30000. kBytes
   nonl-proj :        808. kBytes
   fftplans  :         71. kBytes
   grid      :        238. kBytes
   one-center:         31. kBytes
   wavefun   :        645. kBytes
 
     INWAV:  cpu time      0.0000: real time      0.0001
 Broyden mixing: mesh for mixing (old mesh)
   NGX =  7   NGY =  7   NGZ =  7
  (NGX  = 20   NGY  = 20   NGZ  = 20)
  gives a total of    343 points

 initial charge density was supplied:
 charge density of overlapping atoms calculated
 number of electron      10.0000000 magnetization       1.0000000
 keeping initial charge density in first step


--------------------------------------------------------------------------------------------------------


 Maximum index for augmentation-charges          895 (set IRDMAX)


--------------------------------------------------------------------------------------------------------


 First call to EWALD:  gamma=   0.853
 Maximum number of real-space cells 3x 3x 3
 Maximum number of reciprocal cells 3x 3x 3

    FEWALD:  cpu time      0.0014: real time      0.0014


--------------------------------------- Iteration      1(   1)  ---------------------------------------


    POTLOK:  cpu time      0.0029: real time      0.0031
    SETDIJ:  cpu time      0.0041: real time      0.0042
     EDDAV:  cpu time      0.1964: real time      0.1970
       DOS:  cpu time      0.0013: real time      0.0013
    --------------------------------------------
      LOOP:  cpu time      0.2048: real time      0.2055

 eigenvalue-minimisations  :  3056
 total energy-change (2. order) : 0.1750536E+02  (-0.2886096E+03)
 number of electron      10.0000000 magnetization       1.0000000
 augmentation part       10.0000000 magnetization       1.0000000

 Free energy of the ion-electron system (eV)
  ---------------------------------------------------
  alpha Z        PSCENC =        56.76534046
  Ewald energy   TEWEN  =     -1000.31875829
  -Hartree energ DENC   =      -216.73959597
  -exchange      EXHF   =         0.00000000
  -V(xc)+E(xc)   XCENC  =        32.43037442
  PAW double counting   =       962.83317360    -1029.67071227
  entropy T*S    EENTRO =        -0.00229311
  eigenvalues    EBANDS =       134.57175420
  atomic energy  EATOM  =      1077.63607467
  Solvation  Ediel_sol  =         0.00000000
  ---------------------------------------------------
  free energy    TOTEN  =        17.50535770 eV

  energy without entropy =       17.50765081  energy(sigma->0) =       17.50612207


--------------------------------------------------------------------------------------------------------




--------------------------------------- Iteration      1(   2)  ---------------------------------------


     EDDAV:  cpu time      0.1816: real time      0.1820
       DOS:  cpu time      0.0011: real time      0.0011
    --------------------------------------------
      LOOP:  cpu time      0.1827: real time      0.1832

 eigenvalue-minimisations  :  2968
 total energy-change (2. order) :-0.2323850E+02  (-0.2192595E+02)
 number of electron      10.0000000 magnetization       1.0000000
 augmentation part       10.0000000 magnetization       1.0000000

 Free energy of the ion-electron system (eV)
  ---------------------------------------------------
  alpha Z        PSCENC =        56.76534046
  Ewald energy   TEWEN  =     -1000.31875829
  -Hartree energ DENC   =      -216.73959597
  -exchange      EXHF   =         0.00000000
  -V(xc)+E(xc)   XCENC  =        32.43037442
  PAW double counting   =       962.83317360    -1029.67071227
  entropy T*S    EENTRO =         0.00656411
  eigenvalues    EBANDS =       111.32439669
  atomic energy  EATOM  =      1077.63607467
  Solvation  Ediel_sol  =         0.00000000
  ---------------------------------------------------
  free energy    TOTEN  =        -5.73314259 eV

  energy without entropy =       -5.73970670  energy(sigma->0) =       -5.73533063


--------------------------------------------------------------------------------------------------------




--------------------------------------- Iteration      1(   3)  ---------------------------------------


     EDDAV:  cpu time      0.1855: real time      0.1860
       DOS:  cpu time      0.0013: real time      0.0013
    --------------------------------------------
      LOOP:  cpu time      0.1868: real time      0.1873

 eigenvalue-minimisations  :  2996
 total energy-change (2. order) :-0.4024283E+00  (-0.4018276E+00)
 number of electron      10.0000000 magnetization       1.0000000
 augmentation part       10.0000000 magnetization       1.0000000

 Free energy of the ion-electron system (eV)
  ---------------------------------------------------
  alpha Z        PSCENC =        56.76534046
  Ewald energy   TEWEN  =     -1000.31875829
  -Hartree energ DENC   =      -216.73959597
  -exchange      EXHF   =         0.00000000
  -V(xc)+E(xc)   XCENC  =        32.43037442
  PAW double counting   =       962.83317360    -1029.67071227
  entropy T*S    EENTRO =         0.00563761
  eigenvalues    EBANDS =       110.92289492
  atomic energy  EATOM  =      1077.63607467
  Solvation  Ediel_sol  =         0.00000000
  ---------------------------------------------------
  free energy    TOTEN  =        -6.13557085 eV

  energy without entropy =       -6.14120847  energy(sigma->0) =       -6.13745006


--------------------------------------------------------------------------------------------------------




--------------------------------------- Iteration      1(   4)  ---------------------------------------


     EDDAV:  cpu time      0.2063: real time      0.2068
       DOS:  cpu time      0.0014: real time      0.0014
    --------------------------------------------
      LOOP:  cpu time      0.2077: real time      0.2083

 eigenvalue-minimisations  :  3164
 total energy-change (2. order) :-0.2011359E-02  (-0.2011201E-02)
 number of electron      10.0000000 magnetization       1.0000000
 augmentation part       10.0000000 magnetization       1.0000000

 Free energy of the ion-electron system (eV)
  ---------------------------------------------------
  alpha Z        PSCENC =        56.76534046
  Ewald energy   TEWEN  =     -1000.31875829
  -Hartree energ DENC   =      -216.73959597
  -exchange      EXHF   =         0.00000000
  -V(xc)+E(xc)   XCENC  =        32.43037442
  PAW double counting   =       962.83317360    -1029.67071227
  entropy T*S    EENTRO =         0.00563273
  eigenvalues    EBANDS =       110.92088844
  atomic energy  EATOM  =      1077.63607467
  Solvation  Ediel_sol  =         0.00000000
  ---------------------------------------------------
  free energy    TOTEN  =        -6.13758221 eV

  energy without entropy =       -6.14321494  energy(sigma->0) =       -6.13945979


--------------------------------------------------------------------------------------------------------




--------------------------------------- Iteration      1(   5)  ---------------------------------------


     EDDAV:  cpu time      0.2081: real time      0.2086
       DOS:  cpu time      0.0014: real time      0.0014
    CHARGE:  cpu time      0.0037: real time      0.0037
    MIXING:  cpu time      0.0003: real time      0.0003
    --------------------------------------------
      LOOP:  cpu time      0.2135: real time      0.2141

 eigenvalue-minimisations  :  2976
 total energy-change (2. order) :-0.2164156E-04  (-0.2163994E-04)
 number of electron      10.0000056 magnetization       0.4909358
 augmentation part        5.6452837 magnetization       0.4038682

 Broyden mixing:
  rms(total) = 0.12285E+01    rms(broyden)= 0.12284E+01
  rms(prec ) = 0.32634E+01
  weight for this iteration     100.00

 Free energy of the ion-electron system (eV)
  ---------------------------------------------------
  alpha Z        PSCENC =        56.76534046
  Ewald energy   TEWEN  =     -1000.31875829
  -Hartree energ DENC   =      -216.73959597
  -exchange      EXHF   =         0.00000000
  -V(xc)+E(xc)   XCENC  =        32.43037442
  PAW double counting   =       962.83317360    -1029.67071227
  entropy T*S    EENTRO =         0.00563269
  eigenvalues    EBANDS =       110.92086684
  atomic energy  EATOM  =      1077.63607467
  Solvation  Ediel_sol  =         0.00000000
  ---------------------------------------------------
  free energy    TOTEN  =        -6.13760385 eV

  energy without entropy =       -6.14323655  energy(sigma->0) =       -6.13948142


--------------------------------------------------------------------------------------------------------




--------------------------------------- Iteration      1(   6)  ---------------------------------------


    POTLOK:  cpu time      0.0025: real time      0.0026
    SETDIJ:  cpu time      0.0040: real time      0.0040
     EDDAV:  cpu time      0.2286: real time      0.2292
       DOS:  cpu time      0.0015: real time      0.0015
    CHARGE:  cpu time      0.0035: real time      0.0035
    MIXING:  cpu time      0.0003: real time      0.0003
    --------------------------------------------
      LOOP:  cpu time      0.2404: real time      0.2410

 eigenvalue-minimisations  :  3408
 total energy-change (2. order) : 0.7955083E+00  (-0.9410238E+00)
 number of electron      10.0000067 magnetization       0.5873616
 augmentation part        6.2947055 magnetization       0.5674923

 Broyden mixing:
  rms(total) = 0.46502E+00    rms(broyden)= 0.46499E+00
  rms(prec ) = 0.81265E+00
  weight for this iteration     100.00

 eigenvalues of (default mixing * dielectric matrix)
  average eigenvalue GAMMA=   0.9867
  0.9867

 Free energy of the ion-electron system (eV)
  ---------------------------------------------------
  alpha Z        PSCENC =        56.76534046
  Ewald energy   TEWEN  =     -1000.31875829
  -Hartree energ DENC   =      -195.51721613
  -exchange      EXHF   =         0.00000000
  -V(xc)+E(xc)   XCENC  =        31.25669298
  PAW double counting   =      1089.32946301    -1153.12728034
  entropy T*S    EENTRO =         0.00106608
  eigenvalues    EBANDS =        88.63252199
  atomic energy  EATOM  =      1077.63607467
  Solvation  Ediel_sol  =         0.00000000
  ---------------------------------------------------
  free energy    TOTEN  =        -5.34209557 eV

  energy without entropy =       -5.34316165  energy(sigma->0) =       -5.34245093


--------------------------------------------------------------------------------------------------------




--------------------------------------- Iteration      1(   7)  ---------------------------------------


    POTLOK:  cpu time      0.0028: real time      0.0029
    SETDIJ:  cpu time      0.0040: real time      0.0040
     EDDAV:  cpu time      0.2254: real time      0.2259
       DOS:  cpu time      0.0014: real time      0.0014
    CHARGE:  cpu time      0.0035: real time      0.0035
    MIXING:  cpu time      0.0002: real time      0.0002
    --------------------------------------------
      LOOP:  cpu time      0.2373: real time      0.2379

 eigenvalue-minimisations  :  3328
 total energy-change (2. order) : 0.1402726E+00  (-0.9785873E-01)
 number of electron      10.0000064 magnetization       0.5611408
 augmentation part        6.0909003 magnetization       0.5386067

 Broyden mixing:
  rms(total) = 0.27075E+00    rms(broyden)= 0.27075E+00
  rms(prec ) = 0.44197E+00
  weight for this iteration     100.00

 eigenvalues of (default mixing * dielectric matrix)
  average eigenvalue GAMMA=   1.2593
  0.7228  1.7959

 Free energy of the ion-electron system (eV)
  ---------------------------------------------------
  alpha Z        PSCENC =        56.76534046
  Ewald energy   TEWEN  =     -1000.31875829
  -Hartree energ DENC   =      -199.33098444
  -exchange      EXHF   =         0.00000000
  -V(xc)+E(xc)   XCENC  =        31.47491768
  PAW double counting   =      1144.72167280    -1212.05957356
  entropy T*S    EENTRO =         0.00112408
  eigenvalues    EBANDS =        95.90836366
  atomic energy  EATOM  =      1077.63607467
  Solvation  Ediel_sol  =         0.00000000
  ---------------------------------------------------
  free energy    TOTEN  =        -5.20182295 eV

  energy without entropy =       -5.20294703  energy(sigma->0) =       -5.20219764


--------------------------------------------------------------------------------------------------------




--------------------------------------- Iteration      1(   8)  ---------------------------------------


    POTLOK:  cpu time      0.0028: real time      0.0029
    SETDIJ:  cpu time      0.0037: real time      0.0038
     EDDAV:  cpu time      0.2276: real time      0.2282
       DOS:  cpu time      0.0015: real time      0.0015
    CHARGE:  cpu time      0.0035: real time      0.0035
    MIXING:  cpu time      0.0002: real time      0.0002
    --------------------------------------------
      LOOP:  cpu time      0.2393: real time      0.2400

 eigenvalue-minimisations  :  3444
 total energy-change (2. order) : 0.2243503E-01  (-0.2334577E-02)
 number of electron      10.0000064 magnetization       0.5675375
 augmentation part        6.1207879 magnetization       0.5448046

 Broyden mixing:
  rms(total) = 0.80315E-01    rms(broyden)= 0.80314E-01
  rms(prec ) = 0.10167E+00
  weight for this iteration     100.00

 eigenvalues of (default mixing * dielectric matrix)
  average eigenvalue GAMMA=   1.1443
  2.1393  0.7167  0.5770

 Free energy of the ion-electron system (eV)
  ---------------------------------------------------
  alpha Z        PSCENC =        56.76534046
  Ewald energy   TEWEN  =     -1000.31875829
  -Hartree energ DENC   =      -196.15243364
  -exchange      EXHF   =         0.00000000
  -V(xc)+E(xc)   XCENC  =        31.31130655
  PAW double counting   =      1239.43531883    -1308.87735956
  entropy T*S    EENTRO =         0.00116162
  eigenvalues    EBANDS =        95.01996144
  atomic energy  EATOM  =      1077.63607467
  Solvation  Ediel_sol  =         0.00000000
  ---------------------------------------------------
  free energy    TOTEN  =        -5.17938792 eV

  energy without entropy =       -5.18054955  energy(sigma->0) =       -5.17977513


--------------------------------------------------------------------------------------------------------




--------------------------------------- Iteration      1(   9)  ---------------------------------------


    POTLOK:  cpu time      0.0027: real time      0.0028
    SETDIJ:  cpu time      0.0038: real time      0.0038
     EDDAV:  cpu time      0.2060: real time      0.2065
       DOS:  cpu time      0.0016: real time      0.0016
    CHARGE:  cpu time      0.0037: real time      0.0037
    MIXING:  cpu time      0.0003: real time      0.0003
    --------------------------------------------
      LOOP:  cpu time      0.2182: real time      0.2188

 eigenvalue-minimisations  :  3088
 total energy-change (2. order) : 0.8652726E-03  (-0.3936071E-04)
 number of electron      10.0000064 magnetization       0.5687264
 augmentation part        6.1236660 magnetization       0.5459626

 Broyden mixing:
  rms(total) = 0.23522E-01    rms(broyden)= 0.23522E-01
  rms(prec ) = 0.36224E-01
  weight for this iteration     100.00

 eigenvalues of (default mixing * dielectric matrix)
  average eigenvalue GAMMA=   1.2206
  2.4509  1.0872  0.7245  0.6199

 Free energy of the ion-electron system (eV)
  ---------------------------------------------------
  alpha Z        PSCENC =        56.76534046
  Ewald energy   TEWEN  =     -1000.31875829
  -Hartree energ DENC   =      -195.71277347
  -exchange      EXHF   =         0.00000000
  -V(xc)+E(xc)   XCENC  =        31.29120023
  PAW double counting   =      1256.26731110    -1326.05112820
  entropy T*S    EENTRO =         0.00111799
  eigenvalues    EBANDS =        94.94309286
  atomic energy  EATOM  =      1077.63607467
  Solvation  Ediel_sol  =         0.00000000
  ---------------------------------------------------
  free energy    TOTEN  =        -5.17852265 eV

  energy without entropy =       -5.17964064  energy(sigma->0) =       -5.17889531


--------------------------------------------------------------------------------------------------------




--------------------------------------- Iteration      1(  10)  ---------------------------------------


    POTLOK:  cpu time      0.0030: real time      0.0031
    SETDIJ:  cpu time      0.0050: real time      0.0050
     EDDAV:  cpu time      0.1492: real time      0.1495
       DOS:  cpu time      0.0014: real time      0.0014
    CHARGE:  cpu time      0.0033: real time      0.0033
    MIXING:  cpu time      0.0002: real time      0.0002
    --------------------------------------------
      LOOP:  cpu time      0.1622: real time      0.1626

 eigenvalue-minimisations  :  2052
 total energy-change (2. order) : 0.2404780E-03  (-0.2255522E-04)
 number of electron      10.0000064 magnetization       0.5671042
 augmentation part        6.1260415 magnetization       0.5443538

 Broyden mixing:
  rms(total) = 0.57684E-02    rms(broyden)= 0.57683E-02
  rms(prec ) = 0.70394E-02
  weight for this iteration     100.00

 eigenvalues of (default mixing * dielectric matrix)
  average eigenvalue GAMMA=   1.2493
  2.3695  1.4820  1.0495  0.7141  0.6314

 Free energy of the ion-electron system (eV)
  ---------------------------------------------------
  alpha Z        PSCENC =        56.76534046
  Ewald energy   TEWEN  =     -1000.31875829
  -Hartree energ DENC   =      -195.32218498
  -exchange      EXHF   =         0.00000000
  -V(xc)+E(xc)   XCENC  =        31.27249184
  PAW double counting   =      1273.66458936    -1343.75505896
  entropy T*S    EENTRO =         0.00109706
  eigenvalues    EBANDS =        94.87812668
  atomic energy  EATOM  =      1077.63607467
  Solvation  Ediel_sol  =         0.00000000
  ---------------------------------------------------
  free energy    TOTEN  =        -5.17828217 eV

  energy without entropy =       -5.17937923  energy(sigma->0) =       -5.17864786


--------------------------------------------------------------------------------------------------------




--------------------------------------- Iteration      1(  11)  ---------------------------------------


    POTLOK:  cpu time      0.0026: real time      0.0026
    SETDIJ:  cpu time      0.0038: real time      0.0039
     EDDAV:  cpu time      0.1205: real time      0.1207
       DOS:  cpu time      0.0014: real time      0.0014
    --------------------------------------------
      LOOP:  cpu time      0.1283: real time      0.1286

 eigenvalue-minimisations  :  1460
 total energy-change (2. order) :-0.3824944E-05  (-0.1089686E-05)
 number of electron      10.0000064 magnetization       0.5671042
 augmentation part        6.1260415 magnetization       0.5443538

 Free energy of the ion-electron system (eV)
  ---------------------------------------------------
  alpha Z        PSCENC =        56.76534046
  Ewald energy   TEWEN  =     -1000.31875829
  -Hartree energ DENC   =      -195.37918697
  -exchange      EXHF   =         0.00000000
  -V(xc)+E(xc)   XCENC  =        31.27534601
  PAW double counting   =      1274.53206934    -1344.57052833
  entropy T*S    EENTRO =         0.00112419
  eigenvalues    EBANDS =        94.88023292
  atomic energy  EATOM  =      1077.63607467
  Solvation  Ediel_sol  =         0.00000000
  ---------------------------------------------------
  free energy    TOTEN  =        -5.17828600 eV

  energy without entropy =       -5.17941019  energy(sigma->0) =       -5.17866073


--------------------------------------------------------------------------------------------------------




 average (electrostatic) potential at core
  the test charge radii are     0.9791
  (the norm of the test charge is              1.0000)
       1 -79.3672
 
 
 
 E-fermi :  12.3652     XC(G=0): -14.4266     alpha+bet :-19.9364

 Fermi energy:        12.3652478654

 spin component 1

 k-point     1 :       0.0000    0.0000    0.0000
  band No.  band energies     occupation 
      1       1.9579      1.00000
      2       9.4204      1.00000
      3       9.4204      1.00000
      4       9.4204      1.00000
      5      10.9392      1.00000
      6      10.9392      1.00000
      7      37.7328      0.00000
      8      43.1365      0.00000
      9      43.1368      0.00000
     10      43.1368      0.00000
     11      47.3213      0.00000
     12      47.3213      0.00000

 k-point     2 :       0.0909   -0.0000   -0.0000
  band No.  band energies     occupation 
      1       2.3296      1.00000
      2       9.3089      1.00000
      3       9.5119      1.00000
      4       9.5119      1.00000
      5      10.8960      1.00000
      6      10.8960      1.00000
      7      36.8940      0.00000
      8      40.0922      0.00000
      9      42.6890      0.00000
     10      42.6893      0.00000
     11      47.8003      0.00000
     12      48.0082      0.00000

 k-point     3 :       0.1818    0.0000    0.0000
  band No.  band energies     occupation 
      1       3.3838      1.00000
      2       9.0656      1.00000
      3       9.6776      1.00000
      4       9.6776      1.00000
      5      10.8772      1.00000
      6      10.8772      1.00000
      7      32.6596      0.00000
      8      38.7475      0.00000
      9      41.8748      0.00000
     10      41.8752      0.00000
     11      47.5679      0.00000
     12      48.4192      0.00000

 k-point     4 :       0.2727    0.0000    0.0000
  band No.  band energies     occupation 
      1       4.8557      1.00000
      2       9.0139      1.00000
      3       9.6801      1.00000
      4       9.6802      1.00000
      5      11.1147      1.00000
      6      11.1148      1.00000
      7      27.7606      0.00000
      8      37.8207      0.00000
      9      41.2924      0.00000
     10      41.2927      0.00000
     11      46.7188      0.00000
     12      46.7188      0.00000

 k-point     5 :       0.3636    0.0000   -0.0000
  band No.  band energies     occupation 
      1       6.0093      1.00000
      2       9.5290      1.00000
      3       9.5291      1.00000
      4       9.8150      1.00000
      5      11.5198      1.00000
      6      11.5199      1.00000
      7      23.3114      0.00000
      8      36.8167      0.00000
      9      40.8517      0.00000
     10      40.8519      0.00000
     11      44.8107      0.00000
     12      44.8111      0.00000

 k-point     6 :       0.4545    0.0000    0.0000
  band No.  band energies     occupation 
      1       6.3595      1.00000
      2       9.4112      1.00000
      3       9.4113      1.00000
      4      11.3896      1.00000
      5      11.8105      1.00031
      6      11.8107      1.00031
      7      20.1128      0.00000
      8      36.2096      0.00000
      9      40.6202      0.00000
     10      40.6202      0.00000
     11      43.7895      0.00000
     12      43.7902      0.00000

 k-point     7 :       0.0909    0.0909    0.0000
  band No.  band energies     occupation 
      1       2.4523      1.00000
      2       9.2128      1.00000
      3       9.5794      1.00000
      4       9.5794      1.00000
      5      10.7420      1.00000
      6      11.0078      1.00000
      7      37.2343      0.00000
      8      40.7327      0.00000
      9      40.7328      0.00000
     10      40.9619      0.00000
     11      48.9443      0.00000
     12      49.3582      0.00000

 k-point     8 :       0.1818    0.0909   -0.0000
  band No.  band energies     occupation 
      1       3.2777      1.00000
      2       8.9687      1.00000
      3       9.7539      1.00000
      4       9.7702      1.00000
      5      10.6012      1.00000
      6      11.0772      1.00000
      7      34.5596      0.00000
      8      38.0967      0.00000
      9      39.1962      0.00000
     10      42.1835      0.00000
     11      47.3010      0.00000
     12      50.1247      0.00000

 k-point     9 :       0.2727    0.0909    0.0000
  band No.  band energies     occupation 
      1       4.6334      1.00000
      2       8.7673      1.00000
      3       9.7034      1.00000
      4       9.8572      1.00000
      5      10.8628      1.00000
      6      11.2744      1.00000
      7      29.5995      0.00000
      8      37.1469      0.00000
      9      38.1394      0.00000
     10      42.5322      0.00000
     11      45.9892      0.00000
     12      49.4386      0.00000

 k-point    10 :       0.3636    0.0909    0.0000
  band No.  band energies     occupation 
      1       5.9695      1.00000
      2       9.0288      1.00000
      3       9.4658      1.00000
      4       9.7547      1.00000
      5      11.6045      1.00000
      6      11.6120      1.00000
      7      24.9059      0.00000
      8      36.1693      0.00000
      9      37.6594      0.00000
     10      40.8014      0.00000
     11      46.1212      0.00000
     12      48.3595      0.00000

 k-point    11 :       0.4545    0.0909    0.0000
  band No.  band energies     occupation 
      1       6.5286      1.00000
      2       9.2377      1.00000
      3       9.6119      1.00000
      4      10.0147      1.00000
      5      11.8463      1.00075
      6      12.7542     -0.00951
      7      21.0755      0.00000
      8      35.3024      0.00000
      9      37.8689      0.00000
     10      39.2226      0.00000
     11      46.0991      0.00000
     12      46.8093      0.00000

 k-point    12 :      -0.4545    0.0909   -0.0000
  band No.  band energies     occupation 
      1       6.6051      1.00000
      2       9.2110      1.00000
      3       9.5529      1.00000
      4      10.4342      1.00000
      5      11.7944      1.00021
      6      13.4698     -0.00000
      7      19.7019      0.00000
      8      34.7285      0.00000
      9      38.4985      0.00000
     10      38.9117      0.00000
     11      45.7797      0.00000
     12      46.2927      0.00000

 k-point    13 :      -0.3636    0.0909    0.0000
  band No.  band energies     occupation 
      1       6.4391      1.00000
      2       9.3374      1.00000
      3       9.6185      1.00000
      4       9.7599      1.00000
      5      11.4406      1.00000
      6      12.5751     -0.02952
      7      22.2137      0.00000
      8      34.5313      0.00000
      9      38.8052      0.00000
     10      40.8015      0.00000
     11      45.0849      0.00000
     12      46.3827      0.00000

 k-point    14 :      -0.2727    0.0909    0.0000
  band No.  band energies     occupation 
      1       5.5981      1.00000
      2       8.9202      1.00000
      3       9.5542      1.00000
      4       9.7801      1.00000
      5      10.9404      1.00000
      6      11.7963      1.00022
      7      26.4190      0.00000
      8      34.7623      0.00000
      9      40.0191      0.00000
     10      43.3858      0.00000
     11      44.8707      0.00000
     12      45.8107      0.00000

 k-point    15 :      -0.1818    0.0909   -0.0000
  band No.  band energies     occupation 
      1       4.1480      1.00000
      2       8.8661      1.00000
      3       9.7091      1.00000
      4       9.8516      1.00000
      5      10.6093      1.00000
      6      11.2717      1.00000
      7      31.2472      0.00000
      8      35.4124      0.00000
      9      41.5676      0.00000
     10      44.7345      0.00000
     11      44.7407      0.00000
     12      46.6309      0.00000

 k-point    16 :      -0.0909    0.0909    0.0000
  band No.  band energies     occupation 
      1       2.9303      1.00000
      2       9.1164      1.00000
      3       9.6498      1.00000
      4       9.6560      1.00000
      5      10.7033      1.00000
      6      11.0071      1.00000
      7      35.5863      0.00000
      8      37.0835      0.00000
      9      41.6743      0.00000
     10      44.4128      0.00000
     11      45.6883      0.00000
     12      47.5607      0.00000

 k-point    17 :       0.1818    0.1818   -0.0000
  band No.  band energies     occupation 
      1       3.8337      1.00000
      2       8.6757      1.00000
      3      10.0361      1.00000
      4      10.0361      1.00000
      5      10.3020      1.00000
      6      11.2030      1.00000
      7      36.3915      0.00000
      8      37.0067      0.00000
      9      37.0068      0.00000
     10      37.6149      0.00000
     11      45.8982      0.00000
     12      52.6210      0.00000

 k-point    18 :       0.2727    0.1818   -0.0000
  band No.  band energies     occupation 
      1       4.9287      1.00000
      2       8.3774      1.00000
      3       9.8298      1.00000
      4      10.2604      1.00000
      5      10.7383      1.00000
      6      11.3783      1.00000
      7      31.8690      0.00000
      8      35.5012      0.00000
      9      35.8586      0.00000
     10      38.4502      0.00000
     11      44.6532      0.00000
     12      52.0724      0.00000

 k-point    19 :       0.3636    0.1818    0.0000
  band No.  band energies     occupation 
      1       6.1967      1.00000
      2       8.2759      1.00000
      3       9.4508      1.00000
      4      10.2514      1.00000
      5      11.6830      1.00001
      6      11.8310      1.00052
      7      27.0140      0.00000
      8      34.2113      0.00000
      9      34.7458      0.00000
     10      38.2995      0.00000
     11      46.9268      0.00000
     12      51.1328      0.00000

 k-point    20 :       0.4545    0.1818    0.0000
  band No.  band energies     occupation 
      1       6.9432      1.00000
      2       8.5192      1.00000
      3       9.3302      1.00000
      4      10.1104      1.00000
      5      11.8887      1.00192
      6      13.5600     -0.00000
      7      22.6888      0.00000
      8      32.4852      0.00000
      9      34.8007      0.00000
     10      37.7005      0.00000
     11      49.8644      0.00000
     12      50.6875      0.00000

 k-point    21 :      -0.4545    0.1818    0.0000
  band No.  band energies     occupation 
      1       7.1450      1.00000
      2       8.6489      1.00000
      3       9.5528      1.00000
      4       9.9958      1.00000
      5      11.8040      1.00026
      6      15.3822     -0.00000
      7      19.8701      0.00000
      8      31.1021      0.00000
      9      35.7955      0.00000
     10      37.5425      0.00000
     11      49.4236      0.00000
     12      49.4533      0.00000

 k-point    22 :      -0.3636    0.1818   -0.0000
  band No.  band energies     occupation 
      1       7.1526      1.00000
      2       8.8286      1.00000
      3       9.3094      1.00000
      4       9.9829      1.00000
      5      11.4087      1.00000
      6      14.5108     -0.00000
      7      21.5283      0.00000
      8      30.2541      0.00000
      9      37.6549      0.00000
     10      38.0568      0.00000
     11      48.5005      0.00000
     12      48.6457      0.00000

 k-point    23 :      -0.2727    0.1818   -0.0000
  band No.  band energies     occupation 
      1       6.6903      1.00000
      2       8.6828      1.00000
      3       9.1717      1.00000
      4      10.0982      1.00000
      5      10.8382      1.00000
      6      12.9899     -0.00005
      7      25.5497      0.00000
      8      30.0398      0.00000
      9      39.3354      0.00000
     10      40.2070      0.00000
     11      46.6761      0.00000
     12      48.4206      0.00000

 k-point    24 :      -0.1818    0.1818   -0.0000
  band No.  band energies     occupation 
      1       5.4207      1.00000
      2       8.6165      1.00000
      3       9.5230      1.00000
      4      10.2480      1.00000
      5      10.3445      1.00000
      6      11.9612      1.00749
      7      29.9272      0.00000
      8      30.7737      0.00000
      9      41.2756      0.00000
     10      43.0584      0.00000
     11      44.3888      0.00000
     12      48.5972      0.00000

 k-point    25 :       0.2727    0.2727   -0.0000
  band No.  band energies     occupation 
      1       5.5980      1.00000
      2       8.0078      1.00000
      3      10.2038      1.00000
      4      10.7226      1.00000
      5      10.7226      1.00000
      6      11.4652      1.00000
      7      33.4764      0.00000
      8      33.5456      0.00000
      9      33.5457      0.00000
     10      35.6587      0.00000
     11      41.8509      0.00000
     12      56.5339      0.00000

 k-point    26 :       0.3636    0.2727    0.0000
  band No.  band energies     occupation 
      1       6.3736      1.00000
      2       7.7637      1.00000
      3      10.0844      1.00000
      4      10.8983      1.00000
      5      11.7030      1.00001
      6      11.8358      1.00058
      7      29.3853      0.00000
      8      31.4003      0.00000
      9      32.3891      0.00000
     10      36.6680      0.00000
     11      42.2824      0.00000
     12      56.5422      0.00000

 k-point    27 :       0.4545    0.2727   -0.0000
  band No.  band energies     occupation 
      1       6.9847      1.00000
      2       7.7622      1.00000
      3       9.7817      1.00000
      4      10.8016      1.00000
      5      11.9237      1.00386
      6      13.9461     -0.00000
      7      24.9739      0.00000
      8      29.2023      0.00000
      9      32.1884      0.00000
     10      36.9716      0.00000
     11      45.6271      0.00000
     12      54.7986      0.00000

 k-point    28 :      -0.4545    0.2727   -0.0000
  band No.  band energies     occupation 
      1       7.3953      1.00000
      2       7.9532      1.00000
      3       9.4924      1.00000
      4      10.6497      1.00000
      5      11.8423      1.00068
      6      16.6809     -0.00000
      7      21.1362      0.00000
      8      27.4814      0.00000
      9      33.0081      0.00000
     10      37.0600      0.00000
     11      50.2178      0.00000
     12      53.2995      0.00000

 k-point    29 :      -0.3636    0.2727   -0.0000
  band No.  band energies     occupation 
      1       7.7313      1.00000
      2       8.1968      1.00000
      3       9.1027      1.00000
      4      10.5224      1.00000
      5      11.4616      1.00000
      6      16.9971     -0.00000
      7      21.0262      0.00000
      8      26.3882      0.00000
      9      34.7607      0.00000
     10      37.4057      0.00000
     11      51.8591      0.00000
     12      52.0454      0.00000

 k-point    30 :      -0.2727    0.2727   -0.0000
  band No.  band energies     occupation 
      1       7.6386      1.00000
      2       8.6434      1.00000
      3       8.6438      1.00000
      4      10.3988      1.00000
      5      11.0007      1.00000
      6      14.7162     -0.00000
      7      24.3838      0.00000
      8      26.4749      0.00000
      9      37.2399      0.00000
     10      38.2099      0.00000
     11      49.2917      0.00000
     12      50.8645      0.00000

 k-point    31 :       0.3636    0.3636    0.0000
  band No.  band energies     occupation 
      1       6.4562      1.00000
      2       7.4281      1.00000
      3      11.4665      1.00000
      4      11.4665      1.00000
      5      11.7117      1.00002
      6      11.7684      1.00010
      7      28.4453      0.00000
      8      30.8339      0.00000
      9      30.8340      0.00000
     10      35.1923      0.00000
     11      40.2149      0.00000
     12      61.2800      0.00000

 k-point    32 :       0.4545    0.3636    0.0000
  band No.  band energies     occupation 
      1       6.6295      1.00000
      2       7.3154      1.00000
      3      11.0568      1.00000
      4      11.4921      1.00000
      5      11.9387      1.00509
      6      13.9993     -0.00000
      7      26.1182      0.00000
      8      27.8897      0.00000
      9      30.2675      0.00000
     10      36.1111      0.00000
     11      41.3275      0.00000
     12      59.0278      0.00000

 k-point    33 :      -0.4545    0.3636   -0.0000
  band No.  band energies     occupation 
      1       6.9580      1.00000
      2       7.4605      1.00000
      3      10.3876      1.00000
      4      11.3227      1.00000
      5      11.9092      1.00292
      6      16.8022     -0.00000
      7      23.4689      0.00000
      8      25.0066      0.00000
      9      30.8120      0.00000
     10      36.6186      0.00000
     11      45.0674      0.00000
     12      56.9033      0.00000

 k-point    34 :      -0.3636    0.3636    0.0000
  band No.  band energies     occupation 
      1       7.4329      1.00000
      2       7.7833      1.00000
      3       9.6257      1.00000
      4      11.0239      1.00000
      5      11.6479      1.00000
      6      19.5718      0.00000
      7      20.0365      0.00000
      8      24.4151      0.00000
      9      32.3803      0.00000
     10      36.9249      0.00000
     11      50.1166      0.00000
     12      54.7318      0.00000

 k-point    35 :       0.4545    0.4545    0.0000
  band No.  band energies     occupation 
      1       6.4417      1.00000
      2       7.0980      1.00000
      3      11.8607      1.00105
      4      11.9821      1.01039
      5      11.9821      1.01039
      6      14.4067     -0.00000
      7      24.2273      0.00000
      8      29.3087      0.00000
      9      29.3088      0.00000
     10      34.9790      0.00000
     11      39.7208      0.00000
     12      61.3302      0.00000

 k-point    36 :      -0.4545    0.4545   -0.0000
  band No.  band energies     occupation 
      1       6.5598      1.00000
      2       7.1527      1.00000
      3      11.4655      1.00000
      4      11.7565      1.00007
      5      12.0094      1.01524
      6      15.8135     -0.00000
      7      23.4815      0.00000
      8      27.1486      0.00000
      9      29.5027      0.00000
     10      35.9452      0.00000
     11      41.0917      0.00000
     12      59.8828      0.00000

 k-point    37 :       0.2727    0.1818    0.0909
  band No.  band energies     occupation 
      1       4.2612      1.00000
      2       8.6869      1.00000
      3       9.7616      1.00000
      4      10.0526      1.00000
      5      10.5085      1.00000
      6      11.3178      1.00000
      7      33.0421      0.00000
      8      33.8311      0.00000
      9      40.2057      0.00000
     10      40.7166      0.00000
     11      47.2057      0.00000
     12      48.6139      0.00000

 k-point    38 :       0.3636    0.1818    0.0909
  band No.  band energies     occupation 
      1       5.6314      1.00000
      2       8.5174      1.00000
      3       9.4750      1.00000
      4      10.1551      1.00000
      5      10.8310      1.00000
      6      11.9017      1.00251
      7      28.4145      0.00000
      8      32.6951      0.00000
      9      38.1211      0.00000
     10      41.6630      0.00000
     11      46.4679      0.00000
     12      48.4409      0.00000

 k-point    39 :       0.4545    0.1818    0.0909
  band No.  band energies     occupation 
      1       6.6933      1.00000
      2       8.8011      1.00000
      3       9.1983      1.00000
      4      10.0092      1.00000
      5      11.4064      1.00000
      6      12.9329     -0.00022
      7      23.8849      0.00000
      8      32.4066      0.00000
      9      36.1572      0.00000
     10      40.9441      0.00000
     11      46.0153      0.00000
     12      49.9700      0.00000

 k-point    40 :      -0.4545    0.1818    0.0909
  band No.  band energies     occupation 
      1       6.9844      1.00000
      2       8.8521      1.00000
      3       9.6084      1.00000
      4       9.8859      1.00000
      5      11.7393      1.00004
      6      14.5035     -0.00000
      7      20.3932      0.00000
      8      32.5597      0.00000
      9      34.8278      0.00000
     10      40.1736      0.00000
     11      45.8502      0.00000
     12      50.4201      0.00000

 k-point    41 :       0.3636    0.2727    0.0909
  band No.  band energies     occupation 
      1       5.9578      1.00000
      2       8.1049      1.00000
      3       9.5925      1.00000
      4      10.7211      1.00000
      5      10.9475      1.00000
      6      11.8851      1.00178
      7      30.5649      0.00000
      8      31.0519      0.00000
      9      34.7455      0.00000
     10      39.0885      0.00000
     11      44.0421      0.00000
     12      51.8744      0.00000

 k-point    42 :       0.4545    0.2727    0.0909
  band No.  band energies     occupation 
      1       6.9281      1.00000
      2       8.0530      1.00000
      3       9.2641      1.00000
      4      10.6862      1.00000
      5      11.4777      1.00000
      6      13.1807     -0.00000
      7      26.1075      0.00000
      8      30.3162      0.00000
      9      32.5384      0.00000
     10      39.9601      0.00000
     11      45.9999      0.00000
     12      50.7491      0.00000

 k-point    43 :      -0.4545    0.2727    0.0909
  band No.  band energies     occupation 
      1       7.4071      1.00000
      2       8.2091      1.00000
      3       9.1596      1.00000
      4      10.4885      1.00000
      5      11.7708      1.00011
      6      15.3502     -0.00000
      7      21.9918      0.00000
      8      29.8169      0.00000
      9      31.4203      0.00000
     10      40.0552      0.00000
     11      47.8380      0.00000
     12      51.9474      0.00000

 k-point    44 :      -0.3636    0.2727    0.0909
  band No.  band energies     occupation 
      1       7.6106      1.00000
      2       8.2659      1.00000
      3       9.1619      1.00000
      4      10.3607      1.00000
      5      11.6849      1.00001
      6      16.8123     -0.00000
      7      20.1285      0.00000
      8      28.7179      0.00000
      9      32.1790      0.00000
     10      40.4824      0.00000
     11      47.2767      0.00000
     12      54.5560      0.00000

 k-point    45 :      -0.2727    0.2727    0.0909
  band No.  band energies     occupation 
      1       7.5561      1.00000
      2       8.4948      1.00000
      3       8.7737      1.00000
      4      10.4297      1.00000
      5      11.3031      1.00000
      6      14.8182     -0.00000
      7      23.2812      0.00000
      8      28.0452      0.00000
      9      33.7921      0.00000
     10      41.6844      0.00000
     11      46.0924      0.00000
     12      53.2226      0.00000

 k-point    46 :      -0.1818    0.2727    0.0909
  band No.  band energies     occupation 
      1       6.8419      1.00000
      2       8.3607      1.00000
      3       9.0525      1.00000
      4      10.5642      1.00000
      5      10.7693      1.00000
      6      13.0664     -0.00000
      7      27.2470      0.00000
      8      28.4289      0.00000
      9      35.8957      0.00000
     10      43.6846      0.00000
     11      44.0529      0.00000
     12      50.7021      0.00000

 k-point    47 :       0.4545    0.3636    0.0909
  band No.  band energies     occupation 
      1       6.7720      1.00000
      2       7.5892      1.00000
      3      10.1126      1.00000
      4      11.4639      1.00000
      5      11.5037      1.00000
      6      13.3261     -0.00000
      7      28.2788      0.00000
      8      28.4682      0.00000
      9      29.8476      0.00000
     10      38.0459      0.00000
     11      42.5664      0.00000
     12      54.8859      0.00000

 k-point    48 :      -0.4545    0.3636    0.0909
  band No.  band energies     occupation 
      1       7.1388      1.00000
      2       7.6660      1.00000
      3       9.7842      1.00000
      4      11.1872      1.00000
      5      11.8424      1.00069
      6      15.7455     -0.00000
      7      24.4162      0.00000
      8      26.8180      0.00000
      9      29.2111      0.00000
     10      39.1378      0.00000
     11      45.4925      0.00000
     12      53.0289      0.00000

 k-point    49 :      -0.3636    0.3636    0.0909
  band No.  band energies     occupation 
      1       7.5363      1.00000
      2       7.8920      1.00000
      3       9.3364      1.00000
      4      10.8957      1.00000
      5      11.7897      1.00018
      6      18.6900      0.00000
      7      20.7754      0.00000
      8      25.4439      0.00000
      9      30.0853      0.00000
     10      39.7019      0.00000
     11      49.7905      0.00000
     12      51.4713      0.00000

 k-point    50 :      -0.2727    0.3636    0.0909
  band No.  band energies     occupation 
      1       8.0189      1.00000
      2       8.0472      1.00000
      3       8.8027      1.00000
      4      10.7009      1.00000
      5      11.4922      1.00000
      6      17.2917     -0.00000
      7      22.1137      0.00000
      8      25.2199      0.00000
      9      31.7010      0.00000
     10      40.6039      0.00000
     11      48.6588      0.00000
     12      54.6252      0.00000

 k-point    51 :      -0.4545    0.4545    0.0909
  band No.  band energies     occupation 
      1       6.7180      1.00000
      2       7.2921      1.00000
      3      10.8592      1.00000
      4      11.6398      1.00000
      5      11.9823      1.01043
      6      15.8292     -0.00000
      7      24.3317      0.00000
      8      27.2110      0.00000
      9      28.1198      0.00000
     10      37.5377      0.00000
     11      42.0469      0.00000
     12      57.2253      0.00000

 k-point    52 :      -0.3636    0.4545    0.0909
  band No.  band energies     occupation 
      1       7.0406      1.00000
      2       7.5322      1.00000
      3      10.1470      1.00000
      4      11.3181      1.00000
      5      11.9782      1.00980
      6      17.9332      0.00000
      7      23.1729      0.00000
      8      24.4686      0.00000
      9      28.5510      0.00000
     10      38.8762      0.00000
     11      45.3469      0.00000
     12      54.4147      0.00000

 k-point    53 :      -0.4545    0.3636    0.1818
  band No.  band energies     occupation 
      1       7.5260      1.00000
      2       8.0629      1.00000
      3       8.9169      1.00000
      4      10.9898      1.00000
      5      11.4616      1.00000
      6      15.1701     -0.00000
      7      25.1515      0.00000
      8      26.7000      0.00000
      9      30.1672      0.00000
     10      42.8612      0.00000
     11      45.3600      0.00000
[...]
  band No.  band energies     occupation 
      1       8.0560      1.00000
      2       8.6306      1.00000
      3       9.6801      1.00000
      4      10.9302      1.00000
      5      12.3995      0.35744
      6      17.0828     -0.00000
      7      20.4266      0.00000
      8      28.8314      0.00000
      9      32.2732      0.00000
     10      40.5044      0.00000
     11      47.2941      0.00000
     12      54.5319      0.00000

 k-point    45 :      -0.2727    0.2727    0.0909
  band No.  band energies     occupation 
      1       7.8606      1.00000
      2       8.9238      1.00000
      3       9.3095      1.00000
      4      10.9890      1.00000
      5      12.0069      1.01474
      6      15.2462     -0.00000
      7      23.4951      0.00000
      8      28.1659      0.00000
      9      33.8741      0.00000
     10      41.7049      0.00000
     11      46.0942      0.00000
     12      53.2636      0.00000

 k-point    46 :      -0.1818    0.2727    0.0909
  band No.  band energies     occupation 
      1       6.9567      1.00000
      2       8.9128      1.00000
      3       9.5753      1.00000
      4      11.0975      1.00000
      5      11.4775      1.00000
      6      13.6360     -0.00000
      7      27.4231      0.00000
      8      28.5307      0.00000
      9      35.9577      0.00000
     10      43.7190      0.00000
     11      44.0388      0.00000
     12      50.8291      0.00000

 k-point    47 :       0.4545    0.3636    0.0909
  band No.  band energies     occupation 
      1       7.0125      1.00000
      2       8.1294      1.00000
      3      10.6008      1.00000
      4      12.0646      1.02750
      5      12.1962      1.00078
      6      13.7740     -0.00000
      7      28.3855      0.00000
      8      28.5862      0.00000
      9      29.9440      0.00000
     10      38.1087      0.00000
     11      42.7011      0.00000
     12      54.8934      0.00000

 k-point    48 :      -0.4545    0.3636    0.0909
  band No.  band energies     occupation 
      1       7.4587      1.00000
      2       8.1812      1.00000
      3      10.2941      1.00000
      4      11.7748      1.00012
      5      12.5718     -0.02819
      6      16.0619     -0.00000
      7      24.5662      0.00000
      8      26.9719      0.00000
      9      29.2997      0.00000
     10      39.1948      0.00000
     11      45.6003      0.00000
     12      53.0454      0.00000

 k-point    49 :      -0.3636    0.3636    0.0909
  band No.  band energies     occupation 
      1       7.9153      1.00000
      2       8.3603      1.00000
      3       9.8591      1.00000
      4      11.4604      1.00000
      5      12.5329      0.00078
      6      18.9258      0.00000
      7      20.9917      0.00000
      8      25.6156      0.00000
      9      30.1787      0.00000
     10      39.7496      0.00000
     11      49.8403      0.00000
     12      51.5152      0.00000

 k-point    50 :      -0.2727    0.3636    0.0909
  band No.  band energies     occupation 
      1       8.3455      1.00000
      2       8.5354      1.00000
      3       9.3274      1.00000
      4      11.2487      1.00000
      5      12.2316      0.94820
      6      17.5948     -0.00000
      7      22.3237      0.00000
      8      25.3838      0.00000
      9      31.7955      0.00000
     10      40.6368      0.00000
     11      48.6381      0.00000
     12      54.7149      0.00000

 k-point    51 :      -0.4545    0.4545    0.0909
  band No.  band energies     occupation 
      1       7.0382      1.00000
      2       7.8175      1.00000
      3      11.4307      1.00000
      4      12.2300      0.95133
      5      12.7431     -0.01124
      6      16.0320     -0.00000
      7      24.5494      0.00000
      8      27.3070      0.00000
      9      28.1779      0.00000
     10      37.6197      0.00000
     11      42.1857      0.00000
     12      57.2206      0.00000

 k-point    52 :      -0.3636    0.4545    0.0909
  band No.  band energies     occupation 
      1       7.3830      1.00000
      2       8.0469      1.00000
      3      10.6907      1.00000
      4      11.8929      1.00210
      5      12.7396     -0.01182
      6      18.1294      0.00000
      7      23.3685      0.00000
      8      24.6388      0.00000
      9      28.6307      0.00000
     10      38.9411      0.00000
     11      45.4658      0.00000
     12      54.3884      0.00000

 k-point    53 :      -0.4545    0.3636    0.1818
  band No.  band energies     occupation 
      1       7.7997      1.00000
      2       8.5955      1.00000
      3       9.4119      1.00000
      4      11.5373      1.00000
      5      12.1959      1.00100
      6      15.5639     -0.00000
      7      25.3266      0.00000
      8      26.8171      0.00000
      9      30.2809      0.00000
     10      42.8740      0.00000
     11      45.4061      0.00000
     12      50.6461      0.00000

 k-point    54 :      -0.3636    0.3636    0.1818
  band No.  band energies     occupation 
      1       8.1201      1.00000
      2       8.6765      1.00000
      3       9.2840      1.00000
      4      11.3283      1.00000
      5      12.5107      0.03099
      6      18.0884      0.00000
      7      21.9009      0.00000
      8      26.7597      0.00000
      9      28.5975      0.00000
     10      43.6508      0.00000
     11      46.1109      0.00000
     12      52.2649      0.00000

 k-point    55 :      -0.3636    0.4545    0.1818
  band No.  band energies     occupation 
      1       7.6821      1.00000
      2       8.3975      1.00000
      3       9.9174      1.00000
      4      11.6328      1.00000
      5      12.7437     -0.01114
      6      18.4606      0.00000
      7      24.0893      0.00000
      8      24.7792      0.00000
      9      26.6704      0.00000
     10      42.2950      0.00000
     11      46.8216      0.00000
     12      50.8730      0.00000

 k-point    56 :      -0.2727    0.4545    0.1818
  band No.  band energies     occupation 
      1       7.9266      1.00000
      2       8.7768      1.00000
      3       9.3651      1.00000
      4      11.3940      1.00000
      5      12.7396     -0.01183
      6      20.9474      0.00000
      7      21.0284      0.00000
      8      24.5594      0.00000
      9      26.9386      0.00000
     10      43.9687      0.00000
     11      47.9195      0.00000
     12      50.3760      0.00000


--------------------------------------------------------------------------------------------------------


 soft charge-density along one line, spin component           1
         0         1         2         3         4         5         6         7         8         9
 total charge-density along one line
 
 soft charge-density along one line, spin component           2
         0         1         2         3         4         5         6         7         8         9
 total charge-density along one line
 
 pseudopotential strength for first ion, spin component:           1
  1.346   0.000  -0.000   0.000   0.000   0.587   0.000  -0.000
  0.000   1.346   0.000   0.000  -0.000   0.000   0.587   0.000
 -0.000   0.000   1.443   0.000  -0.000  -0.000   0.000   0.680
  0.000   0.000   0.000   1.346   0.000   0.000   0.000   0.000
  0.000  -0.000  -0.000   0.000   1.443   0.000  -0.000  -0.000
  0.587   0.000  -0.000   0.000   0.000  -0.098   0.000  -0.000
  0.000   0.587   0.000   0.000  -0.000   0.000  -0.098   0.000
 -0.000   0.000   0.680   0.000  -0.000  -0.000   0.000  -0.009
  0.000   0.000   0.000   0.587   0.000   0.000   0.000   0.000
  0.000  -0.000  -0.000   0.000   0.680   0.000  -0.000  -0.000
 -0.000  -0.000  -0.000  -0.000  -0.000  -0.000  -0.000  -0.000
 -0.000  -0.000  -0.000  -0.000  -0.000  -0.000  -0.000  -0.000
 -0.000  -0.000   0.000   0.000   0.000  -0.000  -0.000   0.000
  0.000  -0.000  -0.000  -0.000  -0.000   0.000  -0.000  -0.000
 -0.000   0.000   0.000  -0.000  -0.000  -0.000   0.000   0.000
 -0.000  -0.000   0.000   0.000   0.000  -0.000  -0.000   0.000
  0.000  -0.000  -0.000  -0.000  -0.000   0.000  -0.000  -0.000
 -0.000   0.000   0.000  -0.000  -0.000  -0.000   0.000   0.000
 pseudopotential strength for first ion, spin component:           2
  1.914   0.000  -0.000   0.000   0.000   1.129   0.000  -0.000
  0.000   1.914   0.000   0.000  -0.000   0.000   1.129   0.000
 -0.000   0.000   1.898   0.000  -0.000  -0.000   0.000   1.113
  0.000   0.000   0.000   1.914   0.000   0.000   0.000   0.000
  0.000  -0.000  -0.000   0.000   1.898   0.000  -0.000  -0.000
  1.129   0.000  -0.000   0.000   0.000   0.419   0.000  -0.000
  0.000   1.129   0.000   0.000  -0.000   0.000   0.419   0.000
 -0.000   0.000   1.113   0.000  -0.000  -0.000   0.000   0.404
  0.000   0.000   0.000   1.129   0.000   0.000   0.000   0.000
  0.000  -0.000  -0.000   0.000   1.113   0.000  -0.000  -0.000
 -0.000  -0.000  -0.000  -0.000  -0.000  -0.000  -0.000  -0.000
 -0.000  -0.000  -0.000  -0.000  -0.000  -0.000  -0.000  -0.000
 -0.000  -0.000   0.000   0.000   0.000  -0.000  -0.000   0.000
  0.000  -0.000  -0.000   0.000  -0.000   0.000  -0.000  -0.000
 -0.000   0.000   0.000  -0.000   0.000  -0.000   0.000   0.000
 -0.000  -0.000   0.000   0.000   0.000  -0.000  -0.000   0.000
  0.000  -0.000  -0.000   0.000  -0.000   0.000  -0.000  -0.000
 -0.000   0.000   0.000  -0.000  -0.000  -0.000   0.000   0.000
 total augmentation occupancy for first ion, spin component:           1
  3.266  -0.000   0.000  -0.000   0.000  -2.020   0.000   0.000  -0.000   0.000  -0.000  -0.000   0.000   0.000   0.000   0.000
 -0.000   3.266   0.000   0.000  -0.000  -0.000  -2.020  -0.000   0.000  -0.000  -0.000   0.000   0.000   0.000   0.000   0.000
 -0.000   0.000   4.076  -0.000   0.000   0.000   0.000  -2.363  -0.000  -0.000   0.000  -0.000   0.000   0.000   0.000   0.000
 -0.000   0.000   0.000   3.266   0.000   0.000  -0.000   0.000  -2.020  -0.000   0.000   0.000   0.000   0.000   0.000   0.000
  0.000   0.000   0.000   0.000   4.076  -0.000  -0.000   0.000   0.000  -2.363   0.000  -0.000   0.000   0.000   0.000   0.000
 -2.020   0.000   0.000   0.000   0.000   2.503  -0.000   0.000   0.000   0.000   0.000  -0.000   0.000   0.000   0.000   0.000
  0.000  -2.020   0.000   0.000   0.000   0.000   2.503  -0.000   0.000   0.000   0.000  -0.000   0.000   0.000   0.000   0.000
  0.000  -0.000  -2.363   0.000  -0.000   0.000  -0.000   2.483   0.000   0.000  -0.000  -0.000   0.000   0.000   0.000   0.000
  0.000  -0.000   0.000  -2.020  -0.000   0.000   0.000   0.000   2.503  -0.000   0.000   0.000   0.000   0.000   0.000   0.000
 -0.000  -0.000   0.000   0.000  -2.363  -0.000  -0.000  -0.000  -0.000   2.483   0.000   0.000   0.000   0.000   0.000   0.000
 -0.000  -0.000   0.000   0.000   0.000   0.000   0.000  -0.000  -0.000   0.000   2.892  -0.443   0.000   0.000   0.000   0.000
 -0.000   0.000  -0.000   0.000   0.000  -0.000  -0.000  -0.000   0.000   0.000  -0.443   0.078   0.000   0.000   0.000   0.000
  0.000   0.000   0.000   0.000   0.000   0.000   0.000   0.000   0.000   0.000   0.000   0.000   0.427  -0.000   0.000  -0.047
  0.000   0.000   0.000   0.000   0.000   0.000   0.000   0.000   0.000   0.000   0.000   0.000  -0.000   0.427   0.000   0.000
  0.000   0.000   0.000   0.000   0.000   0.000   0.000   0.000   0.000   0.000   0.000   0.000   0.000   0.000   0.427  -0.000
  0.000   0.000   0.000   0.000   0.000   0.000   0.000   0.000   0.000   0.000   0.000   0.000  -0.047   0.000  -0.000   0.006
  0.000   0.000   0.000   0.000   0.000   0.000   0.000   0.000   0.000   0.000   0.000   0.000   0.000  -0.047  -0.000   0.000
  0.000   0.000   0.000   0.000   0.000   0.000   0.000   0.000   0.000   0.000   0.000   0.000  -0.000  -0.000  -0.047   0.000
 total augmentation occupancy for first ion, spin component:           2
  1.106   0.000   0.000   0.000   0.000  -0.592  -0.000  -0.000  -0.000   0.000  -0.000  -0.000   0.000   0.000   0.000   0.000
  0.000   1.106   0.000   0.000   0.000   0.000  -0.592  -0.000   0.000   0.000   0.000   0.000   0.000   0.000   0.000   0.000
  0.000   0.000   0.598  -0.000   0.000  -0.000  -0.000  -0.305   0.000  -0.000   0.000   0.000   0.000   0.000   0.000   0.000
  0.000  -0.000  -0.000   1.106   0.000   0.000   0.000  -0.000  -0.592  -0.000   0.000   0.000   0.000   0.000   0.000   0.000
  0.000   0.000  -0.000   0.000   0.598   0.000  -0.000  -0.000  -0.000  -0.305   0.000   0.000   0.000   0.000   0.000   0.000
 -0.592   0.000   0.000  -0.000  -0.000   0.233  -0.000   0.000  -0.000  -0.000   0.000  -0.000   0.000   0.000   0.000   0.000
  0.000  -0.592  -0.000   0.000   0.000  -0.000   0.233  -0.000   0.000  -0.000   0.000   0.000   0.000   0.000   0.000   0.000
  0.000   0.000  -0.305  -0.000  -0.000   0.000  -0.000   0.092   0.000  -0.000  -0.000  -0.000   0.000   0.000   0.000   0.000
  0.000   0.000  -0.000  -0.592  -0.000   0.000  -0.000  -0.000   0.233   0.000   0.000  -0.000   0.000   0.000   0.000   0.000
  0.000   0.000  -0.000   0.000  -0.305   0.000  -0.000   0.000   0.000   0.092   0.000   0.000   0.000   0.000   0.000   0.000
 -0.000   0.000   0.000   0.000   0.000   0.000   0.000  -0.000   0.000   0.000  -0.143   0.048   0.000   0.000   0.000   0.000
 -0.000   0.000   0.000   0.000   0.000  -0.000   0.000  -0.000  -0.000   0.000   0.048  -0.011   0.000   0.000   0.000   0.000
  0.000   0.000   0.000   0.000   0.000   0.000   0.000   0.000   0.000   0.000   0.000   0.000  -0.019   0.000   0.000   0.003
  0.000   0.000   0.000   0.000   0.000   0.000   0.000   0.000   0.000   0.000   0.000   0.000   0.000  -0.019   0.000   0.000
  0.000   0.000   0.000   0.000   0.000   0.000   0.000   0.000   0.000   0.000   0.000   0.000   0.000   0.000  -0.019   0.000
  0.000   0.000   0.000   0.000   0.000   0.000   0.000   0.000   0.000   0.000   0.000   0.000   0.003   0.000   0.000  -0.000
  0.000   0.000   0.000   0.000   0.000   0.000   0.000   0.000   0.000   0.000   0.000   0.000   0.000   0.003   0.000   0.000
  0.000   0.000   0.000   0.000   0.000   0.000   0.000   0.000   0.000   0.000   0.000   0.000   0.000   0.000   0.003   0.000


------------------------ aborting loop because EDIFF is reached ----------------------------------------





 total charge

# of ion       s       p       d       tot
------------------------------------------
    1        0.590   0.696   8.438   9.724



 magnetization (x)

# of ion       s       p       d       tot
------------------------------------------
    1       -0.007  -0.027   0.598   0.564
 
    CHARGE:  cpu time      0.0032: real time      0.0032
    FORLOC:  cpu time      0.0001: real time      0.0001
    FORNL :  cpu time      0.0042: real time      0.0042
    STRESS:  cpu time      0.0337: real time      0.0337
    FORCOR:  cpu time      0.0023: real time      0.0023
    FORHAR:  cpu time      0.0003: real time      0.0003
    MIXING:  cpu time      0.0002: real time      0.0002
    OFIELD:  cpu time      0.0000: real time      0.0000

  FORCE on cell =-STRESS in cart. coord.  units (eV):
  Direction    XX          YY          ZZ          XY          YZ          ZX
  --------------------------------------------------------------------------------------
  Alpha Z    56.76534    56.76534    56.76534
  Ewald    -333.43960  -333.43960  -333.43960    -0.00000    -0.00000    -0.00000
  Hartree    65.12445    65.12445    65.12445     0.00000     0.00000     0.00000
  E(xc)     -55.72268   -55.72268   -55.72268    -0.00007    -0.00007    -0.00007
  Local      18.79739    18.79739    18.79739     0.00070     0.00070     0.00070
  n-local    -2.79902    -6.10269    -3.38155    -3.77479     1.82221     3.22281
  augment   175.09488   175.09487   175.09488    -0.00081    -0.00081    -0.00081
  Kinetic    79.52322    82.99020    79.06821     1.74890    -1.67584    -1.26411
  Fock        0.00000     0.00000     0.00000     0.00000     0.00000     0.00000
  -------------------------------------------------------------------------------------
  Total       3.05256     3.05256     3.05256     0.00000     0.00000     0.00000
  in kB     544.36844   544.36844   544.36844     0.00000     0.00000     0.00000
  external pressure =      544.37 kB  Pullay stress =        0.00 kB


 VOLUME and BASIS-vectors are now :
 -----------------------------------------------------------------------------
  energy-cutoff  :      270.00
  volume of cell :        8.98
      direct lattice vectors                 reciprocal lattice vectors
     1.650000000  1.650000000  0.000000000     0.303030303  0.303030303 -0.303030303
     0.000000000  1.650000000  1.650000000    -0.303030303  0.303030303  0.303030303
     1.650000000  0.000000000  1.650000000     0.303030303 -0.303030303  0.303030303

  length of vectors
     2.333452378  2.333452378  2.333452378     0.524863881  0.524863881  0.524863881


 FORCES acting on ions
    electron-ion (+dipol)            ewald-force                    non-local-force                 convergence-correction
 -----------------------------------------------------------------------------------------------
   0.207E-13 0.365E-13 0.170E-13   0.505E-14 -.208E-14 -.374E-15   0.375E-24 -.747E-23 -.129E-22   0.257E-13 0.257E-13 0.659E-14
 -----------------------------------------------------------------------------------------------
   0.207E-13 0.365E-13 0.170E-13   0.505E-14 -.208E-14 -.374E-15   0.375E-24 -.747E-23 -.129E-22   0.257E-13 0.257E-13 0.659E-14
 
 
 POSITION                                       TOTAL-FORCE (eV/Angst)
 -----------------------------------------------------------------------------------
      0.00000      0.00000      0.00000        -0.000000     -0.000000      0.000000
 -----------------------------------------------------------------------------------
    total drift:                                0.000000      0.000000      0.000000


--------------------------------------------------------------------------------------------------------



  FREE ENERGIE OF THE ION-ELECTRON SYSTEM (eV)
  ---------------------------------------------------
  free  energy   TOTEN  =        -5.17828600 eV

  energy  without entropy=       -5.17941019  energy(sigma->0) =       -5.17866073
 


--------------------------------------------------------------------------------------------------------


    POTLOK:  cpu time      0.0064: real time      0.0064


--------------------------------------------------------------------------------------------------------


 writing wavefunctions
     LOOP+:  cpu time      2.3186: real time      2.3303
    4ORBIT:  cpu time      0.0000: real time      0.0000



 total charge

# of ion       s       p       d       tot
------------------------------------------
    1        0.590   0.696   8.438   9.724



 magnetization (x)

# of ion       s       p       d       tot
------------------------------------------
    1       -0.007  -0.027   0.598   0.564
 

 total amount of memory used by VASP MPI-rank0    31793. kBytes
=======================================================================

   base      :      30000. kBytes
   nonl-proj :        808. kBytes
   fftplans  :         71. kBytes
   grid      :        238. kBytes
   one-center:         31. kBytes
   wavefun   :        645. kBytes
 
  
  
 General timing and accounting informations for this job:
 ========================================================
  
                  Total CPU time used (sec):        2.598
                            User time (sec):        2.373
                          System time (sec):        0.225
                         Elapsed time (sec):        2.613
  
                   Maximum memory used (kb):       57184.
                   Average memory used (kb):          N/A
  
                          Minor page faults:        18541
                          Major page faults:            0
                 Voluntary context switches:          209
