PROCAR lm decomposed
# of k-points:   56         # of bands:   12         # of ions:    1

 k-point     1 :    0.00000000 0.00000000 0.00000000     weight = 0.00075131

band     1 # energy    1.95793416 # occ.  1.00000000
 
ion      s     py     pz     px    dxy    dyz    dz2    dxz  x2-y2    tot
    1  0.910  0.000  0.000  0.000  0.000  0.000  0.000  0.000  0.000  0.910
 
band     2 # energy    9.42040020 # occ.  1.00000000
 
ion      s     py     pz     px    dxy    dyz    dz2    dxz  x2-y2    tot
    1  0.000  0.000  0.000  0.000  0.498  0.498  0.000  0.000  0.000  0.995
 
band     3 # energy    9.42040064 # occ.  1.00000000
 
ion      s     py     pz     px    dxy    dyz    dz2    dxz  x2-y2    tot
    1  0.000  0.000  0.000  0.000  0.162  0.163  0.000  0.670  0.000  0.995
 
band     4 # energy    9.42040556 # occ.  1.00000000
 
ion      s     py     pz     px    dxy    dyz    dz2    dxz  x2-y2    tot
    1  0.000  0.000  0.000  0.000  0.335  0.335  0.000  0.325  0.000  0.995
 
band     5 # energy   10.93923291 # occ.  1.00000000
 
ion      s     py     pz     px    dxy    dyz    dz2    dxz  x2-y2    tot
    1  0.000  0.000  0.000  0.000  0.000  0.000  0.249  0.000  0.747  0.996
 
band     6 # energy   10.93923303 # occ.  1.00000000
 
ion      s     py     pz     px    dxy    dyz    dz2    dxz  x2-y2    tot
    1  0.000  0.000  0.000  0.000  0.000  0.000  0.747  0.000  0.249  0.996
 
band     7 # energy   37.73279773 # occ.  0.00000000
 
ion      s     py     pz     px    dxy    dyz    dz2    dxz  x2-y2    tot
    1  0.000  0.000  0.000  0.000  0.000  0.000  0.000  0.000  0.000  0.000
 
band     8 # energy   43.13654130 # occ.  0.00000000
 
ion      s     py     pz     px    dxy    dyz    dz2    dxz  x2-y2    tot
    1  0.000  0.099  0.099  0.099  0.000  0.000  0.000  0.000  0.000  0.297
 
band     9 # energy   43.13678344 # occ.  0.00000000
 
ion      s     py     pz     px    dxy    dyz    dz2    dxz  x2-y2    tot
    1  0.000  0.000  0.150  0.147  0.000  0.000  0.000  0.000  0.000  0.297
 
band    10 # energy   43.13678353 # occ.  0.00000000
 
ion      s     py     pz     px    dxy    dyz    dz2    dxz  x2-y2    tot
    1  0.000  0.198  0.048  0.051  0.000  0.000  0.000  0.000  0.000  0.297
 
band    11 # energy   47.32127845 # occ.  0.00000000
 
ion      s     py     pz     px    dxy    dyz    dz2    dxz  x2-y2    tot
    1  0.000  0.000  0.000  0.000  0.449  1.119  0.000  0.025  0.000  1.593
 
band    12 # energy   47.32134297 # occ.  0.00000000
 
ion      s     py     pz     px    dxy    dyz    dz2    dxz  x2-y2    tot
    1  0.000  0.000  0.000  0.000  1.022  0.457  0.000  0.113  0.000  1.593
 

 k-point     2 :    0.09090909-0.00000000-0.00000000     weight = 0.00601052

band     1 # energy    2.32959617 # occ.  1.00000000
 
ion      s     py     pz     px    dxy    dyz    dz2    dxz  x2-y2    tot
    1  0.879  0.010  0.010  0.010  0.000  0.000  0.000  0.000  0.000  0.910
 
band     2 # energy    9.30886050 # occ.  1.00000000
 
ion      s     py     pz     px    dxy    dyz    dz2    dxz  x2-y2    tot
    1  0.000  0.001  0.001  0.001  0.329  0.329  0.000  0.329  0.000  0.993
 
band     3 # energy    9.51187941 # occ.  1.00000000
 
ion      s     py     pz     px    dxy    dyz    dz2    dxz  x2-y2    tot
    1  0.000  0.000  0.001  0.000  0.659  0.156  0.005  0.174  0.000  0.994
 
band     4 # energy    9.51188538 # occ.  1.00000000
 
ion      s     py     pz     px    dxy    dyz    dz2    dxz  x2-y2    tot
    1  0.000  0.000  0.000  0.000  0.000  0.503  0.000  0.485  0.005  0.994
 
band     5 # energy   10.89598421 # occ.  1.00000000
 
ion      s     py     pz     px    dxy    dyz    dz2    dxz  x2-y2    tot
    1  0.000  0.000  0.000  0.000  0.000  0.002  0.000  0.002  0.989  0.994
 
band     6 # energy   10.89599929 # occ.  1.00000000
 
ion      s     py     pz     px    dxy    dyz    dz2    dxz  x2-y2    tot
    1  0.000  0.000  0.000  0.000  0.003  0.001  0.989  0.001  0.000  0.994
 
band     7 # energy   36.89403939 # occ.  0.00000000
 
ion      s     py     pz     px    dxy    dyz    dz2    dxz  x2-y2    tot
    1  0.004  0.021  0.021  0.021  0.103  0.103  0.000  0.103  0.000  0.378
 
band     8 # energy   40.09221877 # occ.  0.00000000
 
ion      s     py     pz     px    dxy    dyz    dz2    dxz  x2-y2    tot
    1  0.031  0.068  0.068  0.068  0.022  0.022  0.000  0.022  0.000  0.303
 
band     9 # energy   42.68904344 # occ.  0.00000000
 
ion      s     py     pz     px    dxy    dyz    dz2    dxz  x2-y2    tot
    1  0.000  0.048  0.193  0.048  0.162  0.040  0.038  0.040  0.000  0.570
 
band    10 # energy   42.68930690 # occ.  0.00000000
 
ion      s     py     pz     px    dxy    dyz    dz2    dxz  x2-y2    tot
    1  0.000  0.145  0.000  0.145  0.000  0.121  0.000  0.121  0.038  0.570
 
band    11 # energy   47.80027114 # occ.  0.00000000
 
ion      s     py     pz     px    dxy    dyz    dz2    dxz  x2-y2    tot
    1  0.016  0.024  0.024  0.024  0.195  0.198  0.000  0.199  0.000  0.681
 
band    12 # energy   48.00818234 # occ.  0.00000000
 
ion      s     py     pz     px    dxy    dyz    dz2    dxz  x2-y2    tot
    1  0.000  0.000  0.000  0.001  0.105  0.771  0.004  0.330  0.026  1.237
 

 k-point     3 :    0.18181818 0.00000000 0.00000000     weight = 0.00601052

band     1 # energy    3.38381292 # occ.  1.00000000
 
ion      s     py     pz     px    dxy    dyz    dz2    dxz  x2-y2    tot
    1  0.787  0.036  0.036  0.036  0.006  0.006  0.000  0.006  0.000  0.913
 
band     2 # energy    9.06559467 # occ.  1.00000000
 
ion      s     py     pz     px    dxy    dyz    dz2    dxz  x2-y2    tot
    1  0.004  0.009  0.009  0.009  0.318  0.318  0.000  0.318  0.000  0.984
 
band     3 # energy    9.67757339 # occ.  1.00000000
 
ion      s     py     pz     px    dxy    dyz    dz2    dxz  x2-y2    tot
    1  0.000  0.000  0.001  0.000  0.599  0.149  0.091  0.151  0.000  0.991
 
band     4 # energy    9.67763282 # occ.  1.00000000
 
ion      s     py     pz     px    dxy    dyz    dz2    dxz  x2-y2    tot
    1  0.000  0.001  0.000  0.001  0.000  0.450  0.000  0.448  0.091  0.991
 
band     5 # energy   10.87716972 # occ.  1.00000000
 
ion      s     py     pz     px    dxy    dyz    dz2    dxz  x2-y2    tot
    1  0.000  0.000  0.000  0.000  0.000  0.045  0.000  0.045  0.898  0.989
 
band     6 # energy   10.87723200 # occ.  1.00000000
 
ion      s     py     pz     px    dxy    dyz    dz2    dxz  x2-y2    tot
    1  0.000  0.000  0.000  0.000  0.060  0.015  0.898  0.015  0.000  0.989
 
band     7 # energy   32.65961548 # occ.  0.00000000
 
ion      s     py     pz     px    dxy    dyz    dz2    dxz  x2-y2    tot
    1  0.056  0.087  0.087  0.087  0.174  0.174  0.000  0.174  0.000  0.839
 
band     8 # energy   38.74749861 # occ.  0.00000000
 
ion      s     py     pz     px    dxy    dyz    dz2    dxz  x2-y2    tot
    1  0.029  0.007  0.007  0.007  0.018  0.018  0.000  0.018  0.000  0.104
 
band     9 # energy   41.87481705 # occ.  0.00000000
 
ion      s     py     pz     px    dxy    dyz    dz2    dxz  x2-y2    tot
    1  0.000  0.051  0.203  0.051  0.326  0.081  0.097  0.081  0.000  0.889
 
band    10 # energy   41.87519771 # occ.  0.00000000
 
ion      s     py     pz     px    dxy    dyz    dz2    dxz  x2-y2    tot
    1  0.000  0.152  0.000  0.152  0.000  0.244  0.000  0.244  0.097  0.889
 
band    11 # energy   47.56790851 # occ.  0.00000000
 
ion      s     py     pz     px    dxy    dyz    dz2    dxz  x2-y2    tot
    1  0.006  0.071  0.071  0.071  0.026  0.026  0.000  0.026  0.000  0.299
 
band    12 # energy   48.41917936 # occ.  0.00000000
 
ion      s     py     pz     px    dxy    dyz    dz2    dxz  x2-y2    tot
    1  0.000  0.021  0.011  0.011  0.092  0.091  0.139  0.178  0.225  0.769
 

 k-point     4 :    0.27272727 0.00000000 0.00000000     weight = 0.00601052

band     1 # energy    4.85574958 # occ.  1.00000000
 
ion      s     py     pz     px    dxy    dyz    dz2    dxz  x2-y2    tot
    1  0.622  0.058  0.058  0.058  0.043  0.043  0.000  0.043  0.000  0.925
 
band     2 # energy    9.01391016 # occ.  1.00000000
 
ion      s     py     pz     px    dxy    dyz    dz2    dxz  x2-y2    tot
    1  0.030  0.042  0.042  0.042  0.271  0.271  0.000  0.271  0.000  0.969
 
band     3 # energy    9.68007925 # occ.  1.00000000
 
ion      s     py     pz     px    dxy    dyz    dz2    dxz  x2-y2    tot
    1  0.000  0.000  0.001  0.000  0.433  0.108  0.338  0.109  0.000  0.989
 
band     4 # energy    9.68015797 # occ.  1.00000000
 
ion      s     py     pz     px    dxy    dyz    dz2    dxz  x2-y2    tot
    1  0.000  0.001  0.000  0.001  0.000  0.325  0.000  0.324  0.338  0.989
 
band     5 # energy   11.11465455 # occ.  1.00000000
 
ion      s     py     pz     px    dxy    dyz    dz2    dxz  x2-y2    tot
    1  0.000  0.001  0.000  0.001  0.000  0.169  0.000  0.169  0.648  0.988
 
band     6 # energy   11.11477436 # occ.  1.00000000
 
ion      s     py     pz     px    dxy    dyz    dz2    dxz  x2-y2    tot
    1  0.000  0.000  0.001  0.000  0.225  0.056  0.648  0.056  0.000  0.988
 
band     7 # energy   27.76055106 # occ.  0.00000000
 
ion      s     py     pz     px    dxy    dyz    dz2    dxz  x2-y2    tot
    1  0.137  0.102  0.102  0.102  0.160  0.160  0.000  0.160  0.000  0.922
 
band     8 # energy   37.82072142 # occ.  0.00000000
 
ion      s     py     pz     px    dxy    dyz    dz2    dxz  x2-y2    tot
    1  0.016  0.001  0.001  0.001  0.030  0.030  0.000  0.030  0.000  0.108
 
band     9 # energy   41.29239755 # occ.  0.00000000
 
ion      s     py     pz     px    dxy    dyz    dz2    dxz  x2-y2    tot
    1  0.000  0.062  0.249  0.062  0.323  0.081  0.111  0.081  0.000  0.969
 
band    10 # energy   41.29265216 # occ.  0.00000000
 
ion      s     py     pz     px    dxy    dyz    dz2    dxz  x2-y2    tot
    1  0.000  0.186  0.000  0.186  0.000  0.242  0.000  0.242  0.111  0.969
 
band    11 # energy   46.71876187 # occ.  0.00000000
 
ion      s     py     pz     px    dxy    dyz    dz2    dxz  x2-y2    tot
    1  0.000  0.023  0.092  0.023  0.000  0.000  0.688  0.000  0.000  0.827
 
band    12 # energy   46.71880936 # occ.  0.00000000
 
ion      s     py     pz     px    dxy    dyz    dz2    dxz  x2-y2    tot
    1  0.000  0.069  0.000  0.069  0.000  0.000  0.000  0.000  0.688  0.827
 

 k-point     5 :    0.36363636 0.00000000-0.00000000     weight = 0.00601052

band     1 # energy    6.00931976 # occ.  1.00000000
 
ion      s     py     pz     px    dxy    dyz    dz2    dxz  x2-y2    tot
    1  0.373  0.032  0.032  0.032  0.162  0.162  0.000  0.162  0.000  0.957
 
band     2 # energy    9.52903848 # occ.  1.00000000
 
ion      s     py     pz     px    dxy    dyz    dz2    dxz  x2-y2    tot
    1  0.000  0.000  0.000  0.000  0.321  0.080  0.505  0.081  0.000  0.988
 
band     3 # energy    9.52912920 # occ.  1.00000000
 
ion      s     py     pz     px    dxy    dyz    dz2    dxz  x2-y2    tot
    1  0.000  0.000  0.000  0.000  0.000  0.241  0.000  0.241  0.505  0.988
 
band     4 # energy    9.81503550 # occ.  1.00000000
 
ion      s     py     pz     px    dxy    dyz    dz2    dxz  x2-y2    tot
    1  0.098  0.141  0.141  0.141  0.135  0.135  0.000  0.135  0.000  0.925
 
band     5 # energy   11.51979508 # occ.  1.00000002
 
ion      s     py     pz     px    dxy    dyz    dz2    dxz  x2-y2    tot
    1  0.000  0.001  0.000  0.001  0.000  0.254  0.000  0.254  0.481  0.990
 
band     6 # energy   11.51994876 # occ.  1.00000002
 
ion      s     py     pz     px    dxy    dyz    dz2    dxz  x2-y2    tot
    1  0.000  0.000  0.001  0.000  0.339  0.085  0.481  0.085  0.000  0.990
 
band     7 # energy   23.31143580 # occ.  0.00000000
 
ion      s     py     pz     px    dxy    dyz    dz2    dxz  x2-y2    tot
    1  0.265  0.083  0.083  0.083  0.153  0.153  0.000  0.153  0.000  0.972
 
band     8 # energy   36.81665227 # occ.  0.00000000
 
ion      s     py     pz     px    dxy    dyz    dz2    dxz  x2-y2    tot
    1  0.006  0.007  0.007  0.007  0.015  0.015  0.000  0.015  0.000  0.069
 
band     9 # energy   40.85174819 # occ.  0.00000000
 
ion      s     py     pz     px    dxy    dyz    dz2    dxz  x2-y2    tot
    1  0.000  0.081  0.325  0.081  0.201  0.050  0.073  0.050  0.000  0.863
 
band    10 # energy   40.85186963 # occ.  0.00000000
 
ion      s     py     pz     px    dxy    dyz    dz2    dxz  x2-y2    tot
    1  0.000  0.244  0.000  0.244  0.000  0.151  0.000  0.151  0.073  0.863
 
band    11 # energy   44.81072900 # occ.  0.00000000
 
ion      s     py     pz     px    dxy    dyz    dz2    dxz  x2-y2    tot
    1  0.000  0.017  0.067  0.017  0.092  0.023  0.817  0.023  0.000  1.057
 
band    12 # energy   44.81114691 # occ.  0.00000000
 
ion      s     py     pz     px    dxy    dyz    dz2    dxz  x2-y2    tot
    1  0.000  0.050  0.000  0.050  0.000  0.069  0.000  0.069  0.817  1.057
 

 k-point     6 :    0.45454545 0.00000000 0.00000000     weight = 0.00601052

band     1 # energy    6.35952392 # occ.  1.00000000
 
ion      s     py     pz     px    dxy    dyz    dz2    dxz  x2-y2    tot
    1  0.227  0.003  0.003  0.003  0.247  0.247  0.000  0.247  0.000  0.979
 
band     2 # energy    9.41117765 # occ.  1.00000000
 
ion      s     py     pz     px    dxy    dyz    dz2    dxz  x2-y2    tot
    1  0.000  0.000  0.000  0.000  0.281  0.070  0.566  0.071  0.000  0.987
 
band     3 # energy    9.41127034 # occ.  1.00000000
 
ion      s     py     pz     px    dxy    dyz    dz2    dxz  x2-y2    tot
    1  0.000  0.000  0.000  0.000  0.000  0.211  0.000  0.211  0.566  0.987
 
band     4 # energy   11.38964519 # occ.  1.00000000
 
ion      s     py     pz     px    dxy    dyz    dz2    dxz  x2-y2    tot
    1  0.035  0.262  0.262  0.262  0.019  0.019  0.000  0.019  0.000  0.879
 
band     5 # energy   11.81054284 # occ.  1.00031314
 
ion      s     py     pz     px    dxy    dyz    dz2    dxz  x2-y2    tot
    1  0.000  0.000  0.000  0.000  0.000  0.286  0.000  0.286  0.421  0.994
 
band     6 # energy   11.81070625 # occ.  1.00031444
 
ion      s     py     pz     px    dxy    dyz    dz2    dxz  x2-y2    tot
    1  0.000  0.000  0.000  0.000  0.382  0.095  0.421  0.095  0.000  0.994
 
band     7 # energy   20.11280610 # occ.  0.00000000
 
ion      s     py     pz     px    dxy    dyz    dz2    dxz  x2-y2    tot
    1  0.441  0.020  0.020  0.020  0.169  0.169  0.000  0.169  0.000  1.009
 
band     8 # energy   36.20962792 # occ.  0.00000000
 
ion      s     py     pz     px    dxy    dyz    dz2    dxz  x2-y2    tot
    1  0.001  0.011  0.011  0.011  0.002  0.002  0.000  0.002  0.000  0.038
 
band     9 # energy   40.62018030 # occ.  0.00000000
 
ion      s     py     pz     px    dxy    dyz    dz2    dxz  x2-y2    tot
    1  0.000  0.302  0.000  0.304  0.000  0.023  0.000  0.023  0.011  0.664
 
band    10 # energy   40.62022194 # occ.  0.00000000
 
ion      s     py     pz     px    dxy    dyz    dz2    dxz  x2-y2    tot
    1  0.000  0.102  0.404  0.100  0.031  0.008  0.011  0.008  0.000  0.664
 
band    11 # energy   43.78945706 # occ.  0.00000000
 
ion      s     py     pz     px    dxy    dyz    dz2    dxz  x2-y2    tot
    1  0.000  0.003  0.011  0.003  0.257  0.064  0.882  0.064  0.000  1.283
 
band    12 # energy   43.79016605 # occ.  0.00000000
 
ion      s     py     pz     px    dxy    dyz    dz2    dxz  x2-y2    tot
    1  0.000  0.008  0.000  0.008  0.000  0.193  0.000  0.193  0.882  1.283
 

 k-point     7 :    0.09090909 0.09090909 0.00000000     weight = 0.00450789

band     1 # energy    2.45231463 # occ.  1.00000000
 
ion      s     py     pz     px    dxy    dyz    dz2    dxz  x2-y2    tot
    1  0.868  0.041  0.000  0.000  0.000  0.000  0.000  0.000  0.001  0.910
 
band     2 # energy    9.21280713 # occ.  1.00000000
 
ion      s     py     pz     px    dxy    dyz    dz2    dxz  x2-y2    tot
    1  0.000  0.000  0.000  0.000  0.000  0.000  0.000  0.992  0.000  0.992
 
band     3 # energy    9.57938273 # occ.  1.00000000
 
ion      s     py     pz     px    dxy    dyz    dz2    dxz  x2-y2    tot
    1  0.000  0.000  0.002  0.002  0.495  0.495  0.000  0.000  0.000  0.994
 
band     4 # energy    9.57938658 # occ.  1.00000000
 
ion      s     py     pz     px    dxy    dyz    dz2    dxz  x2-y2    tot
    1  0.000  0.000  0.002  0.002  0.495  0.495  0.000  0.000  0.000  0.994
 
band     5 # energy   10.74199612 # occ.  1.00000000
 
ion      s     py     pz     px    dxy    dyz    dz2    dxz  x2-y2    tot
    1  0.001  0.000  0.000  0.000  0.000  0.000  0.247  0.000  0.742  0.991
 
band     6 # energy   11.00776832 # occ.  1.00000000
 
ion      s     py     pz     px    dxy    dyz    dz2    dxz  x2-y2    tot
    1  0.000  0.000  0.000  0.000  0.000  0.000  0.746  0.000  0.249  0.995
 
band     7 # energy   37.23433157 # occ.  0.00000000
 
ion      s     py     pz     px    dxy    dyz    dz2    dxz  x2-y2    tot
    1  0.000  0.000  0.000  0.000  0.000  0.000  0.000  0.279  0.000  0.279
 
band     8 # energy   40.73272723 # occ.  0.00000000
 
ion      s     py     pz     px    dxy    dyz    dz2    dxz  x2-y2    tot
    1  0.000  0.000  0.174  0.174  0.208  0.208  0.000  0.000  0.000  0.763
 
band     9 # energy   40.73284416 # occ.  0.00000000
 
ion      s     py     pz     px    dxy    dyz    dz2    dxz  x2-y2    tot
    1  0.000  0.000  0.174  0.174  0.208  0.208  0.000  0.000  0.000  0.763
 
band    10 # energy   40.96193035 # occ.  0.00000000
 
ion      s     py     pz     px    dxy    dyz    dz2    dxz  x2-y2    tot
    1  0.046  0.122  0.000  0.000  0.000  0.000  0.029  0.000  0.087  0.284
 
band    11 # energy   48.94434326 # occ.  0.00000000
 
ion      s     py     pz     px    dxy    dyz    dz2    dxz  x2-y2    tot
    1  0.000  0.000  0.000  0.000  0.000  0.000  0.000  1.306  0.000  1.306
 
band    12 # energy   49.35815908 # occ.  0.00000000
 
ion      s     py     pz     px    dxy    dyz    dz2    dxz  x2-y2    tot
    1  0.000  0.000  0.001  0.001  0.473  0.380  0.000  0.000  0.000  0.854
 

 k-point     8 :    0.18181818 0.09090909-0.00000000     weight = 0.01803156

band     1 # energy    3.27773333 # occ.  1.00000000
 
ion      s     py     pz     px    dxy    dyz    dz2    dxz  x2-y2    tot
    1  0.796  0.086  0.009  0.009  0.003  0.003  0.001  0.000  0.004  0.912
 
band     2 # energy    8.96865202 # occ.  1.00000000
 
ion      s     py     pz     px    dxy    dyz    dz2    dxz  x2-y2    tot
    1  0.000  0.001  0.003  0.003  0.056  0.056  0.000  0.868  0.000  0.989
 
band     3 # energy    9.75391871 # occ.  1.00000000
 
ion      s     py     pz     px    dxy    dyz    dz2    dxz  x2-y2    tot
    1  0.000  0.001  0.002  0.003  0.406  0.405  0.015  0.112  0.046  0.991
 
band     4 # energy    9.77024573 # occ.  1.00000000
 
ion      s     py     pz     px    dxy    dyz    dz2    dxz  x2-y2    tot
    1  0.000  0.000  0.003  0.003  0.472  0.473  0.030  0.000  0.010  0.992
 
band     5 # energy   10.60121706 # occ.  1.00000000
 
ion      s     py     pz     px    dxy    dyz    dz2    dxz  x2-y2    tot
    1  0.004  0.003  0.000  0.000  0.027  0.027  0.230  0.006  0.690  0.987
 
band     6 # energy   11.07723124 # occ.  1.00000000
 
ion      s     py     pz     px    dxy    dyz    dz2    dxz  x2-y2    tot
    1  0.000  0.000  0.000  0.000  0.020  0.020  0.715  0.000  0.238  0.993
 
band     7 # energy   34.55957656 # occ.  0.00000000
 
ion      s     py     pz     px    dxy    dyz    dz2    dxz  x2-y2    tot
    1  0.028  0.028  0.096  0.096  0.130  0.130  0.002  0.254  0.007  0.772
 
band     8 # energy   38.09673933 # occ.  0.00000000
 
ion      s     py     pz     px    dxy    dyz    dz2    dxz  x2-y2    tot
    1  0.037  0.032  0.011  0.011  0.010  0.010  0.017  0.173  0.050  0.349
 
band     9 # energy   39.19619634 # occ.  0.00000000
 
ion      s     py     pz     px    dxy    dyz    dz2    dxz  x2-y2    tot
    1  0.000  0.000  0.198  0.198  0.228  0.228  0.013  0.000  0.004  0.870
 
band    10 # energy   42.18354387 # occ.  0.00000000
 
ion      s     py     pz     px    dxy    dyz    dz2    dxz  x2-y2    tot
    1  0.001  0.000  0.080  0.080  0.050  0.050  0.055  0.016  0.166  0.498
 
band    11 # energy   47.30101096 # occ.  0.00000000
 
ion      s     py     pz     px    dxy    dyz    dz2    dxz  x2-y2    tot
    1  0.027  0.309  0.009  0.009  0.106  0.106  0.002  0.249  0.006  0.823
 
band    12 # energy   50.12467460 # occ.  0.00000000
 
ion      s     py     pz     px    dxy    dyz    dz2    dxz  x2-y2    tot
    1  0.100  0.300  0.024  0.025  0.127  0.126  0.078  0.166  0.237  1.184
 

 k-point     9 :    0.27272727 0.09090909 0.00000000     weight = 0.01803156

band     1 # energy    4.63337802 # occ.  1.00000000
 
ion      s     py     pz     px    dxy    dyz    dz2    dxz  x2-y2    tot
    1  0.658  0.128  0.028  0.028  0.025  0.025  0.003  0.013  0.010  0.918
 
band     2 # energy    8.76727857 # occ.  1.00000000
 
ion      s     py     pz     px    dxy    dyz    dz2    dxz  x2-y2    tot
    1  0.009  0.012  0.020  0.020  0.095  0.095  0.001  0.725  0.003  0.980
 
band     3 # energy    9.70337376 # occ.  1.00000000
 
ion      s     py     pz     px    dxy    dyz    dz2    dxz  x2-y2    tot
    1  0.000  0.001  0.002  0.002  0.210  0.210  0.100  0.160  0.301  0.985
 
band     4 # energy    9.85718930 # occ.  1.00000000
 
ion      s     py     pz     px    dxy    dyz    dz2    dxz  x2-y2    tot
    1  0.000  0.000  0.003  0.003  0.375  0.375  0.175  0.000  0.058  0.990
 
band     5 # energy   10.86282632 # occ.  1.00000000
 
ion      s     py     pz     px    dxy    dyz    dz2    dxz  x2-y2    tot
    1  0.015  0.014  0.003  0.003  0.155  0.155  0.141  0.077  0.423  0.985
 
band     6 # energy   11.27435740 # occ.  1.00000000
 
ion      s     py     pz     px    dxy    dyz    dz2    dxz  x2-y2    tot
    1  0.000  0.000  0.001  0.001  0.116  0.116  0.568  0.000  0.189  0.991
 
band     7 # energy   29.59946887 # occ.  0.00000000
 
ion      s     py     pz     px    dxy    dyz    dz2    dxz  x2-y2    tot
    1  0.096  0.050  0.132  0.132  0.142  0.142  0.002  0.198  0.007  0.901
 
band     8 # energy   37.14686288 # occ.  0.00000000
 
ion      s     py     pz     px    dxy    dyz    dz2    dxz  x2-y2    tot
    1  0.021  0.002  0.001  0.001  0.000  0.000  0.031  0.232  0.093  0.383
 
band     9 # energy   38.13941894 # occ.  0.00000000
 
ion      s     py     pz     px    dxy    dyz    dz2    dxz  x2-y2    tot
    1  0.000  0.000  0.222  0.222  0.206  0.206  0.044  0.000  0.015  0.913
 
band    10 # energy   42.53224247 # occ.  0.00000000
 
ion      s     py     pz     px    dxy    dyz    dz2    dxz  x2-y2    tot
    1  0.044  0.213  0.004  0.004  0.007  0.007  0.086  0.126  0.257  0.749
 
band    11 # energy   45.98915307 # occ.  0.00000000
 
ion      s     py     pz     px    dxy    dyz    dz2    dxz  x2-y2    tot
    1  0.014  0.180  0.043  0.043  0.050  0.050  0.032  0.160  0.096  0.667
 
band    12 # energy   49.43856447 # occ.  0.00000000
 
ion      s     py     pz     px    dxy    dyz    dz2    dxz  x2-y2    tot
    1  0.019  0.096  0.121  0.121  0.058  0.058  0.055  0.112  0.165  0.804
 

 k-point    10 :    0.36363636 0.09090909 0.00000000     weight = 0.01803156

band     1 # energy    5.96946377 # occ.  1.00000000
 
ion      s     py     pz     px    dxy    dyz    dz2    dxz  x2-y2    tot
    1  0.429  0.111  0.025  0.025  0.113  0.113  0.005  0.108  0.015  0.943
 
band     2 # energy    9.02881370 # occ.  1.00000000
 
ion      s     py     pz     px    dxy    dyz    dz2    dxz  x2-y2    tot
    1  0.048  0.068  0.073  0.073  0.065  0.065  0.023  0.468  0.069  0.952
 
band     3 # energy    9.46582604 # occ.  1.00000000
 
ion      s     py     pz     px    dxy    dyz    dz2    dxz  x2-y2    tot
    1  0.004  0.001  0.000  0.000  0.104  0.104  0.124  0.274  0.373  0.985
 
band     4 # energy    9.75471754 # occ.  1.00000000
 
ion      s     py     pz     px    dxy    dyz    dz2    dxz  x2-y2    tot
    1  0.000  0.000  0.003  0.003  0.272  0.273  0.329  0.000  0.110  0.988
 
band     5 # energy   11.60447578 # occ.  1.00000052
 
ion      s     py     pz     px    dxy    dyz    dz2    dxz  x2-y2    tot
    1  0.038  0.045  0.015  0.015  0.189  0.198  0.089  0.105  0.285  0.980
 
band     6 # energy   11.61195035 # occ.  1.00000068
 
ion      s     py     pz     px    dxy    dyz    dz2    dxz  x2-y2    tot
    1  0.000  0.000  0.001  0.001  0.225  0.216  0.416  0.000  0.133  0.992
 
band     7 # energy   24.90591206 # occ.  0.00000000
 
ion      s     py     pz     px    dxy    dyz    dz2    dxz  x2-y2    tot
    1  0.202  0.046  0.128  0.128  0.131  0.131  0.002  0.183  0.006  0.955
 
band     8 # energy   36.16930211 # occ.  0.00000000
 
ion      s     py     pz     px    dxy    dyz    dz2    dxz  x2-y2    tot
    1  0.005  0.010  0.005  0.004  0.000  0.000  0.043  0.158  0.130  0.355
 
band     9 # energy   37.65935715 # occ.  0.00000000
 
ion      s     py     pz     px    dxy    dyz    dz2    dxz  x2-y2    tot
    1  0.000  0.000  0.243  0.243  0.149  0.149  0.083  0.000  0.028  0.896
 
band    10 # energy   40.80138763 # occ.  0.00000000
 
ion      s     py     pz     px    dxy    dyz    dz2    dxz  x2-y2    tot
    1  0.084  0.356  0.022  0.022  0.001  0.001  0.049  0.139  0.147  0.820
 
band    11 # energy   46.12120300 # occ.  0.00000000
 
ion      s     py     pz     px    dxy    dyz    dz2    dxz  x2-y2    tot
    1  0.002  0.040  0.005  0.005  0.066  0.066  0.121  0.223  0.363  0.892
 
band    12 # energy   48.35945049 # occ.  0.00000000
 
ion      s     py     pz     px    dxy    dyz    dz2    dxz  x2-y2    tot
    1  0.000  0.000  0.056  0.056  0.028  0.028  0.483  0.000  0.161  0.814
 

 k-point    11 :    0.45454545 0.09090909 0.00000000     weight = 0.01803156

band     1 # energy    6.52860307 # occ.  1.00000000
 
ion      s     py     pz     px    dxy    dyz    dz2    dxz  x2-y2    tot
    1  0.232  0.040  0.002  0.002  0.216  0.216  0.002  0.258  0.005  0.974
 
band     2 # energy    9.23768530 # occ.  1.00000000
 
ion      s     py     pz     px    dxy    dyz    dz2    dxz  x2-y2    tot
    1  0.000  0.004  0.012  0.012  0.086  0.086  0.167  0.106  0.500  0.973
 
band     3 # energy    9.61187058 # occ.  1.00000000
 
ion      s     py     pz     px    dxy    dyz    dz2    dxz  x2-y2    tot
    1  0.000  0.000  0.002  0.002  0.219  0.219  0.410  0.000  0.137  0.987
 
band     4 # energy   10.01465326 # occ.  1.00000000
 
ion      s     py     pz     px    dxy    dyz    dz2    dxz  x2-y2    tot
    1  0.035  0.121  0.111  0.111  0.017  0.017  0.012  0.482  0.037  0.942
 
band     5 # energy   11.84629977 # occ.  1.00075051
 
ion      s     py     pz     px    dxy    dyz    dz2    dxz  x2-y2    tot
    1  0.000  0.000  0.000  0.000  0.277  0.277  0.330  0.000  0.110  0.994
 
band     6 # energy   12.75423274 # occ. -0.00951272
 
ion      s     py     pz     px    dxy    dyz    dz2    dxz  x2-y2    tot
    1  0.048  0.131  0.080  0.080  0.136  0.136  0.066  0.080  0.198  0.956
 
band     7 # energy   21.07551030 # occ.  0.00000000
 
ion      s     py     pz     px    dxy    dyz    dz2    dxz  x2-y2    tot
    1  0.365  0.012  0.073  0.073  0.137  0.137  0.001  0.186  0.003  0.988
 
band     8 # energy   35.30235776 # occ.  0.00000000
 
ion      s     py     pz     px    dxy    dyz    dz2    dxz  x2-y2    tot
    1  0.000  0.056  0.001  0.001  0.007  0.007  0.051  0.086  0.154  0.364
 
band     9 # energy   37.86886505 # occ.  0.00000000
 
ion      s     py     pz     px    dxy    dyz    dz2    dxz  x2-y2    tot
    1  0.000  0.000  0.257  0.257  0.079  0.079  0.134  0.000  0.045  0.851
 
band    10 # energy   39.22256860 # occ.  0.00000000
 
ion      s     py     pz     px    dxy    dyz    dz2    dxz  x2-y2    tot
    1  0.078  0.318  0.067  0.067  0.011  0.011  0.022  0.067  0.066  0.706
 
band    11 # energy   46.09910029 # occ.  0.00000000
 
ion      s     py     pz     px    dxy    dyz    dz2    dxz  x2-y2    tot
    1  0.013  0.025  0.001  0.001  0.034  0.034  0.146  0.323  0.436  1.013
 
band    12 # energy   46.80930310 # occ.  0.00000000
 
ion      s     py     pz     px    dxy    dyz    dz2    dxz  x2-y2    tot
    1  0.000  0.000  0.059  0.059  0.110  0.110  0.486  0.000  0.162  0.985
 

 k-point    12 :   -0.45454545 0.09090909-0.00000000     weight = 0.01803156

band     1 # energy    6.60509202 # occ.  1.00000000
 
ion      s     py     pz     px    dxy    dyz    dz2    dxz  x2-y2    tot
    1  0.192  0.007  0.005  0.005  0.243  0.243  0.000  0.285  0.000  0.980
 
band     2 # energy    9.21097526 # occ.  1.00000000
 
ion      s     py     pz     px    dxy    dyz    dz2    dxz  x2-y2    tot
    1  0.000  0.001  0.009  0.009  0.056  0.056  0.160  0.206  0.480  0.977
 
band     3 # energy    9.55292739 # occ.  1.00000000
 
ion      s     py     pz     px    dxy    dyz    dz2    dxz  x2-y2    tot
    1  0.000  0.000  0.001  0.001  0.198  0.198  0.442  0.000  0.147  0.987
 
band     4 # energy   10.43421334 # occ.  1.00000000
 
ion      s     py     pz     px    dxy    dyz    dz2    dxz  x2-y2    tot
    1  0.001  0.123  0.121  0.121  0.097  0.097  0.031  0.258  0.092  0.941
 
band     5 # energy   11.79435176 # occ.  1.00020586
 
ion      s     py     pz     px    dxy    dyz    dz2    dxz  x2-y2    tot
    1  0.000  0.000  0.000  0.000  0.299  0.299  0.296  0.000  0.099  0.993
 
band     6 # energy   13.46976748 # occ. -0.00000000
 
ion      s     py     pz     px    dxy    dyz    dz2    dxz  x2-y2    tot
    1  0.005  0.153  0.155  0.155  0.026  0.026  0.057  0.185  0.172  0.935
 
band     7 # energy   19.70192878 # occ.  0.00000000
 
ion      s     py     pz     px    dxy    dyz    dz2    dxz  x2-y2    tot
    1  0.472  0.030  0.000  0.000  0.172  0.172  0.000  0.164  0.001  1.011
 
band     8 # energy   34.72853747 # occ.  0.00000000
 
ion      s     py     pz     px    dxy    dyz    dz2    dxz  x2-y2    tot