<?xml version="1.0" encoding="ISO-8859-1"?>
<modeling>
 <generator>
  <i name="program" type="string">vasp </i>
  <i name="version" type="string">6.3.0  </i>
  <i name="subversion" type="string">20Jan22 (build Feb 01 2022 16:52:37) complex                          parallel </i>
  <i name="platform" type="string">TETRA_NSC1 </i>
  <i name="date" type="string">2022 02 23 </i>
  <i name="time" type="string">15:19:18 </i>
 </generator>
 <incar>
  <i type="string" name="SYSTEM">fcc Ni</i>
  <i type="int" name="ISTART">     0</i>
  <i type="int" name="ISPIN">     2</i>
  <i type="int" name="ICHARG">     2</i>
  <i name="ENCUT">    270.00000000</i>
  <v name="MAGMOM">      1.00000000</v>
  <i type="int" name="ISMEAR">     1</i>
  <i name="SIGMA">      0.20000000</i>
  <i type="int" name="LORBIT">    11</i>
 </incar>
 <primitive_cell>
  <structure name="primitive_cell" >
   <crystal>
    <varray name="basis" >
     <v>       1.65000000       1.65000000       0.00000000 </v>
     <v>       0.00000000       1.65000000       1.65000000 </v>
     <v>       1.65000000       0.00000000       1.65000000 </v>
    </varray>
    <i name="volume">      8.98425000 </i>
    <varray name="rec_basis" >
     <v>       0.30303030       0.30303030      -0.30303030 </v>
     <v>      -0.30303030       0.30303030       0.30303030 </v>
     <v>       0.30303030      -0.30303030       0.30303030 </v>
    </varray>
   </crystal>
   <varray name="positions" >
    <v>       0.00000000       0.00000000       0.00000000 </v>
   </varray>
  </structure>
  <varray name="primitive_index" >
   <v type="int" >        1 </v>
  </varray>
 </primitive_cell>
 <kpoints>
  <generation param="Monkhorst-Pack">
   <v type="int" name="divisions">      11       11       11 </v>
   <v name="usershift">      0.00000000       0.00000000       0.00000000 </v>
   <v name="genvec1">      0.09090909       0.00000000       0.00000000 </v>
   <v name="genvec2">      0.00000000       0.09090909      -0.00000000 </v>
   <v name="genvec3">     -0.00000000      -0.00000000       0.09090909 </v>
   <v name="shift">      0.00000000       0.00000000       0.00000000 </v>
  </generation>
  <varray name="kpointlist" >
   <v>       0.00000000       0.00000000       0.00000000 </v>
   <v>       0.09090909      -0.00000000      -0.00000000 </v>
   <v>       0.18181818       0.00000000       0.00000000 </v>
   <v>       0.27272727       0.00000000       0.00000000 </v>
   <v>       0.36363636       0.00000000      -0.00000000 </v>
   <v>       0.45454545       0.00000000       0.00000000 </v>
   <v>       0.09090909       0.09090909       0.00000000 </v>
   <v>       0.18181818       0.09090909      -0.00000000 </v>
   <v>       0.27272727       0.09090909       0.00000000 </v>
   <v>       0.36363636       0.09090909       0.00000000 </v>
   <v>       0.45454545       0.09090909       0.00000000 </v>
   <v>      -0.45454545       0.09090909      -0.00000000 </v>
   <v>      -0.36363636       0.09090909       0.00000000 </v>
   <v>      -0.27272727       0.09090909       0.00000000 </v>
   <v>      -0.18181818       0.09090909      -0.00000000 </v>
   <v>      -0.09090909       0.09090909       0.00000000 </v>
   <v>       0.18181818       0.18181818      -0.00000000 </v>
   <v>       0.27272727       0.18181818      -0.00000000 </v>
   <v>       0.36363636       0.18181818       0.00000000 </v>
   <v>       0.45454545       0.18181818       0.00000000 </v>
   <v>      -0.45454545       0.18181818       0.00000000 </v>
   <v>      -0.36363636       0.18181818      -0.00000000 </v>
   <v>      -0.27272727       0.18181818      -0.00000000 </v>
   <v>      -0.18181818       0.18181818      -0.00000000 </v>
   <v>       0.27272727       0.27272727      -0.00000000 </v>
   <v>       0.36363636       0.27272727       0.00000000 </v>
   <v>       0.45454545       0.27272727      -0.00000000 </v>
   <v>      -0.45454545       0.27272727      -0.00000000 </v>
   <v>      -0.36363636       0.27272727      -0.00000000 </v>
   <v>      -0.27272727       0.27272727      -0.00000000 </v>
   <v>       0.36363636       0.36363636       0.00000000 </v>
   <v>       0.45454545       0.36363636       0.00000000 </v>
   <v>      -0.45454545       0.36363636      -0.00000000 </v>
   <v>      -0.36363636       0.36363636       0.00000000 </v>
   <v>       0.45454545       0.45454545       0.00000000 </v>
   <v>      -0.45454545       0.45454545      -0.00000000 </v>
   <v>       0.27272727       0.18181818       0.09090909 </v>
   <v>       0.36363636       0.18181818       0.09090909 </v>
   <v>       0.45454545       0.18181818       0.09090909 </v>
   <v>      -0.45454545       0.18181818       0.09090909 </v>
   <v>       0.36363636       0.27272727       0.09090909 </v>
   <v>       0.45454545       0.27272727       0.09090909 </v>
   <v>      -0.45454545       0.27272727       0.09090909 </v>
   <v>      -0.36363636       0.27272727       0.09090909 </v>
   <v>      -0.27272727       0.27272727       0.09090909 </v>
   <v>      -0.18181818       0.27272727       0.09090909 </v>
   <v>       0.45454545       0.36363636       0.09090909 </v>
   <v>      -0.45454545       0.36363636       0.09090909 </v>
   <v>      -0.36363636       0.36363636       0.09090909 </v>
   <v>      -0.27272727       0.36363636       0.09090909 </v>
   <v>      -0.45454545       0.45454545       0.09090909 </v>
   <v>      -0.36363636       0.45454545       0.09090909 </v>
   <v>      -0.45454545       0.36363636       0.18181818 </v>
   <v>      -0.36363636       0.36363636       0.18181818 </v>
   <v>      -0.36363636       0.45454545       0.18181818 </v>
   <v>      -0.27272727       0.45454545       0.18181818 </v>
  </varray>
  <varray name="weights" >
   <v>       0.00075131 </v>
   <v>       0.00601052 </v>
   <v>       0.00601052 </v>
   <v>       0.00601052 </v>
   <v>       0.00601052 </v>
   <v>       0.00601052 </v>
   <v>       0.00450789 </v>
   <v>       0.01803156 </v>
   <v>       0.01803156 </v>
   <v>       0.01803156 </v>
   <v>       0.01803156 </v>
   <v>       0.01803156 </v>
   <v>       0.01803156 </v>
   <v>       0.01803156 </v>
   <v>       0.01803156 </v>
   <v>       0.00901578 </v>
   <v>       0.00450789 </v>
   <v>       0.01803156 </v>
   <v>       0.01803156 </v>
   <v>       0.01803156 </v>
   <v>       0.01803156 </v>
   <v>       0.01803156 </v>
   <v>       0.01803156 </v>
   <v>       0.00901578 </v>
   <v>       0.00450789 </v>
   <v>       0.01803156 </v>
   <v>       0.01803156 </v>
   <v>       0.01803156 </v>
   <v>       0.01803156 </v>
   <v>       0.00901578 </v>
   <v>       0.00450789 </v>
   <v>       0.01803156 </v>
   <v>       0.01803156 </v>
   <v>       0.00901578 </v>
   <v>       0.00450789 </v>
   <v>       0.00901578 </v>
   <v>       0.01803156 </v>
   <v>       0.03606311 </v>
   <v>       0.03606311 </v>
   <v>       0.03606311 </v>
   <v>       0.01803156 </v>
   <v>       0.03606311 </v>
   <v>       0.03606311 </v>
   <v>       0.03606311 </v>
   <v>       0.03606311 </v>
   <v>       0.01803156 </v>
   <v>       0.01803156 </v>
   <v>       0.03606311 </v>
   <v>       0.03606311 </v>
   <v>       0.01803156 </v>
   <v>       0.01803156 </v>
   <v>       0.01803156 </v>
   <v>       0.01803156 </v>
   <v>       0.03606311 </v>
   <v>       0.01803156 </v>
   <v>       0.01803156 </v>
  </varray>
 </kpoints>
 <parameters>
  <separator name="general" >
   <i type="string" name="SYSTEM">fcc Ni</i>
   <i type="logical" name="LCOMPAT"> F  </i>
  </separator>
  <separator name="electronic" >
   <i type="string" name="PREC">normal</i>
   <i name="ENMAX">    270.00000000</i>
   <i name="ENAUG">    544.56500000</i>
   <i name="EDIFF">      0.00010000</i>
   <i type="int" name="IALGO">    38</i>
   <i type="int" name="IWAVPR">    10</i>
   <i type="int" name="NBANDS">    12</i>
   <i type="int" name="NBANDSLOW">    -1</i>
   <i type="int" name="NBANDSHIGH">    -1</i>
   <i name="NELECT">     10.00000000</i>
   <i type="int" name="TURBO">     0</i>
   <i type="int" name="IRESTART">     0</i>
   <i type="int" name="NREBOOT">     0</i>
   <i type="int" name="NMIN">     0</i>
   <i name="EREF">      0.00000000</i>
   <separator name="electronic smearing" >
    <i type="int" name="ISMEAR">     1</i>
    <i name="SIGMA">      0.20000000</i>
    <i name="KSPACING">      0.50000000</i>
    <i type="logical" name="KGAMMA"> T  </i>
    <i type="logical" name="KBLOWUP"> T  </i>
   </separator>
   <separator name="electronic projectors" >
    <i type="logical" name="LREAL"> F  </i>
    <v name="ROPT">      0.00000000</v>
    <i type="int" name="LMAXPAW">  -100</i>
    <i type="int" name="LMAXMIX">     2</i>
    <i type="logical" name="NLSPLINE"> F  </i>
   </separator>
   <separator name="electronic startup" >
    <i type="int" name="ISTART">     0</i>
    <i type="int" name="ICHARG">     2</i>
    <i type="int" name="INIWAV">     1</i>
   </separator>
   <separator name="electronic spin" >
    <i type="int" name="ISPIN">     2</i>
    <i type="logical" name="LNONCOLLINEAR"> F  </i>
    <v name="MAGMOM">      1.00000000</v>
    <i name="NUPDOWN">     -1.00000000</i>
    <i type="logical" name="LSORBIT"> F  </i>
    <v name="SAXIS">      0.00000000      0.00000000      1.00000000</v>
    <i type="logical" name="LSPIRAL"> F  </i>
    <v name="QSPIRAL">      0.00000000      0.00000000      0.00000000</v>
    <i type="logical" name="LZEROZ"> F  </i>
   </separator>
   <separator name="electronic exchange-correlation" >
    <i type="logical" name="LASPH"> F  </i>
    <i type="logical" name="LMETAGGA"> F  </i>
   </separator>
   <separator name="electronic convergence" >
    <i type="int" name="NELM">    60</i>
    <i type="int" name="NELMDL">    -5</i>
    <i type="int" name="NELMIN">     2</i>
    <i name="ENINI">    270.00000000</i>
    <separator name="electronic convergence detail" >
     <i type="logical" name="LDIAG"> T  </i>
     <i type="logical" name="LSUBROT"> F  </i>
     <i name="WEIMIN">      0.00000000</i>
     <i name="EBREAK">      0.00000208</i>
     <i name="DEPER">      0.30000000</i>
     <i type="int" name="NRMM">     4</i>
     <i name="TIME">      0.40000000</i>
    </separator>
   </separator>
   <separator name="electronic mixer" >
    <i name="AMIX">      0.40000000</i>
    <i name="BMIX">      1.00000000</i>
    <i name="AMIN">      0.10000000</i>
    <i name="AMIX_MAG">      1.60000000</i>
    <i name="BMIX_MAG">      1.00000000</i>
    <separator name="electronic mixer details" >
     <i type="int" name="IMIX">     4</i>
     <i type="logical" name="MIXFIRST"> F  </i>
     <i type="int" name="MAXMIX">   -45</i>
     <i name="WC">    100.00000000</i>
     <i type="int" name="INIMIX">     1</i>
     <i type="int" name="MIXPRE">     1</i>
     <i type="int" name="MREMOVE">     5</i>
    </separator>
   </separator>
   <separator name="electronic dipolcorrection" >
    <i type="logical" name="LDIPOL"> F  </i>
    <i type="logical" name="LMONO"> F  </i>
    <i type="int" name="IDIPOL">     0</i>
    <i name="EPSILON">      1.00000000</i>
    <v name="DIPOL">   -100.00000000   -100.00000000   -100.00000000</v>
    <i name="EFIELD">      0.00000000</i>
   </separator>
  </separator>
  <separator name="grids" >
   <i type="int" name="NGX">    10</i>
   <i type="int" name="NGY">    10</i>
   <i type="int" name="NGZ">    10</i>
   <i type="int" name="NGXF">    20</i>
   <i type="int" name="NGYF">    20</i>
   <i type="int" name="NGZF">    20</i>
   <i type="logical" name="ADDGRID"> F  </i>
  </separator>
  <separator name="ionic" >
   <i type="int" name="NSW">     0</i>
   <i type="int" name="IBRION">    -1</i>
   <i type="int" name="MDALGO">     0</i>
   <i type="int" name="ISIF">     2</i>
   <i name="PSTRESS">      0.00000000</i>
   <i name="EDIFFG">      0.00100000</i>
   <i type="int" name="NFREE">     0</i>
   <i name="POTIM">      0.50000000</i>
   <i name="SMASS">     -3.00000000</i>
   <i name="SCALEE">      1.00000000</i>
  </separator>
  <separator name="ionic md" >
   <i name="TEBEG">      0.00010000</i>
   <i name="TEEND">      0.00010000</i>
   <i type="int" name="NBLOCK">     1</i>
   <i type="int" name="KBLOCK">     1</i>
   <i type="int" name="NPACO">   256</i>
   <i name="APACO">     10.00000000</i>
  </separator>
  <separator name="symmetry" >
   <i type="int" name="ISYM">     2</i>
   <i name="SYMPREC">      0.00001000</i>
  </separator>
  <separator name="dos" >
   <i type="int" name="LORBIT">    11</i>
   <v name="RWIGS">     -1.00000000</v>
   <i type="int" name="NEDOS">   301</i>
   <i name="EMIN">     10.00000000</i>
   <i name="EMAX">    -10.00000000</i>
   <i name="EFERMI">      0.00000000</i>
  </separator>
  <separator name="writing" >
   <i type="int" name="NWRITE">     2</i>
   <i type="logical" name="LWAVE"> T  </i>
   <i type="logical" name="LDOWNSAMPLE"> F  </i>
   <i type="logical" name="LCHARG"> T  </i>
   <i type="logical" name="LPARD"> F  </i>
   <i type="logical" name="LVTOT"> F  </i>
   <i type="logical" name="LVHAR"> F  </i>
   <i type="logical" name="LELF"> F  </i>
   <i type="logical" name="LOPTICS"> F  </i>
   <v name="STM">      0.00000000      0.00000000      0.00000000      0.00000000      0.00000000      0.00000000      0.00000000</v>
  </separator>
  <separator name="performance" >
   <i type="int" name="NPAR">     4</i>
   <i type="int" name="NSIM">     4</i>
   <i type="int" name="NBLK">    -1</i>
   <i type="logical" name="LPLANE"> T  </i>
   <i type="logical" name="LSCALAPACK"> T  </i>
   <i type="logical" name="LSCAAWARE"> F  </i>
   <i type="logical" name="LSCALU"> F  </i>
   <i type="logical" name="LASYNC"> F  </i>
   <i type="logical" name="LORBITALREAL"> F  </i>
  </separator>
  <separator name="miscellaneous" >
   <i type="int" name="IDIOT">     3</i>
   <i type="int" name="PHON_NSTRUCT">    -1</i>
   <i type="logical" name="LMUSIC"> F  </i>
   <v name="POMASS">     58.69000000</v>
   <v name="DARWINR">      0.00000000</v>
   <v name="DARWINV">      1.00000000</v>
   <i type="logical" name="LCORR"> T  </i>
  </separator>
  <i type="logical" name="GGA_COMPAT"> T  </i>
  <i type="logical" name="LBERRY"> F  </i>
  <i type="int" name="ICORELEVEL">     0</i>
  <i type="logical" name="LDAU"> F  </i>
  <i type="int" name="I_CONSTRAINED_M">     0</i>
  <separator name="electronic exchange-correlation" >
   <i type="string" name="GGA">--</i>
   <i type="int" name="VOSKOWN">     0</i>
   <i type="logical" name="LHFCALC"> F  </i>
   <i type="string" name="PRECFOCK"></i>
   <i type="logical" name="LSYMGRAD"> F  </i>
   <i type="logical" name="LHFONE"> F  </i>
   <i type="logical" name="LRHFCALC"> F  </i>
   <i type="logical" name="LTHOMAS"> F  </i>
   <i type="logical" name="LMODELHF"> F  </i>
   <i type="logical" name="LFOCKACE"> F  </i>
   <i name="ENCUT4O">     -1.00000000</i>
   <i type="int" name="EXXOEP">     0</i>
   <i type="int" name="FOURORBIT">     0</i>
   <i name="AEXX">      0.00000000</i>
   <i name="HFALPHA">      0.00000000</i>
   <i name="MCALPHA">      0.00000000</i>
   <i name="ALDAX">      1.00000000</i>
   <i name="AGGAX">      1.00000000</i>
   <i name="ALDAC">      1.00000000</i>
   <i name="AGGAC">      1.00000000</i>
   <i type="int" name="NKREDX">     1</i>
   <i type="int" name="NKREDY">     1</i>
   <i type="int" name="NKREDZ">     1</i>
   <i type="logical" name="SHIFTRED"> F  </i>
   <i type="logical" name="ODDONLY"> F  </i>
   <i type="logical" name="EVENONLY"> F  </i>
   <i type="int" name="LMAXFOCK">     0</i>
   <i type="int" name="NMAXFOCKAE">     0</i>
   <i type="logical" name="LFOCKAEDFT"> F  </i>
   <i name="HFSCREEN">      0.00000000</i>
   <i name="HFSCREENC">      0.00000000</i>
   <i type="int" name="NBANDSGWLOW">     0</i>
  </separator>
  <separator name="vdW DFT" >
   <i type="logical" name="LUSE_VDW"> F  </i>
   <i name="Zab_VDW">     -0.84910000</i>
   <i name="PARAM1">      0.12340000</i>
   <i name="PARAM2">      1.00000000</i>
   <i name="PARAM3">      0.00000000</i>
  </separator>
  <separator name="model GW" >
   <i type="int" name="MODEL_GW">     0</i>
   <i name="MODEL_EPS0">      5.39055000</i>
   <i name="MODEL_ALPHA">      1.00000000</i>
  </separator>
  <separator name="linear response parameters" >
   <i type="logical" name="LEPSILON"> F  </i>
   <i type="logical" name="LRPA"> F  </i>
   <i type="logical" name="LNABLA"> F  </i>
   <i type="logical" name="LVEL"> F  </i>
   <i name="CSHIFT">      0.10000000</i>
   <i name="OMEGAMAX">     -1.00000000</i>
   <i name="DEG_THRESHOLD">      0.00200000</i>
   <i name="RTIME">     -0.10000000</i>
   <i name="WPLASMAI">      0.00000000</i>
   <v name="DFIELD">      0.00000000      0.00000000      0.00000000</v>
   <v name="WPLASMA">      0.00000000      0.00000000      0.00000000      0.00000000      0.00000000      0.00000000      0.00000000      0.00000000      0.00000000</v>
  </separator>
  <separator name="orbital magnetization" >
   <i type="logical" name="NUCIND"> F  </i>
   <v name="MAGPOS">      0.00000000      0.00000000      0.00000000</v>
   <i type="logical" name="LNICSALL"> T  </i>
   <i type="logical" name="ORBITALMAG"> F  </i>
   <i type="logical" name="LMAGBLOCH"> F  </i>
   <i type="logical" name="LCHIMAG"> F  </i>
   <i type="logical" name="LGAUGE"> T  </i>
   <i type="int" name="MAGATOM">     0</i>
   <v name="MAGDIPOL">      0.00000000      0.00000000      0.00000000</v>
   <v name="AVECCONST">      0.00000000      0.00000000      0.00000000</v>
  </separator>
  <separator name="response functions" >
   <i type="logical" name="LFINITE_TEMPERATURE"> F  </i>
   <i type="logical" name="LADDER"> F  </i>
   <i type="logical" name="LRPAFORCE"> F  </i>
   <i type="logical" name="LFXC"> F  </i>
   <i type="logical" name="LHARTREE"> T  </i>
   <i type="int" name="IBSE">     0</i>
   <v type="int" name="KPOINT">    -1     0     0     0</v>
   <i type="logical" name="LTCTC"> F  </i>
   <i type="logical" name="LTCTE"> F  </i>
   <i type="logical" name="LTETE"> F  </i>
   <i type="logical" name="LTRIPLET"> F  </i>
   <i type="logical" name="LFXCEPS"> F  </i>
   <i type="logical" name="LFXHEG"> F  </i>
   <i type="int" name="NATURALO">     2</i>
   <i type="logical" name="LHOLEGF"> F  </i>
   <i type="logical" name="L2ORDER"> F  </i>
   <i type="logical" name="LDMP1"> F  </i>
   <i type="logical" name="LMP2LT"> F  </i>
   <i type="logical" name="LSMP2LT"> F  </i>
   <i type="logical" name="LGWLF"> F  </i>
   <i name="ENCUTGW">     -2.00000000</i>
   <i name="ENCUTGWSOFT">     -2.00000000</i>
   <i name="ENCUTLF">     -1.00000000</i>
   <i type="logical" name="LESF_SPLINES"> F  </i>
   <i type="int" name="LMAXMP2">    -1</i>
   <i name="SCISSOR">      0.00000000</i>
   <i type="int" name="NOMEGA">     0</i>
   <i type="int" name="NOMEGAR">     0</i>
   <i type="int" name="NBANDSGW">    -1</i>
   <i type="int" name="NBANDSO">    -1</i>
   <i type="int" name="NBANDSV">    -1</i>
   <i type="int" name="NELMGW">     1</i>
   <i type="int" name="NELMHF">     1</i>
   <i type="int" name="DIM">     3</i>
   <i type="int" name="IESPILON">     4</i>
   <i type="int" name="ANTIRES">     0</i>
   <i name="OMEGAMAX">    -30.00000000</i>
   <i name="OMEGAMIN">    -30.00000000</i>
   <i name="OMEGATL">   -200.00000000</i>
   <i type="int" name="OMEGAGRID">     0</i>
   <i name="CSHIFT">     -0.10000000</i>
   <i type="logical" name="LSELFENERGY"> F  </i>
   <i type="logical" name="LSPECTRAL"> F  </i>
   <i type="logical" name="LSPECTRALGW"> F  </i>
   <i type="logical" name="LSINGLES"> F  </i>
   <i type="logical" name="LFERMIGW"> F  </i>
   <i type="logical" name="ODDONLYGW"> F  </i>
   <i type="logical" name="EVENONLYGW"> F  </i>
   <i type="int" name="NKREDLFX">     1</i>
   <i type="int" name="NKREDLFY">     1</i>
   <i type="int" name="NKREDLFZ">     1</i>
   <i type="int" name="MAXMEM">  2800</i>
   <i type="int" name="TELESCOPE">     0</i>
   <i type="int" name="NTAUPAR">    -1</i>
   <i type="int" name="NOMEGAPAR">    -1</i>
   <i name="DAMP_NEWTON">      0.80000001</i>
   <i name="LAMBDA">      1.00000000</i>
  </separator>
  <separator name="External order field" >
   <i name="OFIELD_KAPPA">      0.00000000</i>
   <v name="OFIELD_K">      0.00000000      0.00000000      0.00000000</v>
   <i name="OFIELD_Q6_NEAR">      0.00000000</i>
   <i name="OFIELD_Q6_FAR">      0.00000000</i>
   <i name="OFIELD_A">      0.00000000</i>
  </separator>
  <separator name="optional k-points parameters" >
   <i type="int" name="KPOINTS_OPT_MODE">     1</i>
   <i type="logical" name="LKPOINTS_OPT"> F  </i>
  </separator>
 </parameters>
 <atominfo>
  <atoms>       1 </atoms>
  <types>       1 </types>
  <array name="atoms" >
   <dimension dim="1">ion</dimension>
   <field type="string">element</field>
   <field type="int">atomtype</field>
   <set>
    <rc><c>Ni</c><c>   1</c></rc>
   </set>
  </array>
  <array name="atomtypes" >
   <dimension dim="1">type</dimension>
   <field type="int">atomspertype</field>
   <field type="string">element</field>
   <field>mass</field>
   <field>valence</field>
   <field type="string">pseudopotential</field>
   <set>
    <rc><c>   1</c><c>Ni</c><c>     58.69000000</c><c>     10.00000000</c><c>  PAW_PBE Ni 02Aug2007                  </c></rc>
   </set>
  </array>
 </atominfo>
 <structure name="initialpos" >
  <crystal>
   <varray name="basis" >
    <v>       1.65000000       1.65000000       0.00000000 </v>
    <v>       0.00000000       1.65000000       1.65000000 </v>
    <v>       1.65000000       0.00000000       1.65000000 </v>
   </varray>
   <i name="volume">      8.98425000 </i>
   <varray name="rec_basis" >
    <v>       0.30303030       0.30303030      -0.30303030 </v>
    <v>      -0.30303030       0.30303030       0.30303030 </v>
    <v>       0.30303030      -0.30303030       0.30303030 </v>
   </varray>
  </crystal>
  <varray name="positions" >
   <v>       0.00000000       0.00000000       0.00000000 </v>
  </varray>
 </structure>
 <calculation>
  <scstep>
   <time name="dav">    0.20    0.20</time>
   <time name="total">    0.20    0.21</time>
   <energy>
    <i name="alphaZ">     56.76534046 </i>
    <i name="ewald">  -1000.31875829 </i>
    <i name="hartreedc">   -216.73959597 </i>
    <i name="XCdc">     32.43037442 </i>
    <i name="pawpsdc">    962.83317360 </i>
    <i name="pawaedc">  -1029.67071227 </i>
    <i name="eentropy">     -0.00229311 </i>
    <i name="bandstr">    134.57175420 </i>
    <i name="atom">   1077.63607467 </i>
    <i name="e_fr_energy">     17.50535770 </i>
    <i name="e_wo_entrp">     17.50765081 </i>
    <i name="e_0_energy">     17.50612207 </i>
   </energy>
  </scstep>
  <scstep>
   <time name="dav">    0.18    0.18</time>
   <time name="total">    0.18    0.18</time>
   <energy>
    <i name="e_fr_energy">     -5.73314259 </i>
    <i name="e_wo_entrp">     -5.73970670 </i>
    <i name="e_0_energy">     -5.73533063 </i>
   </energy>
  </scstep>
  <scstep>
   <time name="dav">    0.19    0.19</time>
   <time name="total">    0.19    0.19</time>
   <energy>
    <i name="e_fr_energy">     -6.13557085 </i>
    <i name="e_wo_entrp">     -6.14120847 </i>
    <i name="e_0_energy">     -6.13745006 </i>
   </energy>
  </scstep>
  <scstep>
   <time name="dav">    0.21    0.21</time>
   <time name="total">    0.21    0.21</time>
   <energy>
    <i name="e_fr_energy">     -6.13758221 </i>
    <i name="e_wo_entrp">     -6.14321494 </i>
    <i name="e_0_energy">     -6.13945979 </i>
   </energy>
  </scstep>
  <scstep>
   <time name="dav">    0.21    0.21</time>
   <time name="total">    0.21    0.21</time>
   <energy>
    <i name="e_fr_energy">     -6.13760385 </i>
    <i name="e_wo_entrp">     -6.14323655 </i>
    <i name="e_0_energy">     -6.13948142 </i>
   </energy>
  </scstep>
  <scstep>
   <time name="dav">    0.23    0.23</time>
   <time name="total">    0.24    0.24</time>
   <energy>
    <i name="e_fr_energy">     -5.34209557 </i>
    <i name="e_wo_entrp">     -5.34316165 </i>
    <i name="e_0_energy">     -5.34245093 </i>
   </energy>
  </scstep>
  <scstep>
   <time name="dav">    0.23    0.23</time>
   <time name="total">    0.24    0.24</time>
   <energy>
    <i name="e_fr_energy">     -5.20182295 </i>
    <i name="e_wo_entrp">     -5.20294703 </i>
    <i name="e_0_energy">     -5.20219764 </i>
   </energy>
  </scstep>
  <scstep>
   <time name="dav">    0.23    0.23</time>
   <time name="total">    0.24    0.24</time>
   <energy>
    <i name="e_fr_energy">     -5.17938792 </i>
    <i name="e_wo_entrp">     -5.18054955 </i>
    <i name="e_0_energy">     -5.17977513 </i>
   </energy>
  </scstep>
  <scstep>
   <time name="dav">    0.21    0.21</time>
   <time name="total">    0.22    0.22</time>
   <energy>
    <i name="e_fr_energy">     -5.17852265 </i>
    <i name="e_wo_entrp">     -5.17964064 </i>
    <i name="e_0_energy">     -5.17889531 </i>
   </energy>
  </scstep>
  <scstep>
   <time name="dav">    0.15    0.15</time>
   <time name="total">    0.16    0.16</time>
   <energy>
    <i name="e_fr_energy">     -5.17828217 </i>
    <i name="e_wo_entrp">     -5.17937923 </i>
    <i name="e_0_energy">     -5.17864786 </i>
   </energy>
  </scstep>
  <scstep>
   <time name="dav">    0.12    0.12</time>
   <time name="total">    0.13    0.13</time>
   <energy>
    <i name="alphaZ">     56.76534046 </i>
    <i name="ewald">  -1000.31875829 </i>
    <i name="hartreedc">   -195.37918697 </i>
    <i name="XCdc">     31.27534601 </i>
    <i name="pawpsdc">   1274.53206934 </i>
    <i name="pawaedc">  -1344.57052833 </i>
    <i name="eentropy">      0.00112419 </i>
    <i name="bandstr">     94.88023292 </i>
    <i name="atom">   1077.63607467 </i>
    <i name="e_fr_energy">     -5.17828600 </i>
    <i name="e_wo_entrp">     -5.17941019 </i>
    <i name="e_0_energy">     -5.17866073 </i>
   </energy>
  </scstep>
  <structure>
   <crystal>
    <varray name="basis" >
     <v>       1.65000000       1.65000000       0.00000000 </v>
     <v>       0.00000000       1.65000000       1.65000000 </v>
     <v>       1.65000000       0.00000000       1.65000000 </v>
    </varray>
    <i name="volume">      8.98425000 </i>
    <varray name="rec_basis" >
     <v>       0.30303030       0.30303030      -0.30303030 </v>
     <v>      -0.30303030       0.30303030       0.30303030 </v>
     <v>       0.30303030      -0.30303030       0.30303030 </v>
    </varray>
   </crystal>
   <varray name="positions" >
    <v>       0.00000000       0.00000000       0.00000000 </v>
   </varray>
  </structure>
  <varray name="forces" >
   <v>      -0.00000000      -0.00000000       0.00000000 </v>
  </varray>
  <varray name="stress" >
   <v>     544.36843769      -0.00000000       0.00000000 </v>
   <v>       0.00000000     544.36843769       0.00000000 </v>
   <v>      -0.00000000       0.00000000     544.36843769 </v>
  </varray>
  <energy>
   <i name="e_fr_energy">     -5.17828600 </i>
   <i name="e_wo_entrp">     -5.17941019 </i>
   <i name="e_0_energy">     -5.17866073 </i>
  </energy>
  <time name="totalsc">    2.32    2.33</time>
  <eigenvalues>
   <array>
    <dimension dim="1">band</dimension>
    <dimension dim="2">kpoint</dimension>
    <dimension dim="3">spin</dimension>
    <field>eigene</field>
    <field>occ</field>
    <set>
     <set comment="spin 1">
      <set comment="kpoint 1">
       <r>    1.9579    1.0000 </r>
       <r>    9.4204    1.0000 </r>
       <r>    9.4204    1.0000 </r>
       <r>    9.4204    1.0000 </r>
       <r>   10.9392    1.0000 </r>
       <r>   10.9392    1.0000 </r>
       <r>   37.7328    0.0000 </r>
       <r>   43.1365    0.0000 </r>
       <r>   43.1368    0.0000 </r>
       <r>   43.1368    0.0000 </r>
       <r>   47.3213    0.0000 </r>
       <r>   47.3213    0.0000 </r>
      </set>
      <set comment="kpoint 2">
       <r>    2.3296    1.0000 </r>
       <r>    9.3089    1.0000 </r>
       <r>    9.5119    1.0000 </r>
       <r>    9.5119    1.0000 </r>
       <r>   10.8960    1.0000 </r>
       <r>   10.8960    1.0000 </r>
       <r>   36.8940    0.0000 </r>
       <r>   40.0922    0.0000 </r>
       <r>   42.6890    0.0000 </r>
       <r>   42.6893    0.0000 </r>
       <r>   47.8003    0.0000 </r>
       <r>   48.0082    0.0000 </r>
      </set>
      <set comment="kpoint 3">
       <r>    3.3838    1.0000 </r>
       <r>    9.0656    1.0000 </r>
       <r>    9.6776    1.0000 </r>
       <r>    9.6776    1.0000 </r>
       <r>   10.8772    1.0000 </r>
       <r>   10.8772    1.0000 </r>
       <r>   32.6596    0.0000 </r>
       <r>   38.7475    0.0000 </r>
       <r>   41.8748    0.0000 </r>
       <r>   41.8752    0.0000 </r>
       <r>   47.5679    0.0000 </r>
       <r>   48.4192    0.0000 </r>
      </set>
      <set comment="kpoint 4">
       <r>    4.8557    1.0000 </r>
       <r>    9.0139    1.0000 </r>
       <r>    9.6801    1.0000 </r>
       <r>    9.6802    1.0000 </r>
       <r>   11.1147    1.0000 </r>
       <r>   11.1148    1.0000 </r>
       <r>   27.7606    0.0000 </r>
       <r>   37.8207    0.0000 </r>
       <r>   41.2924    0.0000 </r>
       <r>   41.2927    0.0000 </r>
       <r>   46.7188    0.0000 </r>
       <r>   46.7188    0.0000 </r>
      </set>
      <set comment="kpoint 5">
       <r>    6.0093    1.0000 </r>
       <r>    9.5290    1.0000 </r>
       <r>    9.5291    1.0000 </r>
       <r>    9.8150    1.0000 </r>
       <r>   11.5198    1.0000 </r>
       <r>   11.5199    1.0000 </r>
       <r>   23.3114    0.0000 </r>
       <r>   36.8167    0.0000 </r>
       <r>   40.8517    0.0000 </r>
       <r>   40.8519    0.0000 </r>
       <r>   44.8107    0.0000 </r>
       <r>   44.8111    0.0000 </r>
      </set>
      <set comment="kpoint 6">
       <r>    6.3595    1.0000 </r>
       <r>    9.4112    1.0000 </r>
       <r>    9.4113    1.0000 </r>
       <r>   11.3896    1.0000 </r>
       <r>   11.8105    1.0003 </r>
       <r>   11.8107    1.0003 </r>
       <r>   20.1128    0.0000 </r>
       <r>   36.2096    0.0000 </r>
       <r>   40.6202    0.0000 </r>
       <r>   40.6202    0.0000 </r>
       <r>   43.7895    0.0000 </r>
       <r>   43.7902    0.0000 </r>
      </set>
      <set comment="kpoint 7">
       <r>    2.4523    1.0000 </r>
       <r>    9.2128    1.0000 </r>
       <r>    9.5794    1.0000 </r>
       <r>    9.5794    1.0000 </r>
       <r>   10.7420    1.0000 </r>
       <r>   11.0078    1.0000 </r>
       <r>   37.2343    0.0000 </r>
       <r>   40.7327    0.0000 </r>
       <r>   40.7328    0.0000 </r>
       <r>   40.9619    0.0000 </r>
       <r>   48.9443    0.0000 </r>
       <r>   49.3582    0.0000 </r>
      </set>
      <set comment="kpoint 8">
       <r>    3.2777    1.0000 </r>
       <r>    8.9687    1.0000 </r>
       <r>    9.7539    1.0000 </r>
       <r>    9.7702    1.0000 </r>
       <r>   10.6012    1.0000 </r>
       <r>   11.0772    1.0000 </r>
       <r>   34.5596    0.0000 </r>
       <r>   38.0967    0.0000 </r>
       <r>   39.1962    0.0000 </r>
       <r>   42.1835    0.0000 </r>
       <r>   47.3010    0.0000 </r>
       <r>   50.1247    0.0000 </r>
      </set>
      <set comment="kpoint 9">
       <r>    4.6334    1.0000 </r>
       <r>    8.7673    1.0000 </r>
       <r>    9.7034    1.0000 </r>
       <r>    9.8572    1.0000 </r>
       <r>   10.8628    1.0000 </r>
       <r>   11.2744    1.0000 </r>
       <r>   29.5995    0.0000 </r>
       <r>   37.1469    0.0000 </r>
       <r>   38.1394    0.0000 </r>
       <r>   42.5322    0.0000 </r>
       <r>   45.9892    0.0000 </r>
       <r>   49.4386    0.0000 </r>
      </set>
      <set comment="kpoint 10">
       <r>    5.9695    1.0000 </r>
       <r>    9.0288    1.0000 </r>
       <r>    9.4658    1.0000 </r>
       <r>    9.7547    1.0000 </r>
       <r>   11.6045    1.0000 </r>
       <r>   11.6120    1.0000 </r>
       <r>   24.9059    0.0000 </r>
       <r>   36.1693    0.0000 </r>
       <r>   37.6594    0.0000 </r>
       <r>   40.8014    0.0000 </r>
       <r>   46.1212    0.0000 </r>
       <r>   48.3595    0.0000 </r>
      </set>
      <set comment="kpoint 11">
       <r>    6.5286    1.0000 </r>
       <r>    9.2377    1.0000 </r>
       <r>    9.6119    1.0000 </r>
       <r>   10.0147    1.0000 </r>
       <r>   11.8463    1.0008 </r>
       <r>   12.7542   -0.0095 </r>
       <r>   21.0755    0.0000 </r>
       <r>   35.3024    0.0000 </r>
       <r>   37.8689    0.0000 </r>
       <r>   39.2226    0.0000 </r>
       <r>   46.0991    0.0000 </r>
       <r>   46.8093    0.0000 </r>
      </set>
      <set comment="kpoint 12">
       <r>    6.6051    1.0000 </r>
       <r>    9.2110    1.0000 </r>
       <r>    9.5529    1.0000 </r>
       <r>   10.4342    1.0000 </r>
       <r>   11.7944    1.0002 </r>
       <r>   13.4698   -0.0000 </r>
       <r>   19.7019    0.0000 </r>
       <r>   34.7285    0.0000 </r>
       <r>   38.4985    0.0000 </r>
       <r>   38.9117    0.0000 </r>
       <r>   45.7797    0.0000 </r>
       <r>   46.2927    0.0000 </r>
      </set>
      <set comment="kpoint 13">
       <r>    6.4391    1.0000 </r>
       <r>    9.3374    1.0000 </r>
       <r>    9.6185    1.0000 </r>
       <r>    9.7599    1.0000 </r>
       <r>   11.4406    1.0000 </r>
       <r>   12.5751   -0.0295 </r>
       <r>   22.2137    0.0000 </r>
       <r>   34.5313    0.0000 </r>
       <r>   38.8052    0.0000 </r>
       <r>   40.8015    0.0000 </r>
       <r>   45.0849    0.0000 </r>
       <r>   46.3827    0.0000 </r>
      </set>
      <set comment="kpoint 14">
       <r>    5.5981    1.0000 </r>
       <r>    8.9202    1.0000 </r>
       <r>    9.5542    1.0000 </r>
       <r>    9.7801    1.0000 </r>
       <r>   10.9404    1.0000 </r>
       <r>   11.7963    1.0002 </r>
       <r>   26.4190    0.0000 </r>
       <r>   34.7623    0.0000 </r>
       <r>   40.0191    0.0000 </r>
       <r>   43.3858    0.0000 </r>
       <r>   44.8707    0.0000 </r>
       <r>   45.8107    0.0000 </r>
      </set>
      <set comment="kpoint 15">
       <r>    4.1480    1.0000 </r>
       <r>    8.8661    1.0000 </r>
       <r>    9.7091    1.0000 </r>
       <r>    9.8516    1.0000 </r>
       <r>   10.6093    1.0000 </r>
       <r>   11.2717    1.0000 </r>
       <r>   31.2472    0.0000 </r>
       <r>   35.4124    0.0000 </r>
       <r>   41.5676    0.0000 </r>
       <r>   44.7345    0.0000 </r>
       <r>   44.7407    0.0000 </r>
       <r>   46.6309    0.0000 </r>
      </set>
      <set comment="kpoint 16">
       <r>    2.9303    1.0000 </r>
       <r>    9.1164    1.0000 </r>
       <r>    9.6498    1.0000 </r>
       <r>    9.6560    1.0000 </r>
       <r>   10.7033    1.0000 </r>
       <r>   11.0071    1.0000 </r>
       <r>   35.5863    0.0000 </r>
       <r>   37.0835    0.0000 </r>
       <r>   41.6743    0.0000 </r>
       <r>   44.4128    0.0000 </r>
       <r>   45.6883    0.0000 </r>
       <r>   47.5607    0.0000 </r>
      </set>
      <set comment="kpoint 17">
       <r>    3.8337    1.0000 </r>
       <r>    8.6757    1.0000 </r>
       <r>   10.0361    1.0000 </r>
       <r>   10.0361    1.0000 </r>
       <r>   10.3020    1.0000 </r>
       <r>   11.2030    1.0000 </r>
       <r>   36.3915    0.0000 </r>
       <r>   37.0067    0.0000 </r>
       <r>   37.0068    0.0000 </r>
       <r>   37.6149    0.0000 </r>
       <r>   45.8982    0.0000 </r>
       <r>   52.6210    0.0000 </r>
      </set>
      <set comment="kpoint 18">
       <r>    4.9287    1.0000 </r>
       <r>    8.3774    1.0000 </r>
       <r>    9.8298    1.0000 </r>
       <r>   10.2604    1.0000 </r>
       <r>   10.7383    1.0000 </r>
       <r>   11.3783    1.0000 </r>
       <r>   31.8690    0.0000 </r>
       <r>   35.5012    0.0000 </r>
       <r>   35.8586    0.0000 </r>
       <r>   38.4502    0.0000 </r>
       <r>   44.6532    0.0000 </r>
       <r>   52.0724    0.0000 </r>
      </set>
      <set comment="kpoint 19">
       <r>    6.1967    1.0000 </r>
       <r>    8.2759    1.0000 </r>
       <r>    9.4508    1.0000 </r>
       <r>   10.2514    1.0000 </r>
       <r>   11.6830    1.0000 </r>
       <r>   11.8310    1.0005 </r>
       <r>   27.0140    0.0000 </r>
       <r>   34.2113    0.0000 </r>
       <r>   34.7458    0.0000 </r>
       <r>   38.2995    0.0000 </r>
       <r>   46.9268    0.0000 </r>
       <r>   51.1328    0.0000 </r>
      </set>
      <set comment="kpoint 20">
       <r>    6.9432    1.0000 </r>
       <r>    8.5192    1.0000 </r>
       <r>    9.3302    1.0000 </r>
       <r>   10.1104    1.0000 </r>
       <r>   11.8887    1.0019 </r>
       <r>   13.5600   -0.0000 </r>
       <r>   22.6888    0.0000 </r>
       <r>   32.4852    0.0000 </r>
       <r>   34.8007    0.0000 </r>
       <r>   37.7005    0.0000 </r>
       <r>   49.8644    0.0000 </r>
       <r>   50.6875    0.0000 </r>
      </set>
      <set comment="kpoint 21">
       <r>    7.1450    1.0000 </r>
       <r>    8.6489    1.0000 </r>
       <r>    9.5528    1.0000 </r>
       <r>    9.9958    1.0000 </r>
       <r>   11.8040    1.0003 </r>
       <r>   15.3822   -0.0000 </r>
       <r>   19.8701    0.0000 </r>
       <r>   31.1021    0.0000 </r>
       <r>   35.7955    0.0000 </r>
       <r>   37.5425    0.0000 </r>
       <r>   49.4236    0.0000 </r>
       <r>   49.4533    0.0000 </r>
      </set>
      <set comment="kpoint 22">
       <r>    7.1526    1.0000 </r>
       <r>    8.8286    1.0000 </r>
       <r>    9.3094    1.0000 </r>
       <r>    9.9829    1.0000 </r>
       <r>   11.4087    1.0000 </r>
       <r>   14.5108   -0.0000 </r>
       <r>   21.5283    0.0000 </r>
       <r>   30.2541    0.0000 </r>
       <r>   37.6549    0.0000 </r>
       <r>   38.0568    0.0000 </r>
       <r>   48.5005    0.0000 </r>
       <r>   48.6457    0.0000 </r>
      </set>
      <set comment="kpoint 23">
       <r>    6.6903    1.0000 </r>
       <r>    8.6828    1.0000 </r>
       <r>    9.1717    1.0000 </r>
       <r>   10.0982    1.0000 </r>
       <r>   10.8382    1.0000 </r>
       <r>   12.9899   -0.0000 </r>
       <r>   25.5497    0.0000 </r>
       <r>   30.0398    0.0000 </r>
       <r>   39.3354    0.0000 </r>
       <r>   40.2070    0.0000 </r>
       <r>   46.6761    0.0000 </r>
       <r>   48.4206    0.0000 </r>
      </set>
      <set comment="kpoint 24">
       <r>    5.4207    1.0000 </r>
       <r>    8.6165    1.0000 </r>
       <r>    9.5230    1.0000 </r>
       <r>   10.2480    1.0000 </r>
       <r>   10.3445    1.0000 </r>
       <r>   11.9612    1.0075 </r>
       <r>   29.9272    0.0000 </r>
       <r>   30.7737    0.0000 </r>
       <r>   41.2756    0.0000 </r>
       <r>   43.0584    0.0000 </r>
       <r>   44.3888    0.0000 </r>
       <r>   48.5972    0.0000 </r>
      </set>
      <set comment="kpoint 25">
       <r>    5.5980    1.0000 </r>
       <r>    8.0078    1.0000 </r>
       <r>   10.2038    1.0000 </r>
       <r>   10.7226    1.0000 </r>
       <r>   10.7226    1.0000 </r>
       <r>   11.4652    1.0000 </r>
       <r>   33.4764    0.0000 </r>
       <r>   33.5456    0.0000 </r>
       <r>   33.5457    0.0000 </r>
       <r>   35.6587    0.0000 </r>
       <r>   41.8509    0.0000 </r>
       <r>   56.5339    0.0000 </r>
      </set>
      <set comment="kpoint 26">
       <r>    6.3736    1.0000 </r>
       <r>    7.7637    1.0000 </r>
       <r>   10.0844    1.0000 </r>
       <r>   10.8983    1.0000 </r>
       <r>   11.7030    1.0000 </r>
       <r>   11.8358    1.0006 </r>
       <r>   29.3853    0.0000 </r>
       <r>   31.4003    0.0000 </r>
       <r>   32.3891    0.0000 </r>
       <r>   36.6680    0.0000 </r>
       <r>   42.2824    0.0000 </r>
       <r>   56.5422    0.0000 </r>
      </set>
      <set comment="kpoint 27">
       <r>    6.9847    1.0000 </r>
       <r>    7.7622    1.0000 </r>
       <r>    9.7817    1.0000 </r>
       <r>   10.8016    1.0000 </r>
       <r>   11.9237    1.0039 </r>
       <r>   13.9461   -0.0000 </r>
       <r>   24.9739    0.0000 </r>
       <r>   29.2023    0.0000 </r>
       <r>   32.1884    0.0000 </r>
       <r>   36.9716    0.0000 </r>
       <r>   45.6271    0.0000 </r>
       <r>   54.7986    0.0000 </r>
      </set>
      <set comment="kpoint 28">
       <r>    7.3953    1.0000 </r>
       <r>    7.9532    1.0000 </r>
       <r>    9.4924    1.0000 </r>
       <r>   10.6497    1.0000 </r>
       <r>   11.8423    1.0007 </r>
       <r>   16.6809   -0.0000 </r>
       <r>   21.1362    0.0000 </r>
       <r>   27.4814    0.0000 </r>
       <r>   33.0081    0.0000 </r>
       <r>   37.0600    0.0000 </r>
       <r>   50.2178    0.0000 </r>
       <r>   53.2995    0.0000 </r>
      </set>
      <set comment="kpoint 29">
       <r>    7.7313    1.0000 </r>
       <r>    8.1968    1.0000 </r>
       <r>    9.1027    1.0000 </r>
       <r>   10.5224    1.0000 </r>
       <r>   11.4616    1.0000 </r>
       <r>   16.9971   -0.0000 </r>
       <r>   21.0262    0.0000 </r>
       <r>   26.3882    0.0000 </r>
       <r>   34.7607    0.0000 </r>
       <r>   37.4057    0.0000 </r>
       <r>   51.8591    0.0000 </r>
       <r>   52.0454    0.0000 </r>
      </set>
      <set comment="kpoint 30">
       <r>    7.6386    1.0000 </r>
       <r>    8.6434    1.0000 </r>
       <r>    8.6438    1.0000 </r>
       <r>   10.3988    1.0000 </r>
       <r>   11.0007    1.0000 </r>
       <r>   14.7162   -0.0000 </r>
       <r>   24.3838    0.0000 </r>
       <r>   26.4749    0.0000 </r>
       <r>   37.2399    0.0000 </r>
       <r>   38.2099    0.0000 </r>
       <r>   49.2917    0.0000 </r>
       <r>   50.8645    0.0000 </r>
      </set>
      <set comment="kpoint 31">
       <r>    6.4562    1.0000 </r>
       <r>    7.4281    1.0000 </r>
       <r>   11.4665    1.0000 </r>
       <r>   11.4665    1.0000 </r>
       <r>   11.7117    1.0000 </r>
       <r>   11.7684    1.0001 </r>
       <r>   28.4453    0.0000 </r>
       <r>   30.8339    0.0000 </r>
       <r>   30.8340    0.0000 </r>
       <r>   35.1923    0.0000 </r>
       <r>   40.2149    0.0000 </r>
       <r>   61.2800    0.0000 </r>
      </set>
      <set comment="kpoint 32">
       <r>    6.6295    1.0000 </r>
       <r>    7.3154    1.0000 </r>
       <r>   11.0568    1.0000 </r>
       <r>   11.4921    1.0000 </r>
       <r>   11.9387    1.0051 </r>
       <r>   13.9993   -0.0000 </r>
       <r>   26.1182    0.0000 </r>
       <r>   27.8897    0.0000 </r>
       <r>   30.2675    0.0000 </r>
       <r>   36.1111    0.0000 </r>
       <r>   41.3275    0.0000 </r>
       <r>   59.0278    0.0000 </r>
      </set>
      <set comment="kpoint 33">
       <r>    6.9580    1.0000 </r>
       <r>    7.4605    1.0000 </r>
       <r>   10.3876    1.0000 </r>
       <r>   11.3227    1.0000 </r>
       <r>   11.9092    1.0029 </r>
       <r>   16.8022   -0.0000 </r>
       <r>   23.4689    0.0000 </r>
       <r>   25.0066    0.0000 </r>
       <r>   30.8120    0.0000 </r>
       <r>   36.6186    0.0000 </r>
       <r>   45.0674    0.0000 </r>
       <r>   56.9033    0.0000 </r>
      </set>
      <set comment="kpoint 34">
       <r>    7.4329    1.0000 </r>
       <r>    7.7833    1.0000 </r>
       <r>    9.6257    1.0000 </r>
       <r>   11.0239    1.0000 </r>
       <r>   11.6479    1.0000 </r>
       <r>   19.5718    0.0000 </r>
       <r>   20.0365    0.0000 </r>
       <r>   24.4151    0.0000 </r>
       <r>   32.3803    0.0000 </r>
       <r>   36.9249    0.0000 </r>
       <r>   50.1166    0.0000 </r>
       <r>   54.7318    0.0000 </r>
      </set>
      <set comment="kpoint 35">
       <r>    6.4417    1.0000 </r>
       <r>    7.0980    1.0000 </r>
       <r>   11.8607    1.0010 </r>
       <r>   11.9821    1.0104 </r>
       <r>   11.9821    1.0104 </r>
       <r>   14.4067   -0.0000 </r>
       <r>   24.2273    0.0000 </r>
       <r>   29.3087    0.0000 </r>
       <r>   29.3088    0.0000 </r>
       <r>   34.9790    0.0000 </r>
       <r>   39.7208    0.0000 </r>
       <r>   61.3302    0.0000 </r>
      </set>
      <set comment="kpoint 36">
       <r>    6.5598    1.0000 </r>
       <r>    7.1527    1.0000 </r>
       <r>   11.4655    1.0000 </r>
       <r>   11.7565    1.0001 </r>
       <r>   12.0094    1.0152 </r>
       <r>   15.8135   -0.0000 </r>
       <r>   23.4815    0.0000 </r>
       <r>   27.1486    0.0000 </r>
       <r>   29.5027    0.0000 </r>
       <r>   35.9452    0.0000 </r>
       <r>   41.0917    0.0000 </r>
       <r>   59.8828    0.0000 </r>
      </set>
      <set comment="kpoint 37">
       <r>    4.2612    1.0000 </r>
       <r>    8.6869    1.0000 </r>
       <r>    9.7616    1.0000 </r>
       <r>   10.0526    1.0000 </r>
       <r>   10.5085    1.0000 </r>
       <r>   11.3178    1.0000 </r>
       <r>   33.0421    0.0000 </r>
       <r>   33.8311    0.0000 </r>
       <r>   40.2057    0.0000 </r>
       <r>   40.7166    0.0000 </r>
       <r>   47.2057    0.0000 </r>
       <r>   48.6139    0.0000 </r>
      </set>
      <set comment="kpoint 38">
       <r>    5.6314    1.0000 </r>
       <r>    8.5174    1.0000 </r>
       <r>    9.4750    1.0000 </r>
       <r>   10.1551    1.0000 </r>
       <r>   10.8310    1.0000 </r>
       <r>   11.9017    1.0025 </r>
       <r>   28.4145    0.0000 </r>
       <r>   32.6951    0.0000 </r>
       <r>   38.1211    0.0000 </r>
       <r>   41.6630    0.0000 </r>
       <r>   46.4679    0.0000 </r>
       <r>   48.4409    0.0000 </r>
      </set>
      <set comment="kpoint 39">
       <r>    6.6933    1.0000 </r>
       <r>    8.8011    1.0000 </r>
       <r>    9.1983    1.0000 </r>
       <r>   10.0092    1.0000 </r>
       <r>   11.4064    1.0000 </r>
       <r>   12.9329   -0.0002 </r>
       <r>   23.8849    0.0000 </r>
       <r>   32.4066    0.0000 </r>
       <r>   36.1572    0.0000 </r>
       <r>   40.9441    0.0000 </r>
       <r>   46.0153    0.0000 </r>
       <r>   49.9700    0.0000 </r>
      </set>
      <set comment="kpoint 40">
       <r>    6.9844    1.0000 </r>
       <r>    8.8521    1.0000 </r>
       <r>    9.6084    1.0000 </r>
       <r>    9.8859    1.0000 </r>
       <r>   11.7393    1.0000 </r>
       <r>   14.5035   -0.0000 </r>
       <r>   20.3932    0.0000 </r>
       <r>   32.5597    0.0000 </r>
       <r>   34.8278    0.0000 </r>
       <r>   40.1736    0.0000 </r>
       <r>   45.8502    0.0000 </r>
       <r>   50.4201    0.0000 </r>
      </set>
      <set comment="kpoint 41">
       <r>    5.9578    1.0000 </r>
       <r>    8.1049    1.0000 </r>
       <r>    9.5925    1.0000 </r>
       <r>   10.7211    1.0000 </r>
       <r>   10.9475    1.0000 </r>
       <r>   11.8851    1.0018 </r>
       <r>   30.5649    0.0000 </r>
       <r>   31.0519    0.0000 </r>
       <r>   34.7455    0.0000 </r>
       <r>   39.0885    0.0000 </r>
       <r>   44.0421    0.0000 </r>
       <r>   51.8744    0.0000 </r>
      </set>
      <set comment="kpoint 42">
       <r>    6.9281    1.0000 </r>
       <r>    8.0530    1.0000 </r>
       <r>    9.2641    1.0000 </r>
       <r>   10.6862    1.0000 </r>
       <r>   11.4777    1.0000 </r>
       <r>   13.1807   -0.0000 </r>
       <r>   26.1075    0.0000 </r>
       <r>   30.3162    0.0000 </r>
       <r>   32.5384    0.0000 </r>
       <r>   39.9601    0.0000 </r>
       <r>   45.9999    0.0000 </r>
       <r>   50.7491    0.0000 </r>
      </set>
      <set comment="kpoint 43">
       <r>    7.4071    1.0000 </r>
       <r>    8.2091    1.0000 </r>
       <r>    9.1596    1.0000 </r>
       <r>   10.4885    1.0000 </r>
       <r>   11.7708    1.0001 </r>
       <r>   15.3502   -0.0000 </r>
       <r>   21.9918    0.0000 </r>
       <r>   29.8169    0.0000 </r>
       <r>   31.4203    0.0000 </r>
       <r>   40.0552    0.0000 </r>
       <r>   47.8380    0.0000 </r>
       <r>   51.9474    0.0000 </r>
      </set>
      <set comment="kpoint 44">
       <r>    7.6106    1.0000 </r>
       <r>    8.2659    1.0000 </r>
       <r>    9.1619    1.0000 </r>
       <r>   10.3607    1.0000 </r>
       <r>   11.6849    1.0000 </r>
       <r>   16.8123   -0.0000 </r>
       <r>   20.1285    0.0000 </r>
       <r>   28.7179    0.0000 </r>
       <r>   32.1790    0.0000 </r>
       <r>   40.4824    0.0000 </r>
       <r>   47.2767    0.0000 </r>
       <r>   54.5560    0.0000 </r>
      </set>
      <set comment="kpoint 45">
       <r>    7.5561    1.0000 </r>
       <r>    8.4948    1.0000 </r>
       <r>    8.7737    1.0000 </r>
       <r>   10.4297    1.0000 </r>
       <r>   11.3031    1.0000 </r>
       <r>   14.8182   -0.0000 </r>
       <r>   23.2812    0.0000 </r>
       <r>   28.0452    0.0000 </r>
       <r>   33.7921    0.0000 </r>
       <r>   41.6844    0.0000 </r>
       <r>   46.0924    0.0000 </r>
       <r>   53.2226    0.0000 </r>
      </set>
      <set comment="kpoint 46">
       <r>    6.8419    1.0000 </r>
       <r>    8.3607    1.0000 </r>
       <r>    9.0525    1.0000 </r>
       <r>   10.5642    1.0000 </r>
       <r>   10.7693    1.0000 </r>
       <r>   13.0664   -0.0000 </r>
       <r>   27.2470    0.0000 </r>
       <r>   28.4289    0.0000 </r>
       <r>   35.8957    0.0000 </r>
       <r>   43.6846    0.0000 </r>
       <r>   44.0529    0.0000 </r>
       <r>   50.7021    0.0000 </r>
      </set>
      <set comment="kpoint 47">
       <r>    6.7720    1.0000 </r>
       <r>    7.5892    1.0000 </r>
       <r>   10.1126    1.0000 </r>
       <r>   11.4639    1.0000 </r>
       <r>   11.5037    1.0000 </r>
       <r>   13.3261   -0.0000 </r>
       <r>   28.2788    0.0000 </r>
       <r>   28.4682    0.0000 </r>
       <r>   29.8476    0.0000 </r>
       <r>   38.0459    0.0000 </r>
       <r>   42.5664    0.0000 </r>
       <r>   54.8859    0.0000 </r>
      </set>
      <set comment="kpoint 48">
       <r>    7.1388    1.0000 </r>
       <r>    7.6660    1.0000 </r>
       <r>    9.7842    1.0000 </r>
       <r>   11.1872    1.0000 </r>
       <r>   11.8424    1.0007 </r>
       <r>   15.7455   -0.0000 </r>
       <r>   24.4162    0.0000 </r>
       <r>   26.8180    0.0000 </r>
       <r>   29.2111    0.0000 </r>
       <r>   39.1378    0.0000 </r>
       <r>   45.4925    0.0000 </r>
       <r>   53.0289    0.0000 </r>
      </set>
      <set comment="kpoint 49">
       <r>    7.5363    1.0000 </r>
       <r>    7.8920    1.0000 </r>
       <r>    9.3364    1.0000 </r>
       <r>   10.8957    1.0000 </r>
       <r>   11.7897    1.0002 </r>
       <r>   18.6900    0.0000 </r>
       <r>   20.7754    0.0000 </r>
       <r>   25.4439    0.0000 </r>
       <r>   30.0853    0.0000 </r>
       <r>   39.7019    0.0000 </r>
       <r>   49.7905    0.0000 </r>
       <r>   51.4713    0.0000 </r>
      </set>
      <set comment="kpoint 50">
       <r>    8.0189    1.0000 </r>
       <r>    8.0472    1.0000 </r>
       <r>    8.8027    1.0000 </r>
       <r>   10.7009    1.0000 </r>
       <r>   11.4922    1.0000 </r>
       <r>   17.2917   -0.0000 </r>
       <r>   22.1137    0.0000 </r>
       <r>   25.2199    0.0000 </r>
       <r>   31.7010    0.0000 </r>
       <r>   40.6039    0.0000 </r>
       <r>   48.6588    0.0000 </r>
       <r>   54.6252    0.0000 </r>
      </set>
      <set comment="kpoint 51">
       <r>    6.7180    1.0000 </r>
       <r>    7.2921    1.0000 </r>
       <r>   10.8592    1.0000 </r>
       <r>   11.6398    1.0000 </r>
       <r>   11.9823    1.0104 </r>
       <r>   15.8292   -0.0000 </r>
       <r>   24.3317    0.0000 </r>
       <r>   27.2110    0.0000 </r>
       <r>   28.1198    0.0000 </r>
       <r>   37.5377    0.0000 </r>
       <r>   42.0469    0.0000 </r>
       <r>   57.2253    0.0000 </r>
      </set>
      <set comment="kpoint 52">
       <r>    7.0406    1.0000 </r>
       <r>    7.5322    1.0000 </r>
       <r>   10.1470    1.0000 </r>
       <r>   11.3181    1.0000 </r>
       <r>   11.9782    1.0098 </r>
       <r>   17.9332    0.0000 </r>
       <r>   23.1729    0.0000 </r>
       <r>   24.4686    0.0000 </r>
       <r>   28.5510    0.0000 </r>
       <r>   38.8762    0.0000 </r>
       <r>   45.3469    0.0000 </r>
       <r>   54.4147    0.0000 </r>
      </set>
      <set comment="kpoint 53">
       <r>    7.5260    1.0000 </r>
       <r>    8.0629    1.0000 </r>
       <r>    8.9169    1.0000 </r>
       <r>   10.9898    1.0000 </r>
       <r>   11.4616    1.0000 </r>
       <r>   15.1701   -0.0000 </r>
       <r>   25.1515    0.0000 </r>
       <r>   26.7000    0.0000 </r>
       <r>   30.1672    0.0000 </r>
       <r>   42.8612    0.0000 </r>
       <r>   45.3600    0.0000 </r>
       <r>   50.5433    0.0000 </r>
      </set>
      <set comment="kpoint 54">
       <r>    7.7727    1.0000 </r>
       <r>    8.1831    1.0000 </r>
       <r>    8.7677    1.0000 </r>
       <r>   10.7728    1.0000 </r>
       <r>   11.7680    1.0001 </r>
       <r>   17.8141   -0.0000 </r>
       <r>   21.6872    0.0000 </r>
       <r>   26.6242    0.0000 </r>
       <r>   28.4736    0.0000 </r>
       <r>   43.6371    0.0000 </r>
       <r>   46.0993    0.0000 </r>
       <r>   52.1525    0.0000 </r>
      </set>
      <set comment="kpoint 55">
       <r>    7.3405    1.0000 </r>
       <r>    7.8757    1.0000 </r>
       <r>    9.3965    1.0000 </r>
       <r>   11.0729    1.0000 </r>
       <r>   11.9829    1.0105 </r>
       <r>   18.2255    0.0000 </r>
       <r>   23.9298    0.0000 </r>
       <r>   24.6007    0.0000 </r>
       <r>   26.5500    0.0000 </r>
       <r>   42.2739    0.0000 </r>
       <r>   46.7154    0.0000 </r>
       <r>   50.8642    0.0000 </r>
      </set>
      <set comment="kpoint 56">
       <r>    7.5722    1.0000 </r>
       <r>    8.2648    1.0000 </r>
       <r>    8.8421    1.0000 </r>
       <r>   10.8446    1.0000 </r>
       <r>   11.9785    1.0098 </r>
       <r>   20.7513    0.0000 </r>
       <r>   20.8241    0.0000 </r>
       <r>   24.3771    0.0000 </r>
       <r>   26.8098    0.0000 </r>
       <r>   43.9495    0.0000 </r>
       <r>   47.9320    0.0000 </r>
       <r>   50.2860    0.0000 </r>
      </set>
     </set>
     <set comment="spin 2">
      <set comment="kpoint 1">
       <r>    1.9351    1.0000 </r>
       <r>   10.0776    1.0000 </r>
       <r>   10.0776    1.0000 </r>
       <r>   10.0776    1.0000 </r>
       <r>   11.5149    1.0000 </r>
       <r>   11.5149    1.0000 </r>
       <r>   37.6095    0.0000 </r>
       <r>   43.1062    0.0000 </r>
       <r>   43.1063    0.0000 </r>
       <r>   43.1063    0.0000 </r>
       <r>   47.4000    0.0000 </r>
       <r>   47.4001    0.0000 </r>
      </set>
      <set comment="kpoint 2">
       <r>    2.3075    1.0000 </r>
       <r>    9.9545    1.0000 </r>
       <r>   10.1713    1.0000 </r>
       <r>   10.1713    1.0000 </r>
       <r>   11.4703    1.0000 </r>
       <r>   11.4703    1.0000 </r>
       <r>   36.8455    0.0000 </r>
       <r>   40.0480    0.0000 </r>
       <r>   42.6940    0.0000 </r>
       <r>   42.6942    0.0000 </r>
       <r>   47.7815    0.0000 </r>
       <r>   48.0479    0.0000 </r>
      </set>
      <set comment="kpoint 3">
       <r>    3.3685    1.0000 </r>
       <r>    9.6748    1.0000 </r>
       <r>   10.3291    1.0000 </r>
       <r>   10.3292    1.0000 </r>
       <r>   11.4627    1.0000 </r>
       <r>   11.4628    1.0000 </r>
       <r>   32.7449    0.0000 </r>
       <r>   38.6468    0.0000 </r>
       <r>   41.9301    0.0000 </r>
       <r>   41.9304    0.0000 </r>
       <r>   47.5404    0.0000 </r>
       <r>   48.4231    0.0000 </r>
      </set>
      <set comment="kpoint 4">
       <r>    4.8869    1.0000 </r>
       <r>    9.5294    1.0000 </r>
       <r>   10.2926    1.0000 </r>
       <r>   10.2927    1.0000 </r>
       <r>   11.7453    1.0001 </r>
       <r>   11.7455    1.0001 </r>
       <r>   27.9170    0.0000 </r>
       <r>   37.7168    0.0000 </r>
       <r>   41.3754    0.0000 </r>
       <r>   41.3757    0.0000 </r>
       <r>   46.7464    0.0000 </r>
       <r>   46.7465    0.0000 </r>
      </set>
      <set comment="kpoint 5">
       <r>    6.2168    1.0000 </r>
       <r>   10.0824    1.0000 </r>
       <r>   10.1111    1.0000 </r>
       <r>   10.1112    1.0000 </r>
       <r>   12.1910    1.0061 </r>
       <r>   12.1912    1.0059 </r>
       <r>   23.5531    0.0000 </r>
       <r>   36.7050    0.0000 </r>
       <r>   40.9442    0.0000 </r>
       <r>   40.9444    0.0000 </r>
       <r>   44.8495    0.0000 </r>
       <r>   44.8499    0.0000 </r>
      </set>
      <set comment="kpoint 6">
       <r>    6.7188    1.0000 </r>
       <r>    9.9796    1.0000 </r>
       <r>    9.9797    1.0000 </r>
       <r>   11.3956    1.0000 </r>
       <r>   12.5029    0.0443 </r>
       <r>   12.5031    0.0440 </r>
       <r>   20.4699    0.0000 </r>
       <r>   36.0912    0.0000 </r>
       <r>   40.7071    0.0000 </r>
       <r>   40.7072    0.0000 </r>
       <r>   43.8351    0.0000 </r>
       <r>   43.8356    0.0000 </r>
      </set>
      <set comment="kpoint 7">
       <r>    2.4303    1.0000 </r>
       <r>    9.8564    1.0000 </r>
       <r>   10.2404    1.0000 </r>
       <r>   10.2404    1.0000 </r>
       <r>   11.3081    1.0000 </r>
       <r>   11.5861    1.0000 </r>
       <r>   37.1618    0.0000 </r>
       <r>   40.7743    0.0000 </r>
       <r>   40.7744    0.0000 </r>
       <r>   40.9033    0.0000 </r>
       <r>   48.9860    0.0000 </r>
       <r>   49.3556    0.0000 </r>
      </set>
      <set comment="kpoint 8">
       <r>    3.2597    1.0000 </r>
       <r>    9.5900    1.0000 </r>
       <r>   10.4084    1.0000 </r>
       <r>   10.4303    1.0000 </r>
       <r>   11.1663    1.0000 </r>
       <r>   11.6632    1.0000 </r>
       <r>   34.6132    0.0000 </r>
       <r>   38.0429    0.0000 </r>
       <r>   39.2633    0.0000 </r>
       <r>   42.1576    0.0000 </r>
       <r>   47.3726    0.0000 </r>
       <r>   50.2733    0.0000 </r>
      </set>
      <set comment="kpoint 9">
       <r>    4.6413    1.0000 </r>
       <r>    9.3377    1.0000 </r>
       <r>   10.3019    1.0000 </r>
       <r>   10.4897    1.0000 </r>
       <r>   11.4728    1.0000 </r>
       <r>   11.8963    1.0023 </r>
       <r>   29.7279    0.0000 </r>
       <r>   37.0930    0.0000 </r>
       <r>   38.2220    0.0000 </r>
       <r>   42.5742    0.0000 </r>
       <r>   46.0178    0.0000 </r>
       <r>   49.5094    0.0000 </r>
      </set>
      <set comment="kpoint 10">
       <r>    6.1073    1.0000 </r>
       <r>    9.4509    1.0000 </r>
       <r>   10.0401    1.0000 </r>
       <r>   10.3527    1.0000 </r>
       <r>   12.2085    0.9858 </r>
       <r>   12.2774    0.8350 </r>
       <r>   25.1075    0.0000 </r>
       <r>   36.1102    0.0000 </r>
       <r>   37.7452    0.0000 </r>
       <r>   40.8975    0.0000 </r>
       <r>   46.1234    0.0000 </r>
       <r>   48.3804    0.0000 </r>
      </set>
      <set comment="kpoint 11">
       <r>    6.8647    1.0000 </r>
       <r>    9.7331    1.0000 </r>
       <r>   10.1887    1.0000 </r>
       <r>   10.3746    1.0000 </r>
       <r>   12.5378   -0.0044 </r>
       <r>   13.2194   -0.0000 </r>
       <r>   21.3783    0.0000 </r>
       <r>   35.2482    0.0000 </r>
       <r>   37.9514    0.0000 </r>
       <r>   39.3031    0.0000 </r>
       <r>   46.1130    0.0000 </r>
       <r>   46.8464    0.0000 </r>
      </set>
      <set comment="kpoint 12">
       <r>    6.9893    1.0000 </r>
       <r>    9.7270    1.0000 </r>
       <r>   10.1213    1.0000 </r>
       <r>   10.7735    1.0000 </r>
       <r>   12.4899    0.0698 </r>
       <r>   13.8287   -0.0000 </r>
       <r>   20.0735    0.0000 </r>
       <r>   34.7000    0.0000 </r>
       <r>   38.5411    0.0000 </r>
       <r>   38.9928    0.0000 </r>
       <r>   45.8237    0.0000 </r>
       <r>   46.3096    0.0000 </r>
      </set>
      <set comment="kpoint 13">
       <r>    6.7217    1.0000 </r>
       <r>    9.8465    1.0000 </r>
       <r>   10.1103    1.0000 </r>
       <r>   10.1918    1.0000 </r>
       <r>   12.1198    1.0355 </r>
       <r>   13.1356   -0.0000 </r>
       <r>   22.4795    0.0000 </r>
       <r>   34.5372    0.0000 </r>
       <r>   38.8127    0.0000 </r>
       <r>   40.8866    0.0000 </r>
       <r>   45.1364    0.0000 </r>
       <r>   46.3942    0.0000 </r>
      </set>
      <set comment="kpoint 14">
       <r>    5.6723    1.0000 </r>
       <r>    9.4097    1.0000 </r>
       <r>   10.1327    1.0000 </r>
       <r>   10.3764    1.0000 </r>
       <r>   11.5840    1.0000 </r>
       <r>   12.4304    0.2399 </r>
       <r>   26.5956    0.0000 </r>
       <r>   34.7911    0.0000 </r>
       <r>   40.0072    0.0000 </r>
       <r>   43.4601    0.0000 </r>
       <r>   44.9333    0.0000 </r>
       <r>   45.7958    0.0000 </r>
      </set>
      <set comment="kpoint 15">
       <r>    4.1417    1.0000 </r>
       <r>    9.4596    1.0000 </r>
       <r>   10.3265    1.0000 </r>
       <r>   10.5044    1.0000 </r>
       <r>   11.1883    1.0000 </r>
       <r>   11.8866    1.0018 </r>
       <r>   31.3547    0.0000 </r>
       <r>   35.4433    0.0000 </r>
       <r>   41.5366    0.0000 </r>
       <r>   44.7108    0.0000 </r>
       <r>   44.7337    0.0000 </r>
       <r>   46.7324    0.0000 </r>
      </set>
      <set comment="kpoint 16">
       <r>    2.9103    1.0000 </r>
       <r>    9.7466    1.0000 </r>
       <r>   10.3076    1.0000 </r>
       <r>   10.3159    1.0000 </r>
       <r>   11.2677    1.0000 </r>
       <r>   11.5921    1.0000 </r>
       <r>   35.6081    0.0000 </r>
       <r>   37.1018    0.0000 </r>
       <r>   41.6343    0.0000 </r>
       <r>   44.3814    0.0000 </r>
       <r>   45.6865    0.0000 </r>
       <r>   47.6338    0.0000 </r>
      </set>
      <set comment="kpoint 17">
       <r>    3.8195    1.0000 </r>
       <r>    9.2859    1.0000 </r>
       <r>   10.7101    1.0000 </r>
       <r>   10.7101    1.0000 </r>
       <r>   10.8325    1.0000 </r>
       <r>   11.7874    1.0002 </r>
       <r>   36.4009    0.0000 </r>
       <r>   37.0835    0.0000 </r>
       <r>   37.0836    0.0000 </r>
       <r>   37.5657    0.0000 </r>
       <r>   46.1190    0.0000 </r>
       <r>   52.5705    0.0000 </r>
      </set>
      <set comment="kpoint 18">
       <r>    4.9368    1.0000 </r>
       <r>    8.9635    1.0000 </r>
       <r>   10.3834    1.0000 </r>
       <r>   10.9237    1.0000 </r>
       <r>   11.3600    1.0000 </r>
       <r>   11.9864    1.0111 </r>
       <r>   31.9654    0.0000 </r>
       <r>   35.5817    0.0000 </r>
       <r>   35.8546    0.0000 </r>
       <r>   38.4945    0.0000 </r>
       <r>   44.8367    0.0000 </r>
       <r>   52.0314    0.0000 </r>
      </set>
      <set comment="kpoint 19">
       <r>    6.2943    1.0000 </r>
       <r>    8.8031    1.0000 </r>
       <r>    9.9863    1.0000 </r>
       <r>   10.8759    1.0000 </r>
       <r>   12.3406    0.6036 </r>
       <r>   12.4037    0.3407 </r>
       <r>   27.1675    0.0000 </r>
       <r>   34.2358    0.0000 </r>
       <r>   34.8245    0.0000 </r>
       <r>   38.3801    0.0000 </r>
       <r>   47.0355    0.0000 </r>
       <r>   51.1007    0.0000 </r>
      </set>
      <set comment="kpoint 20">
       <r>    7.2509    1.0000 </r>
       <r>    8.9194    1.0000 </r>
       <r>    9.8614    1.0000 </r>
       <r>   10.7054    1.0000 </r>
       <r>   12.5804   -0.0313 </r>
       <r>   14.0016   -0.0000 </r>
       <r>   22.9162    0.0000 </r>
       <r>   32.5404    0.0000 </r>
       <r>   34.8781    0.0000 </r>
       <r>   37.7646    0.0000 </r>
       <r>   49.8628    0.0000 </r>
       <r>   50.7064    0.0000 </r>
      </set>
      <set comment="kpoint 21">
       <r>    7.5613    1.0000 </r>
       <r>    9.0391    1.0000 </r>
       <r>   10.0480    1.0000 </r>
       <r>   10.5729    1.0000 </r>
       <r>   12.5061    0.0386 </r>
       <r>   15.6745   -0.0000 </r>
       <r>   20.2028    0.0000 </r>
       <r>   31.1799    0.0000 </r>
       <r>   35.8751    0.0000 </r>
       <r>   37.5732    0.0000 </r>
       <r>   49.4392    0.0000 </r>
       <r>   49.4541    0.0000 </r>
      </set>
      <set comment="kpoint 22">
       <r>    7.5129    1.0000 </r>
       <r>    9.2428    1.0000 </r>
       <r>    9.7870    1.0000 </r>
       <r>   10.5517    1.0000 </r>
       <r>   12.1030    1.0344 </r>
       <r>   14.9260   -0.0000 </r>
       <r>   21.7983    0.0000 </r>
       <r>   30.3476    0.0000 </r>
       <r>   37.7404    0.0000 </r>
       <r>   38.0600    0.0000 </r>
       <r>   48.4719    0.0000 </r>
       <r>   48.6860    0.0000 </r>
      </set>
      <set comment="kpoint 23">
       <r>    6.8350    1.0000 </r>
       <r>    9.1847    1.0000 </r>
       <r>    9.6965    1.0000 </r>
       <r>   10.6672    1.0000 </r>
       <r>   11.5152    1.0000 </r>
       <r>   13.5664   -0.0000 </r>
       <r>   25.7377    0.0000 </r>
       <r>   30.1417    0.0000 </r>
       <r>   39.3253    0.0000 </r>
       <r>   40.2921    0.0000 </r>
       <r>   46.6201    0.0000 </r>
       <r>   48.4706    0.0000 </r>
      </set>
      <set comment="kpoint 24">
       <r>    5.4432    1.0000 </r>
       <r>    9.1931    1.0000 </r>
       <r>   10.0884    1.0000 </r>
       <r>   10.8887    1.0000 </r>
       <r>   10.9386    1.0000 </r>
       <r>   12.5897   -0.0336 </r>
       <r>   30.0760    0.0000 </r>
       <r>   30.8508    0.0000 </r>
       <r>   41.2652    0.0000 </r>
       <r>   43.1170    0.0000 </r>
       <r>   44.3192    0.0000 </r>
       <r>   48.6465    0.0000 </r>
      </set>
      <set comment="kpoint 25">
       <r>    5.6465    1.0000 </r>
       <r>    8.5807    1.0000 </r>
       <r>   10.6279    1.0000 </r>
       <r>   11.4205    1.0000 </r>
       <r>   11.4205    1.0000 </r>
       <r>   12.0577    1.0259 </r>
       <r>   33.5081    0.0000 </r>
       <r>   33.6195    0.0000 </r>
       <r>   33.6195    0.0000 </r>
       <r>   35.7395    0.0000 </r>
       <r>   42.0352    0.0000 </r>
       <r>   56.4782    0.0000 </r>
      </set>
      <set comment="kpoint 26">
       <r>    6.5170    1.0000 </r>
       <r>    8.3163    1.0000 </r>
       <r>   10.5414    1.0000 </r>
       <r>   11.5631    1.0000 </r>
       <r>   12.3457    0.5821 </r>
       <r>   12.3977    0.3646 </r>
       <r>   29.4861    0.0000 </r>
       <r>   31.4922    0.0000 </r>
       <r>   32.4551    0.0000 </r>
       <r>   36.7523    0.0000 </r>
       <r>   42.4269    0.0000 </r>
       <r>   56.5063    0.0000 </r>
      </set>
      <set comment="kpoint 27">
       <r>    7.2612    1.0000 </r>
       <r>    8.2671    1.0000 </r>
       <r>   10.2717    1.0000 </r>
       <r>   11.4224    1.0000 </r>
       <r>   12.6171   -0.0353 </r>
       <r>   14.3571   -0.0000 </r>
       <r>   25.1267    0.0000 </r>
       <r>   29.3221    0.0000 </r>
       <r>   32.2504    0.0000 </r>
       <r>   37.0579    0.0000 </r>
       <r>   45.7318    0.0000 </r>
       <r>   54.8049    0.0000 </r>
      </set>
      <set comment="kpoint 28">
       <r>    7.8056    1.0000 </r>
       <r>    8.3632    1.0000 </r>
       <r>   10.0096    1.0000 </r>
       <r>   11.2395    1.0000 </r>
       <r>   12.5571   -0.0204 </r>
       <r>   16.9715   -0.0000 </r>
       <r>   21.3628    0.0000 </r>
       <r>   27.6203    0.0000 </r>
       <r>   33.0755    0.0000 </r>
       <r>   37.1263    0.0000 </r>
       <r>   50.2946    0.0000 </r>
       <r>   53.3082    0.0000 </r>
      </set>
      <set comment="kpoint 29">
       <r>    8.1874    1.0000 </r>
       <r>    8.5460    1.0000 </r>
       <r>    9.6249    1.0000 </r>
       <r>   11.0848    1.0000 </r>
       <r>   12.1830    1.0133 </r>
       <r>   17.2953   -0.0000 </r>
       <r>   21.2770    0.0000 </r>
       <r>   26.5364    0.0000 </r>
       <r>   34.8400    0.0000 </r>
       <r>   37.4453    0.0000 </r>
       <r>   51.8028    0.0000 </r>
       <r>   52.0586    0.0000 </r>
      </set>
      <set comment="kpoint 30">
       <r>    7.9041    1.0000 </r>
       <r>    9.0932    1.0000 </r>
       <r>    9.1773    1.0000 </r>
       <r>   10.9388    1.0000 </r>
       <r>   11.7225    1.0000 </r>
       <r>   15.1687   -0.0000 </r>
       <r>   24.5888    0.0000 </r>
       <r>   26.6109    0.0000 </r>
       <r>   37.3278    0.0000 </r>
       <r>   38.2226    0.0000 </r>
       <r>   49.2195    0.0000 </r>
       <r>   50.8835    0.0000 </r>
      </set>
      <set comment="kpoint 31">
       <r>    6.6854    1.0000 </r>
       <r>    7.9713    1.0000 </r>
       <r>   11.9527    1.0065 </r>
       <r>   12.1982    0.9985 </r>
       <r>   12.1982    0.9985 </r>
       <r>   12.3120    0.7169 </r>
       <r>   28.5778    0.0000 </r>
       <r>   30.8832    0.0000 </r>
       <r>   30.8833    0.0000 </r>
       <r>   35.3214    0.0000 </r>
       <r>   40.3694    0.0000 </r>
       <r>   61.2415    0.0000 </r>
      </set>
      <set comment="kpoint 32">
       <r>    6.9213    1.0000 </r>
       <r>    7.8462    1.0000 </r>
       <r>   11.6067    1.0000 </r>
       <r>   12.1328    1.0348 </r>
       <r>   12.6428   -0.0322 </r>
       <r>   14.2842   -0.0000 </r>
       <r>   26.2896    0.0000 </r>
       <r>   27.9780    0.0000 </r>
       <r>   30.3076    0.0000 </r>
       <r>   36.2227    0.0000 </r>
       <r>   41.4659    0.0000 </r>
       <r>   59.0299    0.0000 </r>
      </set>
      <set comment="kpoint 33">
       <r>    7.2979    1.0000 </r>
       <r>    7.9683    1.0000 </r>
       <r>   10.9262    1.0000 </r>
       <r>   11.9203    1.0036 </r>
       <r>   12.6481   -0.0312 </r>
       <r>   17.0386   -0.0000 </r>
       <r>   23.6275    0.0000 </r>
       <r>   25.1880    0.0000 </r>
       <r>   30.8585    0.0000 </r>
       <r>   36.7204    0.0000 </r>
       <r>   45.1798    0.0000 </r>
       <r>   56.9008    0.0000 </r>
      </set>
      <set comment="kpoint 34">
       <r>    7.8304    1.0000 </r>
       <r>    8.2330    1.0000 </r>
       <r>   10.1517    1.0000 </r>
       <r>   11.5870    1.0000 </r>
       <r>   12.3967    0.3686 </r>
       <r>   19.7905    0.0000 </r>
       <r>   20.2450    0.0000 </r>
       <r>   24.6143    0.0000 </r>
       <r>   32.4443    0.0000 </r>
       <r>   37.0020    0.0000 </r>
       <r>   50.2165    0.0000 </r>
       <r>   54.7287    0.0000 </r>
      </set>
      <set comment="kpoint 35">
       <r>    6.7529    1.0000 </r>
       <r>    7.6253    1.0000 </r>
       <r>   12.4658    0.1284 </r>
       <r>   12.7429   -0.0113 </r>
       <r>   12.7429   -0.0113 </r>
       <r>   14.4236   -0.0000 </r>
       <r>   24.4589    0.0000 </r>
       <r>   29.3321    0.0000 </r>
       <r>   29.3322    0.0000 </r>
       <r>   35.1318    0.0000 </r>
       <r>   39.8753    0.0000 </r>
       <r>   61.3463    0.0000 </r>
      </set>
      <set comment="kpoint 36">
       <r>    6.8829    1.0000 </r>
       <r>    7.6762    1.0000 </r>
       <r>   12.0948    1.0334 </r>
       <r>   12.3551    0.5429 </r>
       <r>   12.7729   -0.0070 </r>
       <r>   15.9316   -0.0000 </r>
       <r>   23.7344    0.0000 </r>
       <r>   27.2181    0.0000 </r>
       <r>   29.5291    0.0000 </r>
       <r>   36.0678    0.0000 </r>
       <r>   41.2324    0.0000 </r>
       <r>   59.8840    0.0000 </r>
      </set>
      <set comment="kpoint 37">
       <r>    4.2534    1.0000 </r>
       <r>    9.2880    1.0000 </r>
       <r>   10.3661    1.0000 </r>
       <r>   10.7308    1.0000 </r>
       <r>   11.0727    1.0000 </r>
       <r>   11.9287    1.0042 </r>
       <r>   33.1423    0.0000 </r>
       <r>   33.8769    0.0000 </r>
       <r>   40.2096    0.0000 </r>
       <r>   40.7063    0.0000 </r>
       <r>   47.4086    0.0000 </r>
       <r>   48.5816    0.0000 </r>
      </set>
      <set comment="kpoint 38">
       <r>    5.6720    1.0000 </r>
       <r>    9.0742    1.0000 </r>
       <r>   10.0356    1.0000 </r>
       <r>   10.7752    1.0000 </r>
       <r>   11.4491    1.0000 </r>
       <r>   12.5295    0.0047 </r>
       <r>   28.5584    0.0000 </r>
       <r>   32.7670    0.0000 </r>
       <r>   38.1487    0.0000 </r>
       <r>   41.6878    0.0000 </r>
       <r>   46.5065    0.0000 </r>
       <r>   48.4983    0.0000 </r>
      </set>
      <set comment="kpoint 39">
       <r>    6.9153    1.0000 </r>
       <r>    9.2117    1.0000 </r>
       <r>    9.7565    1.0000 </r>
       <r>   10.5927    1.0000 </r>
       <r>   12.0688    1.0284 </r>
       <r>   13.4787   -0.0000 </r>
       <r>   24.0985    0.0000 </r>
       <r>   32.4709    0.0000 </r>
       <r>   36.2144    0.0000 </r>
       <r>   40.9805    0.0000 </r>
       <r>   46.0389    0.0000 </r>
       <r>   49.9708    0.0000 </r>
      </set>
      <set comment="kpoint 40">
       <r>    7.3726    1.0000 </r>
       <r>    9.2745    1.0000 </r>
       <r>   10.0753    1.0000 </r>
       <r>   10.4550    1.0000 </r>
       <r>   12.4352    0.2233 </r>
       <r>   14.8582   -0.0000 </r>
       <r>   20.7089    0.0000 </r>
       <r>   32.6023    0.0000 </r>
       <r>   34.9182    0.0000 </r>
       <r>   40.1895    0.0000 </r>
       <r>   45.8926    0.0000 </r>
       <r>   50.4122    0.0000 </r>
      </set>
      <set comment="kpoint 41">
       <r>    6.0176    1.0000 </r>
       <r>    8.6724    1.0000 </r>
       <r>   10.1155    1.0000 </r>
       <r>   11.4215    1.0000 </r>
       <r>   11.4993    1.0000 </r>
       <r>   12.5085    0.0346 </r>
       <r>   30.6943    0.0000 </r>
       <r>   31.1193    0.0000 </r>
       <r>   34.8121    0.0000 </r>
       <r>   39.1203    0.0000 </r>
       <r>   44.1971    0.0000 </r>
       <r>   51.8638    0.0000 </r>
      </set>
      <set comment="kpoint 42">
       <r>    7.1138    1.0000 </r>
       <r>    8.5750    1.0000 </r>
       <r>    9.7754    1.0000 </r>
       <r>   11.2906    1.0000 </r>
       <r>   12.1359    1.0344 </r>
       <r>   13.7005   -0.0000 </r>
       <r>   26.2652    0.0000 </r>
       <r>   30.4049    0.0000 </r>
       <r>   32.6332    0.0000 </r>
       <r>   40.0010    0.0000 </r>
       <r>   46.0867    0.0000 </r>
       <r>   50.7882    0.0000 </r>
      </set>
      <set comment="kpoint 43">
       <r>    7.7799    1.0000 </r>
       <r>    8.6194    1.0000 </r>
       <r>    9.6806    1.0000 </r>
       <r>   11.0703    1.0000 </r>
       <r>   12.4752    0.1038 </r>
       <r>   15.7093   -0.0000 </r>
       <r>   22.2180    0.0000 </r>
       <r>   29.9124    0.0000 </r>
       <r>   31.5242    0.0000 </r>
       <r>   40.0893    0.0000 </r>
       <r>   47.8536    0.0000 </r>
       <r>   52.0589    0.0000 </r>
      </set>
      <set comment="kpoint 44">
       <r>    8.0560    1.0000 </r>
       <r>    8.6306    1.0000 </r>
       <r>    9.6801    1.0000 </r>
       <r>   10.9302    1.0000 </r>
       <r>   12.3995    0.3574 </r>
       <r>   17.0828   -0.0000 </r>
       <r>   20.4266    0.0000 </r>
       <r>   28.8314    0.0000 </r>
       <r>   32.2732    0.0000 </r>
       <r>   40.5044    0.0000 </r>
       <r>   47.2941    0.0000 </r>
       <r>   54.5319    0.0000 </r>
      </set>
      <set comment="kpoint 45">
       <r>    7.8606    1.0000 </r>
       <r>    8.9238    1.0000 </r>
       <r>    9.3095    1.0000 </r>
       <r>   10.9890    1.0000 </r>
       <r>   12.0069    1.0147 </r>
       <r>   15.2462   -0.0000 </r>
       <r>   23.4951    0.0000 </r>
       <r>   28.1659    0.0000 </r>
       <r>   33.8741    0.0000 </r>
       <r>   41.7049    0.0000 </r>
       <r>   46.0942    0.0000 </r>
       <r>   53.2636    0.0000 </r>
      </set>
      <set comment="kpoint 46">
       <r>    6.9567    1.0000 </r>
       <r>    8.9128    1.0000 </r>
       <r>    9.5753    1.0000 </r>
       <r>   11.0975    1.0000 </r>
       <r>   11.4775    1.0000 </r>
       <r>   13.6360   -0.0000 </r>
       <r>   27.4231    0.0000 </r>
       <r>   28.5307    0.0000 </r>
       <r>   35.9577    0.0000 </r>
       <r>   43.7190    0.0000 </r>
       <r>   44.0388    0.0000 </r>
       <r>   50.8291    0.0000 </r>
      </set>
      <set comment="kpoint 47">
       <r>    7.0125    1.0000 </r>
       <r>    8.1294    1.0000 </r>
       <r>   10.6008    1.0000 </r>
       <r>   12.0646    1.0275 </r>
       <r>   12.1962    1.0008 </r>
       <r>   13.7740   -0.0000 </r>
       <r>   28.3855    0.0000 </r>
       <r>   28.5862    0.0000 </r>
       <r>   29.9440    0.0000 </r>
       <r>   38.1087    0.0000 </r>
       <r>   42.7011    0.0000 </r>
       <r>   54.8934    0.0000 </r>
      </set>
      <set comment="kpoint 48">
       <r>    7.4587    1.0000 </r>
       <r>    8.1812    1.0000 </r>
       <r>   10.2941    1.0000 </r>
       <r>   11.7748    1.0001 </r>
       <r>   12.5718   -0.0282 </r>
       <r>   16.0619   -0.0000 </r>
       <r>   24.5662    0.0000 </r>
       <r>   26.9719    0.0000 </r>
       <r>   29.2997    0.0000 </r>
       <r>   39.1948    0.0000 </r>
       <r>   45.6003    0.0000 </r>
       <r>   53.0454    0.0000 </r>
      </set>
      <set comment="kpoint 49">
       <r>    7.9153    1.0000 </r>
       <r>    8.3603    1.0000 </r>
       <r>    9.8591    1.0000 </r>
       <r>   11.4604    1.0000 </r>
       <r>   12.5329    0.0008 </r>
       <r>   18.9258    0.0000 </r>
       <r>   20.9917    0.0000 </r>
       <r>   25.6156    0.0000 </r>
       <r>   30.1787    0.0000 </r>
       <r>   39.7496    0.0000 </r>
       <r>   49.8403    0.0000 </r>
       <r>   51.5152    0.0000 </r>
      </set>
      <set comment="kpoint 50">
       <r>    8.3455    1.0000 </r>
       <r>    8.5354    1.0000 </r>
       <r>    9.3274    1.0000 </r>
       <r>   11.2487    1.0000 </r>
       <r>   12.2316    0.9482 </r>
       <r>   17.5948   -0.0000 </r>
       <r>   22.3237    0.0000 </r>
       <r>   25.3838    0.0000 </r>
       <r>   31.7955    0.0000 </r>
       <r>   40.6368    0.0000 </r>
       <r>   48.6381    0.0000 </r>
       <r>   54.7149    0.0000 </r>
      </set>
      <set comment="kpoint 51">
       <r>    7.0382    1.0000 </r>
       <r>    7.8175    1.0000 </r>
       <r>   11.4307    1.0000 </r>
       <r>   12.2300    0.9513 </r>
       <r>   12.7431   -0.0112 </r>
       <r>   16.0320   -0.0000 </r>
       <r>   24.5494    0.0000 </r>
       <r>   27.3070    0.0000 </r>
       <r>   28.1779    0.0000 </r>
       <r>   37.6197    0.0000 </r>
       <r>   42.1857    0.0000 </r>
       <r>   57.2206    0.0000 </r>
      </set>
      <set comment="kpoint 52">
       <r>    7.3830    1.0000 </r>
       <r>    8.0469    1.0000 </r>
       <r>   10.6907    1.0000 </r>
       <r>   11.8929    1.0021 </r>
       <r>   12.7396   -0.0118 </r>
       <r>   18.1294    0.0000 </r>
       <r>   23.3685    0.0000 </r>
       <r>   24.6388    0.0000 </r>
       <r>   28.6307    0.0000 </r>
       <r>   38.9411    0.0000 </r>
       <r>   45.4658    0.0000 </r>
       <r>   54.3884    0.0000 </r>
      </set>
      <set comment="kpoint 53">
       <r>    7.7997    1.0000 </r>
       <r>    8.5955    1.0000 </r>
       <r>    9.4119    1.0000 </r>
       <r>   11.5373    1.0000 </r>
       <r>   12.1959    1.0010 </r>
       <r>   15.5639   -0.0000 </r>
       <r>   25.3266    0.0000 </r>
       <r>   26.8171    0.0000 </r>
       <r>   30.2809    0.0000 </r>
       <r>   42.8740    0.0000 </r>
       <r>   45.4061    0.0000 </r>
       <r>   50.6461    0.0000 </r>
      </set>
      <set comment="kpoint 54">
       <r>    8.1201    1.0000 </r>
       <r>    8.6765    1.0000 </r>
       <r>    9.2840    1.0000 </r>
       <r>   11.3283    1.0000 </r>
       <r>   12.5107    0.0310 </r>
       <r>   18.0884    0.0000 </r>
       <r>   21.9009    0.0000 </r>
       <r>   26.7597    0.0000 </r>
       <r>   28.5975    0.0000 </r>
       <r>   43.6508    0.0000 </r>
       <r>   46.1109    0.0000 </r>
       <r>   52.2649    0.0000 </r>
      </set>
      <set comment="kpoint 55">
       <r>    7.6821    1.0000 </r>
       <r>    8.3975    1.0000 </r>
       <r>    9.9174    1.0000 </r>
       <r>   11.6328    1.0000 </r>
[...]
       </set>
       <set comment="band 5">
        <r>  0.0000  0.0039  0.0028  0.0002  0.1756  0.6538  0.0516  0.0110  0.0886 </r>
       </set>
       <set comment="band 6">
        <r>  0.1304  0.0117  0.1532  0.0734  0.0024  0.0015  0.1146  0.3726  0.1112 </r>
       </set>
       <set comment="band 7">
        <r>  0.1591  0.3382  0.0060  0.0398  0.2193  0.1295  0.0160  0.0439  0.0230 </r>
       </set>
       <set comment="band 8">
        <r>  0.1538  0.1795  0.0116  0.1016  0.0821  0.0409  0.0835  0.0697  0.1359 </r>
       </set>
       <set comment="band 9">
        <r>  0.1098  0.0078  0.3048  0.0146  0.0002  0.0050  0.3293  0.0401  0.0083 </r>
       </set>
       <set comment="band 10">
        <r>  0.0101  0.0120  0.0299  0.2782  0.0136  0.0002  0.0325  0.0628  0.1012 </r>
       </set>
       <set comment="band 11">
        <r>  0.0277  0.0522  0.0011  0.0001  0.4555  0.0417  0.0219  0.0586  0.1023 </r>
       </set>
       <set comment="band 12">
        <r>  0.0659  0.0279  0.0571  0.1104  0.0216  0.1031  0.2373  0.0138  0.0424 </r>
       </set>
      </set>
      <set comment="kpoint 46">
       <set comment="band 1">
        <r>  0.3726  0.0000  0.1989  0.0934  0.0000  0.0000  0.0964  0.1575  0.0094 </r>
       </set>
       <set comment="band 2">
        <r>  0.0000  0.0623  0.0000  0.0000  0.7416  0.1789  0.0000  0.0000  0.0000 </r>
       </set>
       <set comment="band 3">
        <r>  0.0073  0.0000  0.0002  0.0133  0.0000  0.0000  0.4262  0.3597  0.1632 </r>
       </set>
       <set comment="band 4">
        <r>  0.0053  0.0000  0.0249  0.0033  0.0000  0.0000  0.3345  0.0116  0.6004 </r>
       </set>
       <set comment="band 5">
        <r>  0.0000  0.0058  0.0000  0.0000  0.2070  0.7732  0.0000  0.0000  0.0000 </r>
       </set>
       <set comment="band 6">
        <r>  0.0853  0.0000  0.0677  0.0322  0.0000  0.0000  0.1192  0.4728  0.2095 </r>
       </set>
       <set comment="band 7">
        <r>  0.0000  0.4779  0.0000  0.0000  0.3264  0.2152  0.0000  0.0000  0.0000 </r>
       </set>
       <set comment="band 8">
        <r>  0.2217  0.0000  0.0381  0.1884  0.0000  0.0000  0.0817  0.1594  0.0971 </r>
       </set>
       <set comment="band 9">
        <r>  0.0825  0.0000  0.2768  0.0003  0.0000  0.0000  0.3996  0.0079  0.0049 </r>
       </set>
       <set comment="band 10">
        <r>  0.0007  0.0000  0.0419  0.3004  0.0000  0.0000  0.0853  0.0063  0.1559 </r>
       </set>
       <set comment="band 11">
        <r>  0.0000  0.1046  0.0000  0.0000  0.4588  0.0501  0.0000  0.0000  0.0000 </r>
       </set>
       <set comment="band 12">
        <r>  0.2120  0.0000  0.1558  0.1228  0.0000  0.0000  0.1882  0.1291  0.2137 </r>
       </set>
      </set>
      <set comment="kpoint 47">
       <set comment="band 1">
        <r>  0.1699  0.1096  0.0000  0.0218  0.0111  0.0000  0.1785  0.0000  0.4339 </r>
       </set>
       <set comment="band 2">
        <r>  0.0000  0.0000  0.0193  0.0000  0.0000  0.0110  0.0000  0.9584  0.0000 </r>
       </set>
       <set comment="band 3">
        <r>  0.0728  0.1650  0.0000  0.0022  0.5265  0.0000  0.1410  0.0000  0.0651 </r>
       </set>
       <set comment="band 4">
        <r>  0.0085  0.0355  0.0000  0.0051  0.0000  0.0000  0.5152  0.0000  0.4231 </r>
       </set>
       <set comment="band 5">
        <r>  0.0000  0.0000  0.0120  0.0000  0.0000  0.9622  0.0000  0.0148  0.0000 </r>
       </set>
       <set comment="band 6">
        <r>  0.1023  0.2156  0.0000  0.0168  0.4533  0.0000  0.1457  0.0000  0.0445 </r>
       </set>
       <set comment="band 7">
        <r>  0.0015  0.0904  0.0000  0.2077  0.0692  0.0000  0.1975  0.0000  0.2873 </r>
       </set>
       <set comment="band 8">
        <r>  0.0000  0.0000  0.5488  0.0000  0.0000  0.0983  0.0000  0.2800  0.0000 </r>
       </set>
       <set comment="band 9">
        <r>  0.2584  0.1478  0.0000  0.2537  0.0335  0.0000  0.0004  0.0000  0.1282 </r>
       </set>
       <set comment="band 10">
        <r>  0.0000  0.0000  0.1011  0.0000  0.0000  0.0232  0.0000  0.8551  0.0000 </r>
       </set>
       <set comment="band 11">
        <r>  0.3347  0.1034  0.0000  0.1750  0.0173  0.0000  0.0145  0.0000  0.0957 </r>
       </set>
       <set comment="band 12">
        <r>  0.0943  0.0005  0.0000  0.0377  0.1090  0.0000  0.0552  0.0000  0.2755 </r>
       </set>
      </set>
      <set comment="kpoint 48">
       <set comment="band 1">
        <r>  0.0720  0.0431  0.0012  0.0363  0.0090  0.0019  0.2558  0.0285  0.4828 </r>
       </set>
       <set comment="band 2">
        <r>  0.0006  0.0000  0.0458  0.0097  0.0039  0.0122  0.0110  0.8876  0.0151 </r>
       </set>
       <set comment="band 3">
        <r>  0.0390  0.1702  0.0003  0.0004  0.6295  0.0382  0.0744  0.0148  0.0089 </r>
       </set>
       <set comment="band 4">
        <r>  0.0000  0.0169  0.0025  0.0065  0.0000  0.1377  0.4785  0.0020  0.3404 </r>
       </set>
       <set comment="band 5">
        <r>  0.0002  0.0004  0.0035  0.0002  0.0861  0.7620  0.0799  0.0103  0.0504 </r>
       </set>
       <set comment="band 6">
        <r>  0.1049  0.3802  0.0067  0.0266  0.2929  0.0316  0.0665  0.0014  0.0601 </r>
       </set>
       <set comment="band 7">
        <r>  0.0765  0.0040  0.3166  0.1538  0.0291  0.0353  0.0574  0.2000  0.0393 </r>
       </set>
       <set comment="band 8">
        <r>  0.1747  0.1728  0.0359  0.0275  0.0223  0.0003  0.1380  0.0417  0.3042 </r>
       </set>
       <set comment="band 9">
        <r>  0.1826  0.0291  0.2242  0.2033  0.0129  0.0173  0.0647  0.0680  0.0201 </r>
       </set>
       <set comment="band 10">
        <r>  0.0526  0.0084  0.0606  0.0457  0.0011  0.0083  0.0000  0.6870  0.0275 </r>
       </set>
       <set comment="band 11">
        <r>  0.2065  0.0344  0.0326  0.2204  0.0027  0.0039  0.0200  0.1385  0.1130 </r>
       </set>
       <set comment="band 12">
        <r>  0.1227  0.0070  0.0022  0.0139  0.2694  0.0049  0.0323  0.0017  0.2308 </r>
       </set>
      </set>
      <set comment="kpoint 49">
       <set comment="band 1">
        <r>  0.0242  0.0097  0.0032  0.0440  0.0039  0.0018  0.3271  0.0752  0.4463 </r>
       </set>
       <set comment="band 2">
        <r>  0.0153  0.0012  0.0816  0.0332  0.0155  0.0109  0.0340  0.7657  0.0212 </r>
       </set>
       <set comment="band 3">
        <r>  0.0071  0.1656  0.0024  0.0006  0.6595  0.0964  0.0114  0.0350  0.0005 </r>
       </set>
       <set comment="band 4">
        <r>  0.0036  0.0038  0.0053  0.0047  0.0011  0.0560  0.5007  0.0003  0.4052 </r>
       </set>
       <set comment="band 5">
        <r>  0.0009  0.0013  0.0002  0.0001  0.1546  0.7762  0.0305  0.0054  0.0231 </r>
       </set>
       <set comment="band 6">
        <r>  0.0149  0.4344  0.0628  0.0650  0.1960  0.0489  0.0569  0.0249  0.0615 </r>
       </set>
       <set comment="band 7">
        <r>  0.1860  0.0681  0.2343  0.0958  0.0596  0.0363  0.0373  0.2098  0.0190 </r>
       </set>
       <set comment="band 8">
        <r>  0.2923  0.1121  0.0006  0.0483  0.0239  0.0040  0.1192  0.0352  0.2712 </r>
       </set>
       <set comment="band 9">
        <r>  0.1388  0.0048  0.2910  0.1386  0.0021  0.0050  0.1757  0.0800  0.0088 </r>
       </set>
       <set comment="band 10">
        <r>  0.0688  0.0040  0.0314  0.1268  0.0002  0.0010  0.0012  0.4669  0.0797 </r>
       </set>
       <set comment="band 11">
        <r>  0.0490  0.0249  0.0286  0.1813  0.1005  0.0098  0.0369  0.2461  0.0179 </r>
       </set>
       <set comment="band 12">
        <r>  0.1534  0.0123  0.0241  0.0352  0.3337  0.0083  0.0001  0.0504  0.1772 </r>
       </set>
      </set>
      <set comment="kpoint 50">
       <set comment="band 1">
        <r>  0.0188  0.0000  0.0909  0.1068  0.0000  0.0000  0.3741  0.1009  0.2411 </r>
       </set>
       <set comment="band 2">
        <r>  0.0562  0.0000  0.0399  0.0005  0.0000  0.0000  0.0782  0.6733  0.1293 </r>
       </set>
       <set comment="band 3">
        <r>  0.0000  0.1387  0.0000  0.0000  0.6924  0.1506  0.0000  0.0000  0.0000 </r>
       </set>
       <set comment="band 4">
        <r>  0.0024  0.0000  0.0145  0.0004  0.0000  0.0000  0.4362  0.0063  0.5193 </r>
       </set>
       <set comment="band 5">
        <r>  0.0000  0.0039  0.0000  0.0000  0.1960  0.7893  0.0000  0.0000  0.0000 </r>
       </set>
       <set comment="band 6">
        <r>  0.1512  0.0000  0.2363  0.1148  0.0000  0.0000  0.0896  0.2890  0.0726 </r>
       </set>
       <set comment="band 7">
        <r>  0.0000  0.5930  0.0000  0.0000  0.2779  0.1256  0.0000  0.0000  0.0000 </r>
       </set>
       <set comment="band 8">
        <r>  0.3656  0.0000  0.0060  0.0974  0.0000  0.0000  0.1094  0.0639  0.2243 </r>
       </set>
       <set comment="band 9">
        <r>  0.1238  0.0000  0.3085  0.0704  0.0000  0.0000  0.2748  0.0706  0.0079 </r>
       </set>
       <set comment="band 10">
        <r>  0.0474  0.0000  0.0228  0.2051  0.0000  0.0000  0.0113  0.2576  0.1232 </r>
       </set>
       <set comment="band 11">
        <r>  0.0000  0.0588  0.0000  0.0000  0.5133  0.0295  0.0000  0.0000  0.0000 </r>
       </set>
       <set comment="band 12">
        <r>  0.0271  0.0000  0.0009  0.3169  0.0000  0.0000  0.1604  0.4075  0.0203 </r>
       </set>
      </set>
      <set comment="kpoint 51">
       <set comment="band 1">
        <r>  0.0647  0.0104  0.0000  0.0189  0.0006  0.0000  0.2453  0.0000  0.5893 </r>
       </set>
       <set comment="band 2">
        <r>  0.0000  0.0000  0.0204  0.0000  0.0000  0.0011  0.0000  0.9703  0.0000 </r>
       </set>
       <set comment="band 3">
        <r>  0.0113  0.1848  0.0000  0.0009  0.7400  0.0000  0.0396  0.0000  0.0001 </r>
       </set>
       <set comment="band 4">
        <r>  0.0001  0.0104  0.0000  0.0044  0.0203  0.0000  0.6514  0.0000  0.3035 </r>
       </set>
       <set comment="band 5">
        <r>  0.0000  0.0000  0.0021  0.0000  0.0000  0.9911  0.0000  0.0016  0.0000 </r>
       </set>
       <set comment="band 6">
        <r>  0.0470  0.6042  0.0000  0.0050  0.2577  0.0000  0.0192  0.0000  0.0268 </r>
       </set>
       <set comment="band 7">
        <r>  0.2278  0.0740  0.0000  0.0512  0.0077  0.0000  0.1764  0.0000  0.4210 </r>
       </set>
       <set comment="band 8">
        <r>  0.0000  0.0000  0.6204  0.0000  0.0000  0.0129  0.0000  0.2475  0.0000 </r>
       </set>
       <set comment="band 9">
        <r>  0.2114  0.0058  0.0000  0.4759  0.0097  0.0000  0.0484  0.0000  0.0024 </r>
       </set>
       <set comment="band 10">
        <r>  0.0000  0.0000  0.0846  0.0000  0.0000  0.0025  0.0000  0.9819  0.0000 </r>
       </set>
       <set comment="band 11">
        <r>  0.3893  0.0117  0.0000  0.1583  0.0017  0.0000  0.0344  0.0000  0.2062 </r>
       </set>
       <set comment="band 12">
        <r>  0.0479  0.0150  0.0000  0.0109  0.2463  0.0000  0.0160  0.0000  0.0598 </r>
       </set>
      </set>
      <set comment="kpoint 52">
       <set comment="band 1">
        <r>  0.0372  0.0000  0.0021  0.0362  0.0000  0.0000  0.2947  0.0115  0.5482 </r>
       </set>
       <set comment="band 2">
        <r>  0.0012  0.0000  0.0461  0.0075  0.0000  0.0000  0.0032  0.9267  0.0038 </r>
       </set>
       <set comment="band 3">
        <r>  0.0000  0.1985  0.0000  0.0000  0.7233  0.0544  0.0000  0.0000  0.0000 </r>
       </set>
       <set comment="band 4">
        <r>  0.0041  0.0000  0.0013  0.0071  0.0000  0.0000  0.6273  0.0001  0.3441 </r>
       </set>
       <set comment="band 5">
        <r>  0.0000  0.0011  0.0000  0.0000  0.0787  0.9149  0.0000  0.0000  0.0000 </r>
       </set>
       <set comment="band 6">
        <r>  0.0000  0.6701  0.0000  0.0000  0.2634  0.0348  0.0000  0.0000  0.0000 </r>
       </set>
       <set comment="band 7">
        <r>  0.0263  0.0000  0.1884  0.1895  0.0000  0.0000  0.1787  0.0831  0.2651 </r>
       </set>
       <set comment="band 8">
        <r>  0.4069  0.0000  0.1832  0.0082  0.0000  0.0000  0.0266  0.1516  0.1356 </r>
       </set>
       <set comment="band 9">
        <r>  0.1521  0.0000  0.2431  0.2388  0.0000  0.0000  0.1036  0.0708  0.0043 </r>
       </set>
       <set comment="band 10">
        <r>  0.0546  0.0000  0.0574  0.0393  0.0000  0.0000  0.0003  0.7491  0.0409 </r>
       </set>
       <set comment="band 11">
        <r>  0.2528  0.0000  0.0317  0.2080  0.0000  0.0000  0.0248  0.1339  0.1884 </r>
       </set>
       <set comment="band 12">
        <r>  0.0000  0.0314  0.0000  0.0000  0.3983  0.0070  0.0000  0.0000  0.0000 </r>
       </set>
      </set>
      <set comment="kpoint 53">
       <set comment="band 1">
        <r>  0.1060  0.1088  0.0000  0.0742  0.0589  0.0000  0.2703  0.0000  0.3098 </r>
       </set>
       <set comment="band 2">
        <r>  0.0000  0.0000  0.0709  0.0000  0.0000  0.0508  0.0000  0.8634  0.0000 </r>
       </set>
       <set comment="band 3">
        <r>  0.0542  0.0852  0.0000  0.0013  0.5933  0.0000  0.2028  0.0000  0.0386 </r>
       </set>
       <set comment="band 4">
        <r>  0.0002  0.0317  0.0000  0.0061  0.0076  0.0000  0.3546  0.0000  0.5817 </r>
       </set>
       <set comment="band 5">
        <r>  0.0000  0.0000  0.0091  0.0000  0.0000  0.9125  0.0000  0.0676  0.0000 </r>
       </set>
       <set comment="band 6">
        <r>  0.1377  0.2374  0.0000  0.0459  0.3680  0.0000  0.1444  0.0000  0.0404 </r>
       </set>
       <set comment="band 7">
        <r>  0.0000  0.0000  0.5601  0.0000  0.0000  0.1023  0.0000  0.3301  0.0000 </r>
       </set>
       <set comment="band 8">
        <r>  0.1962  0.0000  0.0000  0.2548  0.0916  0.0000  0.2476  0.0000  0.0312 </r>
       </set>
       <set comment="band 9">
        <r>  0.2296  0.2816  0.0000  0.0005  0.0180  0.0000  0.0375  0.0000  0.2956 </r>
       </set>
       <set comment="band 10">
        <r>  0.0000  0.0000  0.0907  0.0000  0.0000  0.0283  0.0000  0.6787  0.0000 </r>
       </set>
       <set comment="band 11">
        <r>  0.0232  0.0592  0.0000  0.3424  0.0277  0.0000  0.0317  0.0000  0.0019 </r>
       </set>
       <set comment="band 12">
        <r>  0.2945  0.0118  0.0000  0.0381  0.2632  0.0000  0.0315  0.0000  0.4581 </r>
       </set>
      </set>
      <set comment="kpoint 54">
       <set comment="band 1">
        <r>  0.0151  0.0365  0.0006  0.0823  0.0160  0.0018  0.4925  0.0162  0.2699 </r>
       </set>
       <set comment="band 2">
        <r>  0.0282  0.0227  0.0772  0.0040  0.1943  0.0450  0.0471  0.5601  0.0019 </r>
       </set>
       <set comment="band 3">
        <r>  0.0160  0.0902  0.0321  0.0036  0.5529  0.0001  0.0304  0.2555  0.0001 </r>
       </set>
       <set comment="band 4">
        <r>  0.0053  0.0139  0.0022  0.0012  0.0062  0.0469  0.2772  0.0004  0.6258 </r>
       </set>
       <set comment="band 5">
        <r>  0.0012  0.0000  0.0034  0.0000  0.0262  0.8688  0.0131  0.0510  0.0282 </r>
       </set>
       <set comment="band 6">
        <r>  0.0943  0.3357  0.0259  0.0807  0.2590  0.0058  0.1071  0.0064  0.0459 </r>
       </set>
       <set comment="band 7">
        <r>  0.1534  0.0064  0.3936  0.0341  0.0324  0.0544  0.0359  0.2530  0.0022 </r>
       </set>
       <set comment="band 8">
        <r>  0.0672  0.0197  0.1429  0.1676  0.0526  0.0053  0.3148  0.0701  0.0456 </r>
       </set>
       <set comment="band 9">
        <r>  0.3434  0.2281  0.0349  0.0058  0.0289  0.0071  0.0023  0.0018  0.2097 </r>
       </set>
       <set comment="band 10">
        <r>  0.0026  0.0217  0.0399  0.1782  0.0493  0.0032  0.0046  0.2761  0.0020 </r>
       </set>
       <set comment="band 11">
        <r>  0.0222  0.0194  0.0205  0.0514  0.2270  0.0133  0.0451  0.2969  0.0707 </r>
       </set>
       <set comment="band 12">
        <r>  0.1891  0.0007  0.0130  0.2251  0.2156  0.0001  0.0001  0.0746  0.2629 </r>
       </set>
      </set>
      <set comment="kpoint 55">
       <set comment="band 1">
        <r>  0.0225  0.0089  0.0000  0.0638  0.0017  0.0000  0.3988  0.0000  0.4339 </r>
       </set>
       <set comment="band 2">
        <r>  0.0000  0.0000  0.0748  0.0000  0.0000  0.0050  0.0000  0.9079  0.0000 </r>
       </set>
       <set comment="band 3">
        <r>  0.0128  0.1677  0.0000  0.0000  0.7743  0.0000  0.0230  0.0000  0.0000 </r>
       </set>
       <set comment="band 4">
        <r>  0.0089  0.0070  0.0000  0.0056  0.0095  0.0000  0.4743  0.0000  0.4750 </r>
       </set>
       <set comment="band 5">
        <r>  0.0000  0.0000  0.0019  0.0000  0.0000  0.9855  0.0000  0.0076  0.0000 </r>
       </set>
       <set comment="band 6">
        <r>  0.0593  0.5280  0.0000  0.0221  0.2937  0.0000  0.0359  0.0000  0.0307 </r>
       </set>
       <set comment="band 7">
        <r>  0.0000  0.0000  0.6150  0.0000  0.0000  0.0139  0.0000  0.3332  0.0000 </r>
       </set>
       <set comment="band 8">
        <r>  0.0255  0.0771  0.0000  0.2239  0.0363  0.0000  0.2971  0.0000  0.2542 </r>
       </set>
       <set comment="band 9">
        <r>  0.5620  0.0377  0.0000  0.0984  0.0000  0.0000  0.0507  0.0000  0.0668 </r>
       </set>
       <set comment="band 10">
        <r>  0.0000  0.0000  0.0860  0.0000  0.0000  0.0033  0.0000  0.7626  0.0000 </r>
       </set>
       <set comment="band 11">
        <r>  0.1566  0.0159  0.0000  0.3556  0.0088  0.0000  0.0176  0.0000  0.1414 </r>
       </set>
       <set comment="band 12">
        <r>  0.0872  0.0261  0.0000  0.0025  0.4516  0.0000  0.0074  0.0000  0.1311 </r>
       </set>
      </set>
      <set comment="kpoint 56">
       <set comment="band 1">
        <r>  0.0017  0.0000  0.0039  0.0800  0.0000  0.0000  0.5448  0.0005  0.2982 </r>
       </set>
       <set comment="band 2">
        <r>  0.0090  0.0000  0.1081  0.0029  0.0000  0.0000  0.0004  0.8604  0.0027 </r>
       </set>
       <set comment="band 3">
        <r>  0.0000  0.1447  0.0000  0.0000  0.8198  0.0154  0.0000  0.0000  0.0000 </r>
       </set>
       <set comment="band 4">
        <r>  0.0179  0.0000  0.0028  0.0008  0.0000  0.0000  0.3364  0.0031  0.6156 </r>
       </set>
       <set comment="band 5">
        <r>  0.0000  0.0016  0.0000  0.0000  0.0234  0.9698  0.0000  0.0000  0.0000 </r>
       </set>
       <set comment="band 6">
        <r>  0.0000  0.6395  0.0000  0.0000  0.3221  0.0191  0.0000  0.0000  0.0000 </r>
       </set>
       <set comment="band 7">
        <r>  0.0571  0.0000  0.4354  0.0839  0.0000  0.0000  0.0921  0.2587  0.0270 </r>
       </set>
       <set comment="band 8">
        <r>  0.1909  0.0000  0.0401  0.1686  0.0000  0.0000  0.2209  0.0506  0.2359 </r>
       </set>
       <set comment="band 9">
        <r>  0.4366  0.0000  0.1475  0.0536  0.0000  0.0000  0.1448  0.0388  0.0273 </r>
       </set>
       <set comment="band 10">
        <r>  0.0173  0.0000  0.0566  0.0866  0.0000  0.0000  0.0003  0.5316  0.0401 </r>
       </set>
       <set comment="band 11">
        <r>  0.0000  0.0585  0.0000  0.0000  0.5990  0.0034  0.0000  0.0000  0.0000 </r>
       </set>
       <set comment="band 12">
        <r>  0.0319  0.0000  0.0119  0.3999  0.0000  0.0000  0.0487  0.1621  0.0648 </r>
       </set>
      </set>
     </set>
    </set>
   </array>
  </projected>
 </calculation>
 <structure name="finalpos" >
  <crystal>
   <varray name="basis" >
    <v>       1.65000000       1.65000000       0.00000000 </v>
    <v>       0.00000000       1.65000000       1.65000000 </v>
    <v>       1.65000000       0.00000000       1.65000000 </v>
   </varray>
   <i name="volume">      8.98425000 </i>
   <varray name="rec_basis" >
    <v>       0.30303030       0.30303030      -0.30303030 </v>
    <v>      -0.30303030       0.30303030       0.30303030 </v>
    <v>       0.30303030      -0.30303030       0.30303030 </v>
   </varray>
  </crystal>
  <varray name="positions" >
   <v>       0.00000000       0.00000000       0.00000000 </v>
  </varray>
 </structure>
</modeling>
