clean Ni(100) surface                   
   3.53000000000000     
     0.500000    0.500000    0.000000
    -0.500000    0.500000    0.000000
     0.000000    0.000000    5.000000
   Ni
     5
Direct
  0.000000  0.000000  0.000000
  0.500000  0.500000  0.100000
  0.000000  0.000000  0.200000
  0.500000  0.500000  0.300000
  0.000000  0.000000  0.400000
 
   20   20  144
  1533.5      1434.3      1171.3      829.91      504.14      259.22      116.29      57.455      41.677      34.997    
  33.029      34.997      41.677      57.455      116.29      259.22      504.14      829.91      1171.3      1434.3    
  1434.3      1341.5      1095.3      775.27      469.86      240.95      108.64      55.268      40.822      34.326    
  32.415      34.326      40.822      55.268      108.64      240.95      469.86      775.27      1095.3      1341.5    
  1171.3      1095.3      893.14      629.83      378.92      193.13      89.240      49.906      38.396      32.457    
  30.715      32.457      38.396      49.906      89.240      193.13      378.92      629.83      893.14      1095.3    
  829.91      775.27      629.83      440.53      261.94      133.69      66.753      43.804      34.808      29.771    
  28.297      29.771      34.808      43.804      66.753      133.69      261.94      440.53      629.83      775.27    
  504.14      469.86      378.92      261.94      154.86      82.857      49.559      37.899      30.673      26.758    
  25.613      26.758      30.673      37.899      49.559      82.857      154.86      261.94      378.92      469.86    
  259.22      240.95      193.13      133.69      82.857      52.547      39.730      31.969      26.649      23.865    
  23.047      23.865      26.649      31.969      39.730      52.547      82.857      133.69      193.13      240.95    
  116.29      108.64      89.240      66.753      49.559      39.730      32.480      26.857      23.251      21.391    
  20.837      21.391      23.251      26.857      32.480      39.730      49.559      66.753      89.240      108.64    
  57.455      55.268      49.906      43.804      37.899      31.969      26.857      23.095      20.717      19.468    
  19.086      19.468      20.717      23.095      26.857      31.969      37.899      43.804      49.906      55.268    
  41.677      40.822      38.396      34.808      30.673      26.649      23.251      20.717      19.044      18.115    
  17.819      18.115      19.044      20.717      23.251      26.649      30.673      34.808      38.396      40.822    
  34.997      34.326      32.457      29.771      26.758      23.865      21.391      19.468      18.115      17.313    
  17.047      17.313      18.115      19.468      21.391      23.865      26.758      29.771      32.457      34.326    
  33.029      32.415      30.715      28.297      25.613      23.047      20.837      19.086      17.819      17.047    
  16.787      17.047      17.819      19.086      20.837      23.047      25.613      28.297      30.715      32.415    
  34.997      34.326      32.457      29.771      26.758      23.865      21.391      19.468      18.115      17.313    
  17.047      17.313      18.115      19.468      21.391      23.865      26.758      29.771      32.457      34.326    
  41.677      40.822      38.396      34.808      30.673      26.649      23.251      20.717      19.044      18.115    
  17.819      18.115      19.044      20.717      23.251      26.649      30.673      34.808      38.396      40.822    
  57.455      55.268      49.906      43.804      37.899      31.969      26.857      23.095      20.717      19.468    
  19.086      19.468      20.717      23.095      26.857      31.969      37.899      43.804      49.906      55.268    
  116.29      108.64      89.240      66.753      49.559      39.730      32.480      26.857      23.251      21.391    
  20.837      21.391      23.251      26.857      32.480      39.730      49.559      66.753      89.240      108.64    
  259.22      240.95      193.13      133.69      82.857      52.547      39.730      31.969      26.649      23.865    
  23.047      23.865      26.649      31.969      39.730      52.547      82.857      133.69      193.13      240.95    
  504.14      469.86      378.92      261.94      154.86      82.857      49.559      37.899      30.673      26.758    
  25.613      26.758      30.673      37.899      49.559      82.857      154.86      261.94      378.92      469.86    
  829.91      775.27      629.83      440.53      261.94      133.69      66.753      43.804      34.808      29.771    
  28.297      29.771      34.808      43.804      66.753      133.69      261.94      440.53      629.83      775.27    
  1171.3      1095.3      893.14      629.83      378.92      193.13      89.240      49.906      38.396      32.457    
  30.715      32.457      38.396      49.906      89.240      193.13      378.92      629.83      893.14      1095.3    
  1434.3      1341.5      1095.3      775.27      469.86      240.95      108.64      55.268      40.822      34.326    
  32.415      34.326      40.822      55.268      108.64      240.95      469.86      775.27      1095.3      1341.5    
  1437.3      1343.6      1095.6      774.20      468.59      240.33      108.69      55.626      41.298      34.880    
  32.994      34.880      41.298      55.626      108.69      240.33      468.59      774.20      1095.6      1343.6    
  1343.6      1256.1      1023.9      722.84      436.54      223.42      101.75      53.708      40.512      34.273    
  32.443      34.273      40.512      53.708      101.75      223.42      436.54      722.84      1023.9      1256.1    
  1095.6      1023.9      833.63      586.31      351.68      179.29      84.226      49.007      38.276      32.579    
  30.912      32.579      38.276      49.007      84.226      179.29      351.68      586.31      833.63      1023.9    
  774.20      722.84      586.31      409.17      242.97      124.77      64.084      43.587      34.961      30.135    
  28.726      30.135      34.961      43.587      64.084      124.77      242.97      409.17      586.31      722.84    
  468.59      436.54      351.68      242.97      144.20      78.619      48.842      38.068      31.124      27.381    
  26.287      27.381      31.124      38.068      48.842      78.619      144.20      242.97      351.68      436.54    
  240.33      223.42      179.29      124.77      78.619      51.525      39.937      32.466      27.378      24.724    
  23.943      24.724      27.378      32.466      39.937      51.525      78.619      124.77      179.29      223.42    
  108.69      101.75      84.226      64.084      48.842      39.937      32.998      27.635      24.206      22.441    
  21.915      22.441      24.206      27.635      32.998      39.937      48.842      64.084      84.226      101.75    
  55.626      53.708      49.007      43.587      38.068      32.466      27.635      24.082      21.838      20.660    
  20.301      20.660      21.838      24.082      27.635      32.466      38.068      43.587      49.007      53.708    
  41.298      40.512      38.276      34.961      31.124      27.378      24.206      21.838      20.274      19.406    
  19.130      19.406      20.274      21.838      24.206      27.378      31.124      34.961      38.276      40.512    
  34.880      34.273      32.579      30.135      27.381      24.724      22.441      20.660      19.406      18.662    
  18.415      18.662      19.406      20.660      22.441      24.724      27.381      30.135      32.579      34.273    
  32.994      32.443      30.912      28.726      26.287      23.943      21.915      20.301      19.130      18.415    
  18.175      18.415      19.130      20.301      21.915      23.943      26.287      28.726      30.912      32.443    
  34.880      34.273      32.579      30.135      27.381      24.724      22.441      20.660      19.406      18.662    
  18.415      18.662      19.406      20.660      22.441      24.724      27.381      30.135      32.579      34.273    
  41.298      40.512      38.276      34.961      31.124      27.378      24.206      21.838      20.274      19.406    
  19.130      19.406      20.274      21.838      24.206      27.378      31.124      34.961      38.276      40.512    
  55.626      53.708      49.007      43.587      38.068      32.466      27.635      24.082      21.838      20.660    
  20.301      20.660      21.838      24.082      27.635      32.466      38.068      43.587      49.007      53.708    
  108.69      101.75      84.226      64.084      48.842      39.937      32.998      27.635      24.206      22.441    
  21.915      22.441      24.206      27.635      32.998      39.937      48.842      64.084      84.226      101.75    
  240.33      223.42      179.29      124.77      78.619      51.525      39.937      32.466      27.378      24.724    
  23.943      24.724      27.378      32.466      39.937      51.525      78.619      124.77      179.29      223.42    
  468.59      436.54      351.68      242.97      144.20      78.619      48.842      38.068      31.124      27.381    
  26.287      27.381      31.124      38.068      48.842      78.619      144.20      242.97      351.68      436.54    
  774.20      722.84      586.31      409.17      242.97      124.77      64.084      43.587      34.961      30.135    
  28.726      30.135      34.961      43.587      64.084      124.77      242.97      409.17      586.31      722.84    
  1095.6      1023.9      833.63      586.31      351.68      179.29      84.226      49.007      38.276      32.579    
  30.912      32.579      38.276      49.007      84.226      179.29      351.68      586.31      833.63      1023.9    
  1343.6      1256.1      1023.9      722.84      436.54      223.42      101.75      53.708      40.512      34.273    
  32.443      34.273      40.512      53.708      101.75      223.42      436.54      722.84      1023.9      1256.1    
  1188.1      1108.9      899.81      630.50      377.44      192.42      89.743      50.903      39.609      33.808    
  32.112      33.808      39.609      50.903      89.743      192.42      377.44      630.50      899.81      1108.9    
  1108.9      1035.0      839.51      587.64      351.13      178.97      84.533      49.554      38.938      33.310    
  31.666      33.310      38.938      49.554      84.533      178.97      351.13      587.64      839.51      1035.0    
  899.81      839.51      679.95      474.24      281.92      144.18      71.543      46.201      37.029      31.915    
  30.422      31.915      37.029      46.201      71.543      144.18      281.92      474.24      679.95      839.51    
  630.50      587.64      474.24      328.62      194.48      102.02      56.967      42.000      34.192      29.886    
  28.630      29.886      34.192      42.000      56.967      102.02      194.48      328.62      474.24      587.64    
  377.44      351.13      281.92      194.48      116.94      67.493      46.133      37.131      30.895      27.572    
  26.599      27.572      30.895      37.131      46.133      67.493      116.94      194.48      281.92      351.13    
  192.42      178.97      144.18      102.02      67.493      48.059      38.948      32.182      27.654      25.301    
  24.607      25.301      27.654      32.182      38.948      48.059      67.493      102.02      144.18      178.97    
  89.743      84.533      71.543      56.967      46.133      38.948      32.698      27.921      24.878      23.307    
  22.837      23.307      24.878      27.921      32.698      38.948      46.133      56.967      71.543      84.533    
  50.903      49.554      46.201      42.000      37.131      32.182      27.921      24.777      22.774      21.712    
  21.384      21.712      22.774      24.777      27.921      32.182      37.131      42.000      46.201      49.554    
  39.609      38.938      37.029      34.192      30.895      27.654      24.878      22.774      21.358      20.557    
  20.299      20.557      21.358      22.774      24.878      27.654      30.895      34.192      37.029      38.938    
  33.808      33.310      31.915      29.886      27.572      25.301      23.307      21.712      20.557      19.857    
  19.621      19.857      20.557      21.712      23.307      25.301      27.572      29.886      31.915      33.310    
  32.112      31.666      30.422      28.630      26.599      24.607      22.837      21.384      20.299      19.621    
  19.390      19.621      20.299      21.384      22.837      24.607      26.599      28.630      30.422      31.666    
  33.808      33.310      31.915      29.886      27.572      25.301      23.307      21.712      20.557      19.857    
  19.621      19.857      20.557      21.712      23.307      25.301      27.572      29.886      31.915      33.310    
  39.609      38.938      37.029      34.192      30.895      27.654      24.878      22.774      21.358      20.557    
  20.299      20.557      21.358      22.774      24.878      27.654      30.895      34.192      37.029      38.938    
  50.903      49.554      46.201      42.000      37.131      32.182      27.921      24.777      22.774      21.712    
  21.384      21.712      22.774      24.777      27.921      32.182      37.131      42.000      46.201      49.554    
  89.743      84.533      71.543      56.967      46.133      38.948      32.698      27.921      24.878      23.307    
  22.837      23.307      24.878      27.921      32.698      38.948      46.133      56.967      71.543      84.533    
  192.42      178.97      144.18      102.02      67.493      48.059      38.948      32.182      27.654      25.301    
  24.607      25.301      27.654      32.182      38.948      48.059      67.493      102.02      144.18      178.97    
  377.44      351.13      281.92      194.48      116.94      67.493      46.133      37.131      30.895      27.572    
  26.599      27.572      30.895      37.131      46.133      67.493      116.94      194.48      281.92      351.13    
  630.50      587.64      474.24      328.62      194.48      102.02      56.967      42.000      34.192      29.886    
  28.630      29.886      34.192      42.000      56.967      102.02      194.48      328.62      474.24      587.64    
  899.81      839.51      679.95      474.24      281.92      144.18      71.543      46.201      37.029      31.915    
  30.422      31.915      37.029      46.201      71.543      144.18      281.92      474.24      679.95      839.51    
  1108.9      1035.0      839.51      587.64      351.13      178.97      84.533      49.554      38.938      33.310    
  31.666      33.310      38.938      49.554      84.533      178.97      351.13      587.64      839.51      1035.0    
  863.05      803.26      646.18      446.48      263.20      134.70      68.494      45.818      37.100      32.215    
  30.793      32.215      37.100      45.818      68.494      134.70      263.20      446.48      646.18      803.26    
  803.26      747.53      601.11      414.98      244.50      125.71      65.378      45.011      36.578      31.851    
  30.474      31.851      36.578      45.011      65.378      125.71      244.50      414.98      601.11      747.53    
  646.18      601.11      482.68      332.41      195.89      102.85      57.767      42.820      35.092      30.823    
  29.579      30.823      35.092      42.820      57.767      102.85      195.89      332.41      482.68      601.11    
  446.48      414.98      332.41      228.49      136.11      76.156      49.482      39.503      32.878      29.313    
  28.271      29.313      32.878      39.503      49.482      76.156      136.11      228.49      332.41      414.98    
  263.20      244.50      195.89      136.11      85.514      55.549      43.001      35.500      30.296      27.563    
  26.761      27.563      30.296      35.500      43.001      55.549      85.514      136.11      195.89      244.50    
  134.70      125.71      102.85      76.156      55.549      44.318      37.179      31.473      27.743      25.815    
  25.244      25.815      27.743      31.473      37.179      44.318      55.549      76.156      102.85      125.71    
  68.494      65.378      57.767      49.482      43.001      37.179      31.952      28.023      25.537      24.249    
  23.860      24.249      25.537      28.023      31.952      37.179      43.001      49.482      57.767      65.378    
  45.818      45.011      42.820      39.503      35.500      31.473      28.023      25.475      23.842      22.966    
  22.694      22.966      23.842      25.475      28.023      31.473      35.500      39.503      42.820      45.011    
  37.100      36.578      35.092      32.878      30.296      27.743      25.537      23.842      22.683      22.018    
  21.802      22.018      22.683      23.842      25.537      27.743      30.296      32.878      35.092      36.578    
  32.215      31.851      30.823      29.313      27.563      25.815      24.249      22.966      22.018      21.433    
  21.235      21.433      22.018      22.966      24.249      25.815      27.563      29.313      30.823      31.851    
  30.793      30.474      29.579      28.271      26.761      25.244      23.860      22.694      21.802      21.235    
  21.039      21.235      21.802      22.694      23.860      25.244      26.761      28.271      29.579      30.474    
  32.215      31.851      30.823      29.313      27.563      25.815      24.249      22.966      22.018      21.433    
  21.235      21.433      22.018      22.966      24.249      25.815      27.563      29.313      30.823      31.851    
  37.100      36.578      35.092      32.878      30.296      27.743      25.537      23.842      22.683      22.018    
  21.802      22.018      22.683      23.842      25.537      27.743      30.296      32.878      35.092      36.578    
  45.818      45.011      42.820      39.503      35.500      31.473      28.023      25.475      23.842      22.966    
  22.694      22.966      23.842      25.475      28.023      31.473      35.500      39.503      42.820      45.011    
  68.494      65.378      57.767      49.482      43.001      37.179      31.952      28.023      25.537      24.249    
  23.860      24.249      25.537      28.023      31.952      37.179      43.001      49.482      57.767      65.378    
  134.70      125.71      102.85      76.156      55.549      44.318      37.179      31.473      27.743      25.815    
  25.244      25.815      27.743      31.473      37.179      44.318      55.549      76.156      102.85      125.71    
  263.20      244.50      195.89      136.11      85.514      55.549      43.001      35.500      30.296      27.563    
  26.761      27.563      30.296      35.500      43.001      55.549      85.514      136.11      195.89      244.50    
  446.48      414.98      332.41      228.49      136.11      76.156      49.482      39.503      32.878      29.313    
  28.271      29.313      32.878      39.503      49.482      76.156      136.11      228.49      332.41      414.98    
  646.18      601.11      482.68      332.41      195.89      102.85      57.767      42.820      35.092      30.823    
  29.579      30.823      35.092      42.820      57.767      102.85      195.89      332.41      482.68      601.11    
  803.26      747.53      601.11      414.98      244.50      125.71      65.378      45.011      36.578      31.851    
  30.474      31.851      36.578      45.011      65.378      125.71      244.50      414.98      601.11      747.53    
  544.64      504.88      401.49      273.03      159.98      86.345      52.791      41.302      34.325      30.538    
  29.438      30.538      34.325      41.302      52.791      86.345      159.98      273.03      401.49      504.88    
  504.88      467.99      372.11      253.14      148.86      81.565      51.396      40.735      33.966      30.310    
  29.246      30.310      33.966      40.735      51.396      81.565      148.86      253.14      372.11      467.99    
  401.49      372.11      295.88      201.83      120.57      69.763      48.013      39.098      32.946      29.664    
  28.707      29.664      32.946      39.098      48.013      69.763      120.57      201.83      295.88      372.11    
  273.03      253.14      201.83      139.47      87.353      56.761      44.060      36.610      31.433      28.715    
  27.919      28.715      31.433      36.610      44.060      56.761      87.353      139.47      201.83      253.14    
  159.98      148.86      120.57      87.353      61.360      47.290      39.692      33.668      29.684      27.625    
  27.018      27.625      29.684      33.668      39.692      47.290      61.360      87.353      120.57      148.86    
  86.345      81.565      69.763      56.761      47.290      40.874      35.158      30.772      27.987      26.562    
  26.139      26.562      27.987      30.772      35.158      40.874      47.290      56.761      69.763      81.565    
  52.791      51.396      48.013      44.060      39.692      35.158      31.225      28.348      26.563      25.650    
  25.377      25.650      26.563      28.348      31.225      35.158      39.692      44.060      48.013      51.396    
  41.302      40.735      39.098      36.610      33.668      30.772      28.348      26.603      25.516      24.952    
  24.780      24.952      25.516      26.603      28.348      30.772      33.668      36.610      39.098      40.735    
  34.325      33.966      32.946      31.433      29.684      27.987      26.563      25.516      24.840      24.471    
  24.355      24.471      24.840      25.516      26.563      27.987      29.684      31.433      32.946      33.966    
  30.538      30.310      29.664      28.715      27.625      26.562      25.650      24.952      24.471      24.192    
  24.101      24.192      24.471      24.952      25.650      26.562      27.625      28.715      29.664      30.310    
  29.438      29.246      28.707      27.919      27.018      26.139      25.377      24.780      24.355      24.101    
  24.016      24.101      24.355      24.780      25.377      26.139      27.018      27.919      28.707      29.246    
  30.538      30.310      29.664      28.715      27.625      26.562      25.650      24.952      24.471      24.192    
  24.101      24.192      24.471      24.952      25.650      26.562      27.625      28.715      29.664      30.310    
  34.325      33.966      32.946      31.433      29.684      27.987      26.563      25.516      24.840      24.471    
  24.355      24.471      24.840      25.516      26.563      27.987      29.684      31.433      32.946      33.966    
  41.302      40.735      39.098      36.610      33.668      30.772      28.348      26.603      25.516      24.952    
  24.780      24.952      25.516      26.603      28.348      30.772      33.668      36.610      39.098      40.735    
  52.791      51.396      48.013      44.060      39.692      35.158      31.225      28.348      26.563      25.650    
  25.377      25.650      26.563      28.348      31.225      35.158      39.692      44.060      48.013      51.396    
  86.345      81.565      69.763      56.761      47.290      40.874      35.158      30.772      27.987      26.562    
  26.139      26.562      27.987      30.772      35.158      40.874      47.290      56.761      69.763      81.565    
  159.98      148.86      120.57      87.353      61.360      47.290      39.692      33.668      29.684      27.625    
  27.018      27.625      29.684      33.668      39.692      47.290      61.360      87.353      120.57      148.86    
  273.03      253.14      201.83      139.47      87.353      56.761      44.060      36.610      31.433      28.715    
  27.919      28.715      31.433      36.610      44.060      56.761      87.353      139.47      201.83      253.14    
  401.49      372.11      295.88      201.83      120.57      69.763      48.013      39.098      32.946      29.664    
  28.707      29.664      32.946      39.098      48.013      69.763      120.57      201.83      295.88      372.11    
  504.88      467.99      372.11      253.14      148.86      81.565      51.396      40.735      33.966      30.310    
  29.246      30.310      33.966      40.735      51.396      81.565      148.86      253.14      372.11      467.99    
  292.80      270.45      213.37      145.23      89.467      57.338      44.267      36.877      31.766      29.100    
  28.325      29.100      31.766      36.877      44.267      57.338      89.467      145.23      213.37      270.45    
  270.45      249.89      197.46      135.07      84.379      55.533      43.696      36.505      31.568      28.999    
  28.251      28.999      31.568      36.505      43.696      55.533      84.379      135.07      197.46      249.89    
  213.37      197.46      157.06      109.56      71.889      51.221      42.045      35.448      31.017      28.725    
  28.055      28.725      31.017      35.448      42.045      51.221      71.889      109.56      157.06      197.46    
  145.23      135.07      109.56      80.346      58.260      46.536      39.496      33.892      30.238      28.365    
  27.815      28.365      30.238      33.892      39.496      46.536      58.260      80.346      109.56      135.07    
  89.467      84.379      71.889      58.260      48.483      42.083      36.449      32.140      29.421      28.044    
  27.639      28.044      29.421      32.140      36.449      42.083      48.483      58.260      71.889      84.379    
  57.338      55.533      51.221      46.536      42.083      37.475      33.456      30.535      28.760      27.882    
  27.626      27.882      28.760      30.535      33.456      37.475      42.083      46.536      51.221      55.533    
  44.267      43.696      42.045      39.496      36.449      33.456      31.007      29.334      28.381      27.941    
  27.818      27.941      28.381      29.334      31.007      33.456      36.449      39.496      42.045      43.696    
  36.877      36.505      35.448      33.892      32.140      30.535      29.334      28.616      28.291      28.191    
  28.175      28.191      28.291      28.616      29.334      30.535      32.140      33.892      35.448      36.505    
  31.766      31.568      31.017      30.238      29.421      28.760      28.381      28.291      28.386      28.523    
  28.583      28.523      28.386      28.291      28.381      28.760      29.421      30.238      31.017      31.568    
  29.100      28.999      28.725      28.365      28.044      27.882      27.941      28.191      28.523      28.798    
  28.903      28.798      28.523      28.191      27.941      27.882      28.044      28.365      28.725      28.999    
  28.325      28.251      28.055      27.815      27.639      27.626      27.818      28.175      28.583      28.903    
  29.024      28.903      28.583      28.175      27.818      27.626      27.639      27.815      28.055      28.251    
  29.100      28.999      28.725      28.365      28.044      27.882      27.941      28.191      28.523      28.798    
  28.903      28.798      28.523      28.191      27.941      27.882      28.044      28.365      28.725      28.999    
  31.766      31.568      31.017      30.238      29.421      28.760      28.381      28.291      28.386      28.523    
  28.583      28.523      28.386      28.291      28.381      28.760      29.421      30.238      31.017      31.568    
  36.877      36.505      35.448      33.892      32.140      30.535      29.334      28.616      28.291      28.191    
  28.175      28.191      28.291      28.616      29.334      30.535      32.140      33.892      35.448      36.505    
  44.267      43.696      42.045      39.496      36.449      33.456      31.007      29.334      28.381      27.941    
  27.818      27.941      28.381      29.334      31.007      33.456      36.449      39.496      42.045      43.696    
  57.338      55.533      51.221      46.536      42.083      37.475      33.456      30.535      28.760      27.882    
  27.626      27.882      28.760      30.535      33.456      37.475      42.083      46.536      51.221      55.533    
  89.467      84.379      71.889      58.260      48.483      42.083      36.449      32.140      29.421      28.044    
  27.639      28.044      29.421      32.140      36.449      42.083      48.483      58.260      71.889      84.379    
  145.23      135.07      109.56      80.346      58.260      46.536      39.496      33.892      30.238      28.365    
  27.815      28.365      30.238      33.892      39.496      46.536      58.260      80.346      109.56      135.07    
  213.37      197.46      157.06      109.56      71.889      51.221      42.045      35.448      31.017      28.725    
  28.055      28.725      31.017      35.448      42.045      51.221      71.889      109.56      157.06      197.46    
  270.45      249.89      197.46      135.07      84.379      55.533      43.696      36.505      31.568      28.999    
  28.251      28.999      31.568      36.505      43.696      55.533      84.379      135.07      197.46      249.89    
  134.72      125.02      101.04      74.369      55.003      44.892      38.247      33.062      29.748      28.072    
  27.585      28.072      29.748      33.062      38.247      44.892      55.003      74.369      101.04      125.02    
  125.02      116.25      94.612      70.696      53.480      44.343      37.895      32.890      29.704      28.095    
  27.626      28.095      29.704      32.890      37.895      44.343      53.480      70.696      94.612      116.25    