clean Ni(100) surface                   
   3.53000000000000     
     0.500000    0.500000    0.000000
    -0.500000    0.500000    0.000000
     0.000000    0.000000    5.000000
   Ni
     5
Direct
  0.000000  0.000000  0.000000
  0.500000  0.500000  0.100000
  0.000000  0.000000  0.200000
  0.500000  0.500000  0.300210
  0.000000 -0.000000  0.395507
 
   20   20  144
 0.15334254582E+04 0.14342269878E+04 0.11712785394E+04 0.82991596440E+03 0.50415366602E+03
 0.25923315267E+03 0.11629190000E+03 0.57453960852E+02 0.41675151448E+02 0.34995367149E+02
 0.33026776816E+02 0.34995367149E+02 0.41675151448E+02 0.57453960852E+02 0.11629190000E+03
 0.25923315267E+03 0.50415366602E+03 0.82991596440E+03 0.11712785394E+04 0.14342269878E+04
 0.14342269878E+04 0.13414493102E+04 0.10952919840E+04 0.77532801764E+03 0.46991326843E+03
 0.24097887827E+03 0.10864767811E+03 0.55268559539E+02 0.40820695405E+02 0.34324612977E+02
 0.32413079938E+02 0.34324612977E+02 0.40820695405E+02 0.55268559539E+02 0.10864767811E+03
 0.24097887827E+03 0.46991326843E+03 0.77532801764E+03 0.10952919840E+04 0.13414493102E+04
 0.11712785394E+04 0.10952919840E+04 0.89324631303E+03 0.62998346310E+03 0.37905061550E+03
 0.19320492021E+03 0.89264619529E+02 0.49911835122E+02 0.38396901030E+02 0.32456130133E+02
 0.30714011948E+02 0.32456130133E+02 0.38396901030E+02 0.49911835122E+02 0.89264619529E+02
 0.19320492021E+03 0.37905061550E+03 0.62998346310E+03 0.89324631303E+03 0.10952919840E+04
 0.82991596440E+03 0.77532801764E+03 0.62998346310E+03 0.44073242737E+03 0.26210318910E+03
 0.13377595748E+03 0.66780302932E+02 0.43812320312E+02 0.34811583590E+02 0.29771053244E+02
 0.28297062944E+02 0.29771053244E+02 0.34811583590E+02 0.43812320312E+02 0.66780302932E+02
 0.13377595748E+03 0.26210318910E+03 0.44073242737E+03 0.62998346310E+03 0.77532801764E+03
 0.50415366602E+03 0.46991326843E+03 0.37905061550E+03 0.26210318910E+03 0.15498399954E+03
 0.82916042457E+02 0.49579923839E+02 0.37909044052E+02 0.30676465183E+02 0.26758734366E+02
 0.25612706136E+02 0.26758734366E+02 0.30676465183E+02 0.37909044052E+02 0.49579923839E+02
 0.82916042457E+02 0.15498399954E+03 0.26210318910E+03 0.37905061550E+03 0.46991326843E+03
 0.25923315267E+03 0.24097887827E+03 0.19320492021E+03 0.13377595748E+03 0.82916042457E+02
 0.52576487438E+02 0.39745989362E+02 0.31976934994E+02 0.26652449607E+02 0.23865746788E+02
 0.23046168921E+02 0.23865746788E+02 0.26652449607E+02 0.31976934994E+02 0.39745989362E+02
 0.52576487438E+02 0.82916042457E+02 0.13377595748E+03 0.19320492021E+03 0.24097887827E+03
 0.11629190000E+03 0.10864767811E+03 0.89264619529E+02 0.66780302932E+02 0.49579923839E+02
 0.39745989362E+02 0.32490314976E+02 0.26861836458E+02 0.23251957218E+02 0.21390852640E+02
 0.20836241834E+02 0.21390852640E+02 0.23251957218E+02 0.26861836458E+02 0.32490314976E+02
 0.39745989362E+02 0.49579923839E+02 0.66780302932E+02 0.89264619529E+02 0.10864767811E+03
 0.57453960852E+02 0.55268559539E+02 0.49911835122E+02 0.43812320312E+02 0.37909044052E+02
 0.31976934994E+02 0.26861836458E+02 0.23096855721E+02 0.20716432373E+02 0.19466341349E+02
 0.19083895911E+02 0.19466341349E+02 0.20716432373E+02 0.23096855721E+02 0.26861836458E+02
 0.31976934994E+02 0.37909044052E+02 0.43812320312E+02 0.49911835122E+02 0.55268559539E+02
 0.41675151448E+02 0.40820695405E+02 0.38396901030E+02 0.34811583590E+02 0.30676465183E+02
 0.26652449607E+02 0.23251957218E+02 0.20716432373E+02 0.19042698650E+02 0.18112318138E+02
 0.17815762619E+02 0.18112318138E+02 0.19042698650E+02 0.20716432373E+02 0.23251957218E+02
 0.26652449607E+02 0.30676465183E+02 0.34811583590E+02 0.38396901030E+02 0.40820695405E+02
 0.34995367149E+02 0.34324612977E+02 0.32456130133E+02 0.29771053244E+02 0.26758734366E+02
 0.23865746788E+02 0.21390852640E+02 0.19466341349E+02 0.18112318138E+02 0.17309717800E+02
 0.17043506612E+02 0.17309717800E+02 0.18112318138E+02 0.19466341349E+02 0.21390852640E+02
 0.23865746788E+02 0.26758734366E+02 0.29771053244E+02 0.32456130133E+02 0.34324612977E+02
 0.33026776816E+02 0.32413079938E+02 0.30714011948E+02 0.28297062944E+02 0.25612706136E+02
 0.23046168921E+02 0.20836241834E+02 0.19083895911E+02 0.17815762619E+02 0.17043506612E+02
 0.16783206763E+02 0.17043506612E+02 0.17815762619E+02 0.19083895911E+02 0.20836241834E+02
 0.23046168921E+02 0.25612706136E+02 0.28297062944E+02 0.30714011948E+02 0.32413079938E+02
 0.34995367149E+02 0.34324612977E+02 0.32456130133E+02 0.29771053244E+02 0.26758734366E+02
 0.23865746788E+02 0.21390852640E+02 0.19466341349E+02 0.18112318138E+02 0.17309717800E+02
 0.17043506612E+02 0.17309717800E+02 0.18112318138E+02 0.19466341349E+02 0.21390852640E+02
 0.23865746788E+02 0.26758734366E+02 0.29771053244E+02 0.32456130133E+02 0.34324612977E+02
 0.41675151448E+02 0.40820695405E+02 0.38396901030E+02 0.34811583590E+02 0.30676465183E+02
 0.26652449607E+02 0.23251957218E+02 0.20716432373E+02 0.19042698650E+02 0.18112318138E+02
 0.17815762619E+02 0.18112318138E+02 0.19042698650E+02 0.20716432373E+02 0.23251957218E+02
 0.26652449607E+02 0.30676465183E+02 0.34811583590E+02 0.38396901030E+02 0.40820695405E+02
 0.57453960852E+02 0.55268559539E+02 0.49911835122E+02 0.43812320312E+02 0.37909044052E+02
 0.31976934994E+02 0.26861836458E+02 0.23096855721E+02 0.20716432373E+02 0.19466341349E+02
 0.19083895911E+02 0.19466341349E+02 0.20716432373E+02 0.23096855721E+02 0.26861836458E+02
 0.31976934994E+02 0.37909044052E+02 0.43812320312E+02 0.49911835122E+02 0.55268559539E+02
 0.11629190000E+03 0.10864767811E+03 0.89264619529E+02 0.66780302932E+02 0.49579923839E+02
 0.39745989362E+02 0.32490314976E+02 0.26861836458E+02 0.23251957218E+02 0.21390852640E+02
 0.20836241834E+02 0.21390852640E+02 0.23251957218E+02 0.26861836458E+02 0.32490314976E+02
 0.39745989362E+02 0.49579923839E+02 0.66780302932E+02 0.89264619529E+02 0.10864767811E+03
 0.25923315267E+03 0.24097887827E+03 0.19320492021E+03 0.13377595748E+03 0.82916042457E+02
 0.52576487438E+02 0.39745989362E+02 0.31976934994E+02 0.26652449607E+02 0.23865746788E+02
 0.23046168921E+02 0.23865746788E+02 0.26652449607E+02 0.31976934994E+02 0.39745989362E+02
 0.52576487438E+02 0.82916042457E+02 0.13377595748E+03 0.19320492021E+03 0.24097887827E+03
 0.50415366602E+03 0.46991326843E+03 0.37905061550E+03 0.26210318910E+03 0.15498399954E+03
 0.82916042457E+02 0.49579923839E+02 0.37909044052E+02 0.30676465183E+02 0.26758734366E+02
 0.25612706136E+02 0.26758734366E+02 0.30676465183E+02 0.37909044052E+02 0.49579923839E+02
 0.82916042457E+02 0.15498399954E+03 0.26210318910E+03 0.37905061550E+03 0.46991326843E+03
 0.82991596440E+03 0.77532801764E+03 0.62998346310E+03 0.44073242737E+03 0.26210318910E+03
 0.13377595748E+03 0.66780302932E+02 0.43812320312E+02 0.34811583590E+02 0.29771053244E+02
 0.28297062944E+02 0.29771053244E+02 0.34811583590E+02 0.43812320312E+02 0.66780302932E+02
 0.13377595748E+03 0.26210318910E+03 0.44073242737E+03 0.62998346310E+03 0.77532801764E+03
 0.11712785394E+04 0.10952919840E+04 0.89324631303E+03 0.62998346310E+03 0.37905061550E+03
 0.19320492021E+03 0.89264619529E+02 0.49911835122E+02 0.38396901030E+02 0.32456130133E+02
 0.30714011948E+02 0.32456130133E+02 0.38396901030E+02 0.49911835122E+02 0.89264619529E+02
 0.19320492021E+03 0.37905061550E+03 0.62998346310E+03 0.89324631303E+03 0.10952919840E+04
 0.14342269878E+04 0.13414493102E+04 0.10952919840E+04 0.77532801764E+03 0.46991326843E+03
 0.24097887827E+03 0.10864767811E+03 0.55268559539E+02 0.40820695405E+02 0.34324612977E+02
 0.32413079938E+02 0.34324612977E+02 0.40820695405E+02 0.55268559539E+02 0.10864767811E+03
 0.24097887827E+03 0.46991326843E+03 0.77532801764E+03 0.10952919840E+04 0.13414493102E+04
 0.14372312337E+04 0.13435858651E+04 0.10955565950E+04 0.77416844908E+03 0.46857250105E+03
 0.24031903999E+03 0.10868361891E+03 0.55621213133E+02 0.41294216323E+02 0.34876067504E+02
 0.32990939097E+02 0.34876067504E+02 0.41294216323E+02 0.55621213133E+02 0.10868361891E+03
 0.24031903999E+03 0.46857250105E+03 0.77416844908E+03 0.10955565950E+04 0.13435858651E+04
 0.13435858651E+04 0.12560306239E+04 0.10239320799E+04 0.72285178645E+03 0.43655774126E+03
 0.22342756174E+03 0.10175029084E+03 0.53704954466E+02 0.40508546735E+02 0.34269678618E+02
 0.32439540816E+02 0.34269678618E+02 0.40508546735E+02 0.53704954466E+02 0.10175029084E+03
 0.22342756174E+03 0.43655774126E+03 0.72285178645E+03 0.10239320799E+04 0.12560306239E+04
 0.10955565950E+04 0.10239320799E+04 0.83369087083E+03 0.58641345171E+03 0.35176737034E+03
 0.17934218097E+03 0.84241689076E+02 0.49009155670E+02 0.38275657591E+02 0.32576841597E+02
 0.30909770621E+02 0.32576841597E+02 0.38275657591E+02 0.49009155670E+02 0.84241689076E+02
 0.17934218097E+03 0.35176737034E+03 0.58641345171E+03 0.83369087083E+03 0.10239320799E+04
 0.77416844908E+03 0.72285178645E+03 0.58641345171E+03 0.40931905733E+03 0.24309821326E+03
 0.12483064407E+03 0.64103829981E+02 0.43592417106E+02 0.34962110239E+02 0.30134660608E+02
 0.28725248502E+02 0.30134660608E+02 0.34962110239E+02 0.43592417106E+02 0.64103829981E+02
 0.12483064407E+03 0.24309821326E+03 0.40931905733E+03 0.58641345171E+03 0.72285178645E+03
 0.46857250105E+03 0.43655774126E+03 0.35176737034E+03 0.24309821326E+03 0.14430075617E+03
 0.78665269227E+02 0.48859225339E+02 0.38075409131E+02 0.31126245793E+02 0.27381338553E+02
 0.26286772964E+02 0.27381338553E+02 0.31126245793E+02 0.38075409131E+02 0.48859225339E+02
 0.78665269227E+02 0.14430075617E+03 0.24309821326E+03 0.35176737034E+03 0.43655774126E+03
 0.24031903999E+03 0.22342756174E+03 0.17934218097E+03 0.12483064407E+03 0.78665269227E+02
 0.51548308856E+02 0.39949740617E+02 0.32471929414E+02 0.27380552204E+02 0.24723699413E+02
 0.23942595256E+02 0.24723699413E+02 0.27380552204E+02 0.32471929414E+02 0.39949740617E+02
 0.51548308856E+02 0.78665269227E+02 0.12483064407E+03 0.17934218097E+03 0.22342756174E+03
 0.10868361891E+03 0.10175029084E+03 0.84241689076E+02 0.64103829981E+02 0.48859225339E+02
 0.39949740617E+02 0.33005859113E+02 0.27639146643E+02 0.24206954090E+02 0.22440237827E+02
 0.21913978066E+02 0.22440237827E+02 0.24206954090E+02 0.27639146643E+02 0.33005859113E+02
 0.39949740617E+02 0.48859225339E+02 0.64103829981E+02 0.84241689076E+02 0.10175029084E+03
 0.55621213133E+02 0.53704954466E+02 0.49009155670E+02 0.43592417106E+02 0.38075409131E+02
 0.32471929414E+02 0.27639146643E+02 0.24083341751E+02 0.21837270012E+02 0.20659141779E+02
 0.20299026346E+02 0.20659141779E+02 0.21837270012E+02 0.24083341751E+02 0.27639146643E+02
 0.32471929414E+02 0.38075409131E+02 0.43592417106E+02 0.49009155670E+02 0.53704954466E+02
 0.41294216323E+02 0.40508546735E+02 0.38275657591E+02 0.34962110239E+02 0.31126245793E+02
 0.27380552204E+02 0.24206954090E+02 0.21837270012E+02 0.20272851204E+02 0.19403931127E+02
 0.19127186956E+02 0.19403931127E+02 0.20272851204E+02 0.21837270012E+02 0.24206954090E+02
 0.27380552204E+02 0.31126245793E+02 0.34962110239E+02 0.38275657591E+02 0.40508546735E+02
 0.34876067504E+02 0.34269678618E+02 0.32576841597E+02 0.30134660608E+02 0.27381338553E+02
 0.24723699413E+02 0.22440237827E+02 0.20659141779E+02 0.19403931127E+02 0.18659426446E+02
 0.18412448017E+02 0.18659426446E+02 0.19403931127E+02 0.20659141779E+02 0.22440237827E+02
 0.24723699413E+02 0.27381338553E+02 0.30134660608E+02 0.32576841597E+02 0.34269678618E+02
 0.32990939097E+02 0.32439540816E+02 0.30909770621E+02 0.28725248502E+02 0.26286772964E+02
 0.23942595256E+02 0.21913978066E+02 0.20299026346E+02 0.19127186956E+02 0.18412448017E+02
 0.18171361563E+02 0.18412448017E+02 0.19127186956E+02 0.20299026346E+02 0.21913978066E+02
 0.23942595256E+02 0.26286772964E+02 0.28725248502E+02 0.30909770621E+02 0.32439540816E+02
 0.34876067504E+02 0.34269678618E+02 0.32576841597E+02 0.30134660608E+02 0.27381338553E+02
 0.24723699413E+02 0.22440237827E+02 0.20659141779E+02 0.19403931127E+02 0.18659426446E+02
 0.18412448017E+02 0.18659426446E+02 0.19403931127E+02 0.20659141779E+02 0.22440237827E+02
 0.24723699413E+02 0.27381338553E+02 0.30134660608E+02 0.32576841597E+02 0.34269678618E+02
 0.41294216323E+02 0.40508546735E+02 0.38275657591E+02 0.34962110239E+02 0.31126245793E+02
 0.27380552204E+02 0.24206954090E+02 0.21837270012E+02 0.20272851204E+02 0.19403931127E+02
 0.19127186956E+02 0.19403931127E+02 0.20272851204E+02 0.21837270012E+02 0.24206954090E+02
 0.27380552204E+02 0.31126245793E+02 0.34962110239E+02 0.38275657591E+02 0.40508546735E+02
 0.55621213133E+02 0.53704954466E+02 0.49009155670E+02 0.43592417106E+02 0.38075409131E+02
 0.32471929414E+02 0.27639146643E+02 0.24083341751E+02 0.21837270012E+02 0.20659141779E+02
 0.20299026346E+02 0.20659141779E+02 0.21837270012E+02 0.24083341751E+02 0.27639146643E+02
 0.32471929414E+02 0.38075409131E+02 0.43592417106E+02 0.49009155670E+02 0.53704954466E+02
 0.10868361891E+03 0.10175029084E+03 0.84241689076E+02 0.64103829981E+02 0.48859225339E+02
 0.39949740617E+02 0.33005859113E+02 0.27639146643E+02 0.24206954090E+02 0.22440237827E+02
 0.21913978066E+02 0.22440237827E+02 0.24206954090E+02 0.27639146643E+02 0.33005859113E+02
 0.39949740617E+02 0.48859225339E+02 0.64103829981E+02 0.84241689076E+02 0.10175029084E+03
 0.24031903999E+03 0.22342756174E+03 0.17934218097E+03 0.12483064407E+03 0.78665269227E+02
 0.51548308856E+02 0.39949740617E+02 0.32471929414E+02 0.27380552204E+02 0.24723699413E+02
 0.23942595256E+02 0.24723699413E+02 0.27380552204E+02 0.32471929414E+02 0.39949740617E+02
 0.51548308856E+02 0.78665269227E+02 0.12483064407E+03 0.17934218097E+03 0.22342756174E+03
 0.46857250105E+03 0.43655774126E+03 0.35176737034E+03 0.24309821326E+03 0.14430075617E+03
 0.78665269227E+02 0.48859225339E+02 0.38075409131E+02 0.31126245793E+02 0.27381338553E+02
 0.26286772964E+02 0.27381338553E+02 0.31126245793E+02 0.38075409131E+02 0.48859225339E+02
 0.78665269227E+02 0.14430075617E+03 0.24309821326E+03 0.35176737034E+03 0.43655774126E+03
 0.77416844908E+03 0.72285178645E+03 0.58641345171E+03 0.40931905733E+03 0.24309821326E+03
 0.12483064407E+03 0.64103829981E+02 0.43592417106E+02 0.34962110239E+02 0.30134660608E+02
 0.28725248502E+02 0.30134660608E+02 0.34962110239E+02 0.43592417106E+02 0.64103829981E+02
 0.12483064407E+03 0.24309821326E+03 0.40931905733E+03 0.58641345171E+03 0.72285178645E+03
 0.10955565950E+04 0.10239320799E+04 0.83369087083E+03 0.58641345171E+03 0.35176737034E+03
 0.17934218097E+03 0.84241689076E+02 0.49009155670E+02 0.38275657591E+02 0.32576841597E+02
 0.30909770621E+02 0.32576841597E+02 0.38275657591E+02 0.49009155670E+02 0.84241689076E+02
 0.17934218097E+03 0.35176737034E+03 0.58641345171E+03 0.83369087083E+03 0.10239320799E+04
 0.13435858651E+04 0.12560306239E+04 0.10239320799E+04 0.72285178645E+03 0.43655774126E+03
 0.22342756174E+03 0.10175029084E+03 0.53704954466E+02 0.40508546735E+02 0.34269678618E+02
 0.32439540816E+02 0.34269678618E+02 0.40508546735E+02 0.53704954466E+02 0.10175029084E+03
 0.22342756174E+03 0.43655774126E+03 0.72285178645E+03 0.10239320799E+04 0.12560306239E+04
 0.11881451210E+04 0.11089459032E+04 0.89975618979E+03 0.63041608566E+03 0.37736198652E+03
 0.19237508134E+03 0.89722773197E+02 0.50893376937E+02 0.39601625462E+02 0.33803261759E+02
 0.32107926480E+02 0.33803261759E+02 0.39601625462E+02 0.50893376937E+02 0.89722773197E+02
 0.19237508134E+03 0.37736198652E+03 0.63041608566E+03 0.89975618979E+03 0.11089459032E+04
 0.11089459032E+04 0.10349754532E+04 0.83947160386E+03 0.58758415053E+03 0.35108176724E+03
 0.17893806956E+03 0.84519140875E+02 0.49546243433E+02 0.38931711821E+02 0.33305819387E+02
 0.31662067802E+02 0.33305819387E+02 0.38931711821E+02 0.49546243433E+02 0.84519140875E+02
 0.17893806956E+03 0.35108176724E+03 0.58758415053E+03 0.83947160386E+03 0.10349754532E+04
 0.89975618979E+03 0.83947160386E+03 0.67993347559E+03 0.47424885440E+03 0.28192855104E+03
 0.14418405433E+03 0.71541753678E+02 0.46197570592E+02 0.37025848374E+02 0.31911623298E+02
 0.30419312531E+02 0.31911623298E+02 0.37025848374E+02 0.46197570592E+02 0.71541753678E+02
 0.14418405433E+03 0.28192855104E+03 0.47424885440E+03 0.67993347559E+03 0.83947160386E+03
 0.63041608566E+03 0.58758415053E+03 0.47424885440E+03 0.32867334081E+03 0.19453219668E+03
 0.10204164061E+03 0.56973370335E+02 0.42000522867E+02 0.34191012465E+02 0.29884311673E+02
 0.28627706973E+02 0.29884311673E+02 0.34191012465E+02 0.42000522867E+02 0.56973370335E+02
 0.10204164061E+03 0.19453219668E+03 0.32867334081E+03 0.47424885440E+03 0.58758415053E+03
 0.37736198652E+03 0.35108176724E+03 0.28192855104E+03 0.19453219668E+03 0.11698851156E+03
 0.67515134228E+02 0.46141464312E+02 0.37134399583E+02 0.30895524422E+02 0.27571062793E+02
 0.26598122462E+02 0.27571062793E+02 0.30895524422E+02 0.37134399583E+02 0.46141464312E+02
 0.67515134228E+02 0.11698851156E+03 0.19453219668E+03 0.28192855104E+03 0.35108176724E+03
 0.19237508134E+03 0.17893806956E+03 0.14418405433E+03 0.10204164061E+03 0.67515134228E+02
 0.48071779873E+02 0.38955482282E+02 0.32185599391E+02 0.27655052613E+02 0.25300844012E+02
 0.24606521676E+02 0.25300844012E+02 0.27655052613E+02 0.32185599391E+02 0.38955482282E+02
 0.48071779873E+02 0.67515134228E+02 0.10204164061E+03 0.14418405433E+03 0.17893806956E+03
 0.89722773197E+02 0.84519140875E+02 0.71541753678E+02 0.56973370335E+02 0.46141464312E+02
 0.38955482282E+02 0.32702597165E+02 0.27923922624E+02 0.24879665768E+02 0.23307754466E+02
 0.22836984791E+02 0.23307754466E+02 0.24879665768E+02 0.27923922624E+02 0.32702597165E+02
 0.38955482282E+02 0.46141464312E+02 0.56973370335E+02 0.71541753678E+02 0.84519140875E+02
 0.50893376937E+02 0.49546243433E+02 0.46197570592E+02 0.42000522867E+02 0.37134399583E+02
 0.32185599391E+02 0.27923922624E+02 0.24778363676E+02 0.22775149230E+02 0.21712611365E+02
 0.21385038827E+02 0.21712611365E+02 0.22775149230E+02 0.24778363676E+02 0.27923922624E+02
 0.32185599391E+02 0.37134399583E+02 0.42000522867E+02 0.46197570592E+02 0.49546243433E+02
 0.39601625462E+02 0.38931711821E+02 0.37025848374E+02 0.34191012465E+02 0.30895524422E+02
 0.27655052613E+02 0.24879665768E+02 0.22775149230E+02 0.21359161584E+02 0.20558071345E+02
 0.20299969191E+02 0.20558071345E+02 0.21359161584E+02 0.22775149230E+02 0.24879665768E+02
 0.27655052613E+02 0.30895524422E+02 0.34191012465E+02 0.37025848374E+02 0.38931711821E+02
 0.33803261759E+02 0.33305819387E+02 0.31911623298E+02 0.29884311673E+02 0.27571062793E+02
 0.25300844012E+02 0.23307754466E+02 0.21712611365E+02 0.20558071345E+02 0.19857943598E+02
 0.19622774509E+02 0.19857943598E+02 0.20558071345E+02 0.21712611365E+02 0.23307754466E+02
 0.25300844012E+02 0.27571062793E+02 0.29884311673E+02 0.31911623298E+02 0.33305819387E+02
 0.32107926480E+02 0.31662067802E+02 0.30419312531E+02 0.28627706973E+02 0.26598122462E+02
 0.24606521676E+02 0.22836984791E+02 0.21385038827E+02 0.20299969191E+02 0.19622774509E+02
 0.19391515143E+02 0.19622774509E+02 0.20299969191E+02 0.21385038827E+02 0.22836984791E+02
 0.24606521676E+02 0.26598122462E+02 0.28627706973E+02 0.30419312531E+02 0.31662067802E+02
 0.33803261759E+02 0.33305819387E+02 0.31911623298E+02 0.29884311673E+02 0.27571062793E+02
 0.25300844012E+02 0.23307754466E+02 0.21712611365E+02 0.20558071345E+02 0.19857943598E+02
 0.19622774509E+02 0.19857943598E+02 0.20558071345E+02 0.21712611365E+02 0.23307754466E+02
 0.25300844012E+02 0.27571062793E+02 0.29884311673E+02 0.31911623298E+02 0.33305819387E+02
 0.39601625462E+02 0.38931711821E+02 0.37025848374E+02 0.34191012465E+02 0.30895524422E+02
 0.27655052613E+02 0.24879665768E+02 0.22775149230E+02 0.21359161584E+02 0.20558071345E+02
 0.20299969191E+02 0.20558071345E+02 0.21359161584E+02 0.22775149230E+02 0.24879665768E+02
 0.27655052613E+02 0.30895524422E+02 0.34191012465E+02 0.37025848374E+02 0.38931711821E+02
 0.50893376937E+02 0.49546243433E+02 0.46197570592E+02 0.42000522867E+02 0.37134399583E+02
 0.32185599391E+02 0.27923922624E+02 0.24778363676E+02 0.22775149230E+02 0.21712611365E+02
 0.21385038827E+02 0.21712611365E+02 0.22775149230E+02 0.24778363676E+02 0.27923922624E+02
 0.32185599391E+02 0.37134399583E+02 0.42000522867E+02 0.46197570592E+02 0.49546243433E+02
 0.89722773197E+02 0.84519140875E+02 0.71541753678E+02 0.56973370335E+02 0.46141464312E+02
 0.38955482282E+02 0.32702597165E+02 0.27923922624E+02 0.24879665768E+02 0.23307754466E+02
 0.22836984791E+02 0.23307754466E+02 0.24879665768E+02 0.27923922624E+02 0.32702597165E+02
 0.38955482282E+02 0.46141464312E+02 0.56973370335E+02 0.71541753678E+02 0.84519140875E+02
 0.19237508134E+03 0.17893806956E+03 0.14418405433E+03 0.10204164061E+03 0.67515134228E+02
 0.48071779873E+02 0.38955482282E+02 0.32185599391E+02 0.27655052613E+02 0.25300844012E+02
 0.24606521676E+02 0.25300844012E+02 0.27655052613E+02 0.32185599391E+02 0.38955482282E+02
 0.48071779873E+02 0.67515134228E+02 0.10204164061E+03 0.14418405433E+03 0.17893806956E+03
 0.37736198652E+03 0.35108176724E+03 0.28192855104E+03 0.19453219668E+03 0.11698851156E+03
 0.67515134228E+02 0.46141464312E+02 0.37134399583E+02 0.30895524422E+02 0.27571062793E+02
 0.26598122462E+02 0.27571062793E+02 0.30895524422E+02 0.37134399583E+02 0.46141464312E+02
 0.67515134228E+02 0.11698851156E+03 0.19453219668E+03 0.28192855104E+03 0.35108176724E+03
 0.63041608566E+03 0.58758415053E+03 0.47424885440E+03 0.32867334081E+03 0.19453219668E+03
 0.10204164061E+03 0.56973370335E+02 0.42000522867E+02 0.34191012465E+02 0.29884311673E+02
 0.28627706973E+02 0.29884311673E+02 0.34191012465E+02 0.42000522867E+02 0.56973370335E+02
 0.10204164061E+03 0.19453219668E+03 0.32867334081E+03 0.47424885440E+03 0.58758415053E+03
 0.89975618979E+03 0.83947160386E+03 0.67993347559E+03 0.47424885440E+03 0.28192855104E+03
 0.14418405433E+03 0.71541753678E+02 0.46197570592E+02 0.37025848374E+02 0.31911623298E+02
 0.30419312531E+02 0.31911623298E+02 0.37025848374E+02 0.46197570592E+02 0.71541753678E+02
 0.14418405433E+03 0.28192855104E+03 0.47424885440E+03 0.67993347559E+03 0.83947160386E+03
 0.11089459032E+04 0.10349754532E+04 0.83947160386E+03 0.58758415053E+03 0.35108176724E+03
 0.17893806956E+03 0.84519140875E+02 0.49546243433E+02 0.38931711821E+02 0.33305819387E+02
 0.31662067802E+02 0.33305819387E+02 0.38931711821E+02 0.49546243433E+02 0.84519140875E+02
 0.17893806956E+03 0.35108176724E+03 0.58758415053E+03 0.83947160386E+03 0.10349754532E+04
 0.86311761080E+03 0.80327624690E+03 0.64611373591E+03 0.44635579342E+03 0.26308831735E+03
 0.13463941522E+03 0.68467206715E+02 0.45805352135E+02 0.37092184145E+02 0.32210050960E+02
 0.30788302389E+02 0.32210050960E+02 0.37092184145E+02 0.45805352135E+02 0.68467206715E+02
 0.13463941522E+03 0.26308831735E+03 0.44635579342E+03 0.64611373591E+03 0.80327624690E+03
 0.80327624690E+03 0.74751595658E+03 0.60103447513E+03 0.41487342283E+03 0.24440194817E+03
 0.12565807077E+03 0.65355751616E+02 0.45000190654E+02 0.36571102278E+02 0.31845974991E+02
 0.30469833431E+02 0.31845974991E+02 0.36571102278E+02 0.45000190654E+02 0.65355751616E+02
 0.12565807077E+03 0.24440194817E+03 0.41487342283E+03 0.60103447513E+03 0.74751595658E+03
 0.64611373591E+03 0.60103447513E+03 0.48259818387E+03 0.33234007970E+03 0.19583835931E+03
 0.10282717794E+03 0.57755613581E+02 0.42812716601E+02 0.35087316237E+02 0.30819528740E+02
 0.29575702895E+02 0.30819528740E+02 0.35087316237E+02 0.42812716601E+02 0.57755613581E+02
 0.10282717794E+03 0.19583835931E+03 0.33234007970E+03 0.48259818387E+03 0.60103447513E+03
 0.44635579342E+03 0.41487342283E+03 0.33234007970E+03 0.22845779399E+03 0.13609565646E+03
 0.76151784229E+02 0.49478261876E+02 0.39500410788E+02 0.32875818160E+02 0.29310398796E+02
 0.28268792925E+02 0.29310398796E+02 0.32875818160E+02 0.39500410788E+02 0.49478261876E+02
 0.76151784229E+02 0.13609565646E+03 0.22845779399E+03 0.33234007970E+03 0.41487342283E+03
 0.26308831735E+03 0.24440194817E+03 0.19583835931E+03 0.13609565646E+03 0.85516870319E+02
 0.55551572200E+02 0.43001921946E+02 0.35500063540E+02 0.30295654521E+02 0.27562243162E+02
 0.26759546260E+02 0.27562243162E+02 0.30295654521E+02 0.35500063540E+02 0.43001921946E+02
 0.55551572200E+02 0.85516870319E+02 0.13609565646E+03 0.19583835931E+03 0.24440194817E+03
 0.13463941522E+03 0.12565807077E+03 0.10282717794E+03 0.76151784229E+02 0.55551572200E+02
 0.44321009233E+02 0.37181830211E+02 0.31473847638E+02 0.27743439021E+02 0.25815030599E+02
 0.25243419193E+02 0.25815030599E+02 0.27743439021E+02 0.31473847638E+02 0.37181830211E+02
 0.44321009233E+02 0.55551572200E+02 0.76151784229E+02 0.10282717794E+03 0.12565807077E+03
 0.68467206715E+02 0.65355751616E+02 0.57755613581E+02 0.49478261876E+02 0.43001921946E+02
 0.37181830211E+02 0.31953651389E+02 0.28024622277E+02 0.25537364518E+02 0.24248917806E+02
 0.23860576674E+02 0.24248917806E+02 0.25537364518E+02 0.28024622277E+02 0.31953651389E+02
 0.37181830211E+02 0.43001921946E+02 0.49478261876E+02 0.57755613581E+02 0.65355751616E+02
 0.45805352135E+02 0.45000190654E+02 0.42812716601E+02 0.39500410788E+02 0.35500063540E+02
 0.31473847638E+02 0.28024622277E+02 0.25476553623E+02 0.23842758365E+02 0.22967262543E+02
 0.22695217793E+02 0.22967262543E+02 0.23842758365E+02 0.25476553623E+02 0.28024622277E+02
 0.31473847638E+02 0.35500063540E+02 0.39500410788E+02 0.42812716601E+02 0.45000190654E+02
 0.37092184145E+02 0.36571102278E+02 0.35087316237E+02 0.32875818160E+02 0.30295654521E+02
 0.27743439021E+02 0.25537364518E+02 0.23842758365E+02 0.22684566721E+02 0.22019508805E+02
 0.21803265117E+02 0.22019508805E+02 0.22684566721E+02 0.23842758365E+02 0.25537364518E+02
 0.27743439021E+02 0.30295654521E+02 0.32875818160E+02 0.35087316237E+02 0.36571102278E+02
 0.32210050960E+02 0.31845974991E+02 0.30819528740E+02 0.29310398796E+02 0.27562243162E+02
 0.25815030599E+02 0.24248917806E+02 0.22967262543E+02 0.22019508805E+02 0.21434887965E+02
 0.21236661801E+02 0.21434887965E+02 0.22019508805E+02 0.22967262543E+02 0.24248917806E+02
 0.25815030599E+02 0.27562243162E+02 0.29310398796E+02 0.30819528740E+02 0.31845974991E+02
 0.30788302389E+02 0.30469833431E+02 0.29575702895E+02 0.28268792925E+02 0.26759546260E+02
 0.25243419193E+02 0.23860576674E+02 0.22695217793E+02 0.21803265117E+02 0.21236661801E+02
 0.21041366007E+02 0.21236661801E+02 0.21803265117E+02 0.22695217793E+02 0.23860576674E+02
 0.25243419193E+02 0.26759546260E+02 0.28268792925E+02 0.29575702895E+02 0.30469833431E+02
 0.32210050960E+02 0.31845974991E+02 0.30819528740E+02 0.29310398796E+02 0.27562243162E+02
 0.25815030599E+02 0.24248917806E+02 0.22967262543E+02 0.22019508805E+02 0.21434887965E+02
 0.21236661801E+02 0.21434887965E+02 0.22019508805E+02 0.22967262543E+02 0.24248917806E+02
 0.25815030599E+02 0.27562243162E+02 0.29310398796E+02 0.30819528740E+02 0.31845974991E+02
 0.37092184145E+02 0.36571102278E+02 0.35087316237E+02 0.32875818160E+02 0.30295654521E+02
 0.27743439021E+02 0.25537364518E+02 0.23842758365E+02 0.22684566721E+02 0.22019508805E+02
 0.21803265117E+02 0.22019508805E+02 0.22684566721E+02 0.23842758365E+02 0.25537364518E+02
 0.27743439021E+02 0.30295654521E+02 0.32875818160E+02 0.35087316237E+02 0.36571102278E+02
 0.45805352135E+02 0.45000190654E+02 0.42812716601E+02 0.39500410788E+02 0.35500063540E+02
 0.31473847638E+02 0.28024622277E+02 0.25476553623E+02 0.23842758365E+02 0.22967262543E+02
 0.22695217793E+02 0.22967262543E+02 0.23842758365E+02 0.25476553623E+02 0.28024622277E+02
 0.31473847638E+02 0.35500063540E+02 0.39500410788E+02 0.42812716601E+02 0.45000190654E+02
 0.68467206715E+02 0.65355751616E+02 0.57755613581E+02 0.49478261876E+02 0.43001921946E+02
 0.37181830211E+02 0.31953651389E+02 0.28024622277E+02 0.25537364518E+02 0.24248917806E+02
 0.23860576674E+02 0.24248917806E+02 0.25537364518E+02 0.28024622277E+02 0.31953651389E+02
 0.37181830211E+02 0.43001921946E+02 0.49478261876E+02 0.57755613581E+02 0.65355751616E+02
 0.13463941522E+03 0.12565807077E+03 0.10282717794E+03 0.76151784229E+02 0.55551572200E+02
 0.44321009233E+02 0.37181830211E+02 0.31473847638E+02 0.27743439021E+02 0.25815030599E+02
 0.25243419193E+02 0.25815030599E+02 0.27743439021E+02 0.31473847638E+02 0.37181830211E+02
 0.44321009233E+02 0.55551572200E+02 0.76151784229E+02 0.10282717794E+03 0.12565807077E+03
 0.26308831735E+03 0.24440194817E+03 0.19583835931E+03 0.13609565646E+03 0.85516870319E+02
 0.55551572200E+02 0.43001921946E+02 0.35500063540E+02 0.30295654521E+02 0.27562243162E+02
 0.26759546260E+02 0.27562243162E+02 0.30295654521E+02 0.35500063540E+02 0.43001921946E+02
 0.55551572200E+02 0.85516870319E+02 0.13609565646E+03 0.19583835931E+03 0.24440194817E+03
 0.44635579342E+03 0.41487342283E+03 0.33234007970E+03 0.22845779399E+03 0.13609565646E+03
 0.76151784229E+02 0.49478261876E+02 0.39500410788E+02 0.32875818160E+02 0.29310398796E+02
 0.28268792925E+02 0.29310398796E+02 0.32875818160E+02 0.39500410788E+02 0.49478261876E+02
 0.76151784229E+02 0.13609565646E+03 0.22845779399E+03 0.33234007970E+03 0.41487342283E+03
 0.64611373591E+03 0.60103447513E+03 0.48259818387E+03 0.33234007970E+03 0.19583835931E+03
 0.10282717794E+03 0.57755613581E+02 0.42812716601E+02 0.35087316237E+02 0.30819528740E+02
 0.29575702895E+02 0.30819528740E+02 0.35087316237E+02 0.42812716601E+02 0.57755613581E+02
 0.10282717794E+03 0.19583835931E+03 0.33234007970E+03 0.48259818387E+03 0.60103447513E+03
 0.80327624690E+03 0.74751595658E+03 0.60103447513E+03 0.41487342283E+03 0.24440194817E+03
 0.12565807077E+03 0.65355751616E+02 0.45000190654E+02 0.36571102278E+02 0.31845974991E+02
 0.30469833431E+02 0.31845974991E+02 0.36571102278E+02 0.45000190654E+02 0.65355751616E+02
 0.12565807077E+03 0.24440194817E+03 0.41487342283E+03 0.60103447513E+03 0.74751595658E+03
 0.54471389448E+03 0.50490509451E+03 0.40142846277E+03 0.27291537251E+03 0.15987635636E+03
 0.86290817988E+02 0.52767861297E+02 0.41289858099E+02 0.34317475428E+02 0.30533863143E+02
 0.29434089132E+02 0.30533863143E+02 0.34317475428E+02 0.41289858099E+02 0.52767861297E+02
 0.86290817988E+02 0.15987635636E+03 0.27291537251E+03 0.40142846277E+03 0.50490509451E+03
 0.50490509451E+03 0.46798141309E+03 0.37203597321E+03 0.25303481508E+03 0.14876846547E+03