    5    5  100    2
  0.2199349E+02  0.2496087E-09  0.2496087E-09  0.1765000E-08  0.8000000E-15
  1.000000000000000E-004
  CAR 
 clean Ni(100) surface                   
     50     15     36
 
  0.0000000E+00  0.0000000E+00  0.0000000E+00  0.1234568E-01
      1         -6.276250       -6.313961   1.000000   1.000000
      2         -5.089243       -5.116274   1.000000   1.000000
      3         -3.409389       -3.398471   1.000000   1.000000
      4         -2.268097       -2.076565   1.000000   1.000000
      5         -2.183098       -1.891989   1.000000   1.000000
      6         -1.750121       -1.192783   1.000000   1.000000
      7         -1.385586       -0.809594   1.000000   1.000000
      8         -0.873157       -0.216207   1.000000   1.000000
      9         -0.392590        0.275347   1.000000   1.000000
     10         -0.159452        0.518351   1.000000   1.000000
     11         -0.035773        0.704130   1.000000   1.000000
     12         -0.035773        0.704130   1.000000   1.000000
     13          0.336358        1.043515   1.000000   1.000000
     14          0.336358        1.111579   1.000000   1.000000
     15          0.525313        1.111579   1.000000   1.000000
     16          0.799161        1.342888   1.000000   1.000000
     17          0.929457        1.372560   1.000000   1.000000
     18          0.929457        1.557558   1.000000   0.999977
     19          0.985941        1.669175   1.000000   0.999580
     20          1.024461        1.728528   1.000000   0.998633
     21          1.107591        1.728528   1.000000   0.998633
     22          1.186862        1.872701   1.000000   0.995535
     23          1.453918        2.132235   0.999999   0.990980
     24          1.453918        2.309325   0.999999   0.224318
     25          1.454759        2.309325   0.999999   0.224318
     26          1.626045        2.415288   0.999848  -0.042078
     27          1.698714        2.449834   0.999218  -0.051488
     28          1.727104        2.578887   0.998667  -0.003310
     29          1.727104        2.578887   0.998667  -0.003310
     30          2.851043        2.905606   0.000320   0.000082
     31          4.208034        4.192786   0.000000   0.000000
     32          6.770201        6.799504   0.000000   0.000000
     33          8.122342        8.112333   0.000000   0.000000
     34          9.978849       10.058048   0.000000   0.000000
     35         13.119650       13.156108   0.000000   0.000000
     36         13.785768       13.900637   0.000000   0.000000
 
  0.1111111E+00 -0.1469759E-17  0.0000000E+00  0.4938272E-01
      1         -5.964235       -6.000860   1.000000   1.000000
      2         -4.797180       -4.820661   1.000000   1.000000
      3         -3.158186       -3.135824   1.000000   1.000000
      4         -2.075586       -1.855679   1.000000   1.000000
      5         -1.997373       -1.705807   1.000000   1.000000
      6         -1.650783       -1.098273   1.000000   1.000000
      7         -1.300909       -0.732339   1.000000   1.000000
      8         -0.821941       -0.172677   1.000000   1.000000
      9         -0.388139        0.280869   1.000000   1.000000
     10         -0.090955        0.590128   1.000000   1.000000
     11         -0.054266        0.670334   1.000000   1.000000
     12          0.004611        0.744500   1.000000   1.000000
     13          0.129063        0.785188   1.000000   1.000000
     14          0.311603        0.934831   1.000000   1.000000
     15          0.403459        1.065967   1.000000   1.000000
     16          0.728486        1.391822   1.000000   1.000000
     17          0.766240        1.431739   1.000000   1.000000
     18          0.861583        1.507338   1.000000   0.999995
     19          0.966704        1.579171   1.000000   0.999956
     20          1.003140        1.635148   1.000000   0.999810
     21          1.144659        1.780497   1.000000   0.997009
     22          1.223084        1.925957   1.000000   1.002518
     23          1.227862        1.968461   1.000000   1.016576
     24          1.252940        1.987500   1.000000   1.025122
     25          1.537485        2.297101   0.999987   0.280307
     26          1.543996        2.328122   0.999984   0.147074
     27          1.668903        2.345696   0.999582   0.086119
     28          1.748494        2.439431   0.998095  -0.051268
     29          1.820516        2.589589   0.995576  -0.000888
     30          3.454035        3.672060   0.000000   0.000000
     31          4.902909        5.016340   0.000000   0.000000
     32          7.068388        7.099848   0.000000   0.000000
     33          8.458574        8.454320   0.000000   0.000000
     34         10.228764       10.308145   0.000000   0.000000
     35         13.395443       13.431214   0.000000   0.000000
     36         13.936999       14.041776   0.000000   0.000000
 
  0.2222222E+00 -0.3980352E-17  0.0000000E+00  0.4938272E-01
      1         -5.072184       -5.100807   1.000000   1.000000
      2         -3.998874       -3.997803   1.000000   1.000000
      3         -2.584318       -2.480257   1.000000   1.000000
      4         -1.708043       -1.377686   1.000000   1.000000
      5         -1.605715       -1.239855   1.000000   1.000000
      6         -1.361381       -0.864299   1.000000   1.000000
      7         -0.964189       -0.485642   1.000000   1.000000
      8         -0.568647        0.002904   1.000000   1.000000
      9         -0.424892        0.223238   1.000000   1.000000
     10         -0.044015        0.544794   1.000000   1.000000
     11         -0.016647        0.633023   1.000000   1.000000
     12          0.030401        0.690851   1.000000   1.000000
     13          0.060633        0.716712   1.000000   1.000000
     14          0.090327        0.819234   1.000000   1.000000
     15          0.223975        0.927837   1.000000   1.000000
     16          0.455274        1.126580   1.000000   1.000000
     17          0.511785        1.229730   1.000000   1.000000
     18          0.580956        1.256119   1.000000   1.000000
     19          0.745004        1.435486   1.000000   1.000000
     20          1.060285        1.663392   1.000000   0.999631
     21          1.085672        1.724571   1.000000   0.998725
     22          1.120839        1.741773   1.000000   0.998290
     23          1.122414        1.895785   1.000000   0.997323
     24          1.334399        1.908550   1.000000   0.999074
     25          1.387383        2.171469   1.000000   0.883889
     26          1.538924        2.332128   0.999987   0.132177
     27          1.690820        2.511894   0.999333  -0.029280
     28          1.711358        2.528506   0.999000  -0.021456
     29          2.655321        3.043231   0.004929   0.000001
     30          4.611703        4.830644   0.000000   0.000000
     31          6.334054        6.486492   0.000000   0.000000
     32          7.946525        7.980373   0.000000   0.000000
     33          9.459789        9.471081   0.000000   0.000000
     34         10.689681       10.797933   0.000000   0.000000
     35         11.286517       11.400909   0.000000   0.000000
     36         12.220019       12.376353   0.000000   0.000000
 
  0.3333333E+00  0.3535756E-17  0.0000000E+00  0.4938272E-01
      1         -3.771954       -3.759354   1.000000   1.000000
      2         -3.020195       -2.907113   1.000000   1.000000
      3         -2.222792       -1.909056   1.000000   1.000000
      4         -1.622087       -1.175488   1.000000   1.000000
      5         -1.325946       -0.833197   1.000000   1.000000
      6         -0.946377       -0.573576   1.000000   1.000000
      7         -0.456522       -0.033511   1.000000   1.000000
      8         -0.437533        0.157072   1.000000   1.000000
      9         -0.145735        0.406613   1.000000   1.000000
     10         -0.100412        0.444239   1.000000   1.000000
     11         -0.036244        0.580713   1.000000   1.000000
     12          0.075224        0.745825   1.000000   1.000000
     13          0.089345        0.755916   1.000000   1.000000
     14          0.156000        0.779281   1.000000   1.000000
     15          0.212790        0.832793   1.000000   1.000000
     16          0.371278        1.012874   1.000000   1.000000
     17          0.443663        1.055303   1.000000   1.000000
     18          0.484835        1.111043   1.000000   1.000000
     19          0.536378        1.152881   1.000000   1.000000
     20          0.892273        1.567610   1.000000   0.999969
     21          0.993823        1.773453   1.000000   0.997267
     22          1.363955        2.013219   1.000000   1.037382
     23          1.365686        2.155172   1.000000   0.935577
     24          1.528353        2.158652   0.999990   0.925395
     25          1.532274        2.285572   0.999989   0.336459
     26          1.617932        2.366110   0.999877   0.030124
     27          1.688410        2.411887   0.999366  -0.039605
     28          1.745535        2.500736   0.998182  -0.034636
     29          3.620691        3.882771   0.000000   0.000000
     30          5.784726        5.945632   0.000000   0.000000
     31          7.611409        7.841284   0.000000   0.000000
     32          7.751613        7.887452   0.000000   0.000000
     33          9.153615        9.390220   0.000000   0.000000
     34          9.454757        9.497836   0.000000   0.000000
     35         10.464549       10.679635   0.000000   0.000000
     36         11.037782       11.069171   0.000000   0.000000
 
  0.4444444E+00 -0.7960704E-17  0.0000000E+00  0.4938272E-01
      1         -2.571621       -2.368444   1.000000   1.000000
      2         -2.452400       -2.126505   1.000000   1.000000
      3         -2.139304       -1.762469   1.000000   1.000000
      4         -1.707503       -1.266714   1.000000   1.000000
      5         -1.357704       -1.002107   1.000000   1.000000
      6         -0.538787       -0.093660   1.000000   1.000000
      7         -0.491803        0.125085   1.000000   1.000000
      8         -0.234575        0.296711   1.000000   1.000000
      9         -0.180307        0.357252   1.000000   1.000000
     10         -0.061914        0.506298   1.000000   1.000000
     11         -0.024200        0.623433   1.000000   1.000000
     12         -0.011019        0.631797   1.000000   1.000000
     13          0.042917        0.648181   1.000000   1.000000
     14          0.128627        0.717970   1.000000   1.000000
     15          0.307579        0.749420   1.000000   1.000000
     16          0.320914        0.969848   1.000000   1.000000
     17          0.336669        1.079778   1.000000   1.000000
     18          0.739709        1.425985   1.000000   1.000000
     19          0.979218        1.480081   1.000000   0.999998
     20          1.053485        1.846571   1.000000   0.995074
     21          1.350915        2.041622   1.000000   1.048461
     22          1.459807        2.165207   0.999999   0.904949
     23          1.470892        2.273133   0.999999   0.399786
     24          1.606890        2.407366   0.999907  -0.035806
     25          1.655001        2.463119   0.999695  -0.049349
     26          2.210399        2.485559   0.722554  -0.041542
     27          2.254574        2.733065   0.497238   0.002791
     28          2.526560        3.046419  -0.022346   0.000001
     29          3.799031        4.008539   0.000000   0.000000
     30          4.232801        4.602014   0.000000   0.000000
     31          6.803228        7.058437   0.000000   0.000000
     32          6.977729        7.198972   0.000000   0.000000
     33          9.066715        9.314348   0.000000   0.000000
     34          9.396483        9.642372   0.000000   0.000000
     35         10.753306       10.852601   0.000000   0.000000
     36         11.273075       11.323200   0.000000   0.000000
 
  0.1111111E+00  0.1111111E+00  0.0000000E+00  0.4938272E-01
      1         -5.656845       -5.692246   1.000000   1.000000
      2         -4.508673       -4.528629   1.000000   1.000000
      3         -2.908075       -2.875864   1.000000   1.000000
      4         -1.893307       -1.639044   1.000000   1.000000
      5         -1.803731       -1.529341   1.000000   1.000000
      6         -1.548873       -0.995252   1.000000   1.000000
      7         -1.228721       -0.657416   1.000000   1.000000
      8         -0.796795       -0.146945   1.000000   1.000000
      9         -0.441225        0.235703   1.000000   1.000000
     10         -0.027143        0.646379   1.000000   1.000000
     11         -0.016211        0.673388   1.000000   1.000000
     12          0.013240        0.696040   1.000000   1.000000
     13          0.079256        0.706508   1.000000   1.000000
     14          0.129338        0.796410   1.000000   1.000000
     15          0.316592        1.083307   1.000000   1.000000
     16          0.597803        1.264789   1.000000   1.000000
     17          0.810938        1.406634   1.000000   1.000000
     18          0.848747        1.461100   1.000000   0.999999
     19          0.880347        1.524961   1.000000   0.999991
     20          0.896991        1.598442   1.000000   0.999926
     21          0.963237        1.688615   1.000000   0.999363
     22          1.110632        1.756415   1.000000   0.997849
     23          1.235714        1.836928   1.000000   0.995181
     24          1.405315        2.103871   1.000000   1.032816
     25          1.427718        2.174133   1.000000   0.874484
     26          1.484100        2.277960   0.999998   0.374937
     27          1.564816        2.307417   0.999971   0.232781
     28          1.717777        2.566992   0.998873  -0.006609
     29          2.280078        2.802577   0.364137   0.000894
     30          3.927906        4.174345   0.000000   0.000000
     31          5.444301        5.585742   0.000000   0.000000
     32          7.365802        7.399084   0.000000   0.000000
     33          8.794114        8.795336   0.000000   0.000000
     34         10.479671       10.558742   0.000000   0.000000
     35         13.674337       13.709396   0.000000   0.000000
     36         14.146198       14.244185   0.000000   0.000000
 
  0.2222222E+00  0.1111111E+00  0.0000000E+00  0.9876543E-01
      1         -4.782526       -4.808846   1.000000   1.000000
      2         -3.724731       -3.719531   1.000000   1.000000
      3         -2.344077       -2.232746   1.000000   1.000000
      4         -1.525952       -1.178610   1.000000   1.000000
      5         -1.431146       -1.094342   1.000000   1.000000
      6         -1.270003       -0.747329   1.000000   1.000000
      7         -0.933499       -0.434117   1.000000   1.000000
      8         -0.649833       -0.044685   1.000000   1.000000
      9         -0.566217        0.090384   1.000000   1.000000
     10         -0.242679        0.328826   1.000000   1.000000
     11         -0.076021        0.551010   1.000000   1.000000
     12          0.076851        0.762327   1.000000   1.000000
     13          0.107004        0.799228   1.000000   1.000000
     14          0.128691        0.825561   1.000000   1.000000
     15          0.263154        0.950829   1.000000   1.000000
     16          0.340208        1.014888   1.000000   1.000000
     17          0.457790        1.161852   1.000000   1.000000
     18          0.612660        1.268249   1.000000   1.000000
     19          0.802955        1.467908   1.000000   0.999999
     20          0.865748        1.492850   1.000000   0.999997
     21          0.966791        1.637791   1.000000   0.999797
     22          1.176621        1.810138   1.000000   0.995914
     23          1.198450        1.865085   1.000000   0.995260
     24          1.258351        2.012310   1.000000   1.036961
     25          1.371374        2.047028   1.000000   1.049827
     26          1.513123        2.328923   0.999994   0.144050
     27          1.686598        2.513872   0.999389  -0.028330
     28          1.859314        2.533046   0.995136  -0.019420
     29          3.075495        3.502734   0.000000   0.000000
     30          4.995019        5.219718   0.000000   0.000000
     31          6.726758        6.874103   0.000000   0.000000
     32          8.243322        8.278308   0.000000   0.000000
     33          9.790181        9.805341   0.000000   0.000000
     34         10.989708       11.096571   0.000000   0.000000
     35         11.513261       11.630537   0.000000   0.000000
     36         12.484779       12.641888   0.000000   0.000000
 
  0.3333333E+00  0.1111111E+00  0.0000000E+00  0.9876543E-01
      1         -3.525596       -3.506558   1.000000   1.000000
      2         -2.780792       -2.659431   1.000000   1.000000
      3         -2.024355       -1.694879   1.000000   1.000000
      4         -1.457241       -0.993618   1.000000   1.000000
      5         -1.131048       -0.650555   1.000000   1.000000
      6         -1.026252       -0.618987   1.000000   1.000000
      7         -0.643145       -0.114825   1.000000   1.000000
      8         -0.538051       -0.030610   1.000000   1.000000
      9         -0.352759        0.219207   1.000000   1.000000
     10         -0.285776        0.276070   1.000000   1.000000
     11         -0.092747        0.496915   1.000000   1.000000
     12         -0.012137        0.604323   1.000000   1.000000
     13          0.054448        0.665165   1.000000   1.000000
     14          0.235796        0.885074   1.000000   1.000000
     15          0.280668        0.914256   1.000000   1.000000
     16          0.361136        1.008337   1.000000   1.000000
     17          0.433049        1.072662   1.000000   1.000000
     18          0.474892        1.199949   1.000000   1.000000
     19          0.629528        1.273828   1.000000   1.000000
     20          0.976125        1.629325   1.000000   0.999835
     21          1.126148        1.849244   1.000000   0.995065
     22          1.170686        1.866481   1.000000   0.995301
     23          1.397310        2.093914   1.000000   1.041314
     24          1.492928        2.148762   0.999997   0.953100
     25          1.540932        2.250691   0.999986   0.517775
     26          1.600559        2.401317   0.999922  -0.029763
     27          1.648297        2.450024   0.999739  -0.051475
     28          2.365801        2.914442   0.030852   0.000065
     29          4.085859        4.378979   0.000000   0.000000
     30          6.190839        6.357042   0.000000   0.000000
     31          7.849965        8.077714   0.000000   0.000000
     32          8.105320        8.239630   0.000000   0.000000
     33          9.346018        9.569924   0.000000   0.000000
     34          9.739628        9.780624   0.000000   0.000000
     35         10.683249       10.888338   0.000000   0.000000
     36         11.358590       11.390728   0.000000   0.000000
 
  0.4444444E+00  0.1111111E+00  0.0000000E+00  0.9876543E-01
      1         -2.385586       -2.176353   1.000000   1.000000
      2         -2.253354       -1.912164   1.000000   1.000000
      3         -1.973096       -1.579476   1.000000   1.000000
      4         -1.593801       -1.132087   1.000000   1.000000
      5         -1.251379       -0.902522   1.000000   1.000000
      6         -0.714165       -0.221797   1.000000   1.000000
      7         -0.658999       -0.062789   1.000000   1.000000
      8         -0.371780        0.106485   1.000000   1.000000
      9         -0.327807        0.223664   1.000000   1.000000
     10         -0.244903        0.274195   1.000000   1.000000
     11         -0.183027        0.460700   1.000000   1.000000
     12         -0.060574        0.529120   1.000000   1.000000
     13          0.047868        0.617270   1.000000   1.000000
     14          0.180797        0.815252   1.000000   1.000000
     15          0.292545        0.910021   1.000000   1.000000
     16          0.333665        1.002268   1.000000   1.000000
     17          0.490804        1.142140   1.000000   1.000000
     18          0.739828        1.347836   1.000000   1.000000
     19          0.798906        1.479471   1.000000   0.999998
     20          1.173398        1.788211   1.000000   0.996721
     21          1.213708        2.012703   1.000000   1.037143
     22          1.343454        2.065459   1.000000   1.051540
     23          1.529730        2.272852   0.999990   0.401240
     24          1.564652        2.282371   0.999971   0.352522
     25          1.646407        2.435015   0.999751  -0.050568
     26          2.535142        3.102172  -0.018501   0.000000
     27          2.641087        3.135955   0.004683   0.000000
     28          3.293388        3.589081   0.000000   0.000000
     29          4.361254        4.594942   0.000000   0.000000
     30          4.498078        4.856978   0.000000   0.000000
     31          7.010515        7.264235   0.000000   0.000000
     32          7.233277        7.455062   0.000000   0.000000
     33          9.238020        9.464483   0.000000   0.000000
     34          9.583851        9.811739   0.000000   0.000000
     35         10.996277       11.087815   0.000000   0.000000
     36         11.548307       11.599106   0.000000   0.000000
 
  0.2222222E+00  0.2222222E+00  0.0000000E+00  0.4938272E-01
      1         -3.980651       -3.990936   1.000000   1.000000
      2         -2.999662       -2.965482   1.000000   1.000000
      3         -1.809178       -1.638953   1.000000   1.000000
      4         -1.291885       -0.911926   1.000000   1.000000
      5         -1.029641       -0.700322   1.000000   1.000000
      6         -0.966114       -0.413680   1.000000   1.000000
      7         -0.879942       -0.271211   1.000000   1.000000
      8         -0.836390       -0.213376   1.000000   1.000000
      9         -0.721013       -0.087558   1.000000   1.000000
     10         -0.646878       -0.086579   1.000000   1.000000
     11         -0.228601        0.343950   1.000000   1.000000
     12         -0.097393        0.545594   1.000000   1.000000
     13          0.077277        0.712863   1.000000   1.000000
     14          0.290042        1.023973   1.000000   1.000000
     15          0.323817        1.058059   1.000000   1.000000
     16          0.436740        1.160607   1.000000   1.000000
     17          0.593999        1.205743   1.000000   1.000000
     18          0.647555        1.321786   1.000000   1.000000
     19          0.805418        1.362833   1.000000   1.000000
     20          0.829736        1.474926   1.000000   0.999998
     21          0.921993        1.662540   1.000000   0.999638
     22          0.998462        1.685111   1.000000   0.999408
     23          1.037301        1.688379   1.000000   0.999366
     24          1.318630        1.942384   1.000000   1.007000
     25          1.388170        2.225701   1.000000   0.647638
     26          1.627180        2.294979   0.999844   0.290421
     27          1.700223        2.544775   0.999194  -0.014469
     28          2.447721        3.037733  -0.051593   0.000001
     29          3.956867        4.339785   0.000000   0.000000
     30          5.980579        6.186061   0.000000   0.000000
     31          7.795453        7.924239   0.000000   0.000000
     32          9.123001        9.158312   0.000000   0.000000
     33         10.765955       10.789651   0.000000   0.000000
     34         11.261340       11.414959   0.000000   0.000000
     35         11.924300       11.997528   0.000000   0.000000
     36         12.549807       12.714008   0.000000   0.000000
 
  0.3333333E+00  0.2222222E+00  0.0000000E+00  0.9876543E-01
      1         -2.916611       -2.857264   1.000000   1.000000
      2         -2.192130       -2.032899   1.000000   1.000000
      3         -1.582896       -1.198681   1.000000   1.000000
      4         -1.256858       -0.858762   1.000000   1.000000
      5         -1.227450       -0.696583   1.000000   1.000000
      6         -1.041315       -0.430632   1.000000   1.000000
      7         -0.817060       -0.317635   1.000000   1.000000
      8         -0.767827       -0.217001   1.000000   1.000000
      9         -0.581448       -0.008004   1.000000   1.000000
     10         -0.519338        0.020301   1.000000   1.000000
     11         -0.352441        0.198284   1.000000   1.000000
     12         -0.239453        0.369706   1.000000   1.000000
     13         -0.006100        0.593973   1.000000   1.000000
     14          0.455657        1.150455   1.000000   1.000000
     15          0.488904        1.182514   1.000000   1.000000
     16          0.547301        1.214096   1.000000   1.000000
     17          0.634857        1.276474   1.000000   1.000000
     18          0.662466        1.356627   1.000000   1.000000
     19          0.819013        1.446751   1.000000   0.999999
     20          1.074317        1.733470   1.000000   0.998511
     21          1.100740        1.789768   1.000000   0.996662
     22          1.256109        1.896376   1.000000   0.997390
     23          1.345658        2.021067   1.000000   1.040907
     24          1.455925        2.111331   0.999999   1.024463
     25          1.558038        2.329854   0.999976   0.140563
     26          1.664139        2.485785   0.999624  -0.041445
     27          2.140000        2.745779   0.974482   0.002345
     28          3.336137        3.799566   0.000000   0.000000
     29          5.158557        5.439956   0.000000   0.000000
     30          7.263987        7.424081   0.000000   0.000000
     31          8.402724        8.611108   0.000000   0.000000
     32          9.090596        9.224593   0.000000   0.000000
     33          9.869078       10.049101   0.000000   0.000000
     34         10.589353       10.623330   0.000000   0.000000
     35         11.314927       11.494939   0.000000   0.000000
     36         12.305027       12.338204   0.000000   0.000000
 
  0.4444444E+00  0.2222222E+00  0.0000000E+00  0.9876543E-01
      1         -2.054738       -1.819539   1.000000   1.000000
      2         -1.797019       -1.407931   1.000000   1.000000
      3         -1.664238       -1.222598   1.000000   1.000000
      4         -1.497941       -1.037592   1.000000   1.000000
      5         -1.390344       -0.918679   1.000000   1.000000
      6         -1.070647       -0.514418   1.000000   1.000000
      7         -0.906071       -0.412282   1.000000   1.000000
      8         -0.823994       -0.268885   1.000000   1.000000
      9         -0.562489       -0.018973   1.000000   1.000000
     10         -0.448847        0.112366   1.000000   1.000000
     11         -0.184657        0.354900   1.000000   1.000000
     12         -0.127041        0.449916   1.000000   1.000000
     13         -0.012360        0.556571   1.000000   1.000000
     14          0.493229        1.164056   1.000000   1.000000
     15          0.518142        1.172932   1.000000   1.000000
     16          0.562623        1.199499   1.000000   1.000000
     17          0.594114        1.283680   1.000000   1.000000
     18          0.767315        1.424079   1.000000   1.000000
     19          0.946649        1.688404   1.000000   0.999366
     20          1.187051        1.915754   1.000000   1.000344
     21          1.350192        2.015458   1.000000   1.038410
     22          1.460745        2.099829   0.999999   1.036619
     23          1.612461        2.332973   0.999893   0.129107
     24          1.654097        2.434683   0.999701  -0.050499
     25          1.687582        2.454069   0.999376  -0.051069
     26          2.853780        3.347632   0.000300   0.000000
     27          3.561191        3.970821   0.000000   0.000000
     28          4.760427        5.038938   0.000000   0.000000
     29          5.160749        5.472626   0.000000   0.000000
     30          5.662795        5.895695   0.000000   0.000000
     31          7.610723        7.844542   0.000000   0.000000
     32          7.975872        8.191994   0.000000   0.000000
     33          9.820131        9.989256   0.000000   0.000000
     34         10.204637       10.387685   0.000000   0.000000
     35         11.736673       11.807977   0.000000   0.000000
     36         12.354488       12.409361   0.000000   0.000000
 
  0.3333333E+00  0.3333333E+00  0.0000000E+00  0.4938272E-01
      1         -2.343026       -2.161647   1.000000   1.000000
      2         -1.674002       -1.411557   1.000000   1.000000
      3         -1.551474       -1.152140   1.000000   1.000000
      4         -1.394218       -0.843110   1.000000   1.000000
      5         -1.371696       -0.791777   1.000000   1.000000
      6         -1.286352       -0.743488   1.000000   1.000000
      7         -1.053435       -0.579213   1.000000   1.000000
      8         -1.024503       -0.392454   1.000000   1.000000
      9         -0.682507       -0.147445   1.000000   1.000000
     10         -0.499741        0.109888   1.000000   1.000000
     11         -0.483632        0.111469   1.000000   1.000000
     12         -0.037536        0.538372   1.000000   1.000000
     13          0.036177        0.628802   1.000000   1.000000
     14          0.842087        1.520277   1.000000   0.999993
     15          0.857770        1.552557   1.000000   0.999980
     16          0.889279        1.588698   1.000000   0.999943
     17          0.935080        1.627838   1.000000   0.999841
     18          1.016421        1.640555   1.000000   0.999783
     19          1.193770        1.785882   1.000000   0.996808
     20          1.211316        1.927477   1.000000   1.002882