       N       E                     dE             d eps       ncg     rms          rms(c)
DAV:   1     0.258697015863E+03    0.25870E+03   -0.15328E+04  2160   0.991E+02
DAV:   2    -0.143330143956E+02   -0.27303E+03   -0.25690E+03  2180   0.262E+02
DAV:   3    -0.300300637291E+02   -0.15697E+02   -0.15057E+02  2348   0.855E+01
DAV:   4    -0.302112394965E+02   -0.18118E+00   -0.18104E+00  2404   0.944E+00
DAV:   5    -0.302154910440E+02   -0.42515E-02   -0.42514E-02  2644   0.108E+00    0.205E+01
RMM:   6    -0.312657498273E+02   -0.10503E+01   -0.42368E+01  2160   0.560E+01    0.303E+01
RMM:   7    -0.322039014975E+02   -0.93815E+00   -0.12052E+01  2166   0.277E+01    0.302E+01
RMM:   8    -0.294029906863E+02    0.28009E+01   -0.36071E+00  2172   0.155E+01    0.283E+01
RMM:   9    -0.254323168227E+02    0.39707E+01   -0.25360E+00  2175   0.132E+01    0.597E+00
RMM:  10    -0.256044789941E+02   -0.17216E+00   -0.50302E-01  2170   0.459E+00    0.110E+01
RMM:  11    -0.255394623838E+02    0.65017E-01   -0.23054E-01  2175   0.414E+00    0.941E+00
RMM:  12    -0.254945833524E+02    0.44879E-01   -0.39387E-02  2183   0.158E+00    0.789E+00
RMM:  13    -0.255107249680E+02   -0.16142E-01   -0.10366E-01  2172   0.248E+00    0.687E+00
RMM:  14    -0.254052988130E+02    0.10543E+00   -0.76382E-02  2172   0.232E+00    0.163E+00
RMM:  15    -0.254797396956E+02   -0.74441E-01   -0.14433E-02  2168   0.844E-01    0.116E+00
RMM:  16    -0.255413641547E+02   -0.61624E-01   -0.14451E-02  2165   0.674E-01    0.119E+00
RMM:  17    -0.255554543500E+02   -0.14090E-01   -0.88870E-03  2171   0.561E-01    0.141E+00
RMM:  18    -0.255548499141E+02    0.60444E-03   -0.15111E-03  2173   0.235E-01    0.125E+00
RMM:  19    -0.255504575418E+02    0.43924E-02   -0.18213E-03  2166   0.255E-01    0.364E-01
RMM:  20    -0.255514116816E+02   -0.95414E-03   -0.23094E-04  2184   0.100E-01    0.209E-01
RMM:  21    -0.255535491427E+02   -0.21375E-02   -0.18003E-04  2166   0.804E-02    0.147E-01
RMM:  22    -0.255553153852E+02   -0.17662E-02   -0.10196E-04  2178   0.566E-02    0.913E-02
RMM:  23    -0.255558276063E+02   -0.51222E-03   -0.31153E-05  2174   0.331E-02    0.518E-02
RMM:  24    -0.255561252434E+02   -0.29764E-03   -0.23253E-05  2115   0.261E-02    0.394E-02
RMM:  25    -0.255563231086E+02   -0.19787E-03   -0.73480E-06  1881   0.159E-02    0.136E-02
RMM:  26    -0.255564614096E+02   -0.13830E-03   -0.34857E-06  1509   0.797E-03    0.108E-02
RMM:  27    -0.255565507896E+02   -0.89380E-04   -0.20818E-06  1423   0.745E-03    0.911E-03
RMM:  28    -0.255566105963E+02   -0.59807E-04   -0.12607E-06  1388   0.465E-03    0.475E-03
RMM:  29    -0.255566431317E+02   -0.32535E-04   -0.74596E-07  1362   0.415E-03    0.432E-03
RMM:  30    -0.255566545962E+02   -0.11465E-04   -0.18382E-07  1172   0.200E-03    0.254E-03
RMM:  31    -0.255566612049E+02   -0.66086E-05   -0.11764E-07   990   0.151E-03    0.114E-03
RMM:  32    -0.255566628935E+02   -0.16886E-05   -0.26824E-08   709   0.109E-03    0.105E-03
RMM:  33    -0.255566648066E+02   -0.19131E-05   -0.62046E-08   759   0.119E-03    0.734E-04
RMM:  34    -0.255566652675E+02   -0.46082E-06   -0.22203E-08   621   0.102E-03
   1 F= -.25556665E+02 E0= -.25557340E+02  d E =-.255567E+02  mag=     3.2205
       N       E                     dE             d eps       ncg     rms          rms(c)
DAV:   1    -0.255629309285E+02   -0.62661E-02   -0.85848E+00  2232   0.142E+01    0.706E-01
RMM:   2    -0.255794708967E+02   -0.16540E-01   -0.65442E-02  2161   0.211E+00    0.197E+00
RMM:   3    -0.255870772308E+02   -0.76063E-02   -0.15843E-02  2168   0.990E-01    0.270E+00
RMM:   4    -0.255795139328E+02    0.75633E-02   -0.92559E-03  2167   0.749E-01    0.166E+00
RMM:   5    -0.255726405012E+02    0.68734E-02   -0.57071E-03  2164   0.637E-01    0.749E-01
RMM:   6    -0.255718798012E+02    0.76070E-03   -0.14070E-03  2163   0.296E-01    0.492E-01
RMM:   7    -0.255725602036E+02   -0.68040E-03   -0.15117E-03  2167   0.297E-01    0.606E-01
RMM:   8    -0.255711271818E+02    0.14330E-02   -0.13312E-03  2164   0.307E-01    0.135E-01
RMM:   9    -0.255711728638E+02   -0.45682E-04   -0.22199E-04  2167   0.122E-01    0.548E-02
RMM:  10    -0.255711944471E+02   -0.21583E-04   -0.49150E-05  2196   0.586E-02    0.253E-02
RMM:  11    -0.255712187077E+02   -0.24261E-04   -0.10776E-05  2142   0.225E-02    0.123E-02
RMM:  12    -0.255712402607E+02   -0.21553E-04   -0.29166E-06  1537   0.110E-02    0.454E-03
RMM:  13    -0.255712501750E+02   -0.99144E-05   -0.78589E-07  1295   0.613E-03    0.269E-03
RMM:  14    -0.255712601385E+02   -0.99634E-05   -0.40517E-07  1297   0.447E-03    0.143E-03
RMM:  15    -0.255712634431E+02   -0.33047E-05   -0.14123E-07  1208   0.252E-03    0.847E-04
RMM:  16    -0.255712658694E+02   -0.24263E-05   -0.69544E-08  1040   0.182E-03    0.801E-04
RMM:  17    -0.255712680777E+02   -0.22083E-05   -0.57215E-08  1004   0.149E-03    0.540E-04
RMM:  18    -0.255712690434E+02   -0.96576E-06   -0.18358E-08   649   0.105E-03
   2 F= -.25571269E+02 E0= -.25572002E+02  d E =-.146038E-01  mag=     3.2199
       N       E                     dE             d eps       ncg     rms          rms(c)
DAV:   1    -0.255720173934E+02   -0.74932E-03   -0.56837E-01  2196   0.342E+00    0.250E-01
RMM:   2    -0.255843338406E+02   -0.12316E-01   -0.90693E-03  2164   0.733E-01    0.209E+00
RMM:   3    -0.255731667972E+02    0.11167E-01   -0.38200E-03  2161   0.521E-01    0.665E-01
RMM:   4    -0.255729572084E+02    0.20959E-03   -0.86018E-04  2161   0.222E-01    0.493E-01
RMM:   5    -0.255730768406E+02   -0.11963E-03   -0.62650E-04  2165   0.192E-01    0.477E-01
RMM:   6    -0.255724593627E+02    0.61748E-03   -0.35972E-04  2162   0.165E-01    0.107E-01
RMM:   7    -0.255724562898E+02    0.30730E-05   -0.81402E-05  2166   0.719E-02    0.906E-02
RMM:   8    -0.255723987958E+02    0.57494E-04   -0.43782E-05  2163   0.551E-02    0.202E-02
RMM:   9    -0.255724087442E+02   -0.99484E-05   -0.11613E-05  2136   0.244E-02    0.907E-03
RMM:  10    -0.255724150181E+02   -0.62739E-05   -0.30052E-06  1557   0.139E-02    0.522E-03
RMM:  11    -0.255724213159E+02   -0.62978E-05   -0.74407E-07  1278   0.654E-03    0.416E-03
RMM:  12    -0.255724301108E+02   -0.87949E-05   -0.31420E-07  1289   0.428E-03    0.144E-03
RMM:  13    -0.255724347947E+02   -0.46839E-05   -0.10763E-07  1226   0.206E-03    0.100E-03
RMM:  14    -0.255724378371E+02   -0.30424E-05   -0.43489E-08   816   0.128E-03    0.783E-04
RMM:  15    -0.255724401213E+02   -0.22841E-05   -0.46758E-08   831   0.123E-03    0.840E-04
RMM:  16    -0.255724413204E+02   -0.11991E-05   -0.45111E-08   812   0.117E-03    0.259E-04
RMM:  17    -0.255724414290E+02   -0.10864E-06   -0.76467E-09   507   0.869E-04
   3 F= -.25572441E+02 E0= -.25573162E+02  d E =-.117239E-02  mag=     3.2177
       N       E                     dE             d eps       ncg     rms          rms(c)
DAV:   1    -0.255697069110E+02    0.27344E-02   -0.78000E+00  2160   0.133E+01    0.107E+00
RMM:   2    -0.258673860547E+02   -0.29768E+00   -0.19925E-01  2160   0.348E+00    0.899E+00
RMM:   3    -0.256005888926E+02    0.26680E+00   -0.75993E-02  2160   0.233E+00    0.336E+00
RMM:   4    -0.255807133497E+02    0.19876E-01   -0.16251E-02  2161   0.971E-01    0.181E+00
RMM:   5    -0.255804731300E+02    0.24022E-03   -0.93063E-03  2165   0.732E-01    0.144E+00
RMM:   6    -0.255755961358E+02    0.48770E-02   -0.42006E-03  2164   0.559E-01    0.503E-01
RMM:   7    -0.255749270111E+02    0.66912E-03   -0.11861E-03  2170   0.286E-01    0.288E-01
RMM:   8    -0.255742670221E+02    0.65999E-03   -0.47334E-04  2178   0.171E-01    0.815E-02
RMM:   9    -0.255742324983E+02    0.34524E-04   -0.28220E-04  2165   0.112E-01    0.535E-02
RMM:  10    -0.255743037518E+02   -0.71254E-04   -0.81967E-05  2200   0.722E-02    0.287E-02
RMM:  11    -0.255743688337E+02   -0.65082E-04   -0.21051E-05  2227   0.325E-02    0.180E-02
RMM:  12    -0.255744596933E+02   -0.90860E-04   -0.51022E-06  1867   0.152E-02    0.799E-03
RMM:  13    -0.255745548172E+02   -0.95124E-04   -0.27559E-06  1443   0.846E-03    0.411E-03
RMM:  14    -0.255745927125E+02   -0.37895E-04   -0.89075E-07  1350   0.492E-03    0.353E-03
RMM:  15    -0.255746262945E+02   -0.33582E-04   -0.68342E-07  1345   0.371E-03    0.415E-03
RMM:  16    -0.255746497108E+02   -0.23416E-04   -0.84843E-07  1366   0.340E-03    0.102E-03
RMM:  17    -0.255746525640E+02   -0.28532E-05   -0.17347E-07  1133   0.184E-03    0.927E-04
RMM:  18    -0.255746526359E+02   -0.71915E-07   -0.25742E-08   724   0.112E-03
   4 F= -.25574653E+02 E0= -.25575263E+02  d E =-.221121E-02  mag=     3.2062
       N       E                     dE             d eps       ncg     rms          rms(c)
DAV:   1    -0.255746627838E+02   -0.10220E-04   -0.79674E-02  2268   0.129E+00    0.837E-02
RMM:   2    -0.255755942358E+02   -0.93145E-03   -0.95349E-04  2161   0.240E-01    0.573E-01
RMM:   3    -0.255748024722E+02    0.79176E-03   -0.37240E-04  2162   0.162E-01    0.198E-01
RMM:   4    -0.255748338643E+02   -0.31392E-04   -0.99202E-05  2161   0.751E-02    0.208E-01
RMM:   5    -0.255748182533E+02    0.15611E-04   -0.72090E-05  2162   0.661E-02    0.177E-01
RMM:   6    -0.255747343832E+02    0.83870E-04   -0.46992E-05  2160   0.588E-02    0.381E-02
RMM:   7    -0.255747362658E+02   -0.18827E-05   -0.12511E-05  2145   0.277E-02    0.384E-02
RMM:   8    -0.255747276761E+02    0.85898E-05   -0.75149E-06  2084   0.233E-02    0.840E-03
RMM:   9    -0.255747295546E+02   -0.18785E-05   -0.11436E-06  1299   0.785E-03    0.289E-03
RMM:  10    -0.255747303074E+02   -0.75281E-06   -0.33325E-07  1252   0.491E-03
   5 F= -.25574730E+02 E0= -.25575337E+02  d E =-.776714E-04  mag=     3.2058
