 vasp.6.3.0 20Jan22 (build Feb 01 2022 16:52:37) complex                        
  
 executed on           TETRA_NSC1 date 2022.02.23  15:42:09
 running    4 mpi-ranks, with    1 threads/rank
 distrk:  each k-point on    4 cores,    1 groups
 distr:  one band on NCORE=   1 cores,    4 groups


--------------------------------------------------------------------------------------------------------


 INCAR:
   ISTART = 0
   ICHARG = 2
   SYSTEM = clean Ni(100) surface
   ENCUT = 270
   ISMEAR = 2
   SIGMA = 0.2
   ALGO = Fast
   EDIFF = 1E-6
   ISPIN = 2
   MAGMOM = 5*1
   NSW = 100
   POTIM = 0.8
   IBRION = 1

 POTCAR:    PAW_PBE Ni 02Aug2007                  
 POTCAR:    PAW_PBE Ni 02Aug2007                  
   VRHFIN =Ni:                                                                                      
   LEXCH  = PE                                                                                      
   EATOM  =  1077.6739 eV,   79.2068 Ry                                                             
                                                                                                    
   TITEL  = PAW_PBE Ni 02Aug2007                                                                    
   LULTRA =        F    use ultrasoft PP ?                                                          
   IUNSCR =        1    unscreen: 0-lin 1-nonlin 2-no                                               
   RPACOR =    2.000    partial core radius                                                         
   POMASS =   58.690; ZVAL   =   10.000    mass and valenz                                          
   RCORE  =    2.300    outmost cutoff radius                                                       
   RWIGS  =    2.430; RWIGS  =    1.286    wigner-seitz radius (au A)                               
   ENMAX  =  269.532; ENMIN  =  202.149 eV                                                          
   RCLOC  =    1.201    cutoff for local pot                                                        
   LCOR   =        T    correct aug charges                                                         
   LPAW   =        T    paw PP                                                                      
   EAUG   =  544.565                                                                                
   DEXC   =    0.000                                                                                
   RMAX   =    2.357    core radius for proj-oper                                                   
   RAUG   =    1.300    factor for augmentation sphere                                              
   RDEP   =    2.390    radius for radial grids                                                     
   RDEPT  =    1.838    core radius for aug-charge                                                  
                                                                                                    
   Atomic configuration                                                                             
    9 entries                                                                                       
     n  l   j            E        occ.                                                              
     1  0  0.50     -8206.4253   2.0000                                                             
     2  0  0.50      -976.1748   2.0000                                                             
     2  1  1.50      -839.0571   6.0000                                                             
     3  0  0.50      -105.9991   2.0000                                                             
     3  1  1.50       -66.4603   6.0000                                                             
     3  2  2.50        -4.6458   9.0000                                                             
     4  0  0.50        -4.4926   1.0000                                                             
     4  1  1.50        -4.0817   0.0000                                                             
     4  3  2.50        -1.3606   0.0000                                                             
   Description                                                                                      
     l       E           TYP  RCUT    TYP  RCUT                                                     
     2     -4.6457903     23  2.300                                                                 
     2     -6.0063729     23  2.300                                                                 
     0     -4.4925590     23  2.300                                                                 
     0      5.0102601     23  2.300                                                                 
     1     -2.7211652     23  2.300                                                                 
     1     16.5183231     23  2.300                                                                 
  local pseudopotential read in
  partial core-charges read in
  partial kinetic energy density read in
  atomic valenz-charges read in
  non local Contribution for L=           2  read in
    real space projection operators read in
  non local Contribution for L=           2  read in
    real space projection operators read in
  non local Contribution for L=           0  read in
    real space projection operators read in
  non local Contribution for L=           0  read in
    real space projection operators read in
  non local Contribution for L=           1  read in
    real space projection operators read in
  non local Contribution for L=           1  read in
    real space projection operators read in
    PAW grid and wavefunctions read in
 
   number of l-projection  operators is LMAX  =           6
   number of lm-projection operators is LMMAX =          18
 
  PAW_PBE Ni 02Aug2007                  :
 energy of atom  1       EATOM=-1077.6739
 kinetic energy error for atom=    0.0378 (will be added to EATOM!!)
 
 
 POSCAR: fcc (100) surface
  positions in cartesian coordinates
  No initial velocities read in
 exchange correlation table for  LEXCH =        8
   RHO(1)=    0.500       N(1)  =     2000
   RHO(2)=  100.500       N(2)  =     4000
 


--------------------------------------------------------------------------------------------------------


 ion  position               nearest neighbor table
   1  0.000  0.000  0.000-   2 2.50   2 2.50   2 2.50   2 2.50
   2  0.500  0.500  0.100-   1 2.50   3 2.50   1 2.50   3 2.50   1 2.50   3 2.50   1 2.50   3 2.50

   3  0.000  0.000  0.200-   4 2.50   4 2.50   4 2.50   4 2.50   2 2.50   2 2.50   2 2.50   2 2.50

   4  0.500  0.500  0.300-   3 2.50   3 2.50   3 2.50   3 2.50   5 2.50   5 2.50   5 2.50   5 2.50

   5  0.000  0.000  0.400-   4 2.50   4 2.50   4 2.50   4 2.50
 
  LATTYP: Found a simple tetragonal cell.
 ALAT       =     2.4960869376
 C/A-ratio  =     7.0710678119
  
  Lattice vectors:
  
 A1 = (   1.7650000000,   1.7650000000,   0.0000000000)
 A2 = (  -1.7650000000,   1.7650000000,   0.0000000000)
 A3 = (   0.0000000000,   0.0000000000,  17.6500000000)


Analysis of symmetry for initial positions (statically):
=====================================================================
 Subroutine PRICEL returns:
 Original cell was already a primitive cell.
 

 Routine SETGRP: Setting up the symmetry group for a 
 simple tetragonal supercell.


 Subroutine GETGRP returns: Found 16 space group operations
 (whereof  8 operations were pure point group operations)
 out of a pool of 16 trial point group operations.


The static configuration has the point symmetry C_4v.
 The point group associated with its full space group is D_4h.


Analysis of symmetry for dynamics (positions and initial velocities):
=====================================================================
 Subroutine PRICEL returns:
 Original cell was already a primitive cell.
 

 Routine SETGRP: Setting up the symmetry group for a 
 simple tetragonal supercell.


 Subroutine GETGRP returns: Found 16 space group operations
 (whereof  8 operations were pure point group operations)
 out of a pool of 16 trial point group operations.


The dynamic configuration has the point symmetry C_4v.
 The point group associated with its full space group is D_4h.


Analysis of constrained symmetry for selective dynamics:
=====================================================================
 Subroutine PRICEL returns:
 Original cell was already a primitive cell.
 

 Routine SETGRP: Setting up the symmetry group for a 
 simple tetragonal supercell.


 Subroutine GETGRP returns: Found  8 space group operations
 (whereof  8 operations were pure point group operations)
 out of a pool of 16 trial point group operations.


The constrained configuration has the point symmetry C_4v.


Analysis of structural, dynamic, and magnetic symmetry:
=====================================================================
 Subroutine PRICEL returns:
 Original cell was already a primitive cell.
 

 Routine SETGRP: Setting up the symmetry group for a 
 simple tetragonal supercell.


 Subroutine GETGRP returns: Found  8 space group operations
 (whereof  8 operations were pure point group operations)
 out of a pool of 16 trial point group operations.


The overall configuration has the point symmetry C_4v.


 Subroutine INISYM returns: Found  8 space group operations
 (whereof  8 operations are pure point group operations),
 and found     1 'primitive' translations


----------------------------------------------------------------------------------------

                                     Primitive cell                                     

  volume of cell :     109.9674

  direct lattice vectors                    reciprocal lattice vectors
     1.765000000  1.765000000  0.000000000     0.283286119  0.283286119  0.000000000
    -1.765000000  1.765000000  0.000000000    -0.283286119  0.283286119  0.000000000
     0.000000000  0.000000000 17.650000000     0.000000000  0.000000000  0.056657224

  length of vectors
     2.496086938  2.496086938 17.650000000     0.400627071  0.400627071  0.056657224

  position of ions in fractional coordinates (direct lattice)
     0.000000000  0.000000000  0.000000000
     0.500000000  0.500000000  0.100000000
     0.000000000  0.000000000  0.200000000
     0.500000000  0.500000000  0.300000000
     0.000000000  0.000000000  0.400000000

  ion indices of the primitive-cell ions
   primitive index   ion index
                 1           1
                 2           2
                 3           3
                 4           4
                 5           5

----------------------------------------------------------------------------------------

 
 
 KPOINTS: k-points                                

Automatic generation of k-mesh.
 Grid dimensions read from file:
 generate k-points for:    9    9    1

 Generating k-lattice:

  Cartesian coordinates                     Fractional coordinates (reciprocal lattice)
     0.031476235  0.031476235  0.000000000     0.111111111  0.000000000  0.000000000
    -0.031476235  0.031476235  0.000000000     0.000000000  0.111111111  0.000000000
     0.000000000  0.000000000  0.056657224     0.000000000  0.000000000  1.000000000

  Length of vectors
     0.044514119  0.044514119  0.056657224

  Shift w.r.t. Gamma in fractional coordinates (k-lattice)
     0.000000000  0.000000000  0.000000000

 
 Subroutine IBZKPT returns following result:
 ===========================================
 
 Found     15 irreducible k-points:
 
 Following reciprocal coordinates:
            Coordinates               Weight
  0.000000  0.000000  0.000000      1.000000
  0.111111 -0.000000  0.000000      4.000000
  0.222222 -0.000000  0.000000      4.000000
  0.333333  0.000000  0.000000      4.000000
  0.444444 -0.000000  0.000000      4.000000
  0.111111  0.111111  0.000000      4.000000
  0.222222  0.111111  0.000000      8.000000
  0.333333  0.111111  0.000000      8.000000
  0.444444  0.111111  0.000000      8.000000
  0.222222  0.222222  0.000000      4.000000
  0.333333  0.222222  0.000000      8.000000
  0.444444  0.222222  0.000000      8.000000
  0.333333  0.333333  0.000000      4.000000
  0.444444  0.333333  0.000000      8.000000
  0.444444  0.444444  0.000000      4.000000
 
 Following cartesian coordinates:
            Coordinates               Weight
  0.000000  0.000000  0.000000      1.000000
  0.111111  0.111111  0.000000      4.000000
  0.222222  0.222222  0.000000      4.000000
  0.333333  0.333333  0.000000      4.000000
  0.444444  0.444444  0.000000      4.000000
 -0.000000  0.222222  0.000000      4.000000
  0.111111  0.333333  0.000000      8.000000
  0.222222  0.444444  0.000000      8.000000
  0.333333  0.555556  0.000000      8.000000
 -0.000000  0.444444  0.000000      4.000000
  0.111111  0.555556  0.000000      8.000000
  0.222222  0.666667  0.000000      8.000000
 -0.000000  0.666667  0.000000      4.000000
  0.111111  0.777778  0.000000      8.000000
 -0.000000  0.888889  0.000000      4.000000
 


--------------------------------------------------------------------------------------------------------




 Dimension of arrays:
   k-points           NKPTS =     15   k-points in BZ     NKDIM =     15   number of bands    NBANDS=     36
   number of dos      NEDOS =    301   number of ions     NIONS =      5
   non local maximal  LDIM  =      6   non local SUM 2l+1 LMDIM =     18
   total plane-waves  NPLWV =   7200
   max r-space proj   IRMAX =      1   max aug-charges    IRDMAX=   2322
   dimension x,y,z NGX =    10 NGY =   10 NGZ =   72
   dimension x,y,z NGXF=    20 NGYF=   20 NGZF=  144
   support grid    NGXF=    20 NGYF=   20 NGZF=  144
   ions per type =               5
   NGX,Y,Z   is equivalent  to a cutoff of   6.66,  6.66,  6.78 a.u.
   NGXF,Y,Z  is equivalent  to a cutoff of  13.32, 13.32, 13.56 a.u.

 SYSTEM =  clean Ni(100) surface                   
 POSCAR =  fcc (100) surface                       

 Startparameter for this run:
   NWRITE =      2    write-flag & timer
   PREC   = normal    normal or accurate (medium, high low for compatibility)
   ISTART =      0    job   : 0-new  1-cont  2-samecut
   ICHARG =      2    charge: 1-file 2-atom 10-const
   ISPIN  =      2    spin polarized calculation?
   LNONCOLLINEAR =      F non collinear calculations
   LSORBIT =      F    spin-orbit coupling
   INIWAV =      1    electr: 0-lowe 1-rand  2-diag
   LASPH  =      F    aspherical Exc in radial PAW
 Electronic Relaxation 1
   ENCUT  =  270.0 eV  19.84 Ry    4.45 a.u.   3.34  3.34 23.65*2*pi/ulx,y,z
   ENINI  =  270.0     initial cutoff
   ENAUG  =  544.6 eV  augmentation charge cutoff
   NELM   =     60;   NELMIN=  2; NELMDL= -5     # of ELM steps 
   EDIFF  = 0.1E-05   stopping-criterion for ELM
   LREAL  =      F    real-space projection
   NLSPLINE    = F    spline interpolate recip. space projectors
   LCOMPAT=      F    compatible to vasp.4.4
   GGA_COMPAT  = T    GGA compatible to vasp.4.4-vasp.4.6
   LMAXPAW     = -100 max onsite density
   LMAXMIX     =    2 max onsite mixed and CHGCAR
   VOSKOWN=      0    Vosko Wilk Nusair interpolation
   ROPT   =    0.00000
 Ionic relaxation
   EDIFFG = 0.1E-04   stopping-criterion for IOM
   NSW    =    100    number of steps for IOM
   NBLOCK =      1;   KBLOCK =    100    inner block; outer block 
   IBRION =      1    ionic relax: 0-MD 1-quasi-New 2-CG
   NFREE  =      0    steps in history (QN), initial steepest desc. (CG)
   ISIF   =      2    stress and relaxation
   IWAVPR =     11    prediction:  0-non 1-charg 2-wave 3-comb
   ISYM   =      2    0-nonsym 1-usesym 2-fastsym
   LCORR  =      T    Harris-Foulkes like correction to forces

   POTIM  = 0.8000    time-step for ionic-motion
   TEIN   =    0.0    initial temperature
   TEBEG  =    0.0;   TEEND  =   0.0 temperature during run
   SMASS  =  -3.00    Nose mass-parameter (am)
   estimated Nose-frequenzy (Omega)   =  0.10E-29 period in steps = 0.79E+46 mass=  -0.142E-27a.u.
   SCALEE = 1.0000    scale energy and forces
   NPACO  =    256;   APACO  = 10.0  distance and # of slots for P.C.
   PSTRESS=    0.0 pullay stress

  Mass of Ions in am
   POMASS =  58.69
  Ionic Valenz
   ZVAL   =  10.00
  Atomic Wigner-Seitz radii
   RWIGS  =  -1.00
  virtual crystal weights 
   VCA    =   1.00
   NELECT =      50.0000    total number of electrons
   NUPDOWN=      -1.0000    fix difference up-down

 DOS related values:
   EMIN   =  10.00;   EMAX   =-10.00  energy-range for DOS
   EFERMI =   0.00
   ISMEAR =     2;   SIGMA  =   0.20  broadening in eV -4-tet -1-fermi 0-gaus

 Electronic relaxation 2 (details)
   IALGO  =     68    algorithm
   LDIAG  =      T    sub-space diagonalisation (order eigenvalues)
   LSUBROT=      F    optimize rotation matrix (better conditioning)
   TURBO    =      0    0=normal 1=particle mesh
   IRESTART =      0    0=no restart 2=restart with 2 vectors
   NREBOOT  =      0    no. of reboots
   NMIN     =      0    reboot dimension
   EREF     =   0.00    reference energy to select bands
   IMIX   =      4    mixing-type and parameters
     AMIX     =   0.40;   BMIX     =  1.00
     AMIX_MAG =   1.60;   BMIX_MAG =  1.00
     AMIN     =   0.10
     WC   =   100.;   INIMIX=   1;  MIXPRE=   1;  MAXMIX= -45

 Intra band minimization:
   WEIMIN = 0.0010     energy-eigenvalue tresh-hold
   EBREAK =  0.69E-08  absolut break condition
   DEPER  =   0.30     relativ break condition  

   TIME   =   0.40     timestep for ELM

  volume/ion in A,a.u.               =      21.99       148.42
  Fermi-wavevector in a.u.,A,eV,Ry     =   1.258858  2.378897 21.561476  1.584724
  Thomas-Fermi vector in A             =   2.392447
 
 Write flags
   LWAVE        =      T    write WAVECAR
   LDOWNSAMPLE  =      F    k-point downsampling of WAVECAR
   LCHARG       =      T    write CHGCAR
   LVTOT        =      F    write LOCPOT, total local potential
   LVHAR        =      F    write LOCPOT, Hartree potential only
   LELF         =      F    write electronic localiz. function (ELF)
   LORBIT       =      0    0 simple, 1 ext, 2 COOP (PROOUT), +10 PAW based schemes


 Dipole corrections
   LMONO  =      F    monopole corrections only (constant potential shift)
   LDIPOL =      F    correct potential (dipole corrections)
   IDIPOL =      0    1-x, 2-y, 3-z, 4-all directions 
   EPSILON=  1.0000000 bulk dielectric constant

 Exchange correlation treatment:
   GGA     =    --    GGA type
   LEXCH   =     8    internal setting for exchange type
   LIBXC   =     F    Libxc                    
   VOSKOWN =     0    Vosko Wilk Nusair interpolation
   LHFCALC =     F    Hartree Fock is set to
   LHFONE  =     F    Hartree Fock one center treatment
   AEXX    =    0.0000 exact exchange contribution

 Linear response parameters
   LEPSILON=     F    determine dielectric tensor
   LRPA    =     F    only Hartree local field effects (RPA)
   LNABLA  =     F    use nabla operator in PAW spheres
   LVEL    =     F    velocity operator in full k-point grid
   CSHIFT  =0.1000    complex shift for real part using Kramers Kronig
   OMEGAMAX=  -1.0    maximum frequency
   DEG_THRESHOLD= 0.2000000E-02 threshold for treating states as degnerate
   RTIME   =   -0.100 relaxation time in fs
  (WPLASMAI=    0.000 imaginary part of plasma frequency in eV, 0.658/RTIME)
   DFIELD  = 0.0000000 0.0000000 0.0000000 field for delta impulse in time
 
  Optional k-point grid parameters
   LKPOINTS_OPT  =     F    use optional k-point grid
   KPOINTS_OPT_MODE=     1    mode for optional k-point grid
 
 Orbital magnetization related:
   ORBITALMAG=     F  switch on orbital magnetization
   LCHIMAG   =     F  perturbation theory with respect to B field
   DQ        =  0.001000  dq finite difference perturbation B field
   LLRAUG    =     F  two centre corrections for induced B field



--------------------------------------------------------------------------------------------------------


 quasi-Newton-method for relaxation of ions
   using selective dynamics as specified on POSCAR
   WARNING: If single coordinates had been selected the selection of coordinates
            is made according to the corresponding   d i r e c t   coordinates!
            Don't support selection of single cartesian coordinates -- sorry ...
  !
 charge density and potential will be updated during run
 spin polarized calculation
 RMM-DIIS sequential band-by-band and
  variant of blocked Davidson during initial phase
 perform sub-space diagonalisation
    before iterative eigenvector-optimisation
 modified Broyden-mixing scheme, WC =      100.0
 initial mixing is a Kerker type mixing with AMIX =  0.4000 and BMIX =      1.0000
 Hartree-type preconditioning will be used
 using additional bands           11
 reciprocal scheme for non local part
 use partial core corrections
 calculate Harris-corrections to forces 
   (improved forces if not selfconsistent)
 use gradient corrections 
 use of overlap-Matrix (Vanderbilt PP)
 Methfessel and Paxton  Order N= 2 SIGMA  =   0.20


--------------------------------------------------------------------------------------------------------


  energy-cutoff  :      270.00
  volume of cell :      109.97
      direct lattice vectors                 reciprocal lattice vectors
     1.765000000  1.765000000  0.000000000     0.283286119  0.283286119  0.000000000
    -1.765000000  1.765000000  0.000000000    -0.283286119  0.283286119  0.000000000
     0.000000000  0.000000000 17.650000000     0.000000000  0.000000000  0.056657224

  length of vectors
     2.496086938  2.496086938 17.650000000     0.400627071  0.400627071  0.056657224


 
 k-points in units of 2pi/SCALE and weight: k-points                                
   0.00000000  0.00000000  0.00000000       0.012
   0.11111111  0.11111111  0.00000000       0.049
   0.22222222  0.22222222  0.00000000       0.049
   0.33333333  0.33333333  0.00000000       0.049
   0.44444444  0.44444444  0.00000000       0.049
  -0.00000000  0.22222222  0.00000000       0.049
   0.11111111  0.33333333  0.00000000       0.099
   0.22222222  0.44444444  0.00000000       0.099
   0.33333333  0.55555556  0.00000000       0.099
  -0.00000000  0.44444444  0.00000000       0.049
   0.11111111  0.55555556  0.00000000       0.099
   0.22222222  0.66666667  0.00000000       0.099
  -0.00000000  0.66666667  0.00000000       0.049
   0.11111111  0.77777778  0.00000000       0.099
  -0.00000000  0.88888889  0.00000000       0.049
 
 k-points in reciprocal lattice and weights: k-points                                
   0.00000000  0.00000000  0.00000000       0.012
   0.11111111 -0.00000000  0.00000000       0.049
   0.22222222 -0.00000000  0.00000000       0.049
   0.33333333  0.00000000  0.00000000       0.049
   0.44444444 -0.00000000  0.00000000       0.049
   0.11111111  0.11111111  0.00000000       0.049
   0.22222222  0.11111111  0.00000000       0.099
   0.33333333  0.11111111  0.00000000       0.099
   0.44444444  0.11111111  0.00000000       0.099
   0.22222222  0.22222222  0.00000000       0.049
   0.33333333  0.22222222  0.00000000       0.099
   0.44444444  0.22222222  0.00000000       0.099
   0.33333333  0.33333333  0.00000000       0.049
   0.44444444  0.33333333  0.00000000       0.099
   0.44444444  0.44444444  0.00000000       0.049
 
 position of ions in fractional coordinates (direct lattice) 
   0.00000000  0.00000000  0.00000000
   0.50000000  0.50000000  0.10000000
   0.00000000  0.00000000  0.20000000
   0.50000000  0.50000000  0.30000000
   0.00000000  0.00000000  0.40000000
 
 position of ions in cartesian coordinates  (Angst):
   0.00000000  0.00000000  0.00000000
   0.00000000  1.76500000  1.76500000
   0.00000000  0.00000000  3.53000000
   0.00000000  1.76500000  5.29500000
   0.00000000  0.00000000  7.06000000
 


--------------------------------------------------------------------------------------------------------


 k-point   1 :   0.0000 0.0000 0.0000  plane waves:    1131
 k-point   2 :   0.1111-0.0000 0.0000  plane waves:    1131
 k-point   3 :   0.2222-0.0000 0.0000  plane waves:    1109
 k-point   4 :   0.3333 0.0000 0.0000  plane waves:    1109
 k-point   5 :   0.4444-0.0000 0.0000  plane waves:    1104
 k-point   6 :   0.1111 0.1111 0.0000  plane waves:    1121
 k-point   7 :   0.2222 0.1111 0.0000  plane waves:    1104
 k-point   8 :   0.3333 0.1111 0.0000  plane waves:    1106
 k-point   9 :   0.4444 0.1111 0.0000  plane waves:    1120
 k-point  10 :   0.2222 0.2222 0.0000  plane waves:    1113
 k-point  11 :   0.3333 0.2222 0.0000  plane waves:    1108
 k-point  12 :   0.4444 0.2222 0.0000  plane waves:    1109
 k-point  13 :   0.3333 0.3333 0.0000  plane waves:    1099
 k-point  14 :   0.4444 0.3333 0.0000  plane waves:    1088
 k-point  15 :   0.4444 0.4444 0.0000  plane waves:    1088

 maximum and minimum number of plane-waves per node :      1131     1088

 maximum number of plane-waves:      1131
 maximum index in each direction: 
   IXMAX=    3   IYMAX=    3   IZMAX=   23
   IXMIN=   -3   IYMIN=   -3   IZMIN=  -23


 serial   3D FFT for wavefunctions
 parallel 3D FFT for charge:
    minimum data exchange during FFTs selected (reduces bandwidth)


 total amount of memory used by VASP MPI-rank0    40124. kBytes
=======================================================================

   base      :      30000. kBytes
   nonl-proj :       2535. kBytes
   fftplans  :        520. kBytes
   grid      :       1627. kBytes
   one-center:        155. kBytes
   wavefun   :       5287. kBytes
 
     INWAV:  cpu time      0.0000: real time      0.0001
 Broyden mixing: mesh for mixing (old mesh)
   NGX =  7   NGY =  7   NGZ = 47
  (NGX  = 20   NGY  = 20   NGZ  =144)
  gives a total of   2303 points

 initial charge density was supplied:
 charge density of overlapping atoms calculated
 number of electron      50.0000000 magnetization       5.0000000
 keeping initial charge density in first step


--------------------------------------------------------------------------------------------------------


 Maximum index for augmentation-charges          540 (set IRDMAX)


--------------------------------------------------------------------------------------------------------


 First call to EWALD:  gamma=   0.370
 Maximum number of real-space cells 5x 5x 1
 Maximum number of reciprocal cells 2x 2x 9

    FEWALD:  cpu time      0.0014: real time      0.0014


--------------------------------------- Iteration      1(   1)  ---------------------------------------


    POTLOK:  cpu time      0.0141: real time      0.0144
    SETDIJ:  cpu time      0.0091: real time      0.0091
     EDDAV:  cpu time      0.4078: real time      0.4095
       DOS:  cpu time      0.0013: real time      0.0013
    --------------------------------------------
      LOOP:  cpu time      0.4323: real time      0.4344

 eigenvalue-minimisations  :  2160
 total energy-change (2. order) : 0.2586970E+03  (-0.1532839E+04)
 number of electron      50.0000000 magnetization       5.0000000
 augmentation part       50.0000000 magnetization       5.0000000

 Free energy of the ion-electron system (eV)
  ---------------------------------------------------
  alpha Z        PSCENC =       115.94204576
  Ewald energy   TEWEN  =      9231.00278662
  -Hartree energ DENC   =    -14628.04759811
  -exchange      EXHF   =         0.00000000
  -V(xc)+E(xc)   XCENC  =       157.28549210
  PAW double counting   =      4814.16586801    -5148.35356137
  entropy T*S    EENTRO =         0.00886512
  eigenvalues    EBANDS =       328.51274438
  atomic energy  EATOM  =      5388.18037335
  Solvation  Ediel_sol  =         0.00000000
  ---------------------------------------------------
  free energy    TOTEN  =       258.69701586 eV

  energy without entropy =      258.68815074  energy(sigma->0) =      258.69479958


--------------------------------------------------------------------------------------------------------




--------------------------------------- Iteration      1(   2)  ---------------------------------------


     EDDAV:  cpu time      0.3728: real time      0.3738
       DOS:  cpu time      0.0013: real time      0.0013
    --------------------------------------------
      LOOP:  cpu time      0.3741: real time      0.3750

 eigenvalue-minimisations  :  2180
 total energy-change (2. order) :-0.2730300E+03  (-0.2568988E+03)
 number of electron      50.0000000 magnetization       5.0000000
 augmentation part       50.0000000 magnetization       5.0000000

 Free energy of the ion-electron system (eV)
  ---------------------------------------------------
  alpha Z        PSCENC =       115.94204576
  Ewald energy   TEWEN  =      9231.00278662
  -Hartree energ DENC   =    -14628.04759811
  -exchange      EXHF   =         0.00000000
  -V(xc)+E(xc)   XCENC  =       157.28549210
  PAW double counting   =      4814.16586801    -5148.35356137
  entropy T*S    EENTRO =         0.00070730
  eigenvalues    EBANDS =        55.49087194
  atomic energy  EATOM  =      5388.18037335
  Solvation  Ediel_sol  =         0.00000000
  ---------------------------------------------------
  free energy    TOTEN  =       -14.33301440 eV

  energy without entropy =      -14.33372170  energy(sigma->0) =      -14.33319122


--------------------------------------------------------------------------------------------------------




--------------------------------------- Iteration      1(   3)  ---------------------------------------


     EDDAV:  cpu time      0.3769: real time      0.3779
       DOS:  cpu time      0.0015: real time      0.0015
    --------------------------------------------
      LOOP:  cpu time      0.3784: real time      0.3793

 eigenvalue-minimisations  :  2348
 total energy-change (2. order) :-0.1569705E+02  (-0.1505689E+02)
 number of electron      50.0000000 magnetization       5.0000000
 augmentation part       50.0000000 magnetization       5.0000000

 Free energy of the ion-electron system (eV)
  ---------------------------------------------------
  alpha Z        PSCENC =       115.94204576
  Ewald energy   TEWEN  =      9231.00278662
  -Hartree energ DENC   =    -14628.04759811
  -exchange      EXHF   =         0.00000000
  -V(xc)+E(xc)   XCENC  =       157.28549210
  PAW double counting   =      4814.16586801    -5148.35356137
  entropy T*S    EENTRO =         0.00506756
  eigenvalues    EBANDS =        39.78946235
  atomic energy  EATOM  =      5388.18037335
  Solvation  Ediel_sol  =         0.00000000
  ---------------------------------------------------
  free energy    TOTEN  =       -30.03006373 eV

  energy without entropy =      -30.03513129  energy(sigma->0) =      -30.03133062


--------------------------------------------------------------------------------------------------------




--------------------------------------- Iteration      1(   4)  ---------------------------------------


     EDDAV:  cpu time      0.4184: real time      0.4195
       DOS:  cpu time      0.0017: real time      0.0017
    --------------------------------------------
      LOOP:  cpu time      0.4201: real time      0.4212

 eigenvalue-minimisations  :  2404
 total energy-change (2. order) :-0.1811758E+00  (-0.1810353E+00)
 number of electron      50.0000000 magnetization       5.0000000
 augmentation part       50.0000000 magnetization       5.0000000

 Free energy of the ion-electron system (eV)
  ---------------------------------------------------
  alpha Z        PSCENC =       115.94204576
  Ewald energy   TEWEN  =      9231.00278662
  -Hartree energ DENC   =    -14628.04759811
  -exchange      EXHF   =         0.00000000
  -V(xc)+E(xc)   XCENC  =       157.28549210
  PAW double counting   =      4814.16586801    -5148.35356137
  entropy T*S    EENTRO =         0.00518071
  eigenvalues    EBANDS =        39.60817344
  atomic energy  EATOM  =      5388.18037335
  Solvation  Ediel_sol  =         0.00000000
  ---------------------------------------------------
  free energy    TOTEN  =       -30.21123950 eV

  energy without entropy =      -30.21642021  energy(sigma->0) =      -30.21253467


--------------------------------------------------------------------------------------------------------




--------------------------------------- Iteration      1(   5)  ---------------------------------------


     EDDAV:  cpu time      0.4352: real time      0.4363
       DOS:  cpu time      0.0014: real time      0.0014
    CHARGE:  cpu time      0.0227: real time      0.0228
    MIXING:  cpu time      0.0007: real time      0.0007
    --------------------------------------------
      LOOP:  cpu time      0.4600: real time      0.4612

 eigenvalue-minimisations  :  2644
 total energy-change (2. order) :-0.4251548E-02  (-0.4251431E-02)
 number of electron      49.9998850 magnetization       4.8600644
 augmentation part       28.2767240 magnetization       4.1629550

 Broyden mixing:
  rms(total) = 0.20458E+01    rms(broyden)= 0.20449E+01
  rms(prec ) = 0.22019E+01
  weight for this iteration     100.00

 Free energy of the ion-electron system (eV)
  ---------------------------------------------------
  alpha Z        PSCENC =       115.94204576
  Ewald energy   TEWEN  =      9231.00278662
  -Hartree energ DENC   =    -14628.04759811
  -exchange      EXHF   =         0.00000000
  -V(xc)+E(xc)   XCENC  =       157.28549210
  PAW double counting   =      4814.16586801    -5148.35356137
  entropy T*S    EENTRO =         0.00518238
  eigenvalues    EBANDS =        39.60392022
  atomic energy  EATOM  =      5388.18037335
  Solvation  Ediel_sol  =         0.00000000
  ---------------------------------------------------
  free energy    TOTEN  =       -30.21549104 eV

  energy without entropy =      -30.22067343  energy(sigma->0) =      -30.21678664


--------------------------------------------------------------------------------------------------------




--------------------------------------- Iteration      1(   6)  ---------------------------------------


    POTLOK:  cpu time      0.0116: real time      0.0116
    SETDIJ:  cpu time      0.0083: real time      0.0083
    EDDIAG:  cpu time      0.0965: real time      0.0968
  RMM-DIIS:  cpu time      0.2134: real time      0.2144
    ORTHCH:  cpu time      0.0134: real time      0.0134
       DOS:  cpu time      0.0015: real time      0.0015
    CHARGE:  cpu time      0.0234: real time      0.0235
    MIXING:  cpu time      0.0008: real time      0.0008
    --------------------------------------------
      LOOP:  cpu time      0.3688: real time      0.3703

 eigenvalue-minimisations  :  2160
 total energy-change (2. order) :-0.1050259E+01  (-0.4236796E+01)
 number of electron      49.9998661 magnetization       4.7322195
 augmentation part       32.4307385 magnetization       4.4736939

 Broyden mixing:
  rms(total) = 0.30332E+01    rms(broyden)= 0.30325E+01
  rms(prec ) = 0.34836E+01
  weight for this iteration     100.00

 eigenvalues of (default mixing * dielectric matrix)
  average eigenvalue GAMMA=   0.2961
  0.2961

 Free energy of the ion-electron system (eV)
  ---------------------------------------------------
  alpha Z        PSCENC =       115.94204576
  Ewald energy   TEWEN  =      9231.00278662
  -Hartree energ DENC   =    -14532.17676126
  -exchange      EXHF   =         0.00000000
  -V(xc)+E(xc)   XCENC  =       151.47536093
  PAW double counting   =      5059.16314473    -5372.14369214
  entropy T*S    EENTRO =        -0.00872478
  eigenvalues    EBANDS =       -72.70028305
  atomic energy  EATOM  =      5388.18037335
  Solvation  Ediel_sol  =         0.00000000
  ---------------------------------------------------
  free energy    TOTEN  =       -31.26574983 eV

  energy without entropy =      -31.25702505  energy(sigma->0) =      -31.26356863


--------------------------------------------------------------------------------------------------------




--------------------------------------- Iteration      1(   7)  ---------------------------------------


    POTLOK:  cpu time      0.0122: real time      0.0123
    SETDIJ:  cpu time      0.0073: real time      0.0073
    EDDIAG:  cpu time      0.0923: real time      0.0925
  RMM-DIIS:  cpu time      0.2028: real time      0.2033
    ORTHCH:  cpu time      0.0131: real time      0.0131
       DOS:  cpu time      0.0015: real time      0.0015
    CHARGE:  cpu time      0.0239: real time      0.0240
    MIXING:  cpu time      0.0007: real time      0.0007
    --------------------------------------------
      LOOP:  cpu time      0.3538: real time      0.3547

 eigenvalue-minimisations  :  2166
 total energy-change (2. order) :-0.9381517E+00  (-0.1205194E+01)
 number of electron      49.9998697 magnetization       4.6216429
 augmentation part       31.3077935 magnetization       3.8678239

 Broyden mixing:
  rms(total) = 0.30243E+01    rms(broyden)= 0.30238E+01
  rms(prec ) = 0.36222E+01
  weight for this iteration     100.00

 eigenvalues of (default mixing * dielectric matrix)
  average eigenvalue GAMMA=   0.3801
  0.5964  0.1637

 Free energy of the ion-electron system (eV)
  ---------------------------------------------------
  alpha Z        PSCENC =       115.94204576
  Ewald energy   TEWEN  =      9231.00278662
  -Hartree energ DENC   =    -14528.32245835
  -exchange      EXHF   =         0.00000000
  -V(xc)+E(xc)   XCENC  =       152.34318460
  PAW double counting   =      5158.20271998    -5480.37314757
  entropy T*S    EENTRO =        -0.00160424
  eigenvalues    EBANDS =       -69.17780164
  atomic energy  EATOM  =      5388.18037335
  Solvation  Ediel_sol  =         0.00000000
  ---------------------------------------------------
  free energy    TOTEN  =       -32.20390150 eV

  energy without entropy =      -32.20229726  energy(sigma->0) =      -32.20350044


--------------------------------------------------------------------------------------------------------




--------------------------------------- Iteration      1(   8)  ---------------------------------------


    POTLOK:  cpu time      0.0125: real time      0.0126
    SETDIJ:  cpu time      0.0077: real time      0.0078
    EDDIAG:  cpu time      0.0960: real time      0.0962
  RMM-DIIS:  cpu time      0.2035: real time      0.2040
    ORTHCH:  cpu time      0.0130: real time      0.0131
       DOS:  cpu time      0.0015: real time      0.0015
    CHARGE:  cpu time      0.0233: real time      0.0233
    MIXING:  cpu time      0.0006: real time      0.0006
    --------------------------------------------
      LOOP:  cpu time      0.3582: real time      0.3591

 eigenvalue-minimisations  :  2172
 total energy-change (2. order) : 0.2800911E+01  (-0.3607138E+00)
 number of electron      49.9998720 magnetization       4.5757611
 augmentation part       30.6852239 magnetization       3.9424143

 Broyden mixing:
  rms(total) = 0.28319E+01    rms(broyden)= 0.28307E+01
  rms(prec ) = 0.31822E+01
  weight for this iteration     100.00

 eigenvalues of (default mixing * dielectric matrix)
  average eigenvalue GAMMA=   0.3156
  0.6312  0.1987  0.1170

 Free energy of the ion-electron system (eV)
  ---------------------------------------------------
  alpha Z        PSCENC =       115.94204576
  Ewald energy   TEWEN  =      9231.00278662
  -Hartree energ DENC   =    -14570.37106922
  -exchange      EXHF   =         0.00000000
  -V(xc)+E(xc)   XCENC  =       152.92743397
  PAW double counting   =      5275.71792553    -5607.10021139
  entropy T*S    EENTRO =         0.00479124
  eigenvalues    EBANDS =       -15.70706653
  atomic energy  EATOM  =      5388.18037335
  Solvation  Ediel_sol  =         0.00000000
  ---------------------------------------------------
  free energy    TOTEN  =       -29.40299069 eV

  energy without entropy =      -29.40778192  energy(sigma->0) =      -29.40418850


--------------------------------------------------------------------------------------------------------




--------------------------------------- Iteration      1(   9)  ---------------------------------------


    POTLOK:  cpu time      0.0122: real time      0.0123
    SETDIJ:  cpu time      0.0072: real time      0.0073
    EDDIAG:  cpu time      0.0961: real time      0.0964
  RMM-DIIS:  cpu time      0.2087: real time      0.2092
    ORTHCH:  cpu time      0.0132: real time      0.0132
       DOS:  cpu time      0.0017: real time      0.0017
    CHARGE:  cpu time      0.0248: real time      0.0249
    MIXING:  cpu time      0.0005: real time      0.0005
    --------------------------------------------
      LOOP:  cpu time      0.3646: real time      0.3655

 eigenvalue-minimisations  :  2175
 total energy-change (2. order) : 0.3970674E+01  (-0.2535965E+00)
 number of electron      49.9998717 magnetization       4.3424540
 augmentation part       31.0441983 magnetization       3.7565552

 Broyden mixing:
  rms(total) = 0.59679E+00    rms(broyden)= 0.59380E+00
  rms(prec ) = 0.69531E+00
  weight for this iteration     100.00

 eigenvalues of (default mixing * dielectric matrix)
  average eigenvalue GAMMA=   0.4935
  0.9522  0.6880  0.2216  0.1122

 Free energy of the ion-electron system (eV)
  ---------------------------------------------------
  alpha Z        PSCENC =       115.94204576
  Ewald energy   TEWEN  =      9231.00278662
  -Hartree energ DENC   =    -14565.66146708
  -exchange      EXHF   =         0.00000000
  -V(xc)+E(xc)   XCENC  =       152.86913468
  PAW double counting   =      5301.86202346    -5634.58169703
  entropy T*S    EENTRO =         0.00543265
  eigenvalues    EBANDS =       -15.05094923
  atomic energy  EATOM  =      5388.18037335
  Solvation  Ediel_sol  =         0.00000000
  ---------------------------------------------------
  free energy    TOTEN  =       -25.43231682 eV

  energy without entropy =      -25.43774947  energy(sigma->0) =      -25.43367499


--------------------------------------------------------------------------------------------------------




--------------------------------------- Iteration      1(  10)  ---------------------------------------


    POTLOK:  cpu time      0.0129: real time      0.0130
    SETDIJ:  cpu time      0.0074: real time      0.0075
    EDDIAG:  cpu time      0.0980: real time      0.0983
  RMM-DIIS:  cpu time      0.2118: real time      0.2123
    ORTHCH:  cpu time      0.0141: real time      0.0141
       DOS:  cpu time      0.0016: real time      0.0016
    CHARGE:  cpu time      0.0238: real time      0.0239
    MIXING:  cpu time      0.0007: real time      0.0007
    --------------------------------------------
      LOOP:  cpu time      0.3704: real time      0.3714

 eigenvalue-minimisations  :  2170
 total energy-change (2. order) :-0.1721622E+00  (-0.5030179E-01)
 number of electron      49.9998761 magnetization       4.2252971
 augmentation part       30.6909501 magnetization       3.7336939

 Broyden mixing:
  rms(total) = 0.10951E+01    rms(broyden)= 0.10945E+01
  rms(prec ) = 0.13140E+01
  weight for this iteration     100.00

 eigenvalues of (default mixing * dielectric matrix)
  average eigenvalue GAMMA=   0.5157
  1.3155  0.4966  0.4022  0.2540  0.1103

 Free energy of the ion-electron system (eV)
  ---------------------------------------------------
  alpha Z        PSCENC =       115.94204576
  Ewald energy   TEWEN  =      9231.00278662
  -Hartree energ DENC   =    -14579.23674986
  -exchange      EXHF   =         0.00000000
  -V(xc)+E(xc)   XCENC  =       153.07869838
  PAW double counting   =      5415.73246934    -5753.44592093
  entropy T*S    EENTRO =        -0.00183335
  eigenvalues    EBANDS =         3.14365172
  atomic energy  EATOM  =      5388.18037335
  Solvation  Ediel_sol  =         0.00000000
  ---------------------------------------------------
  free energy    TOTEN  =       -25.60447899 eV

  energy without entropy =      -25.60264564  energy(sigma->0) =      -25.60402066


--------------------------------------------------------------------------------------------------------




--------------------------------------- Iteration      1(  11)  ---------------------------------------


    POTLOK:  cpu time      0.0130: real time      0.0131
    SETDIJ:  cpu time      0.0078: real time      0.0079
    EDDIAG:  cpu time      0.0933: real time      0.0936
  RMM-DIIS:  cpu time      0.2059: real time      0.2064
    ORTHCH:  cpu time      0.0146: real time      0.0146
       DOS:  cpu time      0.0017: real time      0.0017
    CHARGE:  cpu time      0.0264: real time      0.0264
    MIXING:  cpu time      0.0006: real time      0.0006
    --------------------------------------------
      LOOP:  cpu time      0.3633: real time      0.3642

 eigenvalue-minimisations  :  2175
 total energy-change (2. order) : 0.6501661E-01  (-0.2305448E-01)
 number of electron      49.9998732 magnetization       4.2013906
 augmentation part       30.8914590 magnetization       3.6723991

 Broyden mixing:
  rms(total) = 0.94122E+00    rms(broyden)= 0.94083E+00
  rms(prec ) = 0.12797E+01
  weight for this iteration     100.00

 eigenvalues of (default mixing * dielectric matrix)
  average eigenvalue GAMMA=   0.4516
  1.3484  0.4667  0.4667  0.2452  0.1105  0.0722

 Free energy of the ion-electron system (eV)
  ---------------------------------------------------
  alpha Z        PSCENC =       115.94204576
  Ewald energy   TEWEN  =      9231.00278662
  -Hartree energ DENC   =    -14572.30345229
  -exchange      EXHF   =         0.00000000
  -V(xc)+E(xc)   XCENC  =       152.83365473
  PAW double counting   =      5465.97339196    -5804.84985792
  entropy T*S    EENTRO =        -0.01341271
  eigenvalues    EBANDS =        -2.30499188
  atomic energy  EATOM  =      5388.18037335
  Solvation  Ediel_sol  =         0.00000000
  ---------------------------------------------------
  free energy    TOTEN  =       -25.53946238 eV

  energy without entropy =      -25.52604967  energy(sigma->0) =      -25.53610921


--------------------------------------------------------------------------------------------------------




--------------------------------------- Iteration      1(  12)  ---------------------------------------


    POTLOK:  cpu time      0.0129: real time      0.0130
    SETDIJ:  cpu time      0.0078: real time      0.0078
    EDDIAG:  cpu time      0.0996: real time      0.0999
  RMM-DIIS:  cpu time      0.2061: real time      0.2066
    ORTHCH:  cpu time      0.0137: real time      0.0137
       DOS:  cpu time      0.0015: real time      0.0015
    CHARGE:  cpu time      0.0241: real time      0.0242
    MIXING:  cpu time      0.0007: real time      0.0007
    --------------------------------------------
      LOOP:  cpu time      0.3663: real time      0.3673

 eigenvalue-minimisations  :  2183
 total energy-change (2. order) : 0.4487903E-01  (-0.3938670E-02)
 number of electron      49.9998735 magnetization       4.0883717
 augmentation part       30.8934148 magnetization       3.5721699

 Broyden mixing:
  rms(total) = 0.78915E+00    rms(broyden)= 0.78858E+00
  rms(prec ) = 0.10105E+01
  weight for this iteration     100.00

 eigenvalues of (default mixing * dielectric matrix)
  average eigenvalue GAMMA=   0.4737
  1.4839  0.5875  0.5875  0.2536  0.2536  0.1101  0.0398

 Free energy of the ion-electron system (eV)
  ---------------------------------------------------
  alpha Z        PSCENC =       115.94204576
  Ewald energy   TEWEN  =      9231.00278662
  -Hartree energ DENC   =    -14571.86396020
  -exchange      EXHF   =         0.00000000
  -V(xc)+E(xc)   XCENC  =       152.78096058
  PAW double counting   =      5474.02546250    -5813.09757632
  entropy T*S    EENTRO =        -0.00613217
  eigenvalues    EBANDS =        -2.45854346
  atomic energy  EATOM  =      5388.18037335
  Solvation  Ediel_sol  =         0.00000000
  ---------------------------------------------------
  free energy    TOTEN  =       -25.49458335 eV

  energy without entropy =      -25.48845118  energy(sigma->0) =      -25.49305031


--------------------------------------------------------------------------------------------------------




--------------------------------------- Iteration      1(  13)  ---------------------------------------


    POTLOK:  cpu time      0.0123: real time      0.0124
    SETDIJ:  cpu time      0.0073: real time      0.0073
    EDDIAG:  cpu time      0.0970: real time      0.0973
  RMM-DIIS:  cpu time      0.2080: real time      0.2085
    ORTHCH:  cpu time      0.0140: real time      0.0141
       DOS:  cpu time      0.0016: real time      0.0016
    CHARGE:  cpu time      0.0240: real time      0.0240
    MIXING:  cpu time      0.0007: real time      0.0007
    --------------------------------------------
      LOOP:  cpu time      0.3649: real time      0.3658

 eigenvalue-minimisations  :  2172
 total energy-change (2. order) :-0.1614162E-01  (-0.1036597E-01)
 number of electron      49.9998716 magnetization       3.9323578
 augmentation part       30.9125429 magnetization       3.4438216

 Broyden mixing:
  rms(total) = 0.68653E+00    rms(broyden)= 0.68611E+00
  rms(prec ) = 0.78556E+00
  weight for this iteration     100.00

 eigenvalues of (default mixing * dielectric matrix)
  average eigenvalue GAMMA=   0.5010
  1.7606  0.7159  0.7159  0.2785  0.2785  0.1106  0.1079  0.0396

 Free energy of the ion-electron system (eV)
  ---------------------------------------------------
  alpha Z        PSCENC =       115.94204576
  Ewald energy   TEWEN  =      9231.00278662
  -Hartree energ DENC   =    -14572.00825974
  -exchange      EXHF   =         0.00000000
  -V(xc)+E(xc)   XCENC  =       152.67842545
  PAW double counting   =      5505.68124665    -5845.59191533
  entropy T*S    EENTRO =         0.00463604
  eigenvalues    EBANDS =        -1.40006376
  atomic energy  EATOM  =      5388.18037335
  Solvation  Ediel_sol  =         0.00000000
  ---------------------------------------------------
  free energy    TOTEN  =       -25.51072497 eV

  energy without entropy =      -25.51536100  energy(sigma->0) =      -25.51188398


--------------------------------------------------------------------------------------------------------




--------------------------------------- Iteration      1(  14)  ---------------------------------------


    POTLOK:  cpu time      0.0120: real time      0.0120
    SETDIJ:  cpu time      0.0072: real time      0.0073
    EDDIAG:  cpu time      0.0936: real time      0.0939
  RMM-DIIS:  cpu time      0.2171: real time      0.2176
    ORTHCH:  cpu time      0.0140: real time      0.0141
       DOS:  cpu time      0.0018: real time      0.0018
    CHARGE:  cpu time      0.0272: real time      0.0272
    MIXING:  cpu time      0.0007: real time      0.0007
    --------------------------------------------
      LOOP:  cpu time      0.3737: real time      0.3746

 eigenvalue-minimisations  :  2172
 total energy-change (2. order) : 0.1054262E+00  (-0.7638184E-02)
 number of electron      49.9998736 magnetization       3.7842880
 augmentation part       30.9335885 magnetization       3.3594021

 Broyden mixing:
  rms(total) = 0.16337E+00    rms(broyden)= 0.16281E+00
  rms(prec ) = 0.18192E+00
  weight for this iteration     100.00

 eigenvalues of (default mixing * dielectric matrix)
  average eigenvalue GAMMA=   0.5593
  2.1510  0.8120  0.8120  0.4701  0.2664  0.2664  0.1101  0.1055  0.0398

 Free energy of the ion-electron system (eV)
  ---------------------------------------------------
  alpha Z        PSCENC =       115.94204576
  Ewald energy   TEWEN  =      9231.00278662
  -Hartree energ DENC   =    -14572.92123496
  -exchange      EXHF   =         0.00000000
  -V(xc)+E(xc)   XCENC  =       152.56008503
  PAW double counting   =      5545.14996698    -5886.13842753
  entropy T*S    EENTRO =         0.00324865
  eigenvalues    EBANDS =         0.81585729
  atomic energy  EATOM  =      5388.18037335
  Solvation  Ediel_sol  =         0.00000000
  ---------------------------------------------------
  free energy    TOTEN  =       -25.40529881 eV

  energy without entropy =      -25.40854747  energy(sigma->0) =      -25.40611098


--------------------------------------------------------------------------------------------------------




--------------------------------------- Iteration      1(  15)  ---------------------------------------


    POTLOK:  cpu time      0.0191: real time      0.0423
    SETDIJ:  cpu time      0.0068: real time      0.0068
    EDDIAG:  cpu time      0.0979: real time      0.0982
  RMM-DIIS:  cpu time      0.2124: real time      0.2130
    ORTHCH:  cpu time      0.0132: real time      0.0133
       DOS:  cpu time      0.0015: real time      0.0016
    CHARGE:  cpu time      0.0237: real time      0.0237
    MIXING:  cpu time      0.0008: real time      0.0008
    --------------------------------------------
      LOOP:  cpu time      0.3755: real time      0.3995

 eigenvalue-minimisations  :  2168
 total energy-change (2. order) :-0.7444088E-01  (-0.1443331E-02)
 number of electron      49.9998737 magnetization       3.5995817
 augmentation part       30.9371561 magnetization       3.2512929

 Broyden mixing:
  rms(total) = 0.11567E+00    rms(broyden)= 0.11552E+00
  rms(prec ) = 0.12623E+00
  weight for this iteration     100.00

 eigenvalues of (default mixing * dielectric matrix)
  average eigenvalue GAMMA=   0.7018
  2.7391  1.5032  0.6791  0.6791  0.6237  0.2694  0.2694  0.1102  0.1052  0.0398

 Free energy of the ion-electron system (eV)
  ---------------------------------------------------
  alpha Z        PSCENC =       115.94204576
  Ewald energy   TEWEN  =      9231.00278662
  -Hartree energ DENC   =    -14574.08465225
  -exchange      EXHF   =         0.00000000
  -V(xc)+E(xc)   XCENC  =       152.50551200
  PAW double counting   =      5564.78743188    -5906.36531666
  entropy T*S    EENTRO =         0.00387192
  eigenvalues    EBANDS =         2.54820769
  atomic energy  EATOM  =      5388.18037335
  Solvation  Ediel_sol  =         0.00000000
  ---------------------------------------------------
  free energy    TOTEN  =       -25.47973970 eV

  energy without entropy =      -25.48361162  energy(sigma->0) =      -25.48070768


--------------------------------------------------------------------------------------------------------




--------------------------------------- Iteration      1(  16)  ---------------------------------------


    POTLOK:  cpu time      0.0121: real time      0.0122
    SETDIJ:  cpu time      0.0073: real time      0.0073
    EDDIAG:  cpu time      0.0926: real time      0.0929
  RMM-DIIS:  cpu time      0.2131: real time      0.2136
    ORTHCH:  cpu time      0.0139: real time      0.0139
       DOS:  cpu time      0.0016: real time      0.0016
    CHARGE:  cpu time      0.0234: real time      0.0235
    MIXING:  cpu time      0.0012: real time      0.0012
    --------------------------------------------
      LOOP:  cpu time      0.3652: real time      0.3661

 eigenvalue-minimisations  :  2165
 total energy-change (2. order) :-0.6162446E-01  (-0.1445132E-02)
 number of electron      49.9998740 magnetization       3.4502583
 augmentation part       30.9256783 magnetization       3.1836543

 Broyden mixing:
  rms(total) = 0.11863E+00    rms(broyden)= 0.11853E+00
  rms(prec ) = 0.13487E+00
  weight for this iteration     100.00

 eigenvalues of (default mixing * dielectric matrix)
  average eigenvalue GAMMA=   0.7881
  3.1989  1.8505  0.7491  0.7491  0.7119  0.6144  0.2700  0.2700  0.1102  0.1052
  0.0398

 Free energy of the ion-electron system (eV)
  ---------------------------------------------------
  alpha Z        PSCENC =       115.94204576
  Ewald energy   TEWEN  =      9231.00278662
  -Hartree energ DENC   =    -14576.47772975
  -exchange      EXHF   =         0.00000000
  -V(xc)+E(xc)   XCENC  =       152.50963771
  PAW double counting   =      5564.69782917    -5906.21413164
  entropy T*S    EENTRO =         0.00392492
  eigenvalues    EBANDS =         4.81389972
  atomic energy  EATOM  =      5388.18037335
  Solvation  Ediel_sol  =         0.00000000
  ---------------------------------------------------
  free energy    TOTEN  =       -25.54136415 eV

  energy without entropy =      -25.54528907  energy(sigma->0) =      -25.54234538


--------------------------------------------------------------------------------------------------------




--------------------------------------- Iteration      1(  17)  ---------------------------------------


    POTLOK:  cpu time      0.0120: real time      0.0121
    SETDIJ:  cpu time      0.0075: real time      0.0075
    EDDIAG:  cpu time      0.0999: real time      0.1001
  RMM-DIIS:  cpu time      0.2168: real time      0.2173
    ORTHCH:  cpu time      0.0139: real time      0.0139
       DOS:  cpu time      0.0016: real time      0.0016
    CHARGE:  cpu time      0.0243: real time      0.0244
    MIXING:  cpu time      0.0009: real time      0.0009
    --------------------------------------------
      LOOP:  cpu time      0.3770: real time      0.3780

 eigenvalue-minimisations  :  2171
 total energy-change (2. order) :-0.1409020E-01  (-0.8887005E-03)
 number of electron      49.9998736 magnetization       3.4004740
 augmentation part       30.9234801 magnetization       3.1799333

 Broyden mixing:
  rms(total) = 0.14091E+00    rms(broyden)= 0.14079E+00
  rms(prec ) = 0.16814E+00
  weight for this iteration     100.00

 eigenvalues of (default mixing * dielectric matrix)
  average eigenvalue GAMMA=   0.7943
  3.4389  1.8225  0.7755  0.7755  0.7065  0.7065  0.5122  0.2696  0.2696  0.1102
  0.1052  0.0398

 Free energy of the ion-electron system (eV)
  ---------------------------------------------------
  alpha Z        PSCENC =       115.94204576
  Ewald energy   TEWEN  =      9231.00278662
  -Hartree energ DENC   =    -14578.37354398
  -exchange      EXHF   =         0.00000000
  -V(xc)+E(xc)   XCENC  =       152.54132265
  PAW double counting   =      5557.56768973    -5898.80658693
  entropy T*S    EENTRO =         0.00497525
  eigenvalues    EBANDS =         6.38548320
  atomic energy  EATOM  =      5388.18037335
  Solvation  Ediel_sol  =         0.00000000
  ---------------------------------------------------
  free energy    TOTEN  =       -25.55545435 eV

  energy without entropy =      -25.56042960  energy(sigma->0) =      -25.55669816


--------------------------------------------------------------------------------------------------------




--------------------------------------- Iteration      1(  18)  ---------------------------------------


    POTLOK:  cpu time      0.0132: real time      0.0133
    SETDIJ:  cpu time      0.0078: real time      0.0078
    EDDIAG:  cpu time      0.0928: real time      0.0930
  RMM-DIIS:  cpu time      0.2110: real time      0.2115
    ORTHCH:  cpu time      0.0128: real time      0.0128
       DOS:  cpu time      0.0016: real time      0.0016
    CHARGE:  cpu time      0.0229: real time      0.0229
    MIXING:  cpu time      0.0010: real time      0.0010
    --------------------------------------------
      LOOP:  cpu time      0.3631: real time      0.3640

 eigenvalue-minimisations  :  2173
 total energy-change (2. order) : 0.6044359E-03  (-0.1511096E-03)
 number of electron      49.9998735 magnetization       3.2874689
 augmentation part       30.9256490 magnetization       3.0765414

 Broyden mixing:
  rms(total) = 0.12461E+00    rms(broyden)= 0.12458E+00
  rms(prec ) = 0.14905E+00
  weight for this iteration     100.00

 eigenvalues of (default mixing * dielectric matrix)
  average eigenvalue GAMMA=   0.9794
  4.8583  2.0017  1.0965  1.0965  0.8642  0.7685  0.6262  0.6262  0.2697  0.2697
  0.1102  0.1052  0.0398

 Free energy of the ion-electron system (eV)
  ---------------------------------------------------
  alpha Z        PSCENC =       115.94204576
  Ewald energy   TEWEN  =      9231.00278662
  -Hartree energ DENC   =    -14578.99453649
  -exchange      EXHF   =         0.00000000
  -V(xc)+E(xc)   XCENC  =       152.53808129
  PAW double counting   =      5557.11410190    -5898.34230525
  entropy T*S    EENTRO =         0.00492559
  eigenvalues    EBANDS =         6.99967732
  atomic energy  EATOM  =      5388.18037335
  Solvation  Ediel_sol  =         0.00000000
  ---------------------------------------------------
  free energy    TOTEN  =       -25.55484991 eV

  energy without entropy =      -25.55977551  energy(sigma->0) =      -25.55608131


--------------------------------------------------------------------------------------------------------




--------------------------------------- Iteration      1(  19)  ---------------------------------------


    POTLOK:  cpu time      0.0120: real time      0.0120
    SETDIJ:  cpu time      0.0067: real time      0.0067
    EDDIAG:  cpu time      0.0945: real time      0.0948
  RMM-DIIS:  cpu time      0.2091: real time      0.2096
    ORTHCH:  cpu time      0.0139: real time      0.0139
       DOS:  cpu time      0.0016: real time      0.0016
    CHARGE:  cpu time      0.0237: real time      0.0237
    MIXING:  cpu time      0.0012: real time      0.0012
    --------------------------------------------
      LOOP:  cpu time      0.3626: real time      0.3635

 eigenvalue-minimisations  :  2166
 total energy-change (2. order) : 0.4392372E-02  (-0.1821306E-03)
 number of electron      49.9998735 magnetization       3.2716207
 augmentation part       30.9156977 magnetization       3.0876759

 Broyden mixing:
  rms(total) = 0.36410E-01    rms(broyden)= 0.36315E-01
  rms(prec ) = 0.41381E-01
  weight for this iteration     100.00

 eigenvalues of (default mixing * dielectric matrix)
  average eigenvalue GAMMA=   0.9934
  5.3444  2.0744  1.2288  0.9459  0.9459  0.7188  0.6582  0.6582  0.5381  0.2697
  0.2697  0.1102  0.1052  0.0398

 Free energy of the ion-electron system (eV)
  ---------------------------------------------------
  alpha Z        PSCENC =       115.94204576
  Ewald energy   TEWEN  =      9231.00278662
  -Hartree energ DENC   =    -14580.81644740
  -exchange      EXHF   =         0.00000000
  -V(xc)+E(xc)   XCENC  =       152.54740528
  PAW double counting   =      5552.72174438    -5893.90310075
  entropy T*S    EENTRO =         0.00304890
  eigenvalues    EBANDS =         8.77168633
  atomic energy  EATOM  =      5388.18037335
  Solvation  Ediel_sol  =         0.00000000
  ---------------------------------------------------
  free energy    TOTEN  =       -25.55045754 eV

  energy without entropy =      -25.55350644  energy(sigma->0) =      -25.55121977


--------------------------------------------------------------------------------------------------------




--------------------------------------- Iteration      1(  20)  ---------------------------------------


    POTLOK:  cpu time      0.0128: real time      0.0128
    SETDIJ:  cpu time      0.0080: real time      0.0080
    EDDIAG:  cpu time      0.0953: real time      0.0955
  RMM-DIIS:  cpu time      0.2035: real time      0.2040
    ORTHCH:  cpu time      0.0129: real time      0.0129
       DOS:  cpu time      0.0016: real time      0.0016
    CHARGE:  cpu time      0.0223: real time      0.0223
    MIXING:  cpu time      0.0011: real time      0.0011
    --------------------------------------------
      LOOP:  cpu time      0.3573: real time      0.3582

 eigenvalue-minimisations  :  2184
 total energy-change (2. order) :-0.9541398E-03  (-0.2309416E-04)
 number of electron      49.9998736 magnetization       3.2579514
 augmentation part       30.9168055 magnetization       3.0766634

 Broyden mixing:
  rms(total) = 0.20921E-01    rms(broyden)= 0.20855E-01
  rms(prec ) = 0.23562E-01
  weight for this iteration     100.00

 eigenvalues of (default mixing * dielectric matrix)
  average eigenvalue GAMMA=   1.0438
  5.6526  2.2082  1.1483  1.1483  1.1463  0.8457  0.7583  0.7583  0.5979  0.5979
  0.2697  0.2697  0.1102  0.1052  0.0398

 Free energy of the ion-electron system (eV)
  ---------------------------------------------------
  alpha Z        PSCENC =       115.94204576
  Ewald energy   TEWEN  =      9231.00278662
  -Hartree energ DENC   =    -14580.96012958
  -exchange      EXHF   =         0.00000000
  -V(xc)+E(xc)   XCENC  =       152.54574447
  PAW double counting   =      5550.83243915    -5891.94907563
  entropy T*S    EENTRO =         0.00282160
  eigenvalues    EBANDS =         8.85158257
  atomic energy  EATOM  =      5388.18037335
  Solvation  Ediel_sol  =         0.00000000
  ---------------------------------------------------
  free energy    TOTEN  =       -25.55141168 eV

  energy without entropy =      -25.55423328  energy(sigma->0) =      -25.55211708


--------------------------------------------------------------------------------------------------------




--------------------------------------- Iteration      1(  21)  ---------------------------------------


    POTLOK:  cpu time      0.0119: real time      0.0120
    SETDIJ:  cpu time      0.0069: real time      0.0069
    EDDIAG:  cpu time      0.0912: real time      0.0914
  RMM-DIIS:  cpu time      0.1963: real time      0.1967
    ORTHCH:  cpu time      0.0131: real time      0.0131
       DOS:  cpu time      0.0015: real time      0.0015
    CHARGE:  cpu time      0.0218: real time      0.0219
    MIXING:  cpu time      0.0010: real time      0.0010
    --------------------------------------------
      LOOP:  cpu time      0.3437: real time      0.3445

 eigenvalue-minimisations  :  2166
 total energy-change (2. order) :-0.2137461E-02  (-0.1800335E-04)
 number of electron      49.9998737 magnetization       3.2430562
 augmentation part       30.9135834 magnetization       3.0654363

 Broyden mixing:
  rms(total) = 0.14668E-01    rms(broyden)= 0.14638E-01
  rms(prec ) = 0.16831E-01
  weight for this iteration     100.00

 eigenvalues of (default mixing * dielectric matrix)
  average eigenvalue GAMMA=   1.0821
  6.0520  2.2559  1.3627  1.1765  1.1765  0.9277  0.9277  0.7226  0.7226  0.6206
  0.5750  0.2697  0.2697  0.1102  0.1052  0.0398

 Free energy of the ion-electron system (eV)
  ---------------------------------------------------
  alpha Z        PSCENC =       115.94204576
  Ewald energy   TEWEN  =      9231.00278662
  -Hartree energ DENC   =    -14581.09435715
  -exchange      EXHF   =         0.00000000
  -V(xc)+E(xc)   XCENC  =       152.54978631
  PAW double counting   =      5548.58652335    -5889.65220580
  entropy T*S    EENTRO =         0.00283665
  eigenvalues    EBANDS =         8.92866178
  atomic energy  EATOM  =      5388.18037335
  Solvation  Ediel_sol  =         0.00000000
  ---------------------------------------------------
  free energy    TOTEN  =       -25.55354914 eV

  energy without entropy =      -25.55638579  energy(sigma->0) =      -25.55425830


--------------------------------------------------------------------------------------------------------




--------------------------------------- Iteration      1(  22)  ---------------------------------------


    POTLOK:  cpu time      0.0117: real time      0.0117
    SETDIJ:  cpu time      0.0071: real time      0.0071
    EDDIAG:  cpu time      0.0898: real time      0.0900
  RMM-DIIS:  cpu time      0.2020: real time      0.2025
    ORTHCH:  cpu time      0.0131: real time      0.0131
       DOS:  cpu time      0.0016: real time      0.0016
    CHARGE:  cpu time      0.0231: real time      0.0231
    MIXING:  cpu time      0.0010: real time      0.0010
    --------------------------------------------
      LOOP:  cpu time      0.3492: real time      0.3501

 eigenvalue-minimisations  :  2178
 total energy-change (2. order) :-0.1766242E-02  (-0.1019586E-04)
 number of electron      49.9998737 magnetization       3.2345996
 augmentation part       30.9156364 magnetization       3.0597798

 Broyden mixing:
  rms(total) = 0.91274E-02    rms(broyden)= 0.91126E-02
  rms(prec ) = 0.10225E-01
  weight for this iteration     100.00

 eigenvalues of (default mixing * dielectric matrix)
  average eigenvalue GAMMA=   1.1082
  6.3257  2.2748  1.8631  1.1250  1.1250  1.0182  1.0182  0.7101  0.7101  0.7073
  0.5838  0.5838  0.2697  0.2697  0.1102  0.1052  0.0398

 Free energy of the ion-electron system (eV)
  ---------------------------------------------------
  alpha Z        PSCENC =       115.94204576
  Ewald energy   TEWEN  =      9231.00278662
  -Hartree energ DENC   =    -14581.06544641
  -exchange      EXHF   =         0.00000000
  -V(xc)+E(xc)   XCENC  =       152.54519824
  PAW double counting   =      5547.71928370    -5888.77849164
  entropy T*S    EENTRO =         0.00274906
  eigenvalues    EBANDS =         8.89618593
  atomic energy  EATOM  =      5388.18037335
  Solvation  Ediel_sol  =         0.00000000
  ---------------------------------------------------
  free energy    TOTEN  =       -25.55531539 eV

  energy without entropy =      -25.55806445  energy(sigma->0) =      -25.55600265


--------------------------------------------------------------------------------------------------------




--------------------------------------- Iteration      1(  23)  ---------------------------------------


    POTLOK:  cpu time      0.0111: real time      0.0112
    SETDIJ:  cpu time      0.0063: real time      0.0063
    EDDIAG:  cpu time      0.0840: real time      0.0842
  RMM-DIIS:  cpu time      0.1908: real time      0.1913
    ORTHCH:  cpu time      0.0126: real time      0.0127
       DOS:  cpu time      0.0014: real time      0.0014
    CHARGE:  cpu time      0.0205: real time      0.0205
    MIXING:  cpu time      0.0010: real time      0.0010
    --------------------------------------------
      LOOP:  cpu time      0.3276: real time      0.3284

 eigenvalue-minimisations  :  2174
 total energy-change (2. order) :-0.5122211E-03  (-0.3115323E-05)
 number of electron      49.9998736 magnetization       3.2260939
 augmentation part       30.9166343 magnetization       3.0524472

 Broyden mixing:
  rms(total) = 0.51779E-02    rms(broyden)= 0.51658E-02
  rms(prec ) = 0.59184E-02
  weight for this iteration     100.00

 eigenvalues of (default mixing * dielectric matrix)
  average eigenvalue GAMMA=   1.1533
  6.6225  2.2804  2.2804  1.1965  1.1965  1.0746  1.0746  0.7684  0.7684  0.7615
  0.7615  0.5894  0.5894  0.2697  0.2697  0.1102  0.1052  0.0398

 Free energy of the ion-electron system (eV)
  ---------------------------------------------------
  alpha Z        PSCENC =       115.94204576
  Ewald energy   TEWEN  =      9231.00278662
  -Hartree energ DENC   =    -14581.01665866
  -exchange      EXHF   =         0.00000000
  -V(xc)+E(xc)   XCENC  =       152.54171037
  PAW double counting   =      5547.59769282    -5888.66872350
  entropy T*S    EENTRO =         0.00272438
  eigenvalues    EBANDS =         8.86222126
  atomic energy  EATOM  =      5388.18037335
  Solvation  Ediel_sol  =         0.00000000
  ---------------------------------------------------
  free energy    TOTEN  =       -25.55582761 eV

  energy without entropy =      -25.55855198  energy(sigma->0) =      -25.55650870


--------------------------------------------------------------------------------------------------------




--------------------------------------- Iteration      1(  24)  ---------------------------------------


    POTLOK:  cpu time      0.0109: real time      0.0110
    SETDIJ:  cpu time      0.0064: real time      0.0064
    EDDIAG:  cpu time      0.0845: real time      0.0847
  RMM-DIIS:  cpu time      0.1821: real time      0.1825
    ORTHCH:  cpu time      0.0122: real time      0.0123
       DOS:  cpu time      0.0014: real time      0.0014
    CHARGE:  cpu time      0.0207: real time      0.0208
    MIXING:  cpu time      0.0010: real time      0.0010
    --------------------------------------------
      LOOP:  cpu time      0.3192: real time      0.3200

 eigenvalue-minimisations  :  2115
 total energy-change (2. order) :-0.2976372E-03  (-0.2325260E-05)
 number of electron      49.9998736 magnetization       3.2248036
 augmentation part       30.9170325 magnetization       3.0527378

 Broyden mixing:
  rms(total) = 0.39392E-02    rms(broyden)= 0.39355E-02
  rms(prec ) = 0.48841E-02
  weight for this iteration     100.00

 eigenvalues of (default mixing * dielectric matrix)
  average eigenvalue GAMMA=   1.1544
  6.6914  2.6053  2.1609  1.0949  1.0949  1.1301  1.1301  0.9761  0.9761  0.7132
  0.7132  0.6796  0.5868  0.5868  0.2697  0.2697  0.1102  0.1052  0.0398

 Free energy of the ion-electron system (eV)
  ---------------------------------------------------
  alpha Z        PSCENC =       115.94204576
  Ewald energy   TEWEN  =      9231.00278662
  -Hartree energ DENC   =    -14580.99887627
  -exchange      EXHF   =         0.00000000
  -V(xc)+E(xc)   XCENC  =       152.53978235
  PAW double counting   =      5547.38399099    -5888.46149397
  entropy T*S    EENTRO =         0.00265006
  eigenvalues    EBANDS =         8.85261587
  atomic energy  EATOM  =      5388.18037335
  Solvation  Ediel_sol  =         0.00000000
  ---------------------------------------------------
  free energy    TOTEN  =       -25.55612524 eV

  energy without entropy =      -25.55877531  energy(sigma->0) =      -25.55678776


--------------------------------------------------------------------------------------------------------




--------------------------------------- Iteration      1(  25)  ---------------------------------------


    POTLOK:  cpu time      0.0119: real time      0.0120
    SETDIJ:  cpu time      0.0069: real time      0.0069
    EDDIAG:  cpu time      0.0864: real time      0.0866
  RMM-DIIS:  cpu time      0.1752: real time      0.1756
    ORTHCH:  cpu time      0.0135: real time      0.0135
       DOS:  cpu time      0.0017: real time      0.0017
    CHARGE:  cpu time      0.0236: real time      0.0236
    MIXING:  cpu time      0.0013: real time      0.0013
    --------------------------------------------
      LOOP:  cpu time      0.3205: real time      0.3213

 eigenvalue-minimisations  :  1881
 total energy-change (2. order) :-0.1978652E-03  (-0.7347963E-06)
 number of electron      49.9998737 magnetization       3.2239803
 augmentation part       30.9171057 magnetization       3.0522670

 Broyden mixing:
  rms(total) = 0.13629E-02    rms(broyden)= 0.13545E-02
  rms(prec ) = 0.17027E-02
  weight for this iteration     100.00

 eigenvalues of (default mixing * dielectric matrix)
  average eigenvalue GAMMA=   1.1718
  6.7220  2.8051  2.2330  1.1039  1.1039  1.1418  1.1418  1.2363  1.0604  0.7906
  0.7328  0.7328  0.6645  0.5862  0.5862  0.2697  0.2697  0.1102  0.1052  0.0398

 Free energy of the ion-electron system (eV)
  ---------------------------------------------------
  alpha Z        PSCENC =       115.94204576
  Ewald energy   TEWEN  =      9231.00278662
  -Hartree energ DENC   =    -14580.93740795
  -exchange      EXHF   =         0.00000000
  -V(xc)+E(xc)   XCENC  =       152.53943862
  PAW double counting   =      5547.22990356    -5888.30500326
  entropy T*S    EENTRO =         0.00268936
  eigenvalues    EBANDS =         8.78885084
  atomic energy  EATOM  =      5388.18037335
  Solvation  Ediel_sol  =         0.00000000
  ---------------------------------------------------
  free energy    TOTEN  =       -25.55632311 eV

  energy without entropy =      -25.55901247  energy(sigma->0) =      -25.55699545


--------------------------------------------------------------------------------------------------------




--------------------------------------- Iteration      1(  26)  ---------------------------------------


    POTLOK:  cpu time      0.0120: real time      0.0120
    SETDIJ:  cpu time      0.0073: real time      0.0073
    EDDIAG:  cpu time      0.0909: real time      0.0912
  RMM-DIIS:  cpu time      0.1362: real time      0.1365
    ORTHCH:  cpu time      0.0117: real time      0.0117
       DOS:  cpu time      0.0014: real time      0.0014
    CHARGE:  cpu time      0.0204: real time      0.0204
    MIXING:  cpu time      0.0011: real time      0.0011
    --------------------------------------------
      LOOP:  cpu time      0.2810: real time      0.2817

 eigenvalue-minimisations  :  1509
 total energy-change (2. order) :-0.1383010E-03  (-0.3485720E-06)
 number of electron      49.9998737 magnetization       3.2222991
 augmentation part       30.9173950 magnetization       3.0508980

 Broyden mixing:
  rms(total) = 0.10753E-02    rms(broyden)= 0.10721E-02
  rms(prec ) = 0.12013E-02
  weight for this iteration     100.00

 eigenvalues of (default mixing * dielectric matrix)
  average eigenvalue GAMMA=   1.1876
  6.7919  3.0542  2.1067  1.1064  1.1064  1.3185  1.2564  1.2564  1.0771  1.0771
  0.7354  0.7354  0.7147  0.6441  0.5827  0.5827  0.2697  0.2697  0.1102  0.1052
  0.0398

 Free energy of the ion-electron system (eV)
  ---------------------------------------------------
  alpha Z        PSCENC =       115.94204576
  Ewald energy   TEWEN  =      9231.00278662
  -Hartree energ DENC   =    -14580.87943116
  -exchange      EXHF   =         0.00000000
  -V(xc)+E(xc)   XCENC  =       152.53889588
  PAW double counting   =      5547.20865832    -5888.28502533
  entropy T*S    EENTRO =         0.00269570
  eigenvalues    EBANDS =         8.73253946
  atomic energy  EATOM  =      5388.18037335
  Solvation  Ediel_sol  =         0.00000000
  ---------------------------------------------------
  free energy    TOTEN  =       -25.55646141 eV

  energy without entropy =      -25.55915711  energy(sigma->0) =      -25.55713533


--------------------------------------------------------------------------------------------------------




--------------------------------------- Iteration      1(  27)  ---------------------------------------


    POTLOK:  cpu time      0.0107: real time      0.0107
    SETDIJ:  cpu time      0.0060: real time      0.0060
    EDDIAG:  cpu time      0.0832: real time      0.0834
  RMM-DIIS:  cpu time      0.1299: real time      0.1302
    ORTHCH:  cpu time      0.0131: real time      0.0131
       DOS:  cpu time      0.0015: real time      0.0015
    CHARGE:  cpu time      0.0233: real time      0.0234
    MIXING:  cpu time      0.0013: real time      0.0013
    --------------------------------------------
      LOOP:  cpu time      0.2691: real time      0.2698

 eigenvalue-minimisations  :  1423
 total energy-change (2. order) :-0.8937992E-04  (-0.2081768E-06)
 number of electron      49.9998737 magnetization       3.2217711
 augmentation part       30.9171792 magnetization       3.0506605

 Broyden mixing:
  rms(total) = 0.91110E-03    rms(broyden)= 0.91005E-03
  rms(prec ) = 0.11453E-02
  weight for this iteration     100.00

 eigenvalues of (default mixing * dielectric matrix)
  average eigenvalue GAMMA=   1.2285
  6.8372  3.4311  2.1430  2.1430  1.4707  1.1222  1.1222  1.1068  1.1068  0.9008
  0.9008  0.7333  0.7333  0.2697  0.2697  0.6603  0.6603  0.5803  0.5803  0.1102
  0.1052  0.0398

 Free energy of the ion-electron system (eV)
  ---------------------------------------------------
  alpha Z        PSCENC =       115.94204576
  Ewald energy   TEWEN  =      9231.00278662
  -Hartree energ DENC   =    -14580.85909753
  -exchange      EXHF   =         0.00000000
  -V(xc)+E(xc)   XCENC  =       152.53886932
  PAW double counting   =      5547.10794654    -5888.18446476
  entropy T*S    EENTRO =         0.00269075
  eigenvalues    EBANDS =         8.71229917
  atomic energy  EATOM  =      5388.18037335
  Solvation  Ediel_sol  =         0.00000000
  ---------------------------------------------------
  free energy    TOTEN  =       -25.55655079 eV

  energy without entropy =      -25.55924154  energy(sigma->0) =      -25.55722348


--------------------------------------------------------------------------------------------------------




[...]
     27       2.7458      0.00235
     28       3.7996      0.00000
     29       5.4400      0.00000
     30       7.4241      0.00000
     31       8.6111      0.00000
     32       9.2246      0.00000
     33      10.0491      0.00000
     34      10.6233      0.00000
     35      11.4949      0.00000
     36      12.3382      0.00000

 k-point    12 :       0.4444    0.2222    0.0000
  band No.  band energies     occupation 
      1      -1.8195      1.00000
      2      -1.4079      1.00000
      3      -1.2226      1.00000
      4      -1.0376      1.00000
      5      -0.9187      1.00000
      6      -0.5144      1.00000
      7      -0.4123      1.00000
      8      -0.2689      1.00000
      9      -0.0190      1.00000
     10       0.1124      1.00000
     11       0.3549      1.00000
     12       0.4499      1.00000
     13       0.5566      1.00000
     14       1.1641      1.00000
     15       1.1729      1.00000
     16       1.1995      1.00000
     17       1.2837      1.00000
     18       1.4241      1.00000
     19       1.6884      0.99937
     20       1.9158      1.00034
     21       2.0155      1.03841
     22       2.0998      1.03662
     23       2.3330      0.12911
     24       2.4347     -0.05050
     25       2.4541     -0.05107
     26       3.3476      0.00000
     27       3.9708      0.00000
     28       5.0389      0.00000
     29       5.4726      0.00000
     30       5.8957      0.00000
     31       7.8445      0.00000
     32       8.1920      0.00000
     33       9.9893      0.00000
     34      10.3877      0.00000
     35      11.8080      0.00000
     36      12.4094      0.00000

 k-point    13 :       0.3333    0.3333    0.0000
  band No.  band energies     occupation 
      1      -2.1616      1.00000
      2      -1.4116      1.00000
      3      -1.1521      1.00000
      4      -0.8431      1.00000
      5      -0.7918      1.00000
      6      -0.7435      1.00000
      7      -0.5792      1.00000
      8      -0.3925      1.00000
      9      -0.1474      1.00000
     10       0.1099      1.00000
     11       0.1115      1.00000
     12       0.5384      1.00000
     13       0.6288      1.00000
     14       1.5203      0.99999
     15       1.5526      0.99998
     16       1.5887      0.99994
     17       1.6278      0.99984
     18       1.6406      0.99978
     19       1.7859      0.99681
     20       1.9275      1.00288
     21       1.9614      1.01371
     22       2.0442      1.04915
     23       2.0504      1.05050
     24       2.3156      0.19731
     25       2.3518      0.06781
     26       2.5542     -0.01088
     27       3.5203      0.00000
     28       4.9732      0.00000
     29       6.8468      0.00000
     30       8.2957      0.00000
     31       8.9775      0.00000
     32       9.7218      0.00000
     33      10.9151      0.00000
     34      11.7608      0.00000
     35      11.9525      0.00000
     36      12.4179      0.00000

 k-point    14 :       0.4444    0.3333    0.0000
  band No.  band energies     occupation 
      1      -1.7301      1.00000
      2      -1.4412      1.00000
      3      -1.1500      1.00000
      4      -0.9845      1.00000
      5      -0.9166      1.00000
      6      -0.7791      1.00000
      7      -0.7449      1.00000
      8      -0.4776      1.00000
      9      -0.3487      1.00000
     10      -0.0556      1.00000
     11       0.3263      1.00000
     12       0.8078      1.00000
     13       0.9621      1.00000
     14       1.5686      0.99997
     15       1.6047      0.99991
     16       1.7702      0.99738
     17       1.8164      0.99570
     18       1.8871      0.99646
     19       1.9054      0.99859
     20       2.0372      1.04711
     21       2.1538      0.93935
     22       2.3103      0.22002
     23       2.3502      0.07232
     24       2.4519     -0.05132
     25       2.6018      0.00128
     26       3.7914      0.00000
     27       5.0452      0.00000
     28       6.0859      0.00000
     29       6.6645      0.00000
     30       7.3146      0.00000
     31       8.8562      0.00000
     32       9.3142      0.00000
     33      11.0522      0.00000
     34      11.4979      0.00000
     35      12.9898      0.00000
     36      13.2223      0.00000

 k-point    15 :       0.4444    0.4444    0.0000
  band No.  band energies     occupation 
      1      -1.7724      1.00000
      2      -1.6693      1.00000
      3      -1.2813      1.00000
      4      -1.0975      1.00000
      5      -1.0886      1.00000
      6      -0.9072      1.00000
      7      -0.6750      1.00000
      8      -0.6104      1.00000
      9      -0.5965      1.00000
     10       0.1559      1.00000
     11       0.1980      1.00000
     12       1.1693      1.00000
     13       1.2133      1.00000
     14       1.7315      0.99856
     15       1.7974      0.99637
     16       2.0821      1.04783
     17       2.1472      0.95709
     18       2.2081      0.73353
     19       2.2295      0.62830
     20       2.3050      0.24346
     21       2.3664      0.02936
     22       2.4701     -0.04738
     23       2.5181     -0.02630
     24       2.7226      0.00318
     25       2.7823      0.00130
     26       4.7481      0.00000
     27       5.9572      0.00000
     28       6.4445      0.00000
     29       7.7108      0.00000
     30       8.4861      0.00000
     31      10.0357      0.00000
     32      10.6387      0.00000
     33      11.8014      0.00000
     34      12.4077      0.00000
     35      12.6338      0.00000
     36      12.7130      0.00000


--------------------------------------------------------------------------------------------------------


 soft charge-density along one line, spin component           1
         0         1         2         3         4         5         6         7         8         9
 total charge-density along one line
 
 soft charge-density along one line, spin component           2
         0         1         2         3         4         5         6         7         8         9
 total charge-density along one line
 
 pseudopotential strength for first ion, spin component:           1
 -5.502   0.000   0.000  -0.000  -0.000  -5.973   0.000   0.000
  0.000  -5.442   0.000   0.000   0.000   0.000  -5.916   0.000
  0.000   0.000  -5.309   0.000   0.000   0.000   0.000  -5.789
 -0.000   0.000   0.000  -5.442  -0.000  -0.000   0.000   0.000
 -0.000   0.000   0.000  -0.000  -5.474  -0.000   0.000   0.000
 -5.973   0.000   0.000  -0.000  -0.000  -6.382   0.000   0.000
  0.000  -5.916   0.000   0.000   0.000   0.000  -6.328   0.000
  0.000   0.000  -5.789   0.000   0.000   0.000   0.000  -6.206
 -0.000   0.000   0.000  -5.916  -0.000  -0.000   0.000   0.000
 -0.000   0.000   0.000  -0.000  -5.947  -0.000   0.000   0.000
  0.000   0.000  -0.018  -0.000   0.000   0.000   0.000  -0.017
  0.000   0.000  -0.031  -0.000   0.000   0.000   0.000  -0.030
 -0.000  -0.013   0.000   0.000   0.000  -0.000  -0.012   0.000
  0.000  -0.000  -0.013  -0.000  -0.000   0.000  -0.000  -0.012
 -0.000   0.000   0.000  -0.013  -0.000  -0.000   0.000   0.000
 -0.000  -0.013   0.000   0.000   0.000  -0.000  -0.011   0.000
  0.000  -0.000  -0.012  -0.000   0.000   0.000  -0.000  -0.011
 -0.000   0.000   0.000  -0.013  -0.000  -0.000   0.000   0.000
 pseudopotential strength for first ion, spin component:           2
 -4.862   0.000   0.000  -0.000  -0.000  -5.363   0.000   0.000
  0.000  -4.762   0.000   0.000   0.000   0.000  -5.268   0.000
  0.000   0.000  -4.790  -0.000   0.000   0.000   0.000  -5.295
 -0.000   0.000  -0.000  -4.762  -0.000  -0.000   0.000  -0.000
 -0.000   0.000   0.000  -0.000  -4.839  -0.000   0.000   0.000
 -5.363   0.000   0.000  -0.000  -0.000  -5.801   0.000   0.000
  0.000  -5.268   0.000   0.000   0.000   0.000  -5.709   0.000
  0.000   0.000  -5.295  -0.000   0.000   0.000   0.000  -5.736
 -0.000   0.000  -0.000  -5.268  -0.000  -0.000   0.000  -0.000
 -0.000   0.000   0.000  -0.000  -5.341  -0.000   0.000   0.000
  0.000   0.000  -0.010  -0.000   0.000   0.000   0.000  -0.010
  0.000   0.000  -0.018  -0.000   0.000   0.000   0.000  -0.017
 -0.000  -0.014   0.000  -0.000   0.000  -0.000  -0.013   0.000
 -0.000  -0.000  -0.015  -0.000  -0.000  -0.000  -0.000  -0.014
 -0.000  -0.000   0.000  -0.014  -0.000  -0.000  -0.000   0.000
 -0.000  -0.014   0.000  -0.000   0.000  -0.000  -0.013   0.000
 -0.000  -0.000  -0.016  -0.000   0.000  -0.000  -0.000  -0.015
 -0.000  -0.000   0.000  -0.014  -0.000  -0.000  -0.000   0.000
 total augmentation occupancy for first ion, spin component:           1
  2.208  -0.000   0.000   0.000  -0.000  -0.740   0.000   0.000   0.000  -0.000   0.000   0.000   0.000   0.000  -0.000  -0.000
  0.000   2.507   0.000   0.000   0.000   0.000  -0.806   0.000   0.000  -0.000   0.000   0.000  -0.215   0.000   0.000   0.007
  0.000   0.000   3.051   0.000  -0.000   0.000   0.000  -1.069   0.000   0.000   0.292   0.002   0.000  -0.120  -0.000   0.000
  0.000   0.000  -0.000   2.507  -0.000   0.000   0.000  -0.000  -0.806   0.000   0.000   0.000   0.000   0.000  -0.215   0.000
  0.000   0.000  -0.000  -0.000   2.923  -0.000   0.000   0.000  -0.000  -1.088   0.000   0.000   0.000   0.000   0.000  -0.000
 -0.740   0.000   0.000   0.000  -0.000   0.994  -0.000   0.000   0.000  -0.000   0.000   0.000  -0.000   0.000  -0.000  -0.000
 -0.000  -0.806   0.000   0.000   0.000  -0.000   0.840   0.000   0.000   0.000  -0.000   0.000   0.243   0.000   0.000  -0.025
  0.000   0.000  -1.069  -0.000   0.000   0.000   0.000   0.940   0.000  -0.000  -0.317   0.019   0.000   0.180   0.000   0.000
 -0.000   0.000   0.000  -0.806   0.000   0.000   0.000  -0.000   0.840  -0.000  -0.000   0.000   0.000   0.000   0.243   0.000
  0.000   0.000   0.000   0.000  -1.088  -0.000   0.000  -0.000   0.000   1.014   0.000   0.000   0.000  -0.000   0.000   0.000
  0.000   0.000   0.292  -0.000   0.000   0.000   0.000  -0.317   0.000   0.000   1.946  -0.221   0.000   0.234   0.000  -0.000
  0.000   0.000   0.002   0.000   0.000   0.000  -0.000   0.019   0.000   0.000  -0.221   0.034   0.000  -0.042   0.000   0.000
  0.000  -0.215   0.000   0.000  -0.000   0.000   0.243   0.000   0.000   0.000   0.000   0.000   0.223   0.000   0.000  -0.021
  0.000   0.000  -0.120   0.000   0.000   0.000   0.000   0.180   0.000  -0.000   0.234  -0.042   0.000   0.145   0.000   0.000
 -0.000   0.000   0.000  -0.215   0.000  -0.000   0.000   0.000   0.243   0.000   0.000   0.000   0.000   0.000   0.223   0.000
 -0.000   0.007   0.000   0.000  -0.000   0.000  -0.025   0.000   0.000   0.000   0.000   0.000  -0.021   0.000   0.000   0.002
  0.000   0.000  -0.010  -0.000   0.000   0.000   0.000  -0.014   0.000   0.000  -0.043   0.006   0.000  -0.017  -0.000   0.000
 -0.000   0.000   0.000   0.007   0.000   0.000   0.000   0.000  -0.025  -0.000   0.000   0.000   0.000   0.000  -0.021   0.000
 total augmentation occupancy for first ion, spin component:           2
  0.900  -0.000   0.000  -0.000   0.000  -0.427   0.000   0.000   0.000   0.000   0.000   0.000   0.000   0.000   0.000   0.000
  0.000   0.896   0.000   0.000   0.000  -0.000  -0.401   0.000   0.000   0.000   0.000   0.000   0.006   0.000   0.000  -0.005
  0.000   0.000   0.459   0.000  -0.000   0.000  -0.000  -0.209   0.000   0.000   0.014   0.011   0.000  -0.003  -0.000   0.000
  0.000   0.000   0.000   0.896   0.000  -0.000   0.000   0.000  -0.401   0.000   0.000   0.000   0.000   0.000   0.006   0.000
  0.000   0.000  -0.000   0.000   0.800   0.000  -0.000   0.000   0.000  -0.365   0.000   0.000   0.000   0.000  -0.000   0.000
 -0.427  -0.000   0.000  -0.000   0.000   0.117   0.000   0.000   0.000  -0.000   0.000   0.000   0.000   0.000   0.000   0.000
  0.000  -0.401  -0.000   0.000   0.000   0.000   0.102   0.000   0.000   0.000   0.000   0.000  -0.009   0.000   0.000   0.004
  0.000   0.000  -0.209  -0.000   0.000   0.000  -0.000   0.038  -0.000  -0.000   0.001  -0.008   0.000  -0.006   0.000   0.000
  0.000   0.000   0.000  -0.401   0.000   0.000   0.000   0.000   0.102  -0.000   0.000   0.000   0.000   0.000  -0.009   0.000
  0.000   0.000   0.000   0.000  -0.365  -0.000   0.000  -0.000  -0.000   0.094   0.000   0.000   0.000   0.000   0.000   0.000
  0.000   0.000   0.014   0.000   0.000   0.000   0.000   0.001   0.000   0.000  -0.113   0.039   0.000  -0.011   0.000   0.000
  0.000   0.000   0.011  -0.000   0.000   0.000   0.000  -0.008   0.000   0.000   0.039  -0.006   0.000   0.004   0.000   0.000
  0.000   0.006   0.000   0.000   0.000   0.000  -0.009   0.000   0.000  -0.000   0.000   0.000  -0.014   0.000   0.000   0.002
  0.000   0.000  -0.003   0.000   0.000   0.000   0.000  -0.006   0.000   0.000  -0.011   0.004   0.000  -0.010  -0.000   0.000
  0.000   0.000   0.000   0.006   0.000  -0.000   0.000   0.000  -0.009   0.000   0.000   0.000   0.000   0.000  -0.014   0.000
  0.000  -0.005   0.000   0.000   0.000   0.000   0.004  -0.000   0.000   0.000   0.000   0.000   0.002   0.000   0.000  -0.000
  0.000   0.000  -0.005  -0.000   0.000   0.000   0.000   0.003   0.000  -0.000   0.002  -0.001   0.000   0.001  -0.000  -0.000
 -0.000   0.000   0.000  -0.005   0.000   0.000   0.000  -0.000   0.004   0.000  -0.000   0.000   0.000  -0.000   0.002   0.000


------------------------ aborting loop because EDIFF is reached ----------------------------------------


    CHARGE:  cpu time      0.0244: real time      0.0245
    FORLOC:  cpu time      0.0006: real time      0.0006
    FORNL :  cpu time      0.1365: real time      0.1368
    STRESS:  cpu time      0.2119: real time      0.2124
    FORCOR:  cpu time      0.0119: real time      0.0119
    FORHAR:  cpu time      0.0016: real time      0.0016
    MIXING:  cpu time      0.0006: real time      0.0006
    OFIELD:  cpu time      0.0000: real time      0.0000

  FORCE on cell =-STRESS in cart. coord.  units (eV):
  Direction    XX          YY          ZZ          XY          YZ          ZX
  --------------------------------------------------------------------------------------
  Alpha Z   115.94205   115.94205   115.94205
  Ewald   12520.52130 12520.52130-15587.95298     0.00000    -0.00000     0.00000
  Hartree 14017.49850 14017.49850-13233.61193    -0.00000    -0.00000     0.00000
  E(xc)    -274.36546  -274.36546  -274.89310     0.00000     0.00000    -0.00000
  Local  -27605.33610-27605.33610 27749.18412     0.00000     0.00000    -0.00000
  n-local   -44.63113   -46.16100   -46.71961   -14.17753     0.00000    -0.00000
  augment   879.59433   879.59433   884.11146     0.00000    -0.00000     0.00000
  Kinetic   381.94928   393.56274   391.69578     7.97712    -0.00000     0.00000
  Fock        0.00000     0.00000     0.00000     0.00000     0.00000     0.00000
  -------------------------------------------------------------------------------------
  Total      -3.78543    -3.78543    -2.24422     0.00000     0.00000    -0.00000
  in kB     -55.15207   -55.15207   -32.69726     0.00000     0.00000    -0.00000
  external pressure =      -47.67 kB  Pullay stress =        0.00 kB


 VOLUME and BASIS-vectors are now :
 -----------------------------------------------------------------------------
  energy-cutoff  :      270.00
  volume of cell :      109.97
      direct lattice vectors                 reciprocal lattice vectors
     1.765000000  1.765000000  0.000000000     0.283286119  0.283286119  0.000000000
    -1.765000000  1.765000000  0.000000000    -0.283286119  0.283286119  0.000000000
     0.000000000  0.000000000 17.650000000     0.000000000  0.000000000  0.056657224

  length of vectors
     2.496086938  2.496086938 17.650000000     0.400627071  0.400627071  0.056657224


 FORCES acting on ions
    electron-ion (+dipol)            ewald-force                    non-local-force                 convergence-correction
 -----------------------------------------------------------------------------------------------
   -.124E-13 0.760E-13 0.286E+04   0.910E-14 0.238E-14 -.286E+04   -.453E-25 -.323E-25 -.248E+01   0.570E-13 0.400E-13 0.355E-02
   0.501E-13 -.218E-12 0.147E+04   -.119E-13 -.189E-13 -.147E+04   -.232E-24 -.181E-24 -.146E+00   0.829E-14 -.146E-12 0.164E-02
   0.248E-13 0.804E-13 0.131E+02   0.420E-14 0.935E-14 -.131E+02   0.417E-24 0.410E-24 0.447E-01   0.883E-14 0.496E-13 -.110E-01
   0.131E-12 -.383E-12 -.145E+04   -.107E-13 -.133E-13 0.145E+04   0.244E-26 0.411E-24 0.819E-01   0.597E-14 -.969E-13 -.851E-02
   0.678E-13 0.825E-13 -.289E+04   0.918E-14 -.713E-14 0.289E+04   0.154E-26 -.154E-26 0.235E+01   -.132E-13 0.803E-13 0.749E-02
 -----------------------------------------------------------------------------------------------
   0.262E-12 -.361E-12 0.141E+00   -.934E-16 -.275E-13 0.000E+00   0.143E-24 0.607E-24 -.154E+00   0.669E-13 -.733E-13 -.681E-02
 
 
 POSITION                                       TOTAL-FORCE (eV/Angst)
 -----------------------------------------------------------------------------------
      0.00000      0.00000      0.00000        -0.000000      0.000000      0.425910
      0.00000      1.76500      1.76500         0.000000     -0.000000     -0.402950
      0.00000      0.00000      3.53000        -0.000000     -0.000000     -0.023012
      0.00000      1.76500      5.29871         0.000000      0.000000     -0.001055
      0.00000      0.00000      6.98070        -0.000000     -0.000000      0.001106
 -----------------------------------------------------------------------------------
    total drift:                                0.000000     -0.000000     -0.019988


--------------------------------------------------------------------------------------------------------



  FREE ENERGIE OF THE ION-ELECTRON SYSTEM (eV)
  ---------------------------------------------------
  free  energy   TOTEN  =       -25.57473031 eV

  energy  without entropy=      -25.57715728  energy(sigma->0) =      -25.57533705
 
 d Force = 0.6467754E-04[-0.553E-05, 0.135E-03]  d Energy = 0.7767143E-04-0.130E-04
 d Force =-0.1056090E+02[-0.106E+02,-0.106E+02]  d Ewald  =-0.1056091E+02 0.360E-05


--------------------------------------------------------------------------------------------------------


    POTLOK:  cpu time      0.0205: real time      0.0205


--------------------------------------------------------------------------------------------------------


 Quasi-Newton relaxation of ions (Broydens 2nd method)
  g(Force)  = 0.180E-06   g(Stress)= 0.000E+00

 retain information from N=  2 steps
 eigenvalues of (default step * inverse Hessian matrix)
  average eigenvalue of G=   3.4481
 eigenvalue spectrum of G is  5.6874  1.2088


--------------------------------------------------------------------------------------------------------


  
 reached required accuracy - stopping structural energy minimisation
 writing wavefunctions
     LOOP+:  cpu time      4.0644: real time      4.1211
    4ORBIT:  cpu time      0.0000: real time      0.0000

 total amount of memory used by VASP MPI-rank0    40124. kBytes
=======================================================================

   base      :      30000. kBytes
   nonl-proj :       2535. kBytes
   fftplans  :        520. kBytes
   grid      :       1627. kBytes
   one-center:        155. kBytes
   wavefun   :       5287. kBytes
 
  
  
 General timing and accounting informations for this job:
 ========================================================
  
                  Total CPU time used (sec):       35.908
                            User time (sec):       34.999
                          System time (sec):        0.910
                         Elapsed time (sec):       36.390
  
                   Maximum memory used (kb):       77028.
                   Average memory used (kb):          N/A
  
                          Minor page faults:        43851
                          Major page faults:            0
                 Voluntary context switches:         2198
