<?xml version="1.0" encoding="ISO-8859-1"?>
<modeling>
 <generator>
  <i name="program" type="string">vasp </i>
  <i name="version" type="string">6.3.0  </i>
  <i name="subversion" type="string">20Jan22 (build Feb 01 2022 16:52:37) complex                          parallel </i>
  <i name="platform" type="string">TETRA_NSC1 </i>
  <i name="date" type="string">2022 02 23 </i>
  <i name="time" type="string">15:42:09 </i>
 </generator>
 <incar>
  <i type="string" name="SYSTEM">clean Ni(100) surface</i>
  <i type="int" name="ISTART">     0</i>
  <i type="string" name="ALGO">Fast</i>
  <i type="int" name="ISPIN">     2</i>
  <i type="int" name="ICHARG">     2</i>
  <i type="int" name="IBRION">     1</i>
  <i name="EDIFF">      0.00000100</i>
  <i type="int" name="NSW">   100</i>
  <i name="ENCUT">    270.00000000</i>
  <i name="POTIM">      0.80000000</i>
  <v name="MAGMOM">      1.00000000      1.00000000      1.00000000      1.00000000      1.00000000</v>
  <i type="int" name="ISMEAR">     2</i>
  <i name="SIGMA">      0.20000000</i>
 </incar>
 <primitive_cell>
  <structure name="primitive_cell" >
   <crystal>
    <varray name="basis" >
     <v>       1.76500000       1.76500000       0.00000000 </v>
     <v>      -1.76500000       1.76500000       0.00000000 </v>
     <v>       0.00000000       0.00000000      17.65000000 </v>
    </varray>
    <i name="volume">    109.96744250 </i>
    <varray name="rec_basis" >
     <v>       0.28328612       0.28328612       0.00000000 </v>
     <v>      -0.28328612       0.28328612       0.00000000 </v>
     <v>       0.00000000       0.00000000       0.05665722 </v>
    </varray>
   </crystal>
   <varray name="positions" >
    <v>       0.00000000       0.00000000       0.00000000 </v>
    <v>       0.50000000       0.50000000       0.10000000 </v>
    <v>       0.00000000       0.00000000       0.20000000 </v>
    <v>       0.50000000       0.50000000       0.30000000 </v>
    <v>       0.00000000       0.00000000       0.40000000 </v>
   </varray>
  </structure>
  <varray name="primitive_index" >
   <v type="int" >        1 </v>
   <v type="int" >        2 </v>
   <v type="int" >        3 </v>
   <v type="int" >        4 </v>
   <v type="int" >        5 </v>
  </varray>
 </primitive_cell>
 <kpoints>
  <generation param="Monkhorst-Pack">
   <v type="int" name="divisions">       9        9        1 </v>
   <v name="usershift">      0.00000000       0.00000000       0.00000000 </v>
   <v name="genvec1">      0.11111111       0.00000000       0.00000000 </v>
   <v name="genvec2">      0.00000000       0.11111111       0.00000000 </v>
   <v name="genvec3">      0.00000000       0.00000000       1.00000000 </v>
   <v name="shift">      0.00000000       0.00000000       0.00000000 </v>
  </generation>
  <varray name="kpointlist" >
   <v>       0.00000000       0.00000000       0.00000000 </v>
   <v>       0.11111111      -0.00000000       0.00000000 </v>
   <v>       0.22222222      -0.00000000       0.00000000 </v>
   <v>       0.33333333       0.00000000       0.00000000 </v>
   <v>       0.44444444      -0.00000000       0.00000000 </v>
   <v>       0.11111111       0.11111111       0.00000000 </v>
   <v>       0.22222222       0.11111111       0.00000000 </v>
   <v>       0.33333333       0.11111111       0.00000000 </v>
   <v>       0.44444444       0.11111111       0.00000000 </v>
   <v>       0.22222222       0.22222222       0.00000000 </v>
   <v>       0.33333333       0.22222222       0.00000000 </v>
   <v>       0.44444444       0.22222222       0.00000000 </v>
   <v>       0.33333333       0.33333333       0.00000000 </v>
   <v>       0.44444444       0.33333333       0.00000000 </v>
   <v>       0.44444444       0.44444444       0.00000000 </v>
  </varray>
  <varray name="weights" >
   <v>       0.01234568 </v>
   <v>       0.04938272 </v>
   <v>       0.04938272 </v>
   <v>       0.04938272 </v>
   <v>       0.04938272 </v>
   <v>       0.04938272 </v>
   <v>       0.09876543 </v>
   <v>       0.09876543 </v>
   <v>       0.09876543 </v>
   <v>       0.04938272 </v>
   <v>       0.09876543 </v>
   <v>       0.09876543 </v>
   <v>       0.04938272 </v>
   <v>       0.09876543 </v>
   <v>       0.04938272 </v>
  </varray>
 </kpoints>
 <parameters>
  <separator name="general" >
   <i type="string" name="SYSTEM">clean Ni(100) surface</i>
   <i type="logical" name="LCOMPAT"> F  </i>
  </separator>
  <separator name="electronic" >
   <i type="string" name="PREC">normal</i>
   <i name="ENMAX">    270.00000000</i>
   <i name="ENAUG">    544.56500000</i>
   <i name="EDIFF">      0.00000100</i>
   <i type="int" name="IALGO">    68</i>
   <i type="int" name="IWAVPR">    11</i>
   <i type="int" name="NBANDS">    36</i>
   <i type="int" name="NBANDSLOW">    -1</i>
   <i type="int" name="NBANDSHIGH">    -1</i>
   <i name="NELECT">     50.00000000</i>
   <i type="int" name="TURBO">     0</i>
   <i type="int" name="IRESTART">     0</i>
   <i type="int" name="NREBOOT">     0</i>
   <i type="int" name="NMIN">     0</i>
   <i name="EREF">      0.00000000</i>
   <separator name="electronic smearing" >
    <i type="int" name="ISMEAR">     2</i>
    <i name="SIGMA">      0.20000000</i>
    <i name="KSPACING">      0.50000000</i>
    <i type="logical" name="KGAMMA"> T  </i>
    <i type="logical" name="KBLOWUP"> T  </i>
   </separator>
   <separator name="electronic projectors" >
    <i type="logical" name="LREAL"> F  </i>
    <v name="ROPT">      0.00000000</v>
    <i type="int" name="LMAXPAW">  -100</i>
    <i type="int" name="LMAXMIX">     2</i>
    <i type="logical" name="NLSPLINE"> F  </i>
   </separator>
   <separator name="electronic startup" >
    <i type="int" name="ISTART">     0</i>
    <i type="int" name="ICHARG">     2</i>
    <i type="int" name="INIWAV">     1</i>
   </separator>
   <separator name="electronic spin" >
    <i type="int" name="ISPIN">     2</i>
    <i type="logical" name="LNONCOLLINEAR"> F  </i>
    <v name="MAGMOM">      1.00000000      1.00000000      1.00000000      1.00000000      1.00000000</v>
    <i name="NUPDOWN">     -1.00000000</i>
    <i type="logical" name="LSORBIT"> F  </i>
    <v name="SAXIS">      0.00000000      0.00000000      1.00000000</v>
    <i type="logical" name="LSPIRAL"> F  </i>
    <v name="QSPIRAL">      0.00000000      0.00000000      0.00000000</v>
    <i type="logical" name="LZEROZ"> F  </i>
   </separator>
   <separator name="electronic exchange-correlation" >
    <i type="logical" name="LASPH"> F  </i>
    <i type="logical" name="LMETAGGA"> F  </i>
   </separator>
   <separator name="electronic convergence" >
    <i type="int" name="NELM">    60</i>
    <i type="int" name="NELMDL">    -5</i>
    <i type="int" name="NELMIN">     2</i>
    <i name="ENINI">    270.00000000</i>
    <separator name="electronic convergence detail" >
     <i type="logical" name="LDIAG"> T  </i>
     <i type="logical" name="LSUBROT"> F  </i>
     <i name="WEIMIN">      0.00100000</i>
     <i name="EBREAK">      0.00000001</i>
     <i name="DEPER">      0.30000000</i>
     <i type="int" name="NRMM">     4</i>
     <i name="TIME">      0.40000000</i>
    </separator>
   </separator>
   <separator name="electronic mixer" >
    <i name="AMIX">      0.40000000</i>
    <i name="BMIX">      1.00000000</i>
    <i name="AMIN">      0.10000000</i>
    <i name="AMIX_MAG">      1.60000000</i>
    <i name="BMIX_MAG">      1.00000000</i>
    <separator name="electronic mixer details" >
     <i type="int" name="IMIX">     4</i>
     <i type="logical" name="MIXFIRST"> F  </i>
     <i type="int" name="MAXMIX">   -45</i>
     <i name="WC">    100.00000000</i>
     <i type="int" name="INIMIX">     1</i>
     <i type="int" name="MIXPRE">     1</i>
     <i type="int" name="MREMOVE">     5</i>
    </separator>
   </separator>
   <separator name="electronic dipolcorrection" >
    <i type="logical" name="LDIPOL"> F  </i>
    <i type="logical" name="LMONO"> F  </i>
    <i type="int" name="IDIPOL">     0</i>
    <i name="EPSILON">      1.00000000</i>
    <v name="DIPOL">   -100.00000000   -100.00000000   -100.00000000</v>
    <i name="EFIELD">      0.00000000</i>
   </separator>
  </separator>
  <separator name="grids" >
   <i type="int" name="NGX">    10</i>
   <i type="int" name="NGY">    10</i>
   <i type="int" name="NGZ">    72</i>
   <i type="int" name="NGXF">    20</i>
   <i type="int" name="NGYF">    20</i>
   <i type="int" name="NGZF">   144</i>
   <i type="logical" name="ADDGRID"> F  </i>
  </separator>
  <separator name="ionic" >
   <i type="int" name="NSW">   100</i>
   <i type="int" name="IBRION">     1</i>
   <i type="int" name="MDALGO">     0</i>
   <i type="int" name="ISIF">     2</i>
   <i name="PSTRESS">      0.00000000</i>
   <i name="EDIFFG">      0.00001000</i>
   <i type="int" name="NFREE">     0</i>
   <i name="POTIM">      0.80000000</i>
   <i name="SMASS">     -3.00000000</i>
   <i name="SCALEE">      1.00000000</i>
  </separator>
  <separator name="ionic md" >
   <i name="TEBEG">      0.00010000</i>
   <i name="TEEND">      0.00010000</i>
   <i type="int" name="NBLOCK">     1</i>
   <i type="int" name="KBLOCK">   100</i>
   <i type="int" name="NPACO">   256</i>
   <i name="APACO">     10.00000000</i>
  </separator>
  <separator name="symmetry" >
   <i type="int" name="ISYM">     2</i>
   <i name="SYMPREC">      0.00001000</i>
  </separator>
  <separator name="dos" >
   <i type="int" name="LORBIT">     0</i>
   <v name="RWIGS">     -1.00000000</v>
   <i type="int" name="NEDOS">   301</i>
   <i name="EMIN">     10.00000000</i>
   <i name="EMAX">    -10.00000000</i>
   <i name="EFERMI">      0.00000000</i>
  </separator>
  <separator name="writing" >
   <i type="int" name="NWRITE">     2</i>
   <i type="logical" name="LWAVE"> T  </i>
   <i type="logical" name="LDOWNSAMPLE"> F  </i>
   <i type="logical" name="LCHARG"> T  </i>
   <i type="logical" name="LPARD"> F  </i>
   <i type="logical" name="LVTOT"> F  </i>
   <i type="logical" name="LVHAR"> F  </i>
   <i type="logical" name="LELF"> F  </i>
   <i type="logical" name="LOPTICS"> F  </i>
   <v name="STM">      0.00000000      0.00000000      0.00000000      0.00000000      0.00000000      0.00000000      0.00000000</v>
  </separator>
  <separator name="performance" >
   <i type="int" name="NPAR">     4</i>
   <i type="int" name="NSIM">     4</i>
   <i type="int" name="NBLK">    -1</i>
   <i type="logical" name="LPLANE"> T  </i>
   <i type="logical" name="LSCALAPACK"> T  </i>
   <i type="logical" name="LSCAAWARE"> F  </i>
   <i type="logical" name="LSCALU"> F  </i>
   <i type="logical" name="LASYNC"> F  </i>
   <i type="logical" name="LORBITALREAL"> F  </i>
  </separator>
  <separator name="miscellaneous" >
   <i type="int" name="IDIOT">     3</i>
   <i type="int" name="PHON_NSTRUCT">    -1</i>
   <i type="logical" name="LMUSIC"> F  </i>
   <v name="POMASS">     58.69000000</v>
   <v name="DARWINR">      0.00000000</v>
   <v name="DARWINV">      1.00000000</v>
   <i type="logical" name="LCORR"> T  </i>
  </separator>
  <i type="logical" name="GGA_COMPAT"> T  </i>
  <i type="logical" name="LBERRY"> F  </i>
  <i type="int" name="ICORELEVEL">     0</i>
  <i type="logical" name="LDAU"> F  </i>
  <i type="int" name="I_CONSTRAINED_M">     0</i>
  <separator name="electronic exchange-correlation" >
   <i type="string" name="GGA">--</i>
   <i type="int" name="VOSKOWN">     0</i>
   <i type="logical" name="LHFCALC"> F  </i>
   <i type="string" name="PRECFOCK"></i>
   <i type="logical" name="LSYMGRAD"> F  </i>
   <i type="logical" name="LHFONE"> F  </i>
   <i type="logical" name="LRHFCALC"> F  </i>
   <i type="logical" name="LTHOMAS"> F  </i>
   <i type="logical" name="LMODELHF"> F  </i>
   <i type="logical" name="LFOCKACE"> F  </i>
   <i name="ENCUT4O">     -1.00000000</i>
   <i type="int" name="EXXOEP">     0</i>
   <i type="int" name="FOURORBIT">     0</i>
   <i name="AEXX">      0.00000000</i>
   <i name="HFALPHA">      0.00000000</i>
   <i name="MCALPHA">      0.00000000</i>
   <i name="ALDAX">      1.00000000</i>
   <i name="AGGAX">      1.00000000</i>
   <i name="ALDAC">      1.00000000</i>
   <i name="AGGAC">      1.00000000</i>
   <i type="int" name="NKREDX">     1</i>
   <i type="int" name="NKREDY">     1</i>
   <i type="int" name="NKREDZ">     1</i>
   <i type="logical" name="SHIFTRED"> F  </i>
   <i type="logical" name="ODDONLY"> F  </i>
   <i type="logical" name="EVENONLY"> F  </i>
   <i type="int" name="LMAXFOCK">     0</i>
   <i type="int" name="NMAXFOCKAE">     0</i>
   <i type="logical" name="LFOCKAEDFT"> F  </i>
   <i name="HFSCREEN">      0.00000000</i>
   <i name="HFSCREENC">      0.00000000</i>
   <i type="int" name="NBANDSGWLOW">     0</i>
  </separator>
  <separator name="vdW DFT" >
   <i type="logical" name="LUSE_VDW"> F  </i>
   <i name="Zab_VDW">     -0.84910000</i>
   <i name="PARAM1">      0.12340000</i>
   <i name="PARAM2">      1.00000000</i>
   <i name="PARAM3">      0.00000000</i>
  </separator>
  <separator name="model GW" >
   <i type="int" name="MODEL_GW">     0</i>
   <i name="MODEL_EPS0">     13.19609310</i>
   <i name="MODEL_ALPHA">      1.00000000</i>
  </separator>
  <separator name="linear response parameters" >
   <i type="logical" name="LEPSILON"> F  </i>
   <i type="logical" name="LRPA"> F  </i>
   <i type="logical" name="LNABLA"> F  </i>
   <i type="logical" name="LVEL"> F  </i>
   <i name="CSHIFT">      0.10000000</i>
   <i name="OMEGAMAX">     -1.00000000</i>
   <i name="DEG_THRESHOLD">      0.00200000</i>
   <i name="RTIME">     -0.10000000</i>
   <i name="WPLASMAI">      0.00000000</i>
   <v name="DFIELD">      0.00000000      0.00000000      0.00000000</v>
   <v name="WPLASMA">      0.00000000      0.00000000      0.00000000      0.00000000      0.00000000      0.00000000      0.00000000      0.00000000      0.00000000</v>
  </separator>
  <separator name="orbital magnetization" >
   <i type="logical" name="NUCIND"> F  </i>
   <v name="MAGPOS">      0.00000000      0.00000000      0.00000000</v>
   <i type="logical" name="LNICSALL"> T  </i>
   <i type="logical" name="ORBITALMAG"> F  </i>
   <i type="logical" name="LMAGBLOCH"> F  </i>
   <i type="logical" name="LCHIMAG"> F  </i>
   <i type="logical" name="LGAUGE"> T  </i>
   <i type="int" name="MAGATOM">     0</i>
   <v name="MAGDIPOL">      0.00000000      0.00000000      0.00000000</v>
   <v name="AVECCONST">      0.00000000      0.00000000      0.00000000</v>
  </separator>
  <separator name="response functions" >
   <i type="logical" name="LFINITE_TEMPERATURE"> F  </i>
   <i type="logical" name="LADDER"> F  </i>
   <i type="logical" name="LRPAFORCE"> F  </i>
   <i type="logical" name="LFXC"> F  </i>
   <i type="logical" name="LHARTREE"> T  </i>
   <i type="int" name="IBSE">     0</i>
   <v type="int" name="KPOINT">    -1     0     0     0</v>
   <i type="logical" name="LTCTC"> F  </i>
   <i type="logical" name="LTCTE"> F  </i>
   <i type="logical" name="LTETE"> F  </i>
   <i type="logical" name="LTRIPLET"> F  </i>
   <i type="logical" name="LFXCEPS"> F  </i>
   <i type="logical" name="LFXHEG"> F  </i>
   <i type="int" name="NATURALO">     2</i>
   <i type="logical" name="LHOLEGF"> F  </i>
   <i type="logical" name="L2ORDER"> F  </i>
   <i type="logical" name="LDMP1"> F  </i>
   <i type="logical" name="LMP2LT"> F  </i>
   <i type="logical" name="LSMP2LT"> F  </i>
   <i type="logical" name="LGWLF"> F  </i>
   <i name="ENCUTGW">     -2.00000000</i>
   <i name="ENCUTGWSOFT">     -2.00000000</i>
   <i name="ENCUTLF">     -1.00000000</i>
   <i type="logical" name="LESF_SPLINES"> F  </i>
   <i type="int" name="LMAXMP2">    -1</i>
   <i name="SCISSOR">      0.00000000</i>
   <i type="int" name="NOMEGA">     0</i>
   <i type="int" name="NOMEGAR">     0</i>
   <i type="int" name="NBANDSGW">    -1</i>
   <i type="int" name="NBANDSO">    -1</i>
   <i type="int" name="NBANDSV">    -1</i>
   <i type="int" name="NELMGW">     1</i>
   <i type="int" name="NELMHF">     1</i>
   <i type="int" name="DIM">     3</i>
   <i type="int" name="IESPILON">     4</i>
   <i type="int" name="ANTIRES">     0</i>
   <i name="OMEGAMAX">    -30.00000000</i>
   <i name="OMEGAMIN">    -30.00000000</i>
   <i name="OMEGATL">   -200.00000000</i>
   <i type="int" name="OMEGAGRID">     0</i>
   <i name="CSHIFT">     -0.10000000</i>
   <i type="logical" name="LSELFENERGY"> F  </i>
   <i type="logical" name="LSPECTRAL"> F  </i>
   <i type="logical" name="LSPECTRALGW"> F  </i>
   <i type="logical" name="LSINGLES"> F  </i>
   <i type="logical" name="LFERMIGW"> F  </i>
   <i type="logical" name="ODDONLYGW"> F  </i>
   <i type="logical" name="EVENONLYGW"> F  </i>
   <i type="int" name="NKREDLFX">     1</i>
   <i type="int" name="NKREDLFY">     1</i>
   <i type="int" name="NKREDLFZ">     1</i>
   <i type="int" name="MAXMEM">  2800</i>
   <i type="int" name="TELESCOPE">     0</i>
   <i type="int" name="NTAUPAR">    -1</i>
   <i type="int" name="NOMEGAPAR">    -1</i>
   <i name="DAMP_NEWTON">      0.80000001</i>
   <i name="LAMBDA">      1.00000000</i>
  </separator>
  <separator name="External order field" >
   <i name="OFIELD_KAPPA">      0.00000000</i>
   <v name="OFIELD_K">      0.00000000      0.00000000      0.00000000</v>
   <i name="OFIELD_Q6_NEAR">      0.00000000</i>
   <i name="OFIELD_Q6_FAR">      0.00000000</i>
   <i name="OFIELD_A">      0.00000000</i>
  </separator>
  <separator name="optional k-points parameters" >
   <i type="int" name="KPOINTS_OPT_MODE">     1</i>
   <i type="logical" name="LKPOINTS_OPT"> F  </i>
  </separator>
 </parameters>
 <atominfo>
  <atoms>       5 </atoms>
  <types>       1 </types>
  <array name="atoms" >
   <dimension dim="1">ion</dimension>
   <field type="string">element</field>
   <field type="int">atomtype</field>
   <set>
    <rc><c>Ni</c><c>   1</c></rc>
    <rc><c>Ni</c><c>   1</c></rc>
    <rc><c>Ni</c><c>   1</c></rc>
    <rc><c>Ni</c><c>   1</c></rc>
    <rc><c>Ni</c><c>   1</c></rc>
   </set>
  </array>
  <array name="atomtypes" >
   <dimension dim="1">type</dimension>
   <field type="int">atomspertype</field>
   <field type="string">element</field>
   <field>mass</field>
   <field>valence</field>
   <field type="string">pseudopotential</field>
   <set>
    <rc><c>   5</c><c>Ni</c><c>     58.69000000</c><c>     10.00000000</c><c>  PAW_PBE Ni 02Aug2007                  </c></rc>
   </set>
  </array>
 </atominfo>
 <structure name="initialpos" >
  <crystal>
   <varray name="basis" >
    <v>       1.76500000       1.76500000       0.00000000 </v>
    <v>      -1.76500000       1.76500000       0.00000000 </v>
    <v>       0.00000000       0.00000000      17.65000000 </v>
   </varray>
   <i name="volume">    109.96744250 </i>
   <varray name="rec_basis" >
    <v>       0.28328612       0.28328612       0.00000000 </v>
    <v>      -0.28328612       0.28328612       0.00000000 </v>
    <v>       0.00000000       0.00000000       0.05665722 </v>
   </varray>
  </crystal>
  <varray name="positions" >
   <v>       0.00000000       0.00000000       0.00000000 </v>
   <v>       0.50000000       0.50000000       0.10000000 </v>
   <v>       0.00000000       0.00000000       0.20000000 </v>
   <v>       0.50000000       0.50000000       0.30000000 </v>
   <v>       0.00000000       0.00000000       0.40000000 </v>
  </varray>
  <varray name="selective"  type="logical" >
   <v type="logical" >  F  F  F </v>
   <v type="logical" >  F  F  F </v>
   <v type="logical" >  F  F  F </v>
   <v type="logical" >  T  T  T </v>
   <v type="logical" >  T  T  T </v>
  </varray>
  <nose>
   <v>      -3.00000000       0.00000000       0.00010000       0.00010000 </v>
  </nose>
 </structure>
 <calculation>
  <scstep>
   <time name="dav">    0.41    0.41</time>
   <time name="total">    0.43    0.43</time>
   <energy>
    <i name="alphaZ">    115.94204576 </i>
    <i name="ewald">   9231.00278662 </i>
    <i name="hartreedc"> -14628.04759811 </i>
    <i name="XCdc">    157.28549210 </i>
    <i name="pawpsdc">   4814.16586801 </i>
    <i name="pawaedc">  -5148.35356137 </i>
    <i name="eentropy">      0.00886512 </i>
    <i name="bandstr">    328.51274438 </i>
    <i name="atom">   5388.18037335 </i>
    <i name="e_fr_energy">    258.69701586 </i>
    <i name="e_wo_entrp">    258.68815074 </i>
    <i name="e_0_energy">    258.69479958 </i>
   </energy>
  </scstep>
  <scstep>
   <time name="dav">    0.37    0.37</time>
   <time name="total">    0.37    0.38</time>
   <energy>
    <i name="e_fr_energy">    -14.33301440 </i>
    <i name="e_wo_entrp">    -14.33372170 </i>
    <i name="e_0_energy">    -14.33319122 </i>
   </energy>
  </scstep>
  <scstep>
   <time name="dav">    0.38    0.38</time>
   <time name="total">    0.38    0.38</time>
   <energy>
    <i name="e_fr_energy">    -30.03006373 </i>
    <i name="e_wo_entrp">    -30.03513129 </i>
    <i name="e_0_energy">    -30.03133062 </i>
   </energy>
  </scstep>
  <scstep>
   <time name="dav">    0.42    0.42</time>
   <time name="total">    0.42    0.42</time>
   <energy>
    <i name="e_fr_energy">    -30.21123950 </i>
    <i name="e_wo_entrp">    -30.21642021 </i>
    <i name="e_0_energy">    -30.21253467 </i>
   </energy>
  </scstep>
  <scstep>
   <time name="dav">    0.44    0.44</time>
   <time name="total">    0.46    0.46</time>
   <energy>
    <i name="e_fr_energy">    -30.21549104 </i>
    <i name="e_wo_entrp">    -30.22067343 </i>
    <i name="e_0_energy">    -30.21678664 </i>
   </energy>
  </scstep>
  <scstep>
   <time name="diag">    0.10    0.10</time>
   <time name="diis">    0.21    0.21</time>
   <time name="orth">    0.01    0.01</time>
   <time name="total">    0.37    0.37</time>
   <energy>
    <i name="e_fr_energy">    -31.26574983 </i>
    <i name="e_wo_entrp">    -31.25702505 </i>
    <i name="e_0_energy">    -31.26356863 </i>
   </energy>
  </scstep>
  <scstep>
   <time name="diag">    0.09    0.09</time>
   <time name="diis">    0.20    0.20</time>
   <time name="orth">    0.01    0.01</time>
   <time name="total">    0.35    0.35</time>
   <energy>
    <i name="e_fr_energy">    -32.20390150 </i>
    <i name="e_wo_entrp">    -32.20229726 </i>
    <i name="e_0_energy">    -32.20350044 </i>
   </energy>
  </scstep>
  <scstep>
   <time name="diag">    0.10    0.10</time>
   <time name="diis">    0.20    0.20</time>
   <time name="orth">    0.01    0.01</time>
   <time name="total">    0.36    0.36</time>
   <energy>
    <i name="e_fr_energy">    -29.40299069 </i>
    <i name="e_wo_entrp">    -29.40778192 </i>
    <i name="e_0_energy">    -29.40418850 </i>
   </energy>
  </scstep>
  <scstep>
   <time name="diag">    0.10    0.10</time>
   <time name="diis">    0.21    0.21</time>
   <time name="orth">    0.01    0.01</time>
   <time name="total">    0.36    0.37</time>
   <energy>
    <i name="e_fr_energy">    -25.43231682 </i>
    <i name="e_wo_entrp">    -25.43774947 </i>
    <i name="e_0_energy">    -25.43367499 </i>
   </energy>
  </scstep>
  <scstep>
   <time name="diag">    0.10    0.10</time>
   <time name="diis">    0.21    0.21</time>
   <time name="orth">    0.01    0.01</time>
   <time name="total">    0.37    0.37</time>
   <energy>
    <i name="e_fr_energy">    -25.60447899 </i>
    <i name="e_wo_entrp">    -25.60264564 </i>
    <i name="e_0_energy">    -25.60402066 </i>
   </energy>
  </scstep>
  <scstep>
   <time name="diag">    0.09    0.09</time>
   <time name="diis">    0.21    0.21</time>
   <time name="orth">    0.01    0.01</time>
   <time name="total">    0.36    0.36</time>
   <energy>
    <i name="e_fr_energy">    -25.53946238 </i>
    <i name="e_wo_entrp">    -25.52604967 </i>
    <i name="e_0_energy">    -25.53610921 </i>
   </energy>
  </scstep>
  <scstep>
   <time name="diag">    0.10    0.10</time>
   <time name="diis">    0.21    0.21</time>
   <time name="orth">    0.01    0.01</time>
   <time name="total">    0.37    0.37</time>
   <energy>
    <i name="e_fr_energy">    -25.49458335 </i>
    <i name="e_wo_entrp">    -25.48845118 </i>
    <i name="e_0_energy">    -25.49305031 </i>
   </energy>
  </scstep>
  <scstep>
   <time name="diag">    0.10    0.10</time>
   <time name="diis">    0.21    0.21</time>
   <time name="orth">    0.01    0.01</time>
   <time name="total">    0.36    0.37</time>
   <energy>
    <i name="e_fr_energy">    -25.51072497 </i>
    <i name="e_wo_entrp">    -25.51536100 </i>
    <i name="e_0_energy">    -25.51188398 </i>
   </energy>
  </scstep>
  <scstep>
   <time name="diag">    0.09    0.09</time>
   <time name="diis">    0.22    0.22</time>
   <time name="orth">    0.01    0.01</time>
   <time name="total">    0.37    0.37</time>
   <energy>
    <i name="e_fr_energy">    -25.40529881 </i>
    <i name="e_wo_entrp">    -25.40854747 </i>
    <i name="e_0_energy">    -25.40611098 </i>
   </energy>
  </scstep>
  <scstep>
   <time name="diag">    0.10    0.10</time>
   <time name="diis">    0.21    0.21</time>
   <time name="orth">    0.01    0.01</time>
   <time name="total">    0.38    0.40</time>
   <energy>
    <i name="e_fr_energy">    -25.47973970 </i>
    <i name="e_wo_entrp">    -25.48361162 </i>
    <i name="e_0_energy">    -25.48070768 </i>
   </energy>
  </scstep>
  <scstep>
   <time name="diag">    0.09    0.09</time>
   <time name="diis">    0.21    0.21</time>
   <time name="orth">    0.01    0.01</time>
   <time name="total">    0.37    0.37</time>
   <energy>
    <i name="e_fr_energy">    -25.54136415 </i>
    <i name="e_wo_entrp">    -25.54528907 </i>
    <i name="e_0_energy">    -25.54234538 </i>
   </energy>
  </scstep>
  <scstep>
   <time name="diag">    0.10    0.10</time>
   <time name="diis">    0.22    0.22</time>
   <time name="orth">    0.01    0.01</time>
   <time name="total">    0.38    0.38</time>
   <energy>
    <i name="e_fr_energy">    -25.55545435 </i>
    <i name="e_wo_entrp">    -25.56042960 </i>
    <i name="e_0_energy">    -25.55669816 </i>
   </energy>
  </scstep>
  <scstep>
   <time name="diag">    0.09    0.09</time>
   <time name="diis">    0.21    0.21</time>
   <time name="orth">    0.01    0.01</time>
   <time name="total">    0.36    0.36</time>
   <energy>
    <i name="e_fr_energy">    -25.55484991 </i>
    <i name="e_wo_entrp">    -25.55977551 </i>
    <i name="e_0_energy">    -25.55608131 </i>
   </energy>
  </scstep>
  <scstep>
   <time name="diag">    0.09    0.09</time>
   <time name="diis">    0.21    0.21</time>
   <time name="orth">    0.01    0.01</time>
   <time name="total">    0.36    0.36</time>
   <energy>
    <i name="e_fr_energy">    -25.55045754 </i>
    <i name="e_wo_entrp">    -25.55350644 </i>
    <i name="e_0_energy">    -25.55121977 </i>
   </energy>
  </scstep>
  <scstep>
   <time name="diag">    0.10    0.10</time>
   <time name="diis">    0.20    0.20</time>
   <time name="orth">    0.01    0.01</time>
   <time name="total">    0.36    0.36</time>
   <energy>
    <i name="e_fr_energy">    -25.55141168 </i>
    <i name="e_wo_entrp">    -25.55423328 </i>
    <i name="e_0_energy">    -25.55211708 </i>
   </energy>
  </scstep>
  <scstep>
   <time name="diag">    0.09    0.09</time>
   <time name="diis">    0.20    0.20</time>
   <time name="orth">    0.01    0.01</time>
   <time name="total">    0.34    0.34</time>
   <energy>
    <i name="e_fr_energy">    -25.55354914 </i>
    <i name="e_wo_entrp">    -25.55638579 </i>
    <i name="e_0_energy">    -25.55425830 </i>
   </energy>
  </scstep>
  <scstep>
   <time name="diag">    0.09    0.09</time>
   <time name="diis">    0.20    0.20</time>
   <time name="orth">    0.01    0.01</time>
   <time name="total">    0.35    0.35</time>
   <energy>
    <i name="e_fr_energy">    -25.55531539 </i>
    <i name="e_wo_entrp">    -25.55806445 </i>
    <i name="e_0_energy">    -25.55600265 </i>
   </energy>
  </scstep>
  <scstep>
   <time name="diag">    0.08    0.08</time>
   <time name="diis">    0.19    0.19</time>
   <time name="orth">    0.01    0.01</time>
   <time name="total">    0.33    0.33</time>
   <energy>
    <i name="e_fr_energy">    -25.55582761 </i>
    <i name="e_wo_entrp">    -25.55855198 </i>
    <i name="e_0_energy">    -25.55650870 </i>
   </energy>
  </scstep>
  <scstep>
   <time name="diag">    0.08    0.08</time>
   <time name="diis">    0.18    0.18</time>
   <time name="orth">    0.01    0.01</time>
   <time name="total">    0.32    0.32</time>
   <energy>
    <i name="e_fr_energy">    -25.55612524 </i>
    <i name="e_wo_entrp">    -25.55877531 </i>
    <i name="e_0_energy">    -25.55678776 </i>
   </energy>
  </scstep>
  <scstep>
   <time name="diag">    0.09    0.09</time>
   <time name="diis">    0.18    0.18</time>
   <time name="orth">    0.01    0.01</time>
   <time name="total">    0.32    0.32</time>
   <energy>
    <i name="e_fr_energy">    -25.55632311 </i>
    <i name="e_wo_entrp">    -25.55901247 </i>
    <i name="e_0_energy">    -25.55699545 </i>
   </energy>
  </scstep>
  <scstep>
   <time name="diag">    0.09    0.09</time>
   <time name="diis">    0.14    0.14</time>
   <time name="orth">    0.01    0.01</time>
   <time name="total">    0.28    0.28</time>
   <energy>
    <i name="e_fr_energy">    -25.55646141 </i>
    <i name="e_wo_entrp">    -25.55915711 </i>
    <i name="e_0_energy">    -25.55713533 </i>
   </energy>
  </scstep>
  <scstep>
   <time name="diag">    0.08    0.08</time>
   <time name="diis">    0.13    0.13</time>
   <time name="orth">    0.01    0.01</time>
   <time name="total">    0.27    0.27</time>
   <energy>
    <i name="e_fr_energy">    -25.55655079 </i>
    <i name="e_wo_entrp">    -25.55924154 </i>
    <i name="e_0_energy">    -25.55722348 </i>
   </energy>
  </scstep>
  <scstep>
   <time name="diag">    0.09    0.09</time>
   <time name="diis">    0.14    0.14</time>
   <time name="orth">    0.01    0.01</time>
   <time name="total">    0.30    0.30</time>
   <energy>
    <i name="e_fr_energy">    -25.55661060 </i>
    <i name="e_wo_entrp">    -25.55930902 </i>
    <i name="e_0_energy">    -25.55728520 </i>
   </energy>
  </scstep>
  <scstep>
   <time name="diag">    0.10    0.10</time>
   <time name="diis">    0.14    0.14</time>
   <time name="orth">    0.01    0.01</time>
   <time name="total">    0.30    0.30</time>
   <energy>
    <i name="e_fr_energy">    -25.55664313 </i>
    <i name="e_wo_entrp">    -25.55934199 </i>
    <i name="e_0_energy">    -25.55731785 </i>
   </energy>
  </scstep>
  <scstep>
   <time name="diag">    0.09    0.09</time>
   <time name="diis">    0.13    0.13</time>
   <time name="orth">    0.01    0.01</time>
   <time name="total">    0.28    0.28</time>
   <energy>
    <i name="e_fr_energy">    -25.55665460 </i>
    <i name="e_wo_entrp">    -25.55935336 </i>
    <i name="e_0_energy">    -25.55732929 </i>
   </energy>
  </scstep>
  <scstep>
   <time name="diag">    0.09    0.09</time>
   <time name="diis">    0.12    0.12</time>
   <time name="orth">    0.01    0.01</time>
   <time name="total">    0.28    0.28</time>
   <energy>
    <i name="e_fr_energy">    -25.55666120 </i>
    <i name="e_wo_entrp">    -25.55935977 </i>
    <i name="e_0_energy">    -25.55733585 </i>
   </energy>
  </scstep>
  <scstep>
   <time name="diag">    0.09    0.09</time>
   <time name="diis">    0.11    0.11</time>
   <time name="orth">    0.01    0.01</time>
   <time name="total">    0.26    0.26</time>
   <energy>
    <i name="e_fr_energy">    -25.55666289 </i>
    <i name="e_wo_entrp">    -25.55936081 </i>
    <i name="e_0_energy">    -25.55733737 </i>
   </energy>
  </scstep>
  <scstep>
   <time name="diag">    0.09    0.09</time>
   <time name="diis">    0.11    0.11</time>
   <time name="orth">    0.01    0.01</time>
   <time name="total">    0.27    0.27</time>
   <energy>
    <i name="e_fr_energy">    -25.55666481 </i>
    <i name="e_wo_entrp">    -25.55936198 </i>
    <i name="e_0_energy">    -25.55733910 </i>
   </energy>
  </scstep>
  <scstep>
   <time name="diag">    0.09    0.09</time>
   <time name="diis">    0.10    0.10</time>
   <time name="orth">    0.01    0.01</time>
   <time name="total">    0.23    0.23</time>
   <energy>
    <i name="alphaZ">    115.94204576 </i>
    <i name="ewald">   9231.00278662 </i>
    <i name="hartreedc"> -14580.77418336 </i>
    <i name="XCdc">    152.53875070 </i>
    <i name="pawpsdc">   5547.08030966 </i>
    <i name="pawaedc">  -5888.15716608 </i>
    <i name="eentropy">      0.00269723 </i>
    <i name="bandstr">      8.62772087 </i>
    <i name="atom">   5388.18037335 </i>
    <i name="e_fr_energy">    -25.55666527 </i>
    <i name="e_wo_entrp">    -25.55936250 </i>
    <i name="e_0_energy">    -25.55733957 </i>
   </energy>
  </scstep>
  <structure>
   <crystal>
    <varray name="basis" >
     <v>       1.76500000       1.76500000       0.00000000 </v>
     <v>      -1.76500000       1.76500000       0.00000000 </v>
     <v>       0.00000000       0.00000000      17.65000000 </v>
    </varray>
    <i name="volume">    109.96744250 </i>
    <varray name="rec_basis" >
     <v>       0.28328612       0.28328612       0.00000000 </v>
     <v>      -0.28328612       0.28328612       0.00000000 </v>
     <v>       0.00000000       0.00000000       0.05665722 </v>
    </varray>
   </crystal>
   <varray name="positions" >
    <v>       0.00000000       0.00000000       0.00000000 </v>
    <v>       0.50000000       0.50000000       0.10000000 </v>
    <v>       0.00000000       0.00000000       0.20000000 </v>
    <v>       0.50000000       0.50000000       0.30000000 </v>
    <v>       0.00000000       0.00000000       0.40000000 </v>
   </varray>
  </structure>
  <varray name="forces" >
   <v>       0.00000000       0.00000000       0.41920245 </v>
   <v>       0.00000000       0.00000000      -0.40161554 </v>
   <v>       0.00000000       0.00000000      -0.00258398 </v>
   <v>      -0.00000000      -0.00000000       0.39285576 </v>
   <v>      -0.00000000       0.00000000      -0.40785869 </v>
  </varray>
  <varray name="stress" >
   <v>     -62.67731003       0.00000000       0.00000000 </v>
   <v>       0.00000000     -62.67731003       0.00000000 </v>
   <v>       0.00000000       0.00000000     -43.88745956 </v>
  </varray>
  <energy>
   <i name="e_fr_energy">    -25.55666527 </i>
   <i name="e_wo_entrp">    -25.55936250 </i>
   <i name="e_0_energy">    -25.55733957 </i>
  </energy>
  <time name="totalsc">   12.28   12.35</time>
 </calculation>
 <calculation>
  <scstep>
   <time name="dav">    0.40    0.40</time>
   <time name="total">    0.45    0.45</time>
   <energy>
    <i name="alphaZ">    115.94204576 </i>
    <i name="ewald">   9277.06486337 </i>
    <i name="hartreedc"> -14626.39751841 </i>
    <i name="XCdc">    152.60090516 </i>
    <i name="pawpsdc">   5547.08071790 </i>
    <i name="pawaedc">  -5888.15769995 </i>
    <i name="eentropy">      0.00284450 </i>
    <i name="bandstr">      8.12053740 </i>
    <i name="atom">   5388.18037335 </i>
    <i name="e_fr_energy">    -25.56293093 </i>
    <i name="e_wo_entrp">    -25.56577543 </i>
    <i name="e_0_energy">    -25.56364205 </i>
   </energy>
  </scstep>
  <scstep>
   <time name="diag">    0.10    0.10</time>
   <time name="diis">    0.21    0.21</time>
   <time name="orth">    0.01    0.01</time>
   <time name="total">    0.36    0.36</time>
   <energy>
    <i name="e_fr_energy">    -25.57947090 </i>
    <i name="e_wo_entrp">    -25.58196510 </i>
    <i name="e_0_energy">    -25.58009445 </i>
   </energy>
  </scstep>
  <scstep>
   <time name="diag">    0.10    0.10</time>
   <time name="diis">    0.20    0.20</time>
   <time name="orth">    0.01    0.01</time>
   <time name="total">    0.36    0.36</time>
   <energy>
    <i name="e_fr_energy">    -25.58707723 </i>
    <i name="e_wo_entrp">    -25.58645364 </i>
    <i name="e_0_energy">    -25.58692133 </i>
   </energy>
  </scstep>
  <scstep>
   <time name="diag">    0.10    0.10</time>
   <time name="diis">    0.21    0.21</time>
   <time name="orth">    0.01    0.01</time>
   <time name="total">    0.36    0.36</time>
   <energy>
    <i name="e_fr_energy">    -25.57951393 </i>
    <i name="e_wo_entrp">    -25.58187520 </i>
    <i name="e_0_energy">    -25.58010425 </i>
   </energy>
  </scstep>
  <scstep>
   <time name="diag">    0.10    0.10</time>
   <time name="diis">    0.20    0.20</time>
   <time name="orth">    0.01    0.01</time>
   <time name="total">    0.36    0.36</time>
   <energy>
    <i name="e_fr_energy">    -25.57264050 </i>
    <i name="e_wo_entrp">    -25.57451901 </i>
    <i name="e_0_energy">    -25.57311013 </i>
   </energy>
  </scstep>
  <scstep>
   <time name="diag">    0.10    0.10</time>
   <time name="diis">    0.20    0.20</time>
   <time name="orth">    0.01    0.01</time>
   <time name="total">    0.36    0.36</time>
   <energy>
    <i name="e_fr_energy">    -25.57187980 </i>
    <i name="e_wo_entrp">    -25.57532812 </i>
    <i name="e_0_energy">    -25.57274188 </i>
   </energy>
  </scstep>
  <scstep>
   <time name="diag">    0.09    0.09</time>
   <time name="diis">    0.21    0.21</time>
   <time name="orth">    0.01    0.01</time>
   <time name="total">    0.36    0.37</time>
   <energy>
    <i name="e_fr_energy">    -25.57256020 </i>
    <i name="e_wo_entrp">    -25.57544685 </i>
    <i name="e_0_energy">    -25.57328186 </i>
   </energy>
  </scstep>
  <scstep>
   <time name="diag">    0.10    0.10</time>
   <time name="diis">    0.21    0.21</time>
   <time name="orth">    0.01    0.01</time>
   <time name="total">    0.37    0.37</time>
   <energy>
    <i name="e_fr_energy">    -25.57112718 </i>
    <i name="e_wo_entrp">    -25.57405604 </i>
    <i name="e_0_energy">    -25.57185940 </i>
   </energy>
  </scstep>
  <scstep>
   <time name="diag">    0.10    0.10</time>
   <time name="diis">    0.21    0.21</time>
   <time name="orth">    0.01    0.01</time>
   <time name="total">    0.37    0.37</time>
   <energy>
    <i name="e_fr_energy">    -25.57117286 </i>
    <i name="e_wo_entrp">    -25.57404998 </i>
    <i name="e_0_energy">    -25.57189214 </i>
   </energy>
  </scstep>
  <scstep>
   <time name="diag">    0.09    0.09</time>
   <time name="diis">    0.21    0.21</time>
   <time name="orth">    0.01    0.01</time>
   <time name="total">    0.36    0.36</time>
   <energy>
    <i name="e_fr_energy">    -25.57119445 </i>
    <i name="e_wo_entrp">    -25.57409811 </i>
    <i name="e_0_energy">    -25.57192036 </i>
   </energy>
  </scstep>
  <scstep>
   <time name="diag">    0.09    0.09</time>
   <time name="diis">    0.20    0.21</time>
   <time name="orth">    0.01    0.01</time>
   <time name="total">    0.36    0.36</time>
   <energy>
    <i name="e_fr_energy">    -25.57121871 </i>
    <i name="e_wo_entrp">    -25.57414023 </i>
    <i name="e_0_energy">    -25.57194909 </i>
   </energy>
  </scstep>
  <scstep>
   <time name="diag">    0.10    0.10</time>
   <time name="diis">    0.16    0.16</time>
   <time name="orth">    0.01    0.01</time>
   <time name="total">    0.32    0.32</time>
   <energy>
    <i name="e_fr_energy">    -25.57124026 </i>
    <i name="e_wo_entrp">    -25.57416808 </i>
    <i name="e_0_energy">    -25.57197222 </i>
   </energy>
  </scstep>
  <scstep>
   <time name="diag">    0.10    0.10</time>
   <time name="diis">    0.14    0.14</time>
   <time name="orth">    0.01    0.01</time>
   <time name="total">    0.30    0.30</time>
   <energy>
    <i name="e_fr_energy">    -25.57125018 </i>
    <i name="e_wo_entrp">    -25.57418035 </i>
    <i name="e_0_energy">    -25.57198272 </i>
   </energy>
  </scstep>
  <scstep>
   <time name="diag">    0.10    0.10</time>
   <time name="diis">    0.14    0.14</time>
   <time name="orth">    0.01    0.01</time>
   <time name="total">    0.30    0.30</time>
   <energy>
    <i name="e_fr_energy">    -25.57126014 </i>
    <i name="e_wo_entrp">    -25.57419379 </i>
    <i name="e_0_energy">    -25.57199355 </i>
   </energy>
  </scstep>
  <scstep>
   <time name="diag">    0.10    0.10</time>
   <time name="diis">    0.13    0.13</time>
   <time name="orth">    0.01    0.01</time>
   <time name="total">    0.29    0.29</time>
   <energy>
    <i name="e_fr_energy">    -25.57126344 </i>
    <i name="e_wo_entrp">    -25.57419689 </i>
    <i name="e_0_energy">    -25.57199680 </i>
   </energy>
  </scstep>
  <scstep>
   <time name="diag">    0.09    0.09</time>
   <time name="diis">    0.11    0.11</time>
   <time name="orth">    0.01    0.01</time>
   <time name="total">    0.26    0.26</time>
   <energy>
    <i name="e_fr_energy">    -25.57126587 </i>
    <i name="e_wo_entrp">    -25.57419856 </i>
    <i name="e_0_energy">    -25.57199904 </i>
   </energy>
  </scstep>
  <scstep>
   <time name="diag">    0.09    0.09</time>
   <time name="diis">    0.12    0.12</time>
   <time name="orth">    0.01    0.01</time>
   <time name="total">    0.26    0.26</time>
   <energy>
    <i name="e_fr_energy">    -25.57126808 </i>
    <i name="e_wo_entrp">    -25.57420107 </i>
    <i name="e_0_energy">    -25.57200133 </i>
   </energy>
  </scstep>
  <scstep>
   <time name="diag">    0.09    0.09</time>
   <time name="diis">    0.10    0.10</time>
   <time name="orth">    0.01    0.01</time>
   <time name="total">    0.23    0.23</time>
   <energy>
    <i name="alphaZ">    115.94204576 </i>
    <i name="ewald">   9277.06486337 </i>
    <i name="hartreedc"> -14626.15820365 </i>
    <i name="XCdc">    152.58198647 </i>
    <i name="pawpsdc">   5557.39212378 </i>
    <i name="pawaedc">  -5898.59038000 </i>
    <i name="eentropy">      0.00293311 </i>
    <i name="bandstr">      8.01298878 </i>
    <i name="atom">   5388.18037335 </i>
    <i name="e_fr_energy">    -25.57126904 </i>
    <i name="e_wo_entrp">    -25.57420215 </i>
    <i name="e_0_energy">    -25.57200232 </i>
   </energy>
  </scstep>
  <structure>
   <crystal>
    <varray name="basis" >
     <v>       1.76500000       1.76500000       0.00000000 </v>
     <v>      -1.76500000       1.76500000       0.00000000 </v>
     <v>       0.00000000       0.00000000      17.65000000 </v>
    </varray>
    <i name="volume">    109.96744250 </i>
    <varray name="rec_basis" >
     <v>       0.28328612       0.28328612       0.00000000 </v>
     <v>      -0.28328612       0.28328612       0.00000000 </v>
     <v>       0.00000000       0.00000000       0.05665722 </v>
    </varray>
   </crystal>
   <varray name="positions" >
    <v>       0.00000000       0.00000000       0.00000000 </v>
    <v>       0.50000000       0.50000000       0.10000000 </v>
    <v>       0.00000000       0.00000000       0.20000000 </v>
    <v>       0.50000000       0.50000000       0.30171807 </v>
    <v>      -0.00000000       0.00000000       0.39821632 </v>
   </varray>
  </structure>
  <varray name="forces" >
   <v>      -0.00000000       0.00000000       0.42360439 </v>
   <v>       0.00000000       0.00000000      -0.39091246 </v>
   <v>       0.00000000       0.00000000       0.10041182 </v>
   <v>      -0.00000000      -0.00000000      -0.00509023 </v>
   <v>       0.00000000       0.00000000      -0.12801351 </v>
  </varray>
  <varray name="stress" >
   <v>     -59.55718721       0.00000000      -0.00000000 </v>
   <v>       0.00000000     -59.55718721       0.00000000 </v>
   <v>      -0.00000000       0.00000000     -39.59804167 </v>
  </varray>
  <energy>
   <i name="e_fr_energy">    -25.57126904 </i>
   <i name="e_wo_entrp">    -25.57420215 </i>
   <i name="e_0_energy">    -25.57200232 </i>
  </energy>
  <time name="totalsc">    6.46    6.49</time>
 </calculation>
 <calculation>
  <scstep>
   <time name="dav">    0.38    0.38</time>
   <time name="total">    0.43    0.43</time>
   <energy>
    <i name="alphaZ">    115.94204576 </i>
    <i name="ewald">   9310.09563477 </i>
    <i name="hartreedc"> -14659.00986549 </i>
    <i name="XCdc">    152.60345311 </i>
    <i name="pawpsdc">   5557.39288005 </i>
    <i name="pawaedc">  -5898.59112725 </i>
    <i name="eentropy">      0.00295531 </i>
    <i name="bandstr">      7.81163300 </i>
    <i name="atom">   5388.18037335 </i>
    <i name="e_fr_energy">    -25.57201739 </i>
    <i name="e_wo_entrp">    -25.57497270 </i>
    <i name="e_0_energy">    -25.57275622 </i>
   </energy>
  </scstep>
  <scstep>
   <time name="diag">    0.10    0.10</time>
   <time name="diis">    0.20    0.20</time>
   <time name="orth">    0.01    0.01</time>
   <time name="total">    0.36    0.36</time>
   <energy>
    <i name="e_fr_energy">    -25.58433384 </i>
    <i name="e_wo_entrp">    -25.58574646 </i>
    <i name="e_0_energy">    -25.58468700 </i>
   </energy>
  </scstep>
  <scstep>
   <time name="diag">    0.09    0.09</time>
   <time name="diis">    0.20    0.21</time>
   <time name="orth">    0.01    0.01</time>
   <time name="total">    0.35    0.35</time>
   <energy>
    <i name="e_fr_energy">    -25.57316680 </i>
    <i name="e_wo_entrp">    -25.57578237 </i>
    <i name="e_0_energy">    -25.57382069 </i>
   </energy>
  </scstep>
  <scstep>
   <time name="diag">    0.09    0.09</time>
   <time name="diis">    0.21    0.21</time>
   <time name="orth">    0.02    0.02</time>
   <time name="total">    0.37    0.37</time>
   <energy>
    <i name="e_fr_energy">    -25.57295721 </i>
    <i name="e_wo_entrp">    -25.57619829 </i>
    <i name="e_0_energy">    -25.57376748 </i>
   </energy>
  </scstep>
  <scstep>
   <time name="diag">    0.10    0.10</time>
   <time name="diis">    0.21    0.21</time>
   <time name="orth">    0.01    0.01</time>
   <time name="total">    0.37    0.37</time>
   <energy>
    <i name="e_fr_energy">    -25.57307684 </i>
    <i name="e_wo_entrp">    -25.57530324 </i>
    <i name="e_0_energy">    -25.57363344 </i>
   </energy>
  </scstep>
  <scstep>
   <time name="diag">    0.10    0.10</time>
   <time name="diis">    0.22    0.22</time>
   <time name="orth">    0.01    0.01</time>
   <time name="total">    0.37    0.38</time>
   <energy>
    <i name="e_fr_energy">    -25.57245936 </i>
    <i name="e_wo_entrp">    -25.57531886 </i>
    <i name="e_0_energy">    -25.57317424 </i>
   </energy>
  </scstep>
  <scstep>
   <time name="diag">    0.09    0.09</time>
   <time name="diis">    0.22    0.22</time>
   <time name="orth">    0.01    0.01</time>
   <time name="total">    0.37    0.37</time>
   <energy>
    <i name="e_fr_energy">    -25.57245629 </i>
    <i name="e_wo_entrp">    -25.57538427 </i>
    <i name="e_0_energy">    -25.57318828 </i>
   </energy>
  </scstep>
  <scstep>
   <time name="diag">    0.10    0.10</time>
   <time name="diis">    0.22    0.22</time>
   <time name="orth">    0.01    0.01</time>
   <time name="total">    0.38    0.38</time>
   <energy>
    <i name="e_fr_energy">    -25.57239880 </i>
    <i name="e_wo_entrp">    -25.57527646 </i>
    <i name="e_0_energy">    -25.57311821 </i>
   </energy>
  </scstep>
  <scstep>
   <time name="diag">    0.10    0.10</time>
   <time name="diis">    0.20    0.20</time>
   <time name="orth">    0.01    0.01</time>
   <time name="total">    0.36    0.36</time>
   <energy>
    <i name="e_fr_energy">    -25.57240874 </i>
    <i name="e_wo_entrp">    -25.57528297 </i>
    <i name="e_0_energy">    -25.57312730 </i>
   </energy>
  </scstep>
  <scstep>
   <time name="diag">    0.10    0.10</time>
   <time name="diis">    0.17    0.17</time>
   <time name="orth">    0.01    0.01</time>
   <time name="total">    0.33    0.33</time>
   <energy>
    <i name="e_fr_energy">    -25.57241502 </i>
    <i name="e_wo_entrp">    -25.57529414 </i>
    <i name="e_0_energy">    -25.57313480 </i>
   </energy>
  </scstep>
  <scstep>
   <time name="diag">    0.10    0.10</time>
   <time name="diis">    0.14    0.14</time>
   <time name="orth">    0.02    0.02</time>
   <time name="total">    0.30    0.30</time>
   <energy>
    <i name="e_fr_energy">    -25.57242132 </i>
    <i name="e_wo_entrp">    -25.57530281 </i>
    <i name="e_0_energy">    -25.57314169 </i>
   </energy>
  </scstep>
  <scstep>
   <time name="diag">    0.10    0.10</time>
   <time name="diis">    0.14    0.14</time>
   <time name="orth">    0.01    0.01</time>
   <time name="total">    0.30    0.30</time>
   <energy>
    <i name="e_fr_energy">    -25.57243011 </i>
    <i name="e_wo_entrp">    -25.57531249 </i>
    <i name="e_0_energy">    -25.57315071 </i>
   </energy>
  </scstep>
  <scstep>
   <time name="diag">    0.10    0.10</time>
   <time name="diis">    0.14    0.14</time>
   <time name="orth">    0.01    0.01</time>
   <time name="total">    0.30    0.30</time>
   <energy>
    <i name="e_fr_energy">    -25.57243479 </i>
    <i name="e_wo_entrp">    -25.57531760 </i>
    <i name="e_0_energy">    -25.57315550 </i>
   </energy>
  </scstep>
  <scstep>
   <time name="diag">    0.10    0.10</time>
   <time name="diis">    0.11    0.11</time>
   <time name="orth">    0.01    0.01</time>
   <time name="total">    0.27    0.27</time>
   <energy>
    <i name="e_fr_energy">    -25.57243784 </i>
    <i name="e_wo_entrp">    -25.57532046 </i>
    <i name="e_0_energy">    -25.57315849 </i>
   </energy>
  </scstep>
  <scstep>
   <time name="diag">    0.10    0.10</time>
   <time name="diis">    0.12    0.12</time>
   <time name="orth">    0.01    0.01</time>
   <time name="total">    0.28    0.28</time>
   <energy>
    <i name="e_fr_energy">    -25.57244012 </i>
    <i name="e_wo_entrp">    -25.57532191 </i>
    <i name="e_0_energy">    -25.57316057 </i>
   </energy>
  </scstep>
  <scstep>
   <time name="diag">    0.10    0.10</time>
   <time name="diis">    0.12    0.12</time>
   <time name="orth">    0.01    0.01</time>
   <time name="total">    0.27    0.28</time>
   <energy>
    <i name="e_fr_energy">    -25.57244132 </i>
    <i name="e_wo_entrp">    -25.57532273 </i>
    <i name="e_0_energy">    -25.57316167 </i>
   </energy>
  </scstep>
  <scstep>
   <time name="diag">    0.10    0.10</time>
   <time name="diis">    0.10    0.10</time>
   <time name="orth">    0.01    0.01</time>
   <time name="total">    0.23    0.23</time>
   <energy>
    <i name="alphaZ">    115.94204576 </i>
    <i name="ewald">   9310.09563477 </i>
    <i name="hartreedc"> -14658.96789814 </i>
    <i name="XCdc">    152.59840950 </i>
    <i name="pawpsdc">   5561.14389578 </i>
    <i name="pawaedc">  -5902.38401682 </i>
    <i name="eentropy">      0.00288142 </i>
    <i name="bandstr">      7.81623294 </i>
    <i name="atom">   5388.18037335 </i>
    <i name="e_fr_energy">    -25.57244143 </i>
    <i name="e_wo_entrp">    -25.57532285 </i>
    <i name="e_0_energy">    -25.57316179 </i>
   </energy>
  </scstep>
  <structure>
   <crystal>
    <varray name="basis" >
     <v>       1.76500000       1.76500000       0.00000000 </v>
     <v>      -1.76500000       1.76500000       0.00000000 </v>
     <v>       0.00000000       0.00000000      17.65000000 </v>
    </varray>
    <i name="volume">    109.96744250 </i>
    <varray name="rec_basis" >
     <v>       0.28328612       0.28328612       0.00000000 </v>
     <v>      -0.28328612       0.28328612       0.00000000 </v>
     <v>       0.00000000       0.00000000       0.05665722 </v>
    </varray>
   </crystal>
   <varray name="positions" >
    <v>       0.00000000       0.00000000       0.00000000 </v>
    <v>       0.50000000       0.50000000       0.10000000 </v>
    <v>       0.00000000       0.00000000       0.20000000 </v>
    <v>       0.50000000       0.50000000       0.30169263 </v>
    <v>       0.00000000       0.00000000       0.39757654 </v>
   </varray>
  </structure>
  <varray name="forces" >
   <v>       0.00000000       0.00000000       0.42451586 </v>
   <v>      -0.00000000      -0.00000000      -0.39125826 </v>
   <v>      -0.00000000      -0.00000000       0.09389090 </v>
   <v>      -0.00000000      -0.00000000      -0.05715210 </v>
   <v>       0.00000000       0.00000000      -0.06999640 </v>
  </varray>
  <varray name="stress" >
   <v>     -58.45084334       0.00000000       0.00000000 </v>
   <v>       0.00000000     -58.45084334       0.00000000 </v>
   <v>      -0.00000000      -0.00000000     -38.00722871 </v>
  </varray>
  <energy>
   <i name="e_fr_energy">    -25.57244143 </i>
   <i name="e_wo_entrp">    -25.57532285 </i>
   <i name="e_0_energy">    -25.57316179 </i>
  </energy>
  <time name="totalsc">    6.09    6.10</time>
 </calculation>
 <calculation>
  <scstep>
   <time name="dav">    0.40    0.40</time>
   <time name="total">    0.44    0.44</time>
   <energy>
    <i name="alphaZ">    115.94204576 </i>
    <i name="ewald">   9442.53275408 </i>
    <i name="hartreedc"> -14790.98296097 </i>
    <i name="XCdc">    152.66177473 </i>
    <i name="pawpsdc">   5561.14426821 </i>
    <i name="pawaedc">  -5902.38437310 </i>
    <i name="eentropy">      0.00278502 </i>
    <i name="bandstr">      7.33362603 </i>
    <i name="atom">   5388.18037335 </i>
    <i name="e_fr_energy">    -25.56970691 </i>
    <i name="e_wo_entrp">    -25.57249193 </i>
    <i name="e_0_energy">    -25.57040317 </i>
   </energy>
  </scstep>
  <scstep>
   <time name="diag">    0.09    0.09</time>
   <time name="diis">    0.19    0.19</time>
   <time name="orth">    0.01    0.01</time>
   <time name="total">    0.34    0.34</time>
   <energy>
    <i name="e_fr_energy">    -25.86738605 </i>
    <i name="e_wo_entrp">    -25.85745846 </i>
    <i name="e_0_energy">    -25.86490416 </i>
   </energy>
  </scstep>
  <scstep>
   <time name="diag">    0.09    0.09</time>
   <time name="diis">    0.19    0.19</time>
   <time name="orth">    0.01    0.01</time>
   <time name="total">    0.33    0.33</time>
   <energy>
    <i name="e_fr_energy">    -25.60058889 </i>
    <i name="e_wo_entrp">    -25.59807498 </i>
    <i name="e_0_energy">    -25.59996041 </i>
   </energy>
  </scstep>
  <scstep>
   <time name="diag">    0.09    0.09</time>
   <time name="diis">    0.19    0.19</time>
   <time name="orth">    0.02    0.22</time>
   <time name="total">    0.35    0.55</time>
   <energy>
    <i name="e_fr_energy">    -25.58071335 </i>
    <i name="e_wo_entrp">    -25.58373719 </i>
    <i name="e_0_energy">    -25.58146931 </i>
   </energy>
  </scstep>
  <scstep>
   <time name="diag">    0.09    0.09</time>
   <time name="diis">    0.19    0.19</time>
   <time name="orth">    0.01    0.01</time>
   <time name="total">    0.34    0.34</time>
   <energy>
    <i name="e_fr_energy">    -25.58047313 </i>
    <i name="e_wo_entrp">    -25.58113263 </i>
    <i name="e_0_energy">    -25.58063801 </i>
   </energy>
  </scstep>
  <scstep>
   <time name="diag">    0.09    0.09</time>
   <time name="diis">    0.20    0.20</time>
   <time name="orth">    0.01    0.01</time>
   <time name="total">    0.35    0.35</time>
   <energy>
    <i name="e_fr_energy">    -25.57559614 </i>
    <i name="e_wo_entrp">    -25.57779908 </i>
    <i name="e_0_energy">    -25.57614687 </i>
   </energy>
  </scstep>
  <scstep>
   <time name="diag">    0.09    0.09</time>
   <time name="diis">    0.20    0.20</time>
   <time name="orth">    0.01    0.01</time>
   <time name="total">    0.34    0.34</time>
   <energy>
    <i name="e_fr_energy">    -25.57492701 </i>
    <i name="e_wo_entrp">    -25.57739161 </i>
    <i name="e_0_energy">    -25.57554316 </i>
   </energy>
  </scstep>
  <scstep>
   <time name="diag">    0.09    0.09</time>
   <time name="diis">    0.22    0.22</time>
   <time name="orth">    0.01    0.01</time>
   <time name="total">    0.37    0.37</time>
   <energy>
    <i name="e_fr_energy">    -25.57426702 </i>
    <i name="e_wo_entrp">    -25.57676964 </i>
    <i name="e_0_energy">    -25.57489268 </i>
   </energy>
  </scstep>
  <scstep>
   <time name="diag">    0.10    0.10</time>
   <time name="diis">    0.21    0.21</time>
   <time name="orth">    0.01    0.01</time>
   <time name="total">    0.37    0.37</time>
   <energy>
    <i name="e_fr_energy">    -25.57423250 </i>
    <i name="e_wo_entrp">    -25.57668403 </i>
    <i name="e_0_energy">    -25.57484538 </i>
   </energy>
  </scstep>
  <scstep>
   <time name="diag">    0.09    0.09</time>
   <time name="diis">    0.22    0.22</time>
   <time name="orth">    0.01    0.01</time>
   <time name="total">    0.37    0.37</time>
   <energy>
    <i name="e_fr_energy">    -25.57430375 </i>
    <i name="e_wo_entrp">    -25.57675116 </i>
    <i name="e_0_energy">    -25.57491560 </i>
   </energy>
  </scstep>
  <scstep>
   <time name="diag">    0.09    0.10</time>
   <time name="diis">    0.21    0.22</time>
   <time name="orth">    0.01    0.01</time>
   <time name="total">    0.37    0.37</time>
   <energy>
    <i name="e_fr_energy">    -25.57436883 </i>
    <i name="e_wo_entrp">    -25.57682459 </i>
    <i name="e_0_energy">    -25.57498277 </i>
   </energy>
  </scstep>
  <scstep>
   <time name="diag">    0.10    0.10</time>
   <time name="diis">    0.19    0.19</time>
   <time name="orth">    0.01    0.01</time>
   <time name="total">    0.35    0.35</time>
   <energy>
    <i name="e_fr_energy">    -25.57445969 </i>
    <i name="e_wo_entrp">    -25.57691242 </i>
    <i name="e_0_energy">    -25.57507288 </i>
   </energy>
  </scstep>
  <scstep>
   <time name="diag">    0.10    0.10</time>
   <time name="diis">    0.15    0.15</time>
   <time name="orth">    0.01    0.01</time>
   <time name="total">    0.31    0.31</time>
   <energy>
    <i name="e_fr_energy">    -25.57455482 </i>
    <i name="e_wo_entrp">    -25.57700165 </i>
    <i name="e_0_energy">    -25.57516653 </i>
   </energy>
  </scstep>
  <scstep>
   <time name="diag">    0.09    0.09</time>
   <time name="diis">    0.14    0.14</time>
   <time name="orth">    0.01    0.01</time>
   <time name="total">    0.29    0.30</time>
   <energy>
    <i name="e_fr_energy">    -25.57459271 </i>
    <i name="e_wo_entrp">    -25.57703963 </i>
    <i name="e_0_energy">    -25.57520444 </i>
   </energy>
  </scstep>
  <scstep>
   <time name="diag">    0.10    0.10</time>
   <time name="diis">    0.15    0.15</time>
   <time name="orth">    0.01    0.01</time>
   <time name="total">    0.30    0.30</time>
   <energy>
    <i name="e_fr_energy">    -25.57462629 </i>
    <i name="e_wo_entrp">    -25.57706954 </i>
    <i name="e_0_energy">    -25.57523711 </i>
   </energy>
  </scstep>
  <scstep>
   <time name="diag">    0.09    0.09</time>
   <time name="diis">    0.14    0.14</time>
   <time name="orth">    0.01    0.01</time>
   <time name="total">    0.29    0.29</time>
   <energy>
    <i name="e_fr_energy">    -25.57464971 </i>
    <i name="e_wo_entrp">    -25.57709219 </i>
    <i name="e_0_energy">    -25.57526033 </i>
   </energy>
  </scstep>
  <scstep>
   <time name="diag">    0.10    0.10</time>
   <time name="diis">    0.13    0.13</time>
   <time name="orth">    0.01    0.01</time>
   <time name="total">    0.29    0.29</time>
   <energy>
    <i name="e_fr_energy">    -25.57465256 </i>
    <i name="e_wo_entrp">    -25.57709498 </i>
    <i name="e_0_energy">    -25.57526317 </i>
   </energy>
  </scstep>
  <scstep>
   <time name="diag">    0.10    0.10</time>
   <time name="diis">    0.11    0.11</time>
   <time name="orth">    0.01    0.01</time>
   <time name="total">    0.24    0.24</time>
   <energy>
    <i name="alphaZ">    115.94204576 </i>
    <i name="ewald">   9442.53275408 </i>
    <i name="hartreedc"> -14790.91526020 </i>
    <i name="XCdc">    152.64435469 </i>
    <i name="pawpsdc">   5570.95691321 </i>
    <i name="pawaedc">  -5912.29826589 </i>
    <i name="eentropy">      0.00244273 </i>
    <i name="bandstr">      7.37998964 </i>
    <i name="atom">   5388.18037335 </i>
    <i name="e_fr_energy">    -25.57465264 </i>
    <i name="e_wo_entrp">    -25.57709537 </i>
    <i name="e_0_energy">    -25.57526332 </i>
   </energy>
  </scstep>
  <structure>
   <crystal>
    <varray name="basis" >
     <v>       1.76500000       1.76500000       0.00000000 </v>
     <v>      -1.76500000       1.76500000       0.00000000 </v>
     <v>       0.00000000       0.00000000      17.65000000 </v>
    </varray>
    <i name="volume">    109.96744250 </i>
    <varray name="rec_basis" >
     <v>       0.28328612       0.28328612       0.00000000 </v>
     <v>      -0.28328612       0.28328612       0.00000000 </v>
     <v>       0.00000000       0.00000000       0.05665722 </v>
    </varray>
   </crystal>
   <varray name="positions" >
    <v>       0.00000000       0.00000000       0.00000000 </v>
    <v>       0.50000000       0.50000000       0.10000000 </v>
    <v>       0.00000000       0.00000000       0.20000000 </v>
    <v>       0.50000000       0.50000000       0.30015793 </v>
    <v>       0.00000000      -0.00000000       0.39574059 </v>
   </varray>
  </structure>
  <varray name="forces" >
   <v>       0.00000000       0.00000000       0.42557495 </v>
   <v>      -0.00000000      -0.00000000      -0.40315647 </v>
   <v>       0.00000000      -0.00000000      -0.02497145 </v>
   <v>       0.00000000       0.00000000       0.02886488 </v>
   <v>       0.00000000       0.00000000      -0.02631190 </v>
  </varray>
  <varray name="stress" >
   <v>     -55.73665424       0.00000000      -0.00000000 </v>
   <v>       0.00000000     -55.73665424      -0.00000000 </v>
   <v>       0.00000000       0.00000000     -33.47912641 </v>
  </varray>
  <energy>
   <i name="e_fr_energy">    -25.57465264 </i>
   <i name="e_wo_entrp">    -25.57709537 </i>
   <i name="e_0_energy">    -25.57526332 </i>
  </energy>
  <time name="totalsc">    6.53    6.78</time>
 </calculation>
 <calculation>
  <scstep>
   <time name="dav">    0.41    0.41</time>
   <time name="total">    0.45    0.45</time>
   <energy>
    <i name="alphaZ">    115.94204576 </i>
    <i name="ewald">   9453.09366082 </i>
    <i name="hartreedc"> -14801.40512805 </i>
    <i name="XCdc">    152.65231774 </i>
    <i name="pawpsdc">   5570.95643563 </i>
    <i name="pawaedc">  -5912.29782834 </i>
    <i name="eentropy">      0.00244486 </i>
    <i name="bandstr">      7.30101545 </i>
    <i name="atom">   5388.18037335 </i>
    <i name="e_fr_energy">    -25.57466278 </i>
    <i name="e_wo_entrp">    -25.57710764 </i>
    <i name="e_0_energy">    -25.57527400 </i>
   </energy>
  </scstep>
  <scstep>
   <time name="diag">    0.10    0.10</time>
   <time name="diis">    0.21    0.21</time>
   <time name="orth">    0.01    0.01</time>
   <time name="total">    0.37    0.37</time>
   <energy>
    <i name="e_fr_energy">    -25.57559424 </i>
    <i name="e_wo_entrp">    -25.57782832 </i>
    <i name="e_0_energy">    -25.57615276 </i>
   </energy>
  </scstep>
  <scstep>
   <time name="diag">    0.09    0.10</time>
   <time name="diis">    0.20    0.20</time>
   <time name="orth">    0.01    0.01</time>
   <time name="total">    0.36    0.36</time>
   <energy>
    <i name="e_fr_energy">    -25.57480247 </i>
    <i name="e_wo_entrp">    -25.57723398 </i>
    <i name="e_0_energy">    -25.57541035 </i>
   </energy>
  </scstep>
  <scstep>
   <time name="diag">    0.10    0.10</time>
   <time name="diis">    0.21    0.21</time>
   <time name="orth">    0.01    0.01</time>
   <time name="total">    0.37    0.37</time>
   <energy>
    <i name="e_fr_energy">    -25.57483386 </i>
    <i name="e_wo_entrp">    -25.57739363 </i>
    <i name="e_0_energy">    -25.57547381 </i>
   </energy>
  </scstep>
  <scstep>
   <time name="diag">    0.10    0.10</time>
   <time name="diis">    0.21    0.21</time>
   <time name="orth">    0.01    0.01</time>
   <time name="total">    0.36    0.36</time>
   <energy>
    <i name="e_fr_energy">    -25.57481825 </i>
    <i name="e_wo_entrp">    -25.57701045 </i>
    <i name="e_0_energy">    -25.57536630 </i>
   </energy>
  </scstep>
  <scstep>
   <time name="diag">    0.10    0.10</time>
   <time name="diis">    0.21    0.21</time>
   <time name="orth">    0.01    0.01</time>
   <time name="total">    0.38    0.38</time>
   <energy>
    <i name="e_fr_energy">    -25.57473438 </i>
    <i name="e_wo_entrp">    -25.57716645 </i>
    <i name="e_0_energy">    -25.57534240 </i>
   </energy>
  </scstep>
  <scstep>
   <time name="diag">    0.09    0.09</time>
   <time name="diis">    0.20    0.20</time>
   <time name="orth">    0.01    0.01</time>
   <time name="total">    0.36    0.36</time>
   <energy>
    <i name="e_fr_energy">    -25.57473627 </i>
    <i name="e_wo_entrp">    -25.57718294 </i>
    <i name="e_0_energy">    -25.57534793 </i>
   </energy>
  </scstep>
  <scstep>
   <time name="diag">    0.10    0.10</time>
   <time name="diis">    0.21    0.21</time>
   <time name="orth">    0.01    0.01</time>
   <time name="total">    0.36    0.37</time>
   <energy>
    <i name="e_fr_energy">    -25.57472768 </i>
    <i name="e_wo_entrp">    -25.57715113 </i>
    <i name="e_0_energy">    -25.57533354 </i>
   </energy>
  </scstep>
  <scstep>
   <time name="diag">    0.09    0.09</time>
   <time name="diis">    0.14    0.14</time>
   <time name="orth">    0.01    0.01</time>
   <time name="total">    0.29    0.30</time>
   <energy>
    <i name="e_fr_energy">    -25.57472955 </i>
    <i name="e_wo_entrp">    -25.57715514 </i>
    <i name="e_0_energy">    -25.57533595 </i>
   </energy>
  </scstep>
  <scstep>
   <time name="diag">    0.10    0.10</time>
   <time name="diis">    0.13    0.13</time>
   <time name="orth">    0.01    0.01</time>
   <time name="total">    0.27    0.27</time>
   <energy>
    <i name="alphaZ">    115.94204576 </i>
    <i name="ewald">   9453.09366082 </i>
    <i name="hartreedc"> -14801.38809286 </i>
    <i name="XCdc">    152.65048648 </i>
    <i name="pawpsdc">   5572.42029065 </i>
    <i name="pawaedc">  -5913.77798944 </i>
    <i name="eentropy">      0.00242697 </i>
    <i name="bandstr">      7.30206797 </i>
    <i name="atom">   5388.18037335 </i>
    <i name="e_fr_energy">    -25.57473031 </i>
    <i name="e_wo_entrp">    -25.57715728 </i>
    <i name="e_0_energy">    -25.57533705 </i>
   </energy>
  </scstep>
  <structure>
   <crystal>
    <varray name="basis" >
     <v>       1.76500000       1.76500000       0.00000000 </v>
     <v>      -1.76500000       1.76500000       0.00000000 </v>
     <v>       0.00000000       0.00000000      17.65000000 </v>
    </varray>
    <i name="volume">    109.96744250 </i>
    <varray name="rec_basis" >
     <v>       0.28328612       0.28328612       0.00000000 </v>
     <v>      -0.28328612       0.28328612       0.00000000 </v>
     <v>       0.00000000       0.00000000       0.05665722 </v>
    </varray>
   </crystal>
   <varray name="positions" >
    <v>       0.00000000       0.00000000       0.00000000 </v>
    <v>       0.50000000       0.50000000       0.10000000 </v>
    <v>       0.00000000       0.00000000       0.20000000 </v>
    <v>       0.50000000       0.50000000       0.30020998 </v>
    <v>       0.00000000      -0.00000000       0.39550725 </v>
   </varray>
  </structure>
  <varray name="forces" >
   <v>      -0.00000000       0.00000000       0.42590993 </v>
   <v>       0.00000000      -0.00000000      -0.40294961 </v>
   <v>      -0.00000000      -0.00000000      -0.02301191 </v>
   <v>       0.00000000       0.00000000      -0.00105473 </v>
   <v>      -0.00000000      -0.00000000       0.00110632 </v>
  </varray>
  <varray name="stress" >
   <v>     -55.15206628       0.00000000      -0.00000000 </v>
   <v>       0.00000000     -55.15206628       0.00000000 </v>
   <v>       0.00000000       0.00000000     -32.69726303 </v>
  </varray>
  <energy>
   <i name="e_fr_energy">    -25.57473031 </i>
   <i name="e_wo_entrp">    -25.57715728 </i>
   <i name="e_0_energy">    -25.57533705 </i>
  </energy>
  <time name="totalsc">    4.06    4.12</time>
  <eigenvalues>
   <array>
    <dimension dim="1">band</dimension>
    <dimension dim="2">kpoint</dimension>
    <dimension dim="3">spin</dimension>
    <field>eigene</field>
    <field>occ</field>
    <set>
     <set comment="spin 1">
      <set comment="kpoint 1">
       <r>   -6.2763    1.0000 </r>
       <r>   -5.0892    1.0000 </r>
       <r>   -3.4094    1.0000 </r>
       <r>   -2.2681    1.0000 </r>
       <r>   -2.1831    1.0000 </r>
       <r>   -1.7501    1.0000 </r>
       <r>   -1.3856    1.0000 </r>
       <r>   -0.8732    1.0000 </r>
       <r>   -0.3926    1.0000 </r>
       <r>   -0.1595    1.0000 </r>
       <r>   -0.0358    1.0000 </r>
       <r>   -0.0358    1.0000 </r>
       <r>    0.3364    1.0000 </r>
       <r>    0.3364    1.0000 </r>
       <r>    0.5253    1.0000 </r>
       <r>    0.7992    1.0000 </r>
       <r>    0.9295    1.0000 </r>
       <r>    0.9295    1.0000 </r>
       <r>    0.9859    1.0000 </r>
       <r>    1.0245    1.0000 </r>
       <r>    1.1076    1.0000 </r>
       <r>    1.1869    1.0000 </r>
       <r>    1.4539    1.0000 </r>
       <r>    1.4539    1.0000 </r>
       <r>    1.4548    1.0000 </r>
       <r>    1.6260    0.9998 </r>
       <r>    1.6987    0.9992 </r>
       <r>    1.7271    0.9987 </r>
       <r>    1.7271    0.9987 </r>
       <r>    2.8510    0.0003 </r>
       <r>    4.2080    0.0000 </r>
       <r>    6.7702    0.0000 </r>
       <r>    8.1223    0.0000 </r>
       <r>    9.9788    0.0000 </r>
       <r>   13.1196    0.0000 </r>
       <r>   13.7858    0.0000 </r>
      </set>
      <set comment="kpoint 2">
       <r>   -5.9642    1.0000 </r>
       <r>   -4.7972    1.0000 </r>
       <r>   -3.1582    1.0000 </r>
       <r>   -2.0756    1.0000 </r>
       <r>   -1.9974    1.0000 </r>
       <r>   -1.6508    1.0000 </r>
       <r>   -1.3009    1.0000 </r>
       <r>   -0.8219    1.0000 </r>
       <r>   -0.3881    1.0000 </r>
       <r>   -0.0910    1.0000 </r>
       <r>   -0.0543    1.0000 </r>
       <r>    0.0046    1.0000 </r>
       <r>    0.1291    1.0000 </r>
       <r>    0.3116    1.0000 </r>
       <r>    0.4035    1.0000 </r>
       <r>    0.7285    1.0000 </r>
       <r>    0.7662    1.0000 </r>
       <r>    0.8616    1.0000 </r>
       <r>    0.9667    1.0000 </r>
       <r>    1.0031    1.0000 </r>
       <r>    1.1447    1.0000 </r>
       <r>    1.2231    1.0000 </r>
       <r>    1.2279    1.0000 </r>
       <r>    1.2529    1.0000 </r>
       <r>    1.5375    1.0000 </r>
       <r>    1.5440    1.0000 </r>
       <r>    1.6689    0.9996 </r>
       <r>    1.7485    0.9981 </r>
       <r>    1.8205    0.9956 </r>
       <r>    3.4540    0.0000 </r>
       <r>    4.9029    0.0000 </r>
       <r>    7.0684    0.0000 </r>
       <r>    8.4586    0.0000 </r>
       <r>   10.2288    0.0000 </r>
       <r>   13.3954    0.0000 </r>
       <r>   13.9370    0.0000 </r>
      </set>
      <set comment="kpoint 3">
       <r>   -5.0722    1.0000 </r>
       <r>   -3.9989    1.0000 </r>
       <r>   -2.5843    1.0000 </r>
       <r>   -1.7080    1.0000 </r>
       <r>   -1.6057    1.0000 </r>
       <r>   -1.3614    1.0000 </r>
       <r>   -0.9642    1.0000 </r>
       <r>   -0.5686    1.0000 </r>
       <r>   -0.4249    1.0000 </r>
       <r>   -0.0440    1.0000 </r>
       <r>   -0.0166    1.0000 </r>
       <r>    0.0304    1.0000 </r>
       <r>    0.0606    1.0000 </r>
       <r>    0.0903    1.0000 </r>
       <r>    0.2240    1.0000 </r>
       <r>    0.4553    1.0000 </r>
       <r>    0.5118    1.0000 </r>
       <r>    0.5810    1.0000 </r>
       <r>    0.7450    1.0000 </r>
       <r>    1.0603    1.0000 </r>
       <r>    1.0857    1.0000 </r>
       <r>    1.1208    1.0000 </r>
       <r>    1.1224    1.0000 </r>
       <r>    1.3344    1.0000 </r>
       <r>    1.3874    1.0000 </r>
       <r>    1.5389    1.0000 </r>
       <r>    1.6908    0.9993 </r>
       <r>    1.7114    0.9990 </r>
       <r>    2.6553    0.0049 </r>
       <r>    4.6117    0.0000 </r>
       <r>    6.3341    0.0000 </r>
       <r>    7.9465    0.0000 </r>
       <r>    9.4598    0.0000 </r>
       <r>   10.6897    0.0000 </r>
       <r>   11.2865    0.0000 </r>
       <r>   12.2200    0.0000 </r>
      </set>
      <set comment="kpoint 4">
       <r>   -3.7720    1.0000 </r>
       <r>   -3.0202    1.0000 </r>
       <r>   -2.2228    1.0000 </r>
       <r>   -1.6221    1.0000 </r>
       <r>   -1.3259    1.0000 </r>
       <r>   -0.9464    1.0000 </r>
       <r>   -0.4565    1.0000 </r>
       <r>   -0.4375    1.0000 </r>
       <r>   -0.1457    1.0000 </r>
       <r>   -0.1004    1.0000 </r>
       <r>   -0.0362    1.0000 </r>
       <r>    0.0752    1.0000 </r>
       <r>    0.0893    1.0000 </r>
       <r>    0.1560    1.0000 </r>
       <r>    0.2128    1.0000 </r>
       <r>    0.3713    1.0000 </r>
       <r>    0.4437    1.0000 </r>
       <r>    0.4848    1.0000 </r>
       <r>    0.5364    1.0000 </r>
       <r>    0.8923    1.0000 </r>
       <r>    0.9938    1.0000 </r>
       <r>    1.3640    1.0000 </r>
       <r>    1.3657    1.0000 </r>
       <r>    1.5284    1.0000 </r>
       <r>    1.5323    1.0000 </r>
       <r>    1.6179    0.9999 </r>
       <r>    1.6884    0.9994 </r>
       <r>    1.7455    0.9982 </r>
       <r>    3.6207    0.0000 </r>
       <r>    5.7847    0.0000 </r>
       <r>    7.6114    0.0000 </r>
       <r>    7.7516    0.0000 </r>
       <r>    9.1536    0.0000 </r>
       <r>    9.4548    0.0000 </r>
       <r>   10.4645    0.0000 </r>
       <r>   11.0378    0.0000 </r>
      </set>
      <set comment="kpoint 5">
       <r>   -2.5716    1.0000 </r>
       <r>   -2.4524    1.0000 </r>
       <r>   -2.1393    1.0000 </r>
       <r>   -1.7075    1.0000 </r>
       <r>   -1.3577    1.0000 </r>
       <r>   -0.5388    1.0000 </r>
       <r>   -0.4918    1.0000 </r>
       <r>   -0.2346    1.0000 </r>
       <r>   -0.1803    1.0000 </r>
       <r>   -0.0619    1.0000 </r>
       <r>   -0.0242    1.0000 </r>
       <r>   -0.0110    1.0000 </r>
       <r>    0.0429    1.0000 </r>
       <r>    0.1286    1.0000 </r>
       <r>    0.3076    1.0000 </r>
       <r>    0.3209    1.0000 </r>
       <r>    0.3367    1.0000 </r>
       <r>    0.7397    1.0000 </r>
       <r>    0.9792    1.0000 </r>
       <r>    1.0535    1.0000 </r>
       <r>    1.3509    1.0000 </r>
       <r>    1.4598    1.0000 </r>
       <r>    1.4709    1.0000 </r>
       <r>    1.6069    0.9999 </r>
       <r>    1.6550    0.9997 </r>
       <r>    2.2104    0.7226 </r>
       <r>    2.2546    0.4972 </r>
       <r>    2.5266   -0.0223 </r>
       <r>    3.7990    0.0000 </r>
       <r>    4.2328    0.0000 </r>
       <r>    6.8032    0.0000 </r>
       <r>    6.9777    0.0000 </r>
       <r>    9.0667    0.0000 </r>
       <r>    9.3965    0.0000 </r>
       <r>   10.7533    0.0000 </r>
       <r>   11.2731    0.0000 </r>
      </set>
      <set comment="kpoint 6">
       <r>   -5.6568    1.0000 </r>
       <r>   -4.5087    1.0000 </r>
       <r>   -2.9081    1.0000 </r>
       <r>   -1.8933    1.0000 </r>
       <r>   -1.8037    1.0000 </r>
       <r>   -1.5489    1.0000 </r>
       <r>   -1.2287    1.0000 </r>
       <r>   -0.7968    1.0000 </r>
       <r>   -0.4412    1.0000 </r>
       <r>   -0.0271    1.0000 </r>
       <r>   -0.0162    1.0000 </r>
       <r>    0.0132    1.0000 </r>
       <r>    0.0793    1.0000 </r>
       <r>    0.1293    1.0000 </r>
       <r>    0.3166    1.0000 </r>
       <r>    0.5978    1.0000 </r>
       <r>    0.8109    1.0000 </r>
       <r>    0.8487    1.0000 </r>
       <r>    0.8803    1.0000 </r>
       <r>    0.8970    1.0000 </r>
       <r>    0.9632    1.0000 </r>
       <r>    1.1106    1.0000 </r>
       <r>    1.2357    1.0000 </r>
       <r>    1.4053    1.0000 </r>
       <r>    1.4277    1.0000 </r>
       <r>    1.4841    1.0000 </r>
       <r>    1.5648    1.0000 </r>
       <r>    1.7178    0.9989 </r>
       <r>    2.2801    0.3641 </r>
       <r>    3.9279    0.0000 </r>
       <r>    5.4443    0.0000 </r>
       <r>    7.3658    0.0000 </r>
       <r>    8.7941    0.0000 </r>
       <r>   10.4797    0.0000 </r>
       <r>   13.6743    0.0000 </r>
       <r>   14.1462    0.0000 </r>
      </set>
      <set comment="kpoint 7">
       <r>   -4.7825    1.0000 </r>
       <r>   -3.7247    1.0000 </r>
       <r>   -2.3441    1.0000 </r>
       <r>   -1.5260    1.0000 </r>
       <r>   -1.4311    1.0000 </r>
       <r>   -1.2700    1.0000 </r>
       <r>   -0.9335    1.0000 </r>
       <r>   -0.6498    1.0000 </r>
       <r>   -0.5662    1.0000 </r>
       <r>   -0.2427    1.0000 </r>
       <r>   -0.0760    1.0000 </r>
       <r>    0.0769    1.0000 </r>
       <r>    0.1070    1.0000 </r>
       <r>    0.1287    1.0000 </r>
       <r>    0.2632    1.0000 </r>
       <r>    0.3402    1.0000 </r>
       <r>    0.4578    1.0000 </r>
       <r>    0.6127    1.0000 </r>
       <r>    0.8030    1.0000 </r>
       <r>    0.8657    1.0000 </r>
       <r>    0.9668    1.0000 </r>
       <r>    1.1766    1.0000 </r>
       <r>    1.1985    1.0000 </r>
       <r>    1.2584    1.0000 </r>
       <r>    1.3714    1.0000 </r>
       <r>    1.5131    1.0000 </r>
       <r>    1.6866    0.9994 </r>
       <r>    1.8593    0.9951 </r>
       <r>    3.0755    0.0000 </r>
       <r>    4.9950    0.0000 </r>
       <r>    6.7268    0.0000 </r>
       <r>    8.2433    0.0000 </r>
       <r>    9.7902    0.0000 </r>
       <r>   10.9897    0.0000 </r>
       <r>   11.5133    0.0000 </r>
       <r>   12.4848    0.0000 </r>
      </set>
      <set comment="kpoint 8">
       <r>   -3.5256    1.0000 </r>
       <r>   -2.7808    1.0000 </r>
       <r>   -2.0244    1.0000 </r>
       <r>   -1.4572    1.0000 </r>
       <r>   -1.1310    1.0000 </r>
       <r>   -1.0263    1.0000 </r>
       <r>   -0.6431    1.0000 </r>
       <r>   -0.5381    1.0000 </r>
       <r>   -0.3528    1.0000 </r>
       <r>   -0.2858    1.0000 </r>
       <r>   -0.0927    1.0000 </r>
       <r>   -0.0121    1.0000 </r>
       <r>    0.0544    1.0000 </r>
       <r>    0.2358    1.0000 </r>
       <r>    0.2807    1.0000 </r>
       <r>    0.3611    1.0000 </r>
       <r>    0.4330    1.0000 </r>
       <r>    0.4749    1.0000 </r>
       <r>    0.6295    1.0000 </r>
       <r>    0.9761    1.0000 </r>
       <r>    1.1261    1.0000 </r>
       <r>    1.1707    1.0000 </r>
       <r>    1.3973    1.0000 </r>
       <r>    1.4929    1.0000 </r>
       <r>    1.5409    1.0000 </r>
       <r>    1.6006    0.9999 </r>
       <r>    1.6483    0.9997 </r>
       <r>    2.3658    0.0309 </r>
       <r>    4.0859    0.0000 </r>
       <r>    6.1908    0.0000 </r>
       <r>    7.8500    0.0000 </r>
       <r>    8.1053    0.0000 </r>
       <r>    9.3460    0.0000 </r>
       <r>    9.7396    0.0000 </r>
       <r>   10.6832    0.0000 </r>
       <r>   11.3586    0.0000 </r>
      </set>
      <set comment="kpoint 9">
       <r>   -2.3856    1.0000 </r>
       <r>   -2.2534    1.0000 </r>
       <r>   -1.9731    1.0000 </r>
       <r>   -1.5938    1.0000 </r>
       <r>   -1.2514    1.0000 </r>
       <r>   -0.7142    1.0000 </r>
       <r>   -0.6590    1.0000 </r>
       <r>   -0.3718    1.0000 </r>
       <r>   -0.3278    1.0000 </r>
       <r>   -0.2449    1.0000 </r>
       <r>   -0.1830    1.0000 </r>
       <r>   -0.0606    1.0000 </r>
       <r>    0.0479    1.0000 </r>
       <r>    0.1808    1.0000 </r>
       <r>    0.2925    1.0000 </r>
       <r>    0.3337    1.0000 </r>
       <r>    0.4908    1.0000 </r>
       <r>    0.7398    1.0000 </r>
       <r>    0.7989    1.0000 </r>
       <r>    1.1734    1.0000 </r>
       <r>    1.2137    1.0000 </r>
       <r>    1.3435    1.0000 </r>
       <r>    1.5297    1.0000 </r>
       <r>    1.5647    1.0000 </r>
       <r>    1.6464    0.9998 </r>
       <r>    2.5351   -0.0185 </r>
       <r>    2.6411    0.0047 </r>
       <r>    3.2934    0.0000 </r>
       <r>    4.3613    0.0000 </r>
       <r>    4.4981    0.0000 </r>
       <r>    7.0105    0.0000 </r>
       <r>    7.2333    0.0000 </r>
       <r>    9.2380    0.0000 </r>
       <r>    9.5839    0.0000 </r>
       <r>   10.9963    0.0000 </r>
       <r>   11.5483    0.0000 </r>
      </set>
      <set comment="kpoint 10">
       <r>   -3.9807    1.0000 </r>
       <r>   -2.9997    1.0000 </r>
       <r>   -1.8092    1.0000 </r>
       <r>   -1.2919    1.0000 </r>
       <r>   -1.0296    1.0000 </r>
[...]
       <r>   -0.1727    1.0000 </r>
       <r>    0.2809    1.0000 </r>
       <r>    0.5901    1.0000 </r>
       <r>    0.6703    1.0000 </r>
       <r>    0.7445    1.0000 </r>
       <r>    0.7852    1.0000 </r>
       <r>    0.9348    1.0000 </r>
       <r>    1.0660    1.0000 </r>
       <r>    1.3918    1.0000 </r>
       <r>    1.4317    1.0000 </r>
       <r>    1.5073    1.0000 </r>
       <r>    1.5792    1.0000 </r>
       <r>    1.6351    0.9998 </r>
       <r>    1.7805    0.9970 </r>
       <r>    1.9260    1.0025 </r>
       <r>    1.9685    1.0166 </r>
       <r>    1.9875    1.0251 </r>
       <r>    2.2971    0.2803 </r>
       <r>    2.3281    0.1471 </r>
       <r>    2.3457    0.0861 </r>
       <r>    2.4394   -0.0513 </r>
       <r>    2.5896   -0.0009 </r>
       <r>    3.6721    0.0000 </r>
       <r>    5.0163    0.0000 </r>
       <r>    7.0998    0.0000 </r>
       <r>    8.4543    0.0000 </r>
       <r>   10.3081    0.0000 </r>
       <r>   13.4312    0.0000 </r>
       <r>   14.0418    0.0000 </r>
      </set>
      <set comment="kpoint 3">
       <r>   -5.1008    1.0000 </r>
       <r>   -3.9978    1.0000 </r>
       <r>   -2.4803    1.0000 </r>
       <r>   -1.3777    1.0000 </r>
       <r>   -1.2399    1.0000 </r>
       <r>   -0.8643    1.0000 </r>
       <r>   -0.4856    1.0000 </r>
       <r>    0.0029    1.0000 </r>
       <r>    0.2232    1.0000 </r>
       <r>    0.5448    1.0000 </r>
       <r>    0.6330    1.0000 </r>
       <r>    0.6909    1.0000 </r>
       <r>    0.7167    1.0000 </r>
       <r>    0.8192    1.0000 </r>
       <r>    0.9278    1.0000 </r>
       <r>    1.1266    1.0000 </r>
       <r>    1.2297    1.0000 </r>
       <r>    1.2561    1.0000 </r>
       <r>    1.4355    1.0000 </r>
       <r>    1.6634    0.9996 </r>
       <r>    1.7246    0.9987 </r>
       <r>    1.7418    0.9983 </r>
       <r>    1.8958    0.9973 </r>
       <r>    1.9085    0.9991 </r>
       <r>    2.1715    0.8839 </r>
       <r>    2.3321    0.1322 </r>
       <r>    2.5119   -0.0293 </r>
       <r>    2.5285   -0.0215 </r>
       <r>    3.0432    0.0000 </r>
       <r>    4.8306    0.0000 </r>
       <r>    6.4865    0.0000 </r>
       <r>    7.9804    0.0000 </r>
       <r>    9.4711    0.0000 </r>
       <r>   10.7979    0.0000 </r>
       <r>   11.4009    0.0000 </r>
       <r>   12.3764    0.0000 </r>
      </set>
      <set comment="kpoint 4">
       <r>   -3.7594    1.0000 </r>
       <r>   -2.9071    1.0000 </r>
       <r>   -1.9091    1.0000 </r>
       <r>   -1.1755    1.0000 </r>
       <r>   -0.8332    1.0000 </r>
       <r>   -0.5736    1.0000 </r>
       <r>   -0.0335    1.0000 </r>
       <r>    0.1571    1.0000 </r>
       <r>    0.4066    1.0000 </r>
       <r>    0.4442    1.0000 </r>
       <r>    0.5807    1.0000 </r>
       <r>    0.7458    1.0000 </r>
       <r>    0.7559    1.0000 </r>
       <r>    0.7793    1.0000 </r>
       <r>    0.8328    1.0000 </r>
       <r>    1.0129    1.0000 </r>
       <r>    1.0553    1.0000 </r>
       <r>    1.1110    1.0000 </r>
       <r>    1.1529    1.0000 </r>
       <r>    1.5676    1.0000 </r>
       <r>    1.7735    0.9973 </r>
       <r>    2.0132    1.0374 </r>
       <r>    2.1552    0.9356 </r>
       <r>    2.1587    0.9254 </r>
       <r>    2.2856    0.3365 </r>
       <r>    2.3661    0.0301 </r>
       <r>    2.4119   -0.0396 </r>
       <r>    2.5007   -0.0346 </r>
       <r>    3.8828    0.0000 </r>
       <r>    5.9456    0.0000 </r>
       <r>    7.8413    0.0000 </r>
       <r>    7.8875    0.0000 </r>
       <r>    9.3902    0.0000 </r>
       <r>    9.4978    0.0000 </r>
       <r>   10.6796    0.0000 </r>
       <r>   11.0692    0.0000 </r>
      </set>
      <set comment="kpoint 5">
       <r>   -2.3684    1.0000 </r>
       <r>   -2.1265    1.0000 </r>
       <r>   -1.7625    1.0000 </r>
       <r>   -1.2667    1.0000 </r>
       <r>   -1.0021    1.0000 </r>
       <r>   -0.0937    1.0000 </r>
       <r>    0.1251    1.0000 </r>
       <r>    0.2967    1.0000 </r>
       <r>    0.3573    1.0000 </r>
       <r>    0.5063    1.0000 </r>
       <r>    0.6234    1.0000 </r>
       <r>    0.6318    1.0000 </r>
       <r>    0.6482    1.0000 </r>
       <r>    0.7180    1.0000 </r>
       <r>    0.7494    1.0000 </r>
       <r>    0.9698    1.0000 </r>
       <r>    1.0798    1.0000 </r>
       <r>    1.4260    1.0000 </r>
       <r>    1.4801    1.0000 </r>
       <r>    1.8466    0.9951 </r>
       <r>    2.0416    1.0485 </r>
       <r>    2.1652    0.9049 </r>
       <r>    2.2731    0.3998 </r>
       <r>    2.4074   -0.0358 </r>
       <r>    2.4631   -0.0493 </r>
       <r>    2.4856   -0.0415 </r>
       <r>    2.7331    0.0028 </r>
       <r>    3.0464    0.0000 </r>
       <r>    4.0085    0.0000 </r>
       <r>    4.6020    0.0000 </r>
       <r>    7.0584    0.0000 </r>
       <r>    7.1990    0.0000 </r>
       <r>    9.3143    0.0000 </r>
       <r>    9.6424    0.0000 </r>
       <r>   10.8526    0.0000 </r>
       <r>   11.3232    0.0000 </r>
      </set>
      <set comment="kpoint 6">
       <r>   -5.6922    1.0000 </r>
       <r>   -4.5286    1.0000 </r>
       <r>   -2.8759    1.0000 </r>
       <r>   -1.6390    1.0000 </r>
       <r>   -1.5293    1.0000 </r>
       <r>   -0.9953    1.0000 </r>
       <r>   -0.6574    1.0000 </r>
       <r>   -0.1469    1.0000 </r>
       <r>    0.2357    1.0000 </r>
       <r>    0.6464    1.0000 </r>
       <r>    0.6734    1.0000 </r>
       <r>    0.6960    1.0000 </r>
       <r>    0.7065    1.0000 </r>
       <r>    0.7964    1.0000 </r>
       <r>    1.0833    1.0000 </r>
       <r>    1.2648    1.0000 </r>
       <r>    1.4066    1.0000 </r>
       <r>    1.4611    1.0000 </r>
       <r>    1.5250    1.0000 </r>
       <r>    1.5984    0.9999 </r>
       <r>    1.6886    0.9994 </r>
       <r>    1.7564    0.9978 </r>
       <r>    1.8369    0.9952 </r>
       <r>    2.1039    1.0328 </r>
       <r>    2.1741    0.8745 </r>
       <r>    2.2780    0.3749 </r>
       <r>    2.3074    0.2328 </r>
       <r>    2.5670   -0.0066 </r>
       <r>    2.8026    0.0009 </r>
       <r>    4.1743    0.0000 </r>
       <r>    5.5857    0.0000 </r>
       <r>    7.3991    0.0000 </r>
       <r>    8.7953    0.0000 </r>
       <r>   10.5587    0.0000 </r>
       <r>   13.7094    0.0000 </r>
       <r>   14.2442    0.0000 </r>
      </set>
      <set comment="kpoint 7">
       <r>   -4.8088    1.0000 </r>
       <r>   -3.7195    1.0000 </r>
       <r>   -2.2327    1.0000 </r>
       <r>   -1.1786    1.0000 </r>
       <r>   -1.0943    1.0000 </r>
       <r>   -0.7473    1.0000 </r>
       <r>   -0.4341    1.0000 </r>
       <r>   -0.0447    1.0000 </r>
       <r>    0.0904    1.0000 </r>
       <r>    0.3288    1.0000 </r>
       <r>    0.5510    1.0000 </r>
       <r>    0.7623    1.0000 </r>
       <r>    0.7992    1.0000 </r>
       <r>    0.8256    1.0000 </r>
       <r>    0.9508    1.0000 </r>
       <r>    1.0149    1.0000 </r>
       <r>    1.1619    1.0000 </r>
       <r>    1.2682    1.0000 </r>
       <r>    1.4679    1.0000 </r>
       <r>    1.4928    1.0000 </r>
       <r>    1.6378    0.9998 </r>
       <r>    1.8101    0.9959 </r>
       <r>    1.8651    0.9953 </r>
       <r>    2.0123    1.0370 </r>
       <r>    2.0470    1.0498 </r>
       <r>    2.3289    0.1441 </r>
       <r>    2.5139   -0.0283 </r>
       <r>    2.5330   -0.0194 </r>
       <r>    3.5027    0.0000 </r>
       <r>    5.2197    0.0000 </r>
       <r>    6.8741    0.0000 </r>
       <r>    8.2783    0.0000 </r>
       <r>    9.8053    0.0000 </r>
       <r>   11.0966    0.0000 </r>
       <r>   11.6305    0.0000 </r>
       <r>   12.6419    0.0000 </r>
      </set>
      <set comment="kpoint 8">
       <r>   -3.5066    1.0000 </r>
       <r>   -2.6594    1.0000 </r>
       <r>   -1.6949    1.0000 </r>
       <r>   -0.9936    1.0000 </r>
       <r>   -0.6506    1.0000 </r>
       <r>   -0.6190    1.0000 </r>
       <r>   -0.1148    1.0000 </r>
       <r>   -0.0306    1.0000 </r>
       <r>    0.2192    1.0000 </r>
       <r>    0.2761    1.0000 </r>
       <r>    0.4969    1.0000 </r>
       <r>    0.6043    1.0000 </r>
       <r>    0.6652    1.0000 </r>
       <r>    0.8851    1.0000 </r>
       <r>    0.9143    1.0000 </r>
       <r>    1.0083    1.0000 </r>
       <r>    1.0727    1.0000 </r>
       <r>    1.1999    1.0000 </r>
       <r>    1.2738    1.0000 </r>
       <r>    1.6293    0.9998 </r>
       <r>    1.8492    0.9951 </r>
       <r>    1.8665    0.9953 </r>
       <r>    2.0939    1.0413 </r>
       <r>    2.1488    0.9531 </r>
       <r>    2.2507    0.5178 </r>
       <r>    2.4013   -0.0298 </r>
       <r>    2.4500   -0.0515 </r>
       <r>    2.9144    0.0001 </r>
       <r>    4.3790    0.0000 </r>
       <r>    6.3570    0.0000 </r>
       <r>    8.0777    0.0000 </r>
       <r>    8.2396    0.0000 </r>
       <r>    9.5699    0.0000 </r>
       <r>    9.7806    0.0000 </r>
       <r>   10.8883    0.0000 </r>
       <r>   11.3907    0.0000 </r>
      </set>
      <set comment="kpoint 9">
       <r>   -2.1764    1.0000 </r>
       <r>   -1.9122    1.0000 </r>
       <r>   -1.5795    1.0000 </r>
       <r>   -1.1321    1.0000 </r>
       <r>   -0.9025    1.0000 </r>
       <r>   -0.2218    1.0000 </r>
       <r>   -0.0628    1.0000 </r>
       <r>    0.1065    1.0000 </r>
       <r>    0.2237    1.0000 </r>
       <r>    0.2742    1.0000 </r>
       <r>    0.4607    1.0000 </r>
       <r>    0.5291    1.0000 </r>
       <r>    0.6173    1.0000 </r>
       <r>    0.8153    1.0000 </r>
       <r>    0.9100    1.0000 </r>
       <r>    1.0023    1.0000 </r>
       <r>    1.1421    1.0000 </r>
       <r>    1.3478    1.0000 </r>
       <r>    1.4795    1.0000 </r>
       <r>    1.7882    0.9967 </r>
       <r>    2.0127    1.0371 </r>
       <r>    2.0655    1.0515 </r>
       <r>    2.2729    0.4012 </r>
       <r>    2.2824    0.3525 </r>
       <r>    2.4350   -0.0506 </r>
       <r>    3.1022    0.0000 </r>
       <r>    3.1360    0.0000 </r>
       <r>    3.5891    0.0000 </r>
       <r>    4.5949    0.0000 </r>
       <r>    4.8570    0.0000 </r>
       <r>    7.2642    0.0000 </r>
       <r>    7.4551    0.0000 </r>
       <r>    9.4645    0.0000 </r>
       <r>    9.8117    0.0000 </r>
       <r>   11.0878    0.0000 </r>
       <r>   11.5991    0.0000 </r>
      </set>
      <set comment="kpoint 10">
       <r>   -3.9909    1.0000 </r>
       <r>   -2.9655    1.0000 </r>
       <r>   -1.6390    1.0000 </r>
       <r>   -0.9119    1.0000 </r>
       <r>   -0.7003    1.0000 </r>
       <r>   -0.4137    1.0000 </r>
       <r>   -0.2712    1.0000 </r>
       <r>   -0.2134    1.0000 </r>
       <r>   -0.0876    1.0000 </r>
       <r>   -0.0866    1.0000 </r>
       <r>    0.3439    1.0000 </r>
       <r>    0.5456    1.0000 </r>
       <r>    0.7129    1.0000 </r>
       <r>    1.0240    1.0000 </r>
       <r>    1.0581    1.0000 </r>
       <r>    1.1606    1.0000 </r>
       <r>    1.2057    1.0000 </r>
       <r>    1.3218    1.0000 </r>
       <r>    1.3628    1.0000 </r>
       <r>    1.4749    1.0000 </r>
       <r>    1.6625    0.9996 </r>
       <r>    1.6851    0.9994 </r>
       <r>    1.6884    0.9994 </r>
       <r>    1.9424    1.0070 </r>
       <r>    2.2257    0.6476 </r>
       <r>    2.2950    0.2904 </r>
       <r>    2.5448   -0.0145 </r>
       <r>    3.0377    0.0000 </r>
       <r>    4.3398    0.0000 </r>
       <r>    6.1861    0.0000 </r>
       <r>    7.9242    0.0000 </r>
       <r>    9.1583    0.0000 </r>
       <r>   10.7897    0.0000 </r>
       <r>   11.4150    0.0000 </r>
       <r>   11.9975    0.0000 </r>
       <r>   12.7140    0.0000 </r>
      </set>
      <set comment="kpoint 11">
       <r>   -2.8573    1.0000 </r>
       <r>   -2.0329    1.0000 </r>
       <r>   -1.1987    1.0000 </r>
       <r>   -0.8588    1.0000 </r>
       <r>   -0.6966    1.0000 </r>
       <r>   -0.4306    1.0000 </r>
       <r>   -0.3176    1.0000 </r>
       <r>   -0.2170    1.0000 </r>
       <r>   -0.0080    1.0000 </r>
       <r>    0.0203    1.0000 </r>
       <r>    0.1983    1.0000 </r>
       <r>    0.3697    1.0000 </r>
       <r>    0.5940    1.0000 </r>
       <r>    1.1505    1.0000 </r>
       <r>    1.1825    1.0000 </r>
       <r>    1.2141    1.0000 </r>
       <r>    1.2765    1.0000 </r>
       <r>    1.3566    1.0000 </r>
       <r>    1.4468    1.0000 </r>
       <r>    1.7335    0.9985 </r>
       <r>    1.7898    0.9967 </r>
       <r>    1.8964    0.9974 </r>
       <r>    2.0211    1.0409 </r>
       <r>    2.1113    1.0245 </r>
       <r>    2.3299    0.1406 </r>
       <r>    2.4858   -0.0414 </r>
       <r>    2.7458    0.0023 </r>
       <r>    3.7996    0.0000 </r>
       <r>    5.4400    0.0000 </r>
       <r>    7.4241    0.0000 </r>
       <r>    8.6111    0.0000 </r>
       <r>    9.2246    0.0000 </r>
       <r>   10.0491    0.0000 </r>
       <r>   10.6233    0.0000 </r>
       <r>   11.4949    0.0000 </r>
       <r>   12.3382    0.0000 </r>
      </set>
      <set comment="kpoint 12">
       <r>   -1.8195    1.0000 </r>
       <r>   -1.4079    1.0000 </r>
       <r>   -1.2226    1.0000 </r>
       <r>   -1.0376    1.0000 </r>
       <r>   -0.9187    1.0000 </r>
       <r>   -0.5144    1.0000 </r>
       <r>   -0.4123    1.0000 </r>
       <r>   -0.2689    1.0000 </r>
       <r>   -0.0190    1.0000 </r>
       <r>    0.1124    1.0000 </r>
       <r>    0.3549    1.0000 </r>
       <r>    0.4499    1.0000 </r>
       <r>    0.5566    1.0000 </r>
       <r>    1.1641    1.0000 </r>
       <r>    1.1729    1.0000 </r>
       <r>    1.1995    1.0000 </r>
       <r>    1.2837    1.0000 </r>
       <r>    1.4241    1.0000 </r>
       <r>    1.6884    0.9994 </r>
       <r>    1.9158    1.0003 </r>
       <r>    2.0155    1.0384 </r>
       <r>    2.0998    1.0366 </r>
       <r>    2.3330    0.1291 </r>
       <r>    2.4347   -0.0505 </r>
       <r>    2.4541   -0.0511 </r>
       <r>    3.3476    0.0000 </r>
       <r>    3.9708    0.0000 </r>
       <r>    5.0389    0.0000 </r>
       <r>    5.4726    0.0000 </r>
       <r>    5.8957    0.0000 </r>
       <r>    7.8445    0.0000 </r>
       <r>    8.1920    0.0000 </r>
       <r>    9.9893    0.0000 </r>
       <r>   10.3877    0.0000 </r>
       <r>   11.8080    0.0000 </r>
       <r>   12.4094    0.0000 </r>
      </set>
      <set comment="kpoint 13">
       <r>   -2.1616    1.0000 </r>
       <r>   -1.4116    1.0000 </r>
       <r>   -1.1521    1.0000 </r>
       <r>   -0.8431    1.0000 </r>
       <r>   -0.7918    1.0000 </r>
       <r>   -0.7435    1.0000 </r>
       <r>   -0.5792    1.0000 </r>
       <r>   -0.3925    1.0000 </r>
       <r>   -0.1474    1.0000 </r>
       <r>    0.1099    1.0000 </r>
       <r>    0.1115    1.0000 </r>
       <r>    0.5384    1.0000 </r>
       <r>    0.6288    1.0000 </r>
       <r>    1.5203    1.0000 </r>
       <r>    1.5526    1.0000 </r>
       <r>    1.5887    0.9999 </r>
       <r>    1.6278    0.9998 </r>
       <r>    1.6406    0.9998 </r>
       <r>    1.7859    0.9968 </r>
       <r>    1.9275    1.0029 </r>
       <r>    1.9614    1.0137 </r>
       <r>    2.0442    1.0491 </r>
       <r>    2.0504    1.0505 </r>
       <r>    2.3156    0.1973 </r>
       <r>    2.3518    0.0678 </r>
       <r>    2.5542   -0.0109 </r>
       <r>    3.5203    0.0000 </r>
       <r>    4.9732    0.0000 </r>
       <r>    6.8468    0.0000 </r>
       <r>    8.2957    0.0000 </r>
       <r>    8.9775    0.0000 </r>
       <r>    9.7218    0.0000 </r>
       <r>   10.9151    0.0000 </r>
       <r>   11.7608    0.0000 </r>
       <r>   11.9525    0.0000 </r>
       <r>   12.4179    0.0000 </r>
      </set>
      <set comment="kpoint 14">
       <r>   -1.7301    1.0000 </r>
       <r>   -1.4412    1.0000 </r>
       <r>   -1.1500    1.0000 </r>
       <r>   -0.9845    1.0000 </r>
       <r>   -0.9166    1.0000 </r>
       <r>   -0.7791    1.0000 </r>
       <r>   -0.7449    1.0000 </r>
       <r>   -0.4776    1.0000 </r>
       <r>   -0.3487    1.0000 </r>
       <r>   -0.0556    1.0000 </r>
       <r>    0.3263    1.0000 </r>
       <r>    0.8078    1.0000 </r>
       <r>    0.9621    1.0000 </r>
       <r>    1.5686    1.0000 </r>
       <r>    1.6047    0.9999 </r>
       <r>    1.7702    0.9974 </r>
       <r>    1.8164    0.9957 </r>
       <r>    1.8871    0.9965 </r>
       <r>    1.9054    0.9986 </r>
       <r>    2.0372    1.0471 </r>
       <r>    2.1538    0.9394 </r>
       <r>    2.3103    0.2200 </r>
       <r>    2.3502    0.0723 </r>
       <r>    2.4519   -0.0513 </r>
       <r>    2.6018    0.0013 </r>
       <r>    3.7914    0.0000 </r>
       <r>    5.0452    0.0000 </r>
       <r>    6.0859    0.0000 </r>
       <r>    6.6645    0.0000 </r>
       <r>    7.3146    0.0000 </r>
       <r>    8.8562    0.0000 </r>
       <r>    9.3142    0.0000 </r>
       <r>   11.0522    0.0000 </r>
       <r>   11.4979    0.0000 </r>
       <r>   12.9898    0.0000 </r>
       <r>   13.2223    0.0000 </r>
      </set>
      <set comment="kpoint 15">
       <r>   -1.7724    1.0000 </r>
       <r>   -1.6693    1.0000 </r>
       <r>   -1.2813    1.0000 </r>
       <r>   -1.0975    1.0000 </r>
       <r>   -1.0886    1.0000 </r>
       <r>   -0.9072    1.0000 </r>
       <r>   -0.6750    1.0000 </r>
       <r>   -0.6104    1.0000 </r>
       <r>   -0.5965    1.0000 </r>
       <r>    0.1559    1.0000 </r>
       <r>    0.1980    1.0000 </r>
       <r>    1.1693    1.0000 </r>
       <r>    1.2133    1.0000 </r>
       <r>    1.7315    0.9986 </r>
       <r>    1.7974    0.9964 </r>
       <r>    2.0821    1.0478 </r>
       <r>    2.1472    0.9571 </r>
       <r>    2.2081    0.7335 </r>
       <r>    2.2295    0.6283 </r>
       <r>    2.3050    0.2435 </r>
       <r>    2.3664    0.0294 </r>
       <r>    2.4701   -0.0474 </r>
       <r>    2.5181   -0.0263 </r>
       <r>    2.7226    0.0032 </r>
       <r>    2.7823    0.0013 </r>
       <r>    4.7481    0.0000 </r>
       <r>    5.9572    0.0000 </r>
       <r>    6.4445    0.0000 </r>
       <r>    7.7108    0.0000 </r>
       <r>    8.4861    0.0000 </r>
       <r>   10.0357    0.0000 </r>
       <r>   10.6387    0.0000 </r>
       <r>   11.8014    0.0000 </r>
       <r>   12.4077    0.0000 </r>
       <r>   12.6338    0.0000 </r>
       <r>   12.7130    0.0000 </r>
      </set>
     </set>
    </set>
   </array>
  </eigenvalues>
  <separator name="orbital magnetization" >
   <v name="MAGDIPOLOUT">      0.00000000      0.00000000      0.00000000</v>
  </separator>
 </calculation>
 <structure name="finalpos" >
  <crystal>
   <varray name="basis" >
    <v>       1.76500000       1.76500000       0.00000000 </v>
    <v>      -1.76500000       1.76500000       0.00000000 </v>
    <v>       0.00000000       0.00000000      17.65000000 </v>
   </varray>
   <i name="volume">    109.96744250 </i>
   <varray name="rec_basis" >
    <v>       0.28328612       0.28328612       0.00000000 </v>
    <v>      -0.28328612       0.28328612       0.00000000 </v>
    <v>       0.00000000       0.00000000       0.05665722 </v>
   </varray>
  </crystal>
  <varray name="positions" >
   <v>       0.00000000       0.00000000       0.00000000 </v>
   <v>       0.50000000       0.50000000       0.10000000 </v>
   <v>       0.00000000       0.00000000       0.20000000 </v>
   <v>       0.50000000       0.50000000       0.30020998 </v>
   <v>       0.00000000      -0.00000000       0.39550725 </v>
  </varray>
  <varray name="selective"  type="logical" >
   <v type="logical" >  F  F  F </v>
   <v type="logical" >  F  F  F </v>
   <v type="logical" >  F  F  F </v>
   <v type="logical" >  T  T  T </v>
   <v type="logical" >  T  T  T </v>
  </varray>
  <nose>
   <v>      -3.00000000       0.00000000       0.00010000       0.00010000 </v>
  </nose>
 </structure>
</modeling>
