clean Ni(100) surface                   
           1
     1.765000    1.765000    0.000000
    -1.765000    1.765000    0.000000
     0.000000    0.000000   17.650000
   Ni
     5
Direct configuration=     1
   0.00000000  0.00000000  0.00000000
   0.50000000  0.50000000  0.10000000
   0.00000000  0.00000000  0.20000000
   0.50000000  0.50000000  0.30000000
   0.00000000  0.00000000  0.40000000
Direct configuration=     2
   0.00000000  0.00000000  0.00000000
   0.50000000  0.50000000  0.10000000
   0.00000000  0.00000000  0.20000000
   0.50000000  0.50000000  0.30171807
  -0.00000000  0.00000000  0.39821632
Direct configuration=     3
   0.00000000  0.00000000  0.00000000
   0.50000000  0.50000000  0.10000000
   0.00000000  0.00000000  0.20000000
   0.50000000  0.50000000  0.30169263
   0.00000000  0.00000000  0.39757654
Direct configuration=     4
   0.00000000  0.00000000  0.00000000
   0.50000000  0.50000000  0.10000000
   0.00000000  0.00000000  0.20000000
   0.50000000  0.50000000  0.30015793
   0.00000000 -0.00000000  0.39574059
Direct configuration=     5
   0.00000000  0.00000000  0.00000000
   0.50000000  0.50000000  0.10000000
   0.00000000  0.00000000  0.20000000
   0.50000000  0.50000000  0.30020998
   0.00000000 -0.00000000  0.39550725
