diamond Si                              
   5.30000000000000     
     0.000000    0.500000    0.500000
     0.500000    0.000000    0.500000
     0.500000    0.500000    0.000000
   Si
     2
Direct
  0.875000  0.875000  0.875000
  0.125000  0.125000  0.125000
 
   28   28   28
  22.732      22.597      22.121      21.056      19.254      17.046      15.186      14.456      15.186      17.046    
  19.254      21.056      22.122      22.597      22.732      22.597      22.122      21.056      19.254      17.046    
  15.186      14.456      15.186      17.046      19.254      21.056      22.121      22.597      22.597      22.730    
  22.108      20.345      17.612      14.746      12.899      12.899      14.746      17.612      20.345      22.108    
  22.730      22.597      22.110      21.389      20.421      19.128      17.534      15.984      15.009      15.009    
  15.984      17.534      19.128      20.421      21.389      22.110      22.121      22.108      20.719      17.835    
  14.161      11.048      9.8247      11.048      14.161      17.835      20.719      22.108      22.122      21.389    
  20.372      19.216      17.954      16.627      15.352      14.386      14.022      14.386      15.352      16.627    
  17.954      19.216      20.373      21.389      21.056      20.345      17.835      13.902      9.8096      7.1900    
  7.1900      9.8094      13.902      17.834      20.345      21.056      20.421      19.216      17.849      16.466    
  15.131      13.919      12.962      12.425      12.425      12.962      13.919      15.131      16.466      17.850    
  19.216      20.421      19.254      17.612      14.161      9.8096      6.1537      4.7248      6.1537      9.8096    
  14.162      17.612      19.254      19.128      17.954      16.466      14.951      13.540      12.304      11.314    
  10.661      10.431      10.661      11.314      12.304      13.540      14.951      16.466      17.954      19.128    
  17.046      14.746      11.048      7.1900      4.7248      4.7247      7.1900      11.048      14.746      17.046    
  17.534      16.626      15.131      13.540      12.047      10.755      9.7173      8.9827      8.5986      8.5985    
  8.9826      9.7174      10.755      12.047      13.540      15.131      16.627      17.534      15.186      12.899    
  9.8247      7.1900      6.1537      7.1900      9.8248      12.899      15.186      15.984      15.352      13.919    
  12.304      10.755      9.4017      8.3084      7.5051      7.0118      6.8451      7.0118      7.5051      8.3084    
  9.4016      10.755      12.304      13.919      15.352      15.984      14.456      12.899      11.048      9.8094    
  9.8096      11.048      12.899      14.455      15.009      14.386      12.962      11.314      9.7172      8.3085    
  7.1590      6.2942      5.7181      5.4300      5.4302      5.7182      6.2941      7.1587      8.3084      9.7174    
  11.314      12.962      14.386      15.009      15.186      14.746      14.161      13.902      14.162      14.746    
  15.186      15.009      14.022      12.425      10.661      8.9825      7.5050      6.2941      5.3701      4.7265    
  4.3480      4.2231      4.3480      4.7265      5.3702      6.2941      7.5051      8.9826      10.661      12.425    
  14.022      15.009      17.046      17.612      17.835      17.834      17.612      17.046      15.984      14.386    
  12.425      10.431      8.5986      7.0118      5.7181      4.7262      4.0188      3.5678      3.3490      3.3488    
  3.5677      4.0189      4.7265      5.7182      7.0118      8.5985      10.431      12.425      14.386      15.984    
  19.254      20.345      20.719      20.345      19.254      17.534      15.352      12.962      10.661      8.5986    
  6.8451      5.4302      4.3480      3.5677      3.0484      2.7534      2.6579      2.7534      3.0485      3.5677    
  4.3480      5.4302      6.8451      8.5986      10.661      12.962      15.352      17.534      21.056      22.108    
  22.108      21.056      19.128      16.626      13.919      11.314      8.9825      7.0118      5.4302      4.2233    
  3.3490      2.7534      2.3868      2.2128      2.2128      2.3868      2.7534      3.3488      4.2231      5.4300    
  7.0118      8.9827      11.314      13.919      16.627      19.128      22.122      22.730      22.122      20.421    
  17.954      15.131      12.304      9.7172      7.5050      5.7181      4.3480      3.3490      2.6579      2.2129    
  1.9655      1.8863      1.9655      2.2128      2.6579      3.3490      4.3480      5.7181      7.5051      9.7173    
  12.304      15.131      17.954      20.421      22.597      22.597      21.389      19.216      16.466      13.540    
  10.755      8.3085      6.2941      4.7262      3.5677      2.7534      2.2129      1.8863      1.7331      1.7331    
  1.8863      2.2128      2.7534      3.5678      4.7265      6.2942      8.3084      10.755      13.540      16.466    
  19.216      21.389      22.732      22.110      20.372      17.849      14.951      12.047      9.4017      7.1590    
  5.3701      4.0188      3.0484      2.3868      1.9655      1.7331      1.6589      1.7331      1.9655      2.3868    
  3.0484      4.0188      5.3701      7.1590      9.4017      12.047      14.951      17.849      20.372      22.110    
  22.597      21.389      19.216      16.466      13.540      10.755      8.3084      6.2942      4.7265      3.5678    
  2.7534      2.2128      1.8863      1.7331      1.7331      1.8863      2.2129      2.7534      3.5677      4.7262    
  6.2941      8.3085      10.755      13.540      16.466      19.216      21.389      22.597      22.122      20.421    
  17.954      15.131      12.304      9.7173      7.5051      5.7181      4.3480      3.3490      2.6579      2.2128    
  1.9655      1.8863      1.9655      2.2129      2.6579      3.3490      4.3480      5.7181      7.5050      9.7172    
  12.304      15.131      17.954      20.421      22.122      22.730      21.056      19.128      16.627      13.919    
  11.314      8.9827      7.0118      5.4300      4.2231      3.3488      2.7534      2.3868      2.2128      2.2128    
  2.3868      2.7534      3.3490      4.2233      5.4302      7.0118      8.9825      11.314      13.919      16.626    
  19.128      21.056      22.108      22.108      19.254      17.534      15.352      12.962      10.661      8.5986    
  6.8451      5.4302      4.3480      3.5677      3.0485      2.7534      2.6579      2.7534      3.0484      3.5677    
  4.3480      5.4302      6.8451      8.5986      10.661      12.962      15.352      17.534      19.254      20.345    
  20.719      20.345      17.046      15.984      14.386      12.425      10.431      8.5985      7.0118      5.7182    
  4.7265      4.0189      3.5677      3.3488      3.3490      3.5678      4.0188      4.7262      5.7181      7.0118    
  8.5986      10.431      12.425      14.386      15.984      17.046      17.612      17.834      17.835      17.612    
  15.186      15.009      14.022      12.425      10.661      8.9826      7.5051      6.2941      5.3702      4.7265    
  4.3480      4.2231      4.3480      4.7265      5.3701      6.2941      7.5050      8.9825      10.661      12.425    
  14.022      15.009      15.186      14.746      14.162      13.902      14.161      14.746      14.456      15.009    
  14.386      12.962      11.314      9.7174      8.3084      7.1587      6.2941      5.7182      5.4302      5.4300    
  5.7181      6.2942      7.1590      8.3085      9.7172      11.314      12.962      14.386      15.009      14.455    
  12.899      11.048      9.8096      9.8094      11.048      12.899      15.186      15.984      15.352      13.919    
  12.304      10.755      9.4016      8.3084      7.5051      7.0118      6.8451      7.0118      7.5051      8.3084    
  9.4017      10.755      12.304      13.919      15.352      15.984      15.186      12.899      9.8248      7.1900    
  6.1537      7.1900      9.8247      12.899      17.046      17.534      16.627      15.131      13.540      12.047    
  10.755      9.7174      8.9826      8.5985      8.5986      8.9827      9.7173      10.755      12.047      13.540    
  15.131      16.626      17.534      17.046      14.746      11.048      7.1900      4.7247      4.7248      7.1900    
  11.048      14.746      19.254      19.128      17.954      16.466      14.951      13.540      12.304      11.314    
  10.661      10.431      10.661      11.314      12.304      13.540      14.951      16.466      17.954      19.128    
  19.254      17.612      14.162      9.8096      6.1537      4.7248      6.1537      9.8096      14.161      17.612    
  21.056      20.421      19.216      17.850      16.466      15.131      13.919      12.962      12.425      12.425    
  12.962      13.919      15.131      16.466      17.849      19.216      20.421      21.056      20.345      17.834    
  13.902      9.8094      7.1900      7.1900      9.8096      13.902      17.835      20.345      22.121      21.389    
  20.373      19.216      17.954      16.627      15.352      14.386      14.022      14.386      15.352      16.627    
  17.954      19.216      20.372      21.389      22.122      22.108      20.719      17.835      14.161      11.048    
  9.8247      11.048      14.161      17.835      20.719      22.108      22.597      22.110      21.389      20.421    
  19.128      17.534      15.984      15.009      15.009      15.984      17.534      19.128      20.421      21.389    
  22.110      22.597      22.730      22.108      20.345      17.612      14.746      12.899      12.899      14.746    
  17.612      20.345      22.108      22.730      22.597      22.730      22.108      20.345      17.612      14.746    
  12.899      12.899      14.746      17.612      20.345      22.108      22.730      22.597      22.110      21.389    
  20.421      19.128      17.534      15.984      15.009      15.009      15.984      17.534      19.128      20.421    
  21.389      22.110      22.730      22.671      21.141      18.026      14.086      10.755      9.4489      10.756    
  14.087      18.027      21.141      22.670      22.730      21.979      20.931      19.739      18.437      17.060    
  15.725      14.709      14.325      14.710      15.725      17.060      18.437      19.739      20.931      21.979    
  22.108      21.141      18.145      13.573      8.8632      5.8619      5.8622      8.8638      13.573      18.144    
  21.141      22.108      21.521      20.253      18.807      17.342      15.923      14.628      13.600      13.018    
  13.018      13.600      14.628      15.923      17.342      18.808      20.253      21.521      20.345      18.026    
  13.573      8.1129      3.5807      1.8173      3.5806      8.1128      13.573      18.027      20.345      20.518    
  19.345      17.749      16.113      14.584      13.237      12.152      11.432      11.178      11.432      12.151    
  13.237      14.584      16.113      17.749      19.345      20.518      17.612      14.086      8.8632      3.5807    
 0.24873     0.24863      3.5806      8.8633      14.086      17.612      18.829      18.164      16.602      14.877    
  13.240      11.813      10.661      9.8401      9.4090      9.4088      9.8399      10.661      11.814      13.240    
  14.876      16.602      18.164      18.829      14.746      10.755      5.8619      1.8173     0.24863      1.8174    
  5.8620      10.755      14.746      16.760      16.737      15.410      13.693      12.001      10.502      9.2794    
  8.3748      7.8163      7.6269      7.8163      8.3749      9.2796      10.502      12.001      13.693      15.410    
  16.737      16.760      12.899      9.4489      5.8622      3.5806      3.5806      5.8620      9.4486      12.899    
  15.016      15.359      14.293      12.631      10.926      9.3796      8.0969      7.1217      6.4673      6.1386    
  6.1387      6.4675      7.1217      8.0967      9.3795      10.926      12.631      14.292      15.358      15.016    
  12.899      10.756      8.8638      8.1128      8.8633      10.755      12.899      14.331      14.495      13.461    
  11.802      10.075      8.4887      7.1544      6.1195      5.3909      4.9596      4.8169      4.9596      5.3909    
  6.1194      7.1543      8.4886      10.075      11.802      13.460      14.494      14.331      14.746      14.087    
  13.573      13.573      14.086      14.746      15.016      14.495      13.148      11.339      9.5184      7.8642    
  6.4694      5.3757      4.5841      4.0749      3.8264      3.8263      4.0747      4.5842      5.3760      6.4695    
  7.8640      9.5183      11.339      13.149      14.494      15.016      17.612      18.027      18.144      18.027    
  17.612      16.760      15.359      13.461      11.339      9.3236      7.5400      6.0524      4.8855      4.0291    
  3.4527      3.1229      3.0158      3.1229      3.4527      4.0292      4.8856      6.0524      7.5400      9.3237    
  11.339      13.460      15.358      16.760      20.345      21.141      21.141      20.345      18.829      16.737    
  14.293      11.802      9.5184      7.5400      5.9119      4.6419      3.7057      3.0601      2.6596      2.4688    
  2.4689      2.6597      3.0600      3.7056      4.6419      5.9120      7.5401      9.5184      11.801      14.293    
  16.737      18.829      22.108      22.670      22.108      20.518      18.164      15.410      12.631      10.075    
  7.8642      6.0524      4.6419      3.5994      2.8707      2.3981      2.1343      2.0496      2.1342      2.3980    
  2.8706      3.5994      4.6418      6.0523      7.8642      10.075      12.631      15.410      18.164      20.518    
  22.730      22.730      21.521      19.345      16.602      13.693      10.926      8.4887      6.4694      4.8855    
  3.7057      2.8707      2.3136      1.9760      1.8173      1.8173      1.9759      2.3135      2.8707      3.7056    
  4.8855      6.4694      8.4887      10.926      13.693      16.602      19.345      21.521      22.597      21.979    
  20.253      17.749      14.877      12.001      9.3796      7.1544      5.3757      4.0291      3.0601      2.3981    
  1.9760      1.7430      1.6686      1.7430      1.9760      2.3980      3.0601      4.0292      5.3759      7.1545    
  9.3794      12.001      14.876      17.749      20.253      21.979      22.110      20.931      18.807      16.113    
  13.240      10.502      8.0969      6.1195      4.5841      3.4527      2.6596      2.1343      1.8173      1.6686    
  1.6686      1.8173      2.1343      2.6596      3.4527      4.5841      6.1195      8.0969      10.502      13.240    
  16.113      18.807      20.931      22.110      21.389      19.739      17.342      14.584      11.813      9.2794    
  7.1217      5.3909      4.0749      3.1229      2.4688      2.0496      1.8173      1.7430      1.8173      2.0497    
  2.4689      3.1229      4.0746      5.3907      7.1217      9.2797      11.814      14.584      17.342      19.739    
  21.389      21.979      20.421      18.437      15.923      13.237      10.661      8.3748      6.4673      4.9596    
  3.8264      3.0158      2.4689      2.1342      1.9759      1.9760      2.1343      2.4689      3.0159      3.8265    
  4.9597      6.4672      8.3748      10.661      13.237      15.923      18.437      20.421      21.521      21.521    
  19.128      17.060      14.628      12.152      9.8401      7.8163      6.1386      4.8169      3.8263      3.1229    
  2.6597      2.3980      2.3135      2.3980      2.6596      3.1229      3.8265      4.8172      6.1388      7.8162    
  9.8398      12.151      14.628      17.060      19.128      20.518      21.008      20.518      17.534      15.725    
  13.600      11.432      9.4090      7.6269      6.1387      4.9596      4.0747      3.4527      3.0600      2.8706    
  2.8707      3.0601      3.4527      4.0746      4.9597      6.1388      7.6269      9.4089      11.432      13.600    
  15.725      17.534      18.829      19.499      19.499      18.829      15.984      14.709      13.018      11.178    
  9.4088      7.8163      6.4675      5.3909      4.5842      4.0292      3.7056      3.5994      3.7056      4.0292    
  4.5841      5.3907      6.4672      7.8162      9.4089      11.178      13.018      14.710      15.984      16.760    
  17.128      17.230      17.128      16.760      15.009      14.325      13.018      11.432      9.8399      8.3749    
  7.1217      6.1194      5.3760      4.8856      4.6419      4.6418      4.8855      5.3759      6.1195      7.1217    
  8.3748      9.8398      11.432      13.018      14.325      15.009      15.016      14.626      14.274      14.273    
  14.626      15.016      15.009      14.710      13.600      12.151      10.661      9.2796      8.0967      7.1543    
  6.4695      6.0524      5.9120      6.0523      6.4694      7.1545      8.0969      9.2797      10.661      12.151    
  13.600      14.710      15.009      14.331      13.009      11.743      11.226      11.743      13.009      14.331    
  15.984      15.725      14.628      13.237      11.814      10.502      9.3795      8.4886      7.8640      7.5400    
  7.5401      7.8642      8.4887      9.3794      10.502      11.814      13.237      14.628      15.725      15.984    
  15.016      13.009      10.746      9.2535      9.2533      10.745      13.009      15.016      17.534      17.060    
  15.923      14.584      13.240      12.001      10.926      10.075      9.5183      9.3237      9.5184      10.075    
  10.926      12.001      13.240      14.584      15.923      17.060      17.534      16.760      14.626      11.743    
  9.2535      8.2696      9.2531      11.743      14.626      16.760      19.128      18.437      17.342      16.113    
  14.876      13.693      12.631      11.802      11.339      11.339      11.801      12.631      13.693      14.876    
  16.113      17.342      18.437      19.128      18.829      17.128      14.274      11.226      9.2533      9.2531    
  11.225      14.273      17.128      18.829      20.421      19.739      18.808      17.749      16.602      15.410    
  14.292      13.460      13.149      13.460      14.293      15.410      16.602      17.749      18.807      19.739    
  20.421      20.518      19.499      17.230      14.273      11.743      10.745      11.743      14.273      17.230    
  19.499      20.518      21.389      20.931      20.253      19.345      18.164      16.737      15.358      14.494    
  14.494      15.358      16.737      18.164      19.345      20.253      20.931      21.389      21.521      21.008    
  19.499      17.128      14.626      13.009      13.009      14.626      17.128      19.499      21.008      21.521    
  22.110      21.979      21.521      20.518      18.829      16.760      15.016      14.331      15.016      16.760    
  18.829      20.518      21.521      21.979      22.110      21.979      21.521      20.518      18.829      16.760    
  15.016      14.331      15.016      16.760      18.829      20.518      21.521      21.979      22.121      22.108    
  20.719      17.835      14.161      11.048      9.8248      11.048      14.161      17.835      20.719      22.108    
  22.122      21.389      20.372      19.216      17.954      16.627      15.352      14.386      14.022      14.386    
  15.352      16.627      17.954      19.216      20.373      21.389      22.108      21.141      18.145      13.573    
  8.8632      5.8619      5.8622      8.8638      13.573      18.144      21.141      22.108      21.521      20.253    
  18.807      17.342      15.923      14.628      13.600      13.018      13.018      13.600      14.628      15.923    
  17.342      18.808      20.253      21.521      20.719      18.145      13.316      7.4432      2.5843     0.69631    
  2.5842      7.4431      13.316      18.145      20.719      21.008      19.842      18.205      16.526      14.954    
  13.568      12.448      11.705      11.442      11.704      12.448      13.568      14.954      16.526      18.206    
  19.842      21.008      17.835      13.573      7.4432      1.3154     -2.5306     -2.5310      1.3146      7.4428    
  13.573      17.835      19.499      19.000      17.411      15.609      13.893      12.392      11.176      10.307    
  9.8501      9.8498      10.307      11.176      12.392      13.893      15.609      17.411      19.000      19.499    
  14.161      8.8632      2.5843     -2.5306     -4.5032     -2.5305      2.5843      8.8632      14.161      17.128    
  17.612      16.412      14.630      12.840      11.241      9.9307      8.9574      8.3546      8.1498      8.3545    
  8.9574      9.9307      11.241      12.840      14.630      16.412      17.612      17.128      11.048      5.8619    
 0.69631     -2.5310     -2.5305     0.69721      5.8623      11.047      14.626      15.914      15.260      13.632    
  11.848      10.197      8.8121      7.7520      7.0373      6.6774      6.6776      7.0377      7.7520      8.8118    
  10.197      11.849      13.632      15.260      15.914      14.626      9.8248      5.8622      2.5842      1.3146    
  2.5843      5.8623      9.8247      13.009      14.481      14.169      12.721      10.975      9.3068      7.8718    
  6.7446      5.9448      5.4692      5.3114      5.4692      5.9448      6.7446      7.8718      9.3067      10.975    
  12.721      14.169      14.481      13.009      11.048      8.8638      7.4431      7.4428      8.8632      11.047    
  13.009      13.918      13.491      12.062      10.304      8.6133      7.1377      5.9558      5.0895      4.5280    
  4.2530      4.2528      4.5278      5.0895      5.9561      7.1377      8.6131      10.304      12.062      13.491    
  13.918      13.009      14.161      13.573      13.316      13.573      14.161      14.626      14.481      13.491    
  11.818      9.9345      8.1663      6.6301      5.3911      4.4651      3.8350      3.4724      3.3543      3.4724    
  3.8350      4.4651      5.3911      6.6301      8.1663      9.9345      11.818      13.491      14.481      14.626    
  17.835      18.144      18.145      17.835      17.128      15.914      14.169      12.062      9.9345      8.0110    
  6.3691      5.0508      4.0584      3.3646      2.9308      2.7234      2.7235      2.9310      3.3646      4.0582    
  5.0507      6.3692      8.0112      9.9347      12.062      14.169      15.914      17.128      20.719      21.141    
  20.719      19.499      17.612      15.260      12.721      10.304      8.1663      6.3691      4.9368      3.8577    
  3.0928      2.5922      2.3115      2.2212      2.3115      2.5922      3.0927      3.8577      4.9369      6.3691    
  8.1663      10.304      12.721      15.260      17.612      19.499      22.108      22.108      21.008      19.000    
  16.412      13.632      10.975      8.6133      6.6301      5.0508      3.8577      3.0038      2.4296      2.0800    
  1.9153      1.9152      2.0799      2.4296      3.0039      3.8577      5.0507      6.6299      8.6132      10.975    
  13.632      16.413      19.000      21.008      22.122      21.521      19.842      17.411      14.630      11.848    
  9.3068      7.1377      5.3911      4.0584      3.0928      2.4296      2.0054      1.7708      1.6958      1.7707    
  2.0054      2.4296      3.0927      4.0583      5.3910      7.1377      9.3068      11.848      14.630      17.411    
  19.842      21.521      21.389      20.253      18.205      15.609      12.840      10.197      7.8718      5.9558    
  4.4651      3.3646      2.5922      2.0800      1.7708      1.6256      1.6256      1.7707      2.0800      2.5921    
  3.3646      4.4652      5.9560      7.8720      10.197      12.840      15.609      18.205      20.253      21.389    
  20.372      18.807      16.526      13.893      11.241      8.8121      6.7446      5.0895      3.8350      2.9308    
  2.3115      1.9153      1.6958      1.6256      1.6958      1.9153      2.3115      2.9308      3.8350      5.0894    
  6.7445      8.8121      11.241      13.893      16.526      18.807      20.373      20.931      19.216      17.342    
  14.954      12.392      9.9307      7.7520      5.9448      4.5280      3.4724      2.7234      2.2212      1.9152    
  1.7707      1.7707      1.9153      2.2214      2.7235      3.4723      4.5277      5.9445      7.7519      9.9310    
  12.392      14.954      17.342      19.216      20.253      20.253      17.954      15.923      13.568      11.176    
  8.9574      7.0373      5.4692      4.2530      3.3543      2.7235      2.3115      2.0799      2.0054      2.0800    
  2.3115      2.7235      3.3544      4.2530      5.4692      7.0373      8.9574      11.176      13.568      15.923    
  17.954      19.345      19.842      19.345      16.627      14.628      12.448      10.307      8.3546      6.6774    
  5.3114      4.2528      3.4724      2.9310      2.5922      2.4296      2.4296      2.5921      2.9308      3.4723    
  4.2530      5.3118      6.6776      8.3544      10.307      12.448      14.628      16.627      18.164      19.000    
  19.000      18.164      15.352      13.600      11.705      9.8501      8.1498      6.6776      5.4692      4.5278    
  3.8350      3.3646      3.0927      3.0039      3.0927      3.3646      3.8350      4.5277      5.4692      6.6776    
  8.1498      9.8501      11.704      13.600      15.352      16.737      17.612      17.909      17.612      16.737    
  14.386      13.018      11.442      9.8498      8.3545      7.0377      5.9448      5.0895      4.4651      4.0582    
  3.8577      3.8577      4.0583      4.4652      5.0894      5.9445      7.0373      8.3544      9.8501      11.442    
  13.018      14.386      15.358      15.914      16.146      16.146      15.914      15.358      14.022      13.018    
  11.704      10.307      8.9574      7.7520      6.7446      5.9561      5.3911      5.0507      4.9369      5.0507    
  5.3910      5.9560      6.7445      7.7519      8.9574      10.307      11.704      13.018      14.022      14.494    
  14.481      14.258      14.139      14.258      14.481      14.494      14.386      13.600      12.448      11.176    
  9.9307      8.8118      7.8718      7.1377      6.6301      6.3692      6.3691      6.6299      7.1377      7.8720    
  8.8121      9.9310      11.176      12.448      13.600      14.386      14.494      13.918      13.030      12.385    
  12.385      13.030      13.918      14.494      15.352      14.628      13.568      12.392      11.241      10.197    
  9.3067      8.6131      8.1663      8.0112      8.1663      8.6132      9.3068      10.197      11.241      12.392    
  13.568      14.628      15.352      15.358      14.481      13.030      11.688      11.144      11.688      13.030    
  14.481      15.358      16.627      15.923      14.954      13.893      12.840      11.849      10.975      10.304    
  9.9345      9.9347      10.304      10.975      11.848      12.840      13.893      14.954      15.923      16.627    
  16.737      15.914      14.258      12.385      11.144      11.144      12.385      14.258      15.914      16.737    
  17.954      17.342      16.526      15.609      14.630      13.632      12.721      12.062      11.818      12.062    
  12.721      13.632      14.630      15.609      16.526      17.342      17.954      18.164      17.612      16.146    
  14.139      12.385      11.688      12.385      14.139      16.146      17.612      18.164      19.216      18.808    
  18.206      17.411      16.412      15.260      14.169      13.491      13.491      14.169      15.260      16.413    
  17.411      18.205      18.807      19.216      19.345      19.000      17.909      16.146      14.258      13.030    
  13.030      14.258      16.146      17.909      19.000      19.345      20.373      20.253      19.842      19.000    
  17.612      15.914      14.481      13.918      14.481      15.914      17.612      19.000      19.842      20.253    
  20.373      20.253      19.842      19.000      17.612      15.914      14.481      13.918      14.481      15.914    
  17.612      19.000      19.842      20.253      21.389      21.521      21.008      19.499      17.128      14.626    
  13.009      13.009      14.626      17.128      19.499      21.008      21.521      21.389      20.931      20.253    
  19.345      18.164      16.737      15.358      14.494      14.494      15.358      16.737      18.164      19.345    
  20.253      20.931      21.056      20.345      17.835      13.902      9.8096      7.1900      7.1900      9.8095    
  13.902      17.834      20.345      21.056      20.421      19.216      17.849      16.466      15.131      13.919    
  12.962      12.425      12.425      12.962      13.919      15.131      16.466      17.849      19.216      20.421    
  20.345      18.026      13.573      8.1130      3.5807      1.8173      3.5806      8.1129      13.573      18.026    
  20.345      20.518      19.345      17.749      16.113      14.584      13.237      12.152      11.432      11.178    
  11.432      12.151      13.237      14.584      16.113      17.749      19.345      20.518      17.835      13.573    
  7.4432      1.3154     -2.5306     -2.5310      1.3146      7.4428      13.573      17.835      19.499      19.000    
  17.411      15.609      13.893      12.392      11.176      10.307      9.8501      9.8498      10.307      11.176    
  12.392      13.893      15.609      17.411      19.000      19.499      13.902      8.1130      1.3154     -4.2001    
 -6.3243     -4.2010      1.3145      8.1127      13.902      17.230      17.909      16.766      14.961      13.136    