diamond Si                              
   5.30000000000000     
     0.000000    0.500000    0.500000
     0.500000    0.000000    0.500000
     0.500000    0.500000    0.000000
   Si
     2
Direct
  0.875000  0.875000  0.875000
  0.125000  0.125000  0.125000
 
   28   28   28
 0.22731654488E+02 0.22597401588E+02 0.22121468973E+02 0.21056004744E+02 0.19253562947E+02
 0.17045644925E+02 0.15185912400E+02 0.14455505466E+02 0.15185890381E+02 0.17045637123E+02
 0.19253586286E+02 0.21056043036E+02 0.22121512970E+02 0.22597460644E+02 0.22731723988E+02
 0.22597460644E+02 0.22121512970E+02 0.21056043036E+02 0.19253586286E+02 0.17045637123E+02
 0.15185890381E+02 0.14455505466E+02 0.15185912400E+02 0.17045644925E+02 0.19253562947E+02
 0.21056004744E+02 0.22121468973E+02 0.22597401588E+02 0.22597401588E+02 0.22729624361E+02
 0.22107721427E+02 0.20344971252E+02 0.17612063948E+02 0.14745884710E+02 0.12898751419E+02
 0.12898830479E+02 0.14746085829E+02 0.17612275538E+02 0.20345060729E+02 0.22107664276E+02
 0.22729543335E+02 0.22597429077E+02 0.22110062338E+02 0.21389171414E+02 0.20420661278E+02
 0.19127856483E+02 0.17534217771E+02 0.15983623377E+02 0.15009070870E+02 0.15009181696E+02
 0.15983865954E+02 0.17534420672E+02 0.19127921336E+02 0.20420590008E+02 0.21389018915E+02
 0.22109923394E+02 0.22121468973E+02 0.22107721427E+02 0.20718524226E+02 0.17834563672E+02
 0.14161442909E+02 0.11047751148E+02 0.98247368742E+01 0.11047703131E+02 0.14161423183E+02
 0.17834598515E+02 0.20718573011E+02 0.22107776954E+02 0.22121553184E+02 0.21389086563E+02
 0.20372497687E+02 0.19215779123E+02 0.17954329098E+02 0.16626592355E+02 0.15351587322E+02
 0.14386046838E+02 0.14021590766E+02 0.14386054792E+02 0.15351572042E+02 0.16626584869E+02
 0.17954391623E+02 0.19215877564E+02 0.20372524996E+02 0.21389018915E+02 0.21056004744E+02
 0.20344971252E+02 0.17834563672E+02 0.13902051322E+02 0.98095662631E+01 0.71900328973E+01
 0.71899906186E+01 0.98094430049E+01 0.13901892215E+02 0.17834490327E+02 0.20345097032E+02
 0.21056263135E+02 0.20420723095E+02 0.19215711088E+02 0.17849229916E+02 0.16465747765E+02
 0.15130955613E+02 0.13918978588E+02 0.12962001469E+02 0.12424562449E+02 0.12424542691E+02
 0.12961876776E+02 0.13918726302E+02 0.15130778638E+02 0.16465862225E+02 0.17849536169E+02
 0.19215877564E+02 0.20420590008E+02 0.19253562947E+02 0.17612063948E+02 0.14161442909E+02
 0.98095662631E+01 0.61537179326E+01 0.47247575046E+01 0.61537470401E+01 0.98096142966E+01
 0.14161500452E+02 0.17612127578E+02 0.19253625002E+02 0.19127961552E+02 0.17954391651E+02
 0.16465832079E+02 0.14950858808E+02 0.13539890866E+02 0.12304078073E+02 0.11314012588E+02
 0.10660970972E+02 0.10431252434E+02 0.10660947108E+02 0.11313968360E+02 0.12304034035E+02
 0.13539876802E+02 0.14950881635E+02 0.16465862225E+02 0.17954391623E+02 0.19127921336E+02
 0.17045644925E+02 0.14745884710E+02 0.11047751148E+02 0.71900328973E+01 0.47247575046E+01
 0.47247038212E+01 0.71900204754E+01 0.11047967753E+02 0.14746193930E+02 0.17045721967E+02
 0.17534233192E+02 0.16626483410E+02 0.15131001738E+02 0.13540183219E+02 0.12047489254E+02
 0.10754557529E+02 0.97172643682E+01 0.89826687762E+01 0.85986359050E+01 0.85985343931E+01
 0.89825678788E+01 0.97174257620E+01 0.10754826583E+02 0.12047485027E+02 0.13539876802E+02
 0.15130778638E+02 0.16626584869E+02 0.17534420672E+02 0.15185912400E+02 0.12898751419E+02
 0.98247368742E+01 0.71899906186E+01 0.61537470401E+01 0.71900204754E+01 0.98247916559E+01
 0.12898827019E+02 0.15185991253E+02 0.15983913928E+02 0.15351580860E+02 0.13918739782E+02
 0.12304091710E+02 0.10754900848E+02 0.94016552918E+01 0.83083624463E+01 0.75050594822E+01
 0.70118292006E+01 0.68450969149E+01 0.70118090025E+01 0.75050513183E+01 0.83083613172E+01
 0.94016184401E+01 0.10754826583E+02 0.12304034035E+02 0.13918726302E+02 0.15351572042E+02
 0.15983865954E+02 0.14455505466E+02 0.12898830479E+02 0.11047703131E+02 0.98094430049E+01
 0.98096142966E+01 0.11047967753E+02 0.12898827019E+02 0.14455308889E+02 0.15009155617E+02
 0.14386259870E+02 0.12961979877E+02 0.11313788002E+02 0.97172428201E+01 0.83085001338E+01
 0.71590262179E+01 0.62942084660E+01 0.57180618617E+01 0.54300432849E+01 0.54301841616E+01
 0.57182497601E+01 0.62940987938E+01 0.71586998546E+01 0.83083613172E+01 0.97174257620E+01
 0.11313968360E+02 0.12961876776E+02 0.14386054792E+02 0.15009181696E+02 0.15185890381E+02
 0.14746085829E+02 0.14161423183E+02 0.13901892215E+02 0.14161500452E+02 0.14746193930E+02
 0.15185991253E+02 0.15009155617E+02 0.14021650895E+02 0.12424563666E+02 0.10660935350E+02
 0.89825474986E+01 0.75050270139E+01 0.62940548529E+01 0.53701423307E+01 0.47264934973E+01
 0.43479921820E+01 0.42231461525E+01 0.43480166434E+01 0.47265451114E+01 0.53702036365E+01
 0.62940987938E+01 0.75050513183E+01 0.89825678788E+01 0.10660947108E+02 0.12424542691E+02
 0.14021590766E+02 0.15009070870E+02 0.17045637123E+02 0.17612275538E+02 0.17834598515E+02
 0.17834490327E+02 0.17612127578E+02 0.17045721967E+02 0.15983913928E+02 0.14386259870E+02
 0.12424563666E+02 0.10431208991E+02 0.85985966439E+01 0.70118398251E+01 0.57180503731E+01
 0.47262250715E+01 0.40187733753E+01 0.35678242901E+01 0.33489517251E+01 0.33488421685E+01
 0.35676907903E+01 0.40188990747E+01 0.47265451114E+01 0.57182497601E+01 0.70118090025E+01
 0.85985343931E+01 0.10431252434E+02 0.12424562449E+02 0.14386046838E+02 0.15983623377E+02
 0.19253586286E+02 0.20345060729E+02 0.20718573011E+02 0.20345097032E+02 0.19253625002E+02
 0.17534233192E+02 0.15351580860E+02 0.12961979877E+02 0.10660935350E+02 0.85985966439E+01
 0.68450721323E+01 0.54301762202E+01 0.43480089932E+01 0.35676741183E+01 0.30484486733E+01
 0.27533834381E+01 0.26578659691E+01 0.27533920474E+01 0.30484658361E+01 0.35676907903E+01
 0.43480166434E+01 0.54301841616E+01 0.68450969149E+01 0.85986359050E+01 0.10660970972E+02
 0.12962001469E+02 0.15351587322E+02 0.17534217771E+02 0.21056043036E+02 0.22107664276E+02
 0.22107776954E+02 0.21056263135E+02 0.19127961552E+02 0.16626483410E+02 0.13918739782E+02
 0.11313788002E+02 0.89825474986E+01 0.70118398251E+01 0.54301762202E+01 0.42233376654E+01
 0.33489821061E+01 0.27534061653E+01 0.23867644865E+01 0.22127849591E+01 0.22128296582E+01
 0.23868368977E+01 0.27533920474E+01 0.33488421685E+01 0.42231461525E+01 0.54300432849E+01
 0.70118292006E+01 0.89826687762E+01 0.11314012588E+02 0.13918978588E+02 0.16626592355E+02
 0.19127856483E+02 0.22121512970E+02 0.22729543335E+02 0.22121553184E+02 0.20420723095E+02
 0.17954391651E+02 0.15131001738E+02 0.12304091710E+02 0.97172428201E+01 0.75050270139E+01
 0.57180503731E+01 0.43480089932E+01 0.33489821061E+01 0.26579004878E+01 0.22128671082E+01
 0.19655042645E+01 0.18862955701E+01 0.19654760904E+01 0.22128296582E+01 0.26578659691E+01
 0.33489517251E+01 0.43479921820E+01 0.57180618617E+01 0.75050594822E+01 0.97172643682E+01
 0.12304078073E+02 0.15130955613E+02 0.17954329098E+02 0.20420661278E+02 0.22597460644E+02
 0.22597429077E+02 0.21389086563E+02 0.19215711088E+02 0.16465832079E+02 0.13540183219E+02
 0.10754900848E+02 0.83085001338E+01 0.62940548529E+01 0.47262250715E+01 0.35676741183E+01
 0.27534061653E+01 0.22128671082E+01 0.18863380397E+01 0.17330976578E+01 0.17330915958E+01
 0.18862955701E+01 0.22127849591E+01 0.27533834381E+01 0.35678242901E+01 0.47264934973E+01
 0.62942084660E+01 0.83083624463E+01 0.10754557529E+02 0.13539890866E+02 0.16465747765E+02
 0.19215779123E+02 0.21389171414E+02 0.22731723988E+02 0.22110062338E+02 0.20372497687E+02
 0.17849229916E+02 0.14950858808E+02 0.12047489254E+02 0.94016552918E+01 0.71590262179E+01
 0.53701423307E+01 0.40187733753E+01 0.30484486733E+01 0.23867644865E+01 0.19655042645E+01
 0.17330976578E+01 0.16589483921E+01 0.17330976578E+01 0.19655042645E+01 0.23867644865E+01
 0.30484486733E+01 0.40187733753E+01 0.53701423307E+01 0.71590262179E+01 0.94016552918E+01
 0.12047489254E+02 0.14950858808E+02 0.17849229916E+02 0.20372497687E+02 0.22110062338E+02
 0.22597460644E+02 0.21389171414E+02 0.19215779123E+02 0.16465747765E+02 0.13539890866E+02
 0.10754557529E+02 0.83083624463E+01 0.62942084660E+01 0.47264934973E+01 0.35678242901E+01
 0.27533834381E+01 0.22127849591E+01 0.18862955701E+01 0.17330915958E+01 0.17330976578E+01
 0.18863380397E+01 0.22128671082E+01 0.27534061653E+01 0.35676741183E+01 0.47262250715E+01
 0.62940548529E+01 0.83085001338E+01 0.10754900848E+02 0.13540183219E+02 0.16465832079E+02
 0.19215711088E+02 0.21389086563E+02 0.22597429077E+02 0.22121512970E+02 0.20420661278E+02
 0.17954329098E+02 0.15130955613E+02 0.12304078073E+02 0.97172643682E+01 0.75050594822E+01
 0.57180618617E+01 0.43479921820E+01 0.33489517251E+01 0.26578659691E+01 0.22128296582E+01
 0.19654760904E+01 0.18862955701E+01 0.19655042645E+01 0.22128671082E+01 0.26579004878E+01
 0.33489821061E+01 0.43480089932E+01 0.57180503731E+01 0.75050270139E+01 0.97172428201E+01
 0.12304091710E+02 0.15131001738E+02 0.17954391651E+02 0.20420723095E+02 0.22121553184E+02
 0.22729543335E+02 0.21056043036E+02 0.19127856483E+02 0.16626592355E+02 0.13918978588E+02
 0.11314012588E+02 0.89826687762E+01 0.70118292006E+01 0.54300432849E+01 0.42231461525E+01
 0.33488421685E+01 0.27533920474E+01 0.23868368977E+01 0.22128296582E+01 0.22127849591E+01
 0.23867644865E+01 0.27534061653E+01 0.33489821061E+01 0.42233376654E+01 0.54301762202E+01
 0.70118398251E+01 0.89825474986E+01 0.11313788002E+02 0.13918739782E+02 0.16626483410E+02
 0.19127961552E+02 0.21056263135E+02 0.22107776954E+02 0.22107664276E+02 0.19253586286E+02
 0.17534217771E+02 0.15351587322E+02 0.12962001469E+02 0.10660970972E+02 0.85986359050E+01
 0.68450969149E+01 0.54301841616E+01 0.43480166434E+01 0.35676907903E+01 0.30484658361E+01
 0.27533920474E+01 0.26578659691E+01 0.27533834381E+01 0.30484486733E+01 0.35676741183E+01
 0.43480089932E+01 0.54301762202E+01 0.68450721323E+01 0.85985966439E+01 0.10660935350E+02
 0.12961979877E+02 0.15351580860E+02 0.17534233192E+02 0.19253625002E+02 0.20345097032E+02
 0.20718573011E+02 0.20345060729E+02 0.17045637123E+02 0.15983623377E+02 0.14386046838E+02
 0.12424562449E+02 0.10431252434E+02 0.85985343931E+01 0.70118090025E+01 0.57182497601E+01
 0.47265451114E+01 0.40188990747E+01 0.35676907903E+01 0.33488421685E+01 0.33489517251E+01
 0.35678242901E+01 0.40187733753E+01 0.47262250715E+01 0.57180503731E+01 0.70118398251E+01
 0.85985966439E+01 0.10431208991E+02 0.12424563666E+02 0.14386259870E+02 0.15983913928E+02
 0.17045721967E+02 0.17612127578E+02 0.17834490327E+02 0.17834598515E+02 0.17612275538E+02
 0.15185890381E+02 0.15009070870E+02 0.14021590766E+02 0.12424542691E+02 0.10660947108E+02
 0.89825678788E+01 0.75050513183E+01 0.62940987938E+01 0.53702036365E+01 0.47265451114E+01
 0.43480166434E+01 0.42231461525E+01 0.43479921820E+01 0.47264934973E+01 0.53701423307E+01
 0.62940548529E+01 0.75050270139E+01 0.89825474986E+01 0.10660935350E+02 0.12424563666E+02
 0.14021650895E+02 0.15009155617E+02 0.15185991253E+02 0.14746193930E+02 0.14161500452E+02
 0.13901892215E+02 0.14161423183E+02 0.14746085829E+02 0.14455505466E+02 0.15009181696E+02
 0.14386054792E+02 0.12961876776E+02 0.11313968360E+02 0.97174257620E+01 0.83083613172E+01
 0.71586998546E+01 0.62940987938E+01 0.57182497601E+01 0.54301841616E+01 0.54300432849E+01
 0.57180618617E+01 0.62942084660E+01 0.71590262179E+01 0.83085001338E+01 0.97172428201E+01
 0.11313788002E+02 0.12961979877E+02 0.14386259870E+02 0.15009155617E+02 0.14455308889E+02
 0.12898827019E+02 0.11047967753E+02 0.98096142966E+01 0.98094430049E+01 0.11047703131E+02
 0.12898830479E+02 0.15185912400E+02 0.15983865954E+02 0.15351572042E+02 0.13918726302E+02
 0.12304034035E+02 0.10754826583E+02 0.94016184401E+01 0.83083613172E+01 0.75050513183E+01
 0.70118090025E+01 0.68450969149E+01 0.70118292006E+01 0.75050594822E+01 0.83083624463E+01
 0.94016552918E+01 0.10754900848E+02 0.12304091710E+02 0.13918739782E+02 0.15351580860E+02
 0.15983913928E+02 0.15185991253E+02 0.12898827019E+02 0.98247916559E+01 0.71900204754E+01
 0.61537470401E+01 0.71899906186E+01 0.98247368742E+01 0.12898751419E+02 0.17045644925E+02
 0.17534420672E+02 0.16626584869E+02 0.15130778638E+02 0.13539876802E+02 0.12047485027E+02
 0.10754826583E+02 0.97174257620E+01 0.89825678788E+01 0.85985343931E+01 0.85986359050E+01
 0.89826687762E+01 0.97172643682E+01 0.10754557529E+02 0.12047489254E+02 0.13540183219E+02
 0.15131001738E+02 0.16626483410E+02 0.17534233192E+02 0.17045721967E+02 0.14746193930E+02
 0.11047967753E+02 0.71900204754E+01 0.47247038212E+01 0.47247575046E+01 0.71900328973E+01
 0.11047751148E+02 0.14745884710E+02 0.19253562947E+02 0.19127921336E+02 0.17954391623E+02
 0.16465862225E+02 0.14950881635E+02 0.13539876802E+02 0.12304034035E+02 0.11313968360E+02
 0.10660947108E+02 0.10431252434E+02 0.10660970972E+02 0.11314012588E+02 0.12304078073E+02
 0.13539890866E+02 0.14950858808E+02 0.16465832079E+02 0.17954391651E+02 0.19127961552E+02
 0.19253625002E+02 0.17612127578E+02 0.14161500452E+02 0.98096142966E+01 0.61537470401E+01
 0.47247575046E+01 0.61537179326E+01 0.98095662631E+01 0.14161442909E+02 0.17612063948E+02
 0.21056004744E+02 0.20420590008E+02 0.19215877564E+02 0.17849536169E+02 0.16465862225E+02
 0.15130778638E+02 0.13918726302E+02 0.12961876776E+02 0.12424542691E+02 0.12424562449E+02
 0.12962001469E+02 0.13918978588E+02 0.15130955613E+02 0.16465747765E+02 0.17849229916E+02
 0.19215711088E+02 0.20420723095E+02 0.21056263135E+02 0.20345097032E+02 0.17834490327E+02
 0.13901892215E+02 0.98094430049E+01 0.71899906186E+01 0.71900328973E+01 0.98095662631E+01
 0.13902051322E+02 0.17834563672E+02 0.20344971252E+02 0.22121468973E+02 0.21389018915E+02
 0.20372524996E+02 0.19215877564E+02 0.17954391623E+02 0.16626584869E+02 0.15351572042E+02
 0.14386054792E+02 0.14021590766E+02 0.14386046838E+02 0.15351587322E+02 0.16626592355E+02
 0.17954329098E+02 0.19215779123E+02 0.20372497687E+02 0.21389086563E+02 0.22121553184E+02
 0.22107776954E+02 0.20718573011E+02 0.17834598515E+02 0.14161423183E+02 0.11047703131E+02
 0.98247368742E+01 0.11047751148E+02 0.14161442909E+02 0.17834563672E+02 0.20718524226E+02
 0.22107721427E+02 0.22597401588E+02 0.22109923394E+02 0.21389018915E+02 0.20420590008E+02
 0.19127921336E+02 0.17534420672E+02 0.15983865954E+02 0.15009181696E+02 0.15009070870E+02
 0.15983623377E+02 0.17534217771E+02 0.19127856483E+02 0.20420661278E+02 0.21389171414E+02
 0.22110062338E+02 0.22597429077E+02 0.22729543335E+02 0.22107664276E+02 0.20345060729E+02
 0.17612275538E+02 0.14746085829E+02 0.12898830479E+02 0.12898751419E+02 0.14745884710E+02
 0.17612063948E+02 0.20344971252E+02 0.22107721427E+02 0.22729624361E+02 0.22597380955E+02
 0.22729585780E+02 0.22107693889E+02 0.20344958263E+02 0.17612046463E+02 0.14745866642E+02
 0.12898754837E+02 0.12898849736E+02 0.14746093605E+02 0.17612271010E+02 0.20345065871E+02
 0.22107677112E+02 0.22729541707E+02 0.22597416397E+02 0.22110062466E+02 0.21389181953E+02
 0.20420658535E+02 0.19127842801E+02 0.17534217546E+02 0.15983636457E+02 0.15009076422E+02
 0.15009183630E+02 0.15983887190E+02 0.17534456002E+02 0.19127942546E+02 0.20420593964E+02
 0.21389024704E+02 0.22109926992E+02 0.22729585780E+02 0.22670611208E+02 0.21140704150E+02
 0.18026413202E+02 0.14085954705E+02 0.10755319598E+02 0.94489173528E+01 0.10756046298E+02
 0.14086773991E+02 0.18026740977E+02 0.21140549360E+02 0.22670387880E+02 0.22729553985E+02
 0.21979165536E+02 0.20931380732E+02 0.19739467756E+02 0.18437381431E+02 0.17059627719E+02
 0.15725047455E+02 0.14709472497E+02 0.14325485194E+02 0.14709789148E+02 0.15725359206E+02
 0.17059708290E+02 0.18437313319E+02 0.19739404049E+02 0.20931318787E+02 0.21979085191E+02
 0.22107693889E+02 0.21140704150E+02 0.18144578972E+02 0.13572781473E+02 0.88631955886E+01
 0.58618883630E+01 0.58621875784E+01 0.88637742549E+01 0.13573086357E+02 0.18144488016E+02
 0.21140572026E+02 0.22107780526E+02 0.21520740866E+02 0.20252643140E+02 0.18807332828E+02
 0.17341922360E+02 0.15923172231E+02 0.14628048428E+02 0.13599570688E+02 0.13018103519E+02
 0.13018231908E+02 0.13599761037E+02 0.14628034645E+02 0.15923045433E+02 0.17341965206E+02
 0.18807540829E+02 0.20252728210E+02 0.21520609466E+02 0.20344958263E+02 0.18026413202E+02
 0.13572781473E+02 0.81129363386E+01 0.35806816203E+01 0.18173378343E+01 0.35805902470E+01
 0.81128484028E+01 0.13572785757E+02 0.18026509881E+02 0.20345074954E+02 0.20517708312E+02
 0.19345322954E+02 0.17748828709E+02 0.16113178621E+02 0.14583608575E+02 0.13237061894E+02
 0.12151643219E+02 0.11431710547E+02 0.11177581541E+02 0.11431554807E+02 0.12151471485E+02
 0.13237015729E+02 0.14583710171E+02 0.16113341728E+02 0.17748952805E+02 0.19345355580E+02
 0.20517646906E+02 0.17612046463E+02 0.14085954705E+02 0.88631955886E+01 0.35806816203E+01
 0.24873171107E+00 0.24862586217E+00 0.35805547545E+01 0.88633209730E+01 0.14086242856E+02
 0.17612140592E+02 0.18828611303E+02 0.18164148100E+02 0.16601856259E+02 0.14876552344E+02
 0.13240336444E+02 0.11813305087E+02 0.10661102048E+02 0.98401475509E+01 0.94089813449E+01
 0.94088090761E+01 0.98398973933E+01 0.10661154707E+02 0.11813566344E+02 0.13240405565E+02
 0.14876356668E+02 0.16601743899E+02 0.18164322044E+02 0.18828811138E+02 0.14745866642E+02
 0.10755319598E+02 0.58618883630E+01 0.18173378343E+01 0.24862586217E+00 0.18174020986E+01
 0.58620076235E+01 0.10755458172E+02 0.14745947678E+02 0.16759821829E+02 0.16736639041E+02
 0.15409522173E+02 0.13693226932E+02 0.12001125786E+02 0.10501878895E+02 0.92794320097E+01
 0.83748109994E+01 0.78162818173E+01 0.76268824347E+01 0.78163144184E+01 0.83749217123E+01
 0.92795581794E+01 0.10501869275E+02 0.12000960592E+02 0.13693078284E+02 0.15409531303E+02
 0.16736742096E+02 0.16759861211E+02 0.12898754837E+02 0.94489173528E+01 0.58621875784E+01
 0.35805902470E+01 0.35805547545E+01 0.58620076235E+01 0.94485785216E+01 0.12898513662E+02
 0.15016280245E+02 0.15358700443E+02 0.14292653398E+02 0.12630857937E+02 0.10926133875E+02
 0.93796194908E+01 0.80969422465E+01 0.71217034039E+01 0.64672796113E+01 0.61385985958E+01
 0.61387425131E+01 0.64675053731E+01 0.71216830086E+01 0.80966886051E+01 0.93794635192E+01
 0.10926238197E+02 0.12630970639E+02 0.14292480374E+02 0.15358360563E+02 0.15016164004E+02
 0.12898849736E+02 0.10756046298E+02 0.88637742549E+01 0.81128484028E+01 0.88633209730E+01
 0.10755458172E+02 0.12898513662E+02 0.14331099444E+02 0.14494723810E+02 0.13460610405E+02
 0.11801541401E+02 0.10074633766E+02 0.84886703184E+01 0.71543942519E+01 0.61195112306E+01
 0.53909278683E+01 0.49596496208E+01 0.48169188216E+01 0.49596466810E+01 0.53909004130E+01
 0.61194385926E+01 0.71543046966E+01 0.84886362886E+01 0.10074664371E+02 0.11801515231E+02
 0.13460411750E+02 0.14494450633E+02 0.14331038195E+02 0.14746093605E+02 0.14086773991E+02
 0.13573086357E+02 0.13572785757E+02 0.14086242856E+02 0.14745947678E+02 0.15016280245E+02
 0.14494723810E+02 0.13148457014E+02 0.11339286501E+02 0.95184240707E+01 0.78642463668E+01
 0.64694283274E+01 0.53757248882E+01 0.45841071733E+01 0.40748749965E+01 0.38264234125E+01
 0.38262908911E+01 0.40747064870E+01 0.45842097755E+01 0.53759697159E+01 0.64694510378E+01
 0.78640364298E+01 0.95183356182E+01 0.11339444007E+02 0.13148526200E+02 0.14494452492E+02
 0.15015974681E+02 0.17612271010E+02 0.18026740977E+02 0.18144488016E+02 0.18026509881E+02
 0.17612140592E+02 0.16759821829E+02 0.15358700443E+02 0.13460610405E+02 0.11339286501E+02
 0.93236202692E+01 0.75400244639E+01 0.60524101369E+01 0.48855299875E+01 0.40290641409E+01
 0.34526604278E+01 0.31229160575E+01 0.30158073699E+01 0.31228695218E+01 0.34526967318E+01
 0.40292051180E+01 0.48856320353E+01 0.60524004750E+01 0.75400310685E+01 0.93237487724E+01
 0.11339392765E+02 0.13460472913E+02 0.15358375258E+02 0.16759634283E+02 0.20345065871E+02
 0.21140549360E+02 0.21140572026E+02 0.20345074954E+02 0.18828611303E+02 0.16736639041E+02
 0.14292653398E+02 0.11801541401E+02 0.95184240707E+01 0.75400244639E+01 0.59119214347E+01
 0.46419308979E+01 0.37056742355E+01 0.30600618356E+01 0.26595978817E+01 0.24688358724E+01
 0.24688803571E+01 0.26596585842E+01 0.30600356030E+01 0.37055936143E+01 0.46419200093E+01
 0.59120069401E+01 0.75400922831E+01 0.95183915510E+01 0.11801482534E+02 0.14292687893E+02
 0.16736755665E+02 0.18828690263E+02 0.22107677112E+02 0.22670387880E+02 0.22107780526E+02
 0.20517708312E+02 0.18164148100E+02 0.15409522173E+02 0.12630857937E+02 0.10074633766E+02
 0.78642463668E+01 0.60524101369E+01 0.46419308979E+01 0.35994119496E+01 0.28706708078E+01
 0.23980526856E+01 0.21342671851E+01 0.20496458875E+01 0.21342440063E+01 0.23980169506E+01
 0.28706310075E+01 0.35993553929E+01 0.46418294235E+01 0.60522699305E+01 0.78641503971E+01
 0.10074693965E+02 0.12631092627E+02 0.15409797181E+02 0.18164284168E+02 0.20517658751E+02
 0.22729541707E+02 0.22729553985E+02 0.21520740866E+02 0.19345322954E+02 0.16601856259E+02
 0.13693226932E+02 0.10926133875E+02 0.84886703184E+01 0.64694283274E+01 0.48855299875E+01
 0.37056742355E+01 0.28706708078E+01 0.23135686655E+01 0.19759986551E+01 0.18173146095E+01
 0.18172872669E+01 0.19759466454E+01 0.23135380116E+01 0.28706602694E+01 0.37056489446E+01
 0.48854846976E+01 0.64693996828E+01 0.84886826938E+01 0.10926162835E+02 0.13693230167E+02
 0.16601821815E+02 0.19345274075E+02 0.21520704898E+02 0.22597416397E+02 0.21979165536E+02
 0.20252643140E+02 0.17748828709E+02 0.14876552344E+02 0.12001125786E+02 0.93796194908E+01
 0.71543942519E+01 0.53757248882E+01 0.40290641409E+01 0.30600618356E+01 0.23980526856E+01
 0.19759986551E+01 0.17429810457E+01 0.16686305823E+01 0.17429875265E+01 0.19759556090E+01
 0.23979724416E+01 0.30600639969E+01 0.40292287896E+01 0.53759447373E+01 0.71544517362E+01
 0.93794229319E+01 0.12000811833E+02 0.14876331998E+02 0.17748781912E+02 0.20252696565E+02
 0.21979216776E+02 0.22110062466E+02 0.20931380732E+02 0.18807332828E+02 0.16113178621E+02
 0.13240336444E+02 0.10501878895E+02 0.80969422465E+01 0.61195112306E+01 0.45841071733E+01
 0.34526604278E+01 0.26595978817E+01 0.21342671851E+01 0.18173146095E+01 0.16686305823E+01
 0.16686440776E+01 0.18173363043E+01 0.21342690095E+01 0.26595825750E+01 0.34526512124E+01
 0.45841068512E+01 0.61194973413E+01 0.80969051755E+01 0.10501842377E+02 0.13240328975E+02
 0.16113198725E+02 0.18807355392E+02 0.20931389899E+02 0.22110063344E+02 0.21389181953E+02
 0.19739467756E+02 0.17341922360E+02 0.14583608575E+02 0.11813305087E+02 0.92794320097E+01
 0.71217034039E+01 0.53909278683E+01 0.40748749965E+01 0.31229160575E+01 0.24688358724E+01
 0.20496458875E+01 0.18172872669E+01 0.17429875265E+01 0.18173363043E+01 0.20497460601E+01
 0.24689204762E+01 0.31228587255E+01 0.40746359345E+01 0.53906639101E+01 0.71216514941E+01
 0.92796598133E+01 0.11813633860E+02 0.14583811427E+02 0.17341943623E+02 0.19739408851E+02
 0.21389139779E+02 0.21979237943E+02 0.20420658535E+02 0.18437381431E+02 0.15923172231E+02
 0.13237061894E+02 0.10661102048E+02 0.83748109994E+01 0.64672796113E+01 0.49596496208E+01
 0.38264234125E+01 0.30158073699E+01 0.24688803571E+01 0.21342440063E+01 0.19759466454E+01
 0.19759556090E+01 0.21342690095E+01 0.24689204762E+01 0.30158590844E+01 0.38264648964E+01
 0.49596517951E+01 0.64672469634E+01 0.83747877169E+01 0.10661121683E+02 0.13237113655E+02
 0.15923230604E+02 0.18437439390E+02 0.20420710492E+02 0.21520724192E+02 0.21520701638E+02
 0.19127842801E+02 0.17059627719E+02 0.14628048428E+02 0.12151643219E+02 0.98401475509E+01
 0.78162818173E+01 0.61385985958E+01 0.48169188216E+01 0.38262908911E+01 0.31228695218E+01
 0.26596585842E+01 0.23980169506E+01 0.23135380116E+01 0.23979724416E+01 0.26595825750E+01
 0.31228587255E+01 0.38264648964E+01 0.48172317991E+01 0.61388075295E+01 0.78161894760E+01
 0.98398340258E+01 0.12151380137E+02 0.14628008676E+02 0.17059750297E+02 0.19127970546E+02
 0.20517688619E+02 0.21007683385E+02 0.20517630246E+02 0.17534217546E+02 0.15725047455E+02
 0.13599570688E+02 0.11431710547E+02 0.94089813449E+01 0.76268824347E+01 0.61387425131E+01
 0.49596466810E+01 0.40747064870E+01 0.34526967318E+01 0.30600356030E+01 0.28706310075E+01
 0.28706602694E+01 0.30600639969E+01 0.34526512124E+01 0.40746359345E+01 0.49596517951E+01
 0.61388075295E+01 0.76268873767E+01 0.94088866414E+01 0.11431628177E+02 0.13599608866E+02
 0.15725159414E+02 0.17534273266E+02 0.18828647653E+02 0.19498816286E+02 0.19498848790E+02
 0.18828681492E+02 0.15983636457E+02 0.14709472497E+02 0.13018103519E+02 0.11177581541E+02
 0.94088090761E+01 0.78163144184E+01 0.64675053731E+01 0.53909004130E+01 0.45842097755E+01
 0.40292051180E+01 0.37055936143E+01 0.35993553929E+01 0.37056489446E+01 0.40292287896E+01
 0.45841068512E+01 0.53906639101E+01 0.64672469634E+01 0.78161894760E+01 0.94088866414E+01
 0.11177781676E+02 0.13018280130E+02 0.14709559612E+02 0.15983687377E+02 0.16759724336E+02
 0.17128147400E+02 0.17229515701E+02 0.17128072963E+02 0.16759647153E+02 0.15009076422E+02
 0.14325485194E+02 0.13018231908E+02 0.11431554807E+02 0.98398973933E+01 0.83749217123E+01
 0.71216830086E+01 0.61194385926E+01 0.53759697159E+01 0.48856320353E+01 0.46419200093E+01
 0.46418294235E+01 0.48854846976E+01 0.53759447373E+01 0.61194973413E+01 0.71216514941E+01
 0.83747877169E+01 0.98398340258E+01 0.11431628177E+02 0.13018280130E+02 0.14325399609E+02
 0.15009047349E+02 0.15016250411E+02 0.14626444938E+02 0.14273508832E+02 0.14273262155E+02
 0.14625959457E+02 0.15015968105E+02 0.15009183630E+02 0.14709789148E+02 0.13599761037E+02
 0.12151471485E+02 0.10661154707E+02 0.92795581794E+01 0.80966886051E+01 0.71543046966E+01
 0.64694510378E+01 0.60524004750E+01 0.59120069401E+01 0.60522699305E+01 0.64693996828E+01
 0.71544517362E+01 0.80969051755E+01 0.92796598133E+01 0.10661121683E+02 0.12151380137E+02
 0.13599608866E+02 0.14709559612E+02 0.15009047349E+02 0.14331251648E+02 0.13009427329E+02
 0.11743490382E+02 0.11225570367E+02 0.11742945961E+02 0.13008819645E+02 0.14331016757E+02
 0.15983887190E+02 0.15725359206E+02 0.14628034645E+02 0.13237015729E+02 0.11813566344E+02
 0.10501869275E+02 0.93794635192E+01 0.84886362886E+01 0.78640364298E+01 0.75400310685E+01
 0.75400922831E+01 0.78641503971E+01 0.84886826938E+01 0.93794229319E+01 0.10501842377E+02
 0.11813633860E+02 0.13237113655E+02 0.14628008676E+02 0.15725159414E+02 0.15983687377E+02
 0.15016250411E+02 0.13009427329E+02 0.10745885654E+02 0.92535234745E+01 0.92532729396E+01
 0.10745335271E+02 0.13008989393E+02 0.15016176065E+02 0.17534456002E+02 0.17059708290E+02
 0.15923045433E+02 0.14583710171E+02 0.13240405565E+02 0.12000960592E+02 0.10926238197E+02
 0.10074664371E+02 0.95183356182E+01 0.93237487724E+01 0.95183915510E+01 0.10074693965E+02
 0.10926162835E+02 0.12000811833E+02 0.13240328975E+02 0.14583811427E+02 0.15923230604E+02
 0.17059750297E+02 0.17534273266E+02 0.16759724336E+02 0.14626444938E+02 0.11743490382E+02
 0.92535234745E+01 0.82696208121E+01 0.92530886215E+01 0.11743020473E+02 0.14626311289E+02
 0.16759907341E+02 0.19127942546E+02 0.18437313319E+02 0.17341965206E+02 0.16113341728E+02
 0.14876356668E+02 0.13693078284E+02 0.12630970639E+02 0.11801515231E+02 0.11339444007E+02
 0.11339392765E+02 0.11801482534E+02 0.12631092627E+02 0.13693230167E+02 0.14876331998E+02
 0.16113198725E+02 0.17341943623E+02 0.18437439390E+02 0.19127970546E+02 0.18828647653E+02
 0.17128147400E+02 0.14273508832E+02 0.11225570367E+02 0.92532729396E+01 0.92530886215E+01
 0.11225234676E+02 0.14273399562E+02 0.17128335372E+02 0.18828843280E+02 0.20420593964E+02
 0.19739404049E+02 0.18807540829E+02 0.17748952805E+02 0.16601743899E+02 0.15409531303E+02
 0.14292480374E+02 0.13460411750E+02 0.13148526200E+02 0.13460472913E+02 0.14292687893E+02
 0.15409797181E+02 0.16601821815E+02 0.17748781912E+02 0.18807355392E+02 0.19739408851E+02
 0.20420710492E+02 0.20517688619E+02 0.19498816286E+02 0.17229515701E+02 0.14273262155E+02
 0.11742945961E+02 0.10745335271E+02 0.11743020473E+02 0.14273399562E+02 0.17229683016E+02
 0.19498928831E+02 0.20517658718E+02 0.21389024704E+02 0.20931318787E+02 0.20252728210E+02
 0.19345355580E+02 0.18164322044E+02 0.16736742096E+02 0.15358360563E+02 0.14494450633E+02
 0.14494452492E+02 0.15358375258E+02 0.16736755665E+02 0.18164284168E+02 0.19345274075E+02
 0.20252696565E+02 0.20931389899E+02 0.21389139779E+02 0.21520724192E+02 0.21007683385E+02
 0.19498848790E+02 0.17128072963E+02 0.14625959457E+02 0.13008819645E+02 0.13008989393E+02
 0.14626311289E+02 0.17128335372E+02 0.19498928831E+02 0.21007652252E+02 0.21520638128E+02
 0.22109926992E+02 0.21979085191E+02 0.21520609466E+02 0.20517646906E+02 0.18828811138E+02
 0.16759861211E+02 0.15016164004E+02 0.14331038195E+02 0.15015974681E+02 0.16759634283E+02
 0.18828690263E+02 0.20517658751E+02 0.21520704898E+02 0.21979216776E+02 0.22110063344E+02
 0.21979237943E+02 0.21520701638E+02 0.20517630246E+02 0.18828681492E+02 0.16759647153E+02
 0.15015968105E+02 0.14331016757E+02 0.15016176065E+02 0.16759907341E+02 0.18828843280E+02
 0.20517658718E+02 0.21520638128E+02 0.21979123922E+02 0.22121427102E+02 0.22107665695E+02
 0.20718502465E+02 0.17834571745E+02 0.14161440869E+02 0.11047744476E+02 0.98247603834E+01
 0.11047741882E+02 0.14161432009E+02 0.17834584455E+02 0.20718577703E+02 0.22107794133E+02
 0.22121544615E+02 0.21389062376E+02 0.20372498868E+02 0.19215796794E+02 0.17954322731E+02
 0.16626571717E+02 0.15351595174E+02 0.14386076909E+02 0.14021603719E+02 0.14386058103E+02
 0.15351602139E+02 0.16626626760E+02 0.17954398264E+02 0.19215853333E+02 0.20372509852E+02
 0.21389007489E+02 0.22107665695E+02 0.21140678514E+02 0.18144577299E+02 0.13572796930E+02
 0.88632059787E+01 0.58618951436E+01 0.58622048910E+01 0.88637925957E+01 0.13573086024E+02
 0.18144476750E+02 0.21140571300E+02 0.22107786394E+02 0.21520735781E+02 0.20252633730E+02
 0.18807337694E+02 0.17341934834E+02 0.15923173532E+02 0.14628045672E+02 0.13599583816E+02
 0.13018126524E+02 0.13018244615E+02 0.13599766720E+02 0.14628048042E+02 0.15923056253E+02
 0.17341952308E+02 0.18807511112E+02 0.20252704019E+02 0.21520589823E+02 0.20718502465E+02
 0.18144577299E+02 0.13316074419E+02 0.74431500331E+01 0.25842500882E+01 0.69630845174E+00