   2   2   0   0
  0.1860962E+02  0.3747666E-09  0.3747666E-09  0.3747666E-09  0.5000000E-15
  1.000000000000000E-004
  CAR 
 diamond Si                              
     18.12331696     -7.02982924  301      6.82229676      1.00000000
     -7.030  0.0000E+00  0.0000E+00
     -6.946  0.0000E+00  0.0000E+00
     -6.862  0.0000E+00  0.0000E+00
     -6.778  0.0000E+00  0.0000E+00
     -6.694  0.0000E+00  0.0000E+00
     -6.611  0.0000E+00  0.0000E+00
     -6.527  0.0000E+00  0.0000E+00
     -6.443  0.3184E-16  0.2669E-17
     -6.359  0.2095E-12  0.1756E-13
     -6.275  0.3451E-09  0.2895E-10
     -6.191  0.1450E-06  0.1219E-07
     -6.108  0.1588E-04  0.1344E-05
     -6.024  0.4806E-03  0.4164E-04
     -5.940  0.4945E-02  0.4562E-03
     -5.856  0.2737E-01  0.2751E-02
     -5.772  0.8669E-01  0.1002E-01
     -5.688  0.1173E+00  0.1986E-01
     -5.604  0.1171E+00  0.2967E-01
     -5.521  0.1948E+00  0.4600E-01
     -5.437  0.2806E+00  0.6952E-01
     -5.353  0.2002E+00  0.8631E-01
     -5.269  0.1225E+00  0.9658E-01
     -5.185  0.2591E+00  0.1183E+00
     -5.101  0.3993E+00  0.1518E+00
     -5.018  0.3196E+00  0.1786E+00
     -4.934  0.3103E+00  0.2046E+00
     -4.850  0.3373E+00  0.2329E+00
     -4.766  0.2357E+00  0.2526E+00
     -4.682  0.2005E+00  0.2694E+00
     -4.598  0.4602E+00  0.3080E+00
     -4.515  0.6385E+00  0.3616E+00
     -4.431  0.4075E+00  0.3957E+00
     -4.347  0.3828E+00  0.4278E+00
     -4.263  0.4646E+00  0.4668E+00
     -4.179  0.3471E+00  0.4959E+00
     -4.095  0.2330E+00  0.5154E+00
     -4.011  0.4369E+00  0.5521E+00
     -3.928  0.7049E+00  0.6112E+00
     -3.844  0.7571E+00  0.6746E+00
     -3.760  0.6904E+00  0.7325E+00
     -3.676  0.5627E+00  0.7797E+00
     -3.592  0.4371E+00  0.8164E+00
     -3.508  0.4667E+00  0.8555E+00
     -3.425  0.4545E+00  0.8936E+00
     -3.341  0.6428E+00  0.9475E+00
     -3.257  0.1185E+01  0.1047E+01
     -3.173  0.1202E+01  0.1148E+01
     -3.089  0.6546E+00  0.1202E+01
     -3.005  0.6455E+00  0.1257E+01
     -2.921  0.7396E+00  0.1319E+01
     -2.838  0.4231E+00  0.1354E+01
     -2.754  0.3889E+00  0.1387E+01
     -2.670  0.7953E+00  0.1453E+01
     -2.586  0.1112E+01  0.1547E+01
     -2.502  0.7302E+00  0.1608E+01
     -2.418  0.3161E+00  0.1634E+01
     -2.335  0.3473E+00  0.1663E+01
     -2.251  0.3974E+00  0.1697E+01
     -2.167  0.4291E+00  0.1733E+01
     -2.083  0.7828E+00  0.1798E+01
     -1.999  0.6764E+00  0.1855E+01
     -1.915  0.3548E+00  0.1885E+01
     -1.832  0.2241E+00  0.1904E+01
     -1.748  0.1271E+00  0.1914E+01
     -1.664  0.2033E+00  0.1931E+01
     -1.580  0.3010E+00  0.1957E+01
     -1.496  0.3243E+00  0.1984E+01
     -1.412  0.2341E+00  0.2003E+01
     -1.328  0.1334E+00  0.2015E+01
     -1.245  0.9850E-01  0.2023E+01
     -1.161  0.1790E+00  0.2038E+01
     -1.077  0.1559E+00  0.2051E+01
     -0.993  0.7759E-01  0.2057E+01
     -0.909  0.1610E+00  0.2071E+01
     -0.825  0.2492E+00  0.2092E+01
     -0.742  0.5366E+00  0.2137E+01
     -0.658  0.1109E+01  0.2230E+01
     -0.574  0.1075E+01  0.2320E+01
     -0.490  0.8216E+00  0.2389E+01
     -0.406  0.1204E+01  0.2490E+01
     -0.322  0.1342E+01  0.2602E+01
     -0.238  0.8883E+00  0.2677E+01
     -0.155  0.7303E+00  0.2738E+01
     -0.071  0.9302E+00  0.2816E+01
      0.013  0.9784E+00  0.2898E+01
      0.097  0.5738E+00  0.2946E+01
      0.181  0.4147E+00  0.2981E+01
      0.265  0.4853E+00  0.3022E+01
      0.348  0.6948E+00  0.3080E+01
      0.432  0.5865E+00  0.3129E+01
      0.516  0.3983E+00  0.3162E+01
      0.600  0.4551E+00  0.3201E+01
      0.684  0.4981E+00  0.3242E+01
      0.768  0.4509E+00  0.3280E+01
      0.851  0.2901E+00  0.3304E+01
      0.935  0.1726E+00  0.3319E+01
      1.019  0.3303E+00  0.3347E+01
      1.103  0.6655E+00  0.3402E+01
      1.187  0.5456E+00  0.3448E+01
      1.271  0.2064E+00  0.3465E+01
      1.355  0.1303E+00  0.3476E+01
      1.438  0.2032E+00  0.3493E+01
      1.522  0.2229E+00  0.3512E+01
      1.606  0.4594E+00  0.3551E+01
      1.690  0.5130E+00  0.3594E+01
      1.774  0.2067E+00  0.3611E+01
      1.858  0.1432E+00  0.3623E+01
      1.941  0.3042E+00  0.3648E+01
      2.025  0.5980E+00  0.3699E+01
      2.109  0.1160E+01  0.3796E+01
      2.193  0.1370E+01  0.3911E+01
      2.277  0.9845E+00  0.3993E+01
      2.361  0.7124E+00  0.4053E+01
      2.445  0.9788E+00  0.4135E+01
      2.528  0.1132E+01  0.4230E+01
      2.612  0.1351E+01  0.4343E+01
      2.696  0.1155E+01  0.4440E+01
      2.780  0.6368E+00  0.4493E+01
      2.864  0.7665E+00  0.4558E+01
      2.948  0.8478E+00  0.4629E+01
      3.031  0.6900E+00  0.4687E+01
      3.115  0.8688E+00  0.4760E+01
      3.199  0.1246E+01  0.4864E+01
      3.283  0.1619E+01  0.5000E+01
      3.367  0.1433E+01  0.5120E+01
      3.451  0.9412E+00  0.5199E+01
      3.534  0.8149E+00  0.5267E+01
      3.618  0.1133E+01  0.5362E+01
      3.702  0.1704E+01  0.5505E+01
      3.786  0.2136E+01  0.5684E+01
      3.870  0.1640E+01  0.5822E+01
      3.954  0.7866E+00  0.5887E+01
      4.038  0.8687E+00  0.5960E+01
      4.121  0.1436E+01  0.6081E+01
      4.205  0.1552E+01  0.6211E+01
      4.289  0.1256E+01  0.6316E+01
      4.373  0.8109E+00  0.6384E+01
      4.457  0.7691E+00  0.6449E+01
      4.541  0.1344E+01  0.6561E+01
      4.624  0.1717E+01  0.6705E+01
      4.708  0.1446E+01  0.6827E+01
      4.792  0.1350E+01  0.6940E+01
      4.876  0.1002E+01  0.7024E+01
      4.960  0.8987E+00  0.7099E+01
      5.044  0.1311E+01  0.7209E+01
      5.128  0.1197E+01  0.7309E+01
      5.211  0.7154E+00  0.7369E+01
      5.295  0.5316E+00  0.7414E+01
      5.379  0.8553E+00  0.7486E+01
      5.463  0.1160E+01  0.7583E+01
      5.547  0.8474E+00  0.7654E+01
      5.631  0.5067E+00  0.7696E+01
      5.714  0.5509E+00  0.7743E+01
      5.798  0.6481E+00  0.7797E+01
      5.882  0.5629E+00  0.7844E+01
      5.966  0.3474E+00  0.7873E+01
      6.050  0.2643E+00  0.7895E+01
      6.134  0.3253E+00  0.7923E+01
      6.217  0.2585E+00  0.7944E+01
      6.301  0.1104E+00  0.7954E+01
      6.385  0.1158E+00  0.7963E+01
      6.469  0.2176E+00  0.7982E+01
      6.553  0.1492E+00  0.7994E+01
      6.637  0.5088E-01  0.7998E+01
      6.721  0.1603E-01  0.8000E+01
      6.804  0.2527E-02  0.8000E+01
      6.888  0.1095E-02  0.8000E+01
      6.972  0.1345E-01  0.8001E+01
      7.056  0.5900E-01  0.8006E+01
      7.140  0.1054E+00  0.8015E+01
      7.224  0.1503E+00  0.8028E+01
      7.307  0.2518E+00  0.8049E+01
      7.391  0.2936E+00  0.8073E+01
      7.475  0.2744E+00  0.8096E+01
      7.559  0.2834E+00  0.8120E+01
      7.643  0.2515E+00  0.8141E+01
      7.727  0.2594E+00  0.8163E+01
      7.811  0.4139E+00  0.8198E+01
      7.894  0.6731E+00  0.8254E+01
      7.978  0.6442E+00  0.8308E+01
      8.062  0.5186E+00  0.8352E+01
      8.146  0.7056E+00  0.8411E+01
      8.230  0.9553E+00  0.8491E+01
      8.314  0.1002E+01  0.8575E+01
      8.397  0.8655E+00  0.8647E+01
      8.481  0.8240E+00  0.8716E+01
      8.565  0.9034E+00  0.8792E+01
      8.649  0.6963E+00  0.8851E+01
      8.733  0.7199E+00  0.8911E+01
      8.817  0.1062E+01  0.9000E+01
      8.900  0.1521E+01  0.9127E+01
      8.984  0.1683E+01  0.9269E+01
      9.068  0.1494E+01  0.9394E+01
      9.152  0.1102E+01  0.9486E+01
      9.236  0.6457E+00  0.9540E+01
      9.320  0.9560E+00  0.9620E+01
      9.404  0.1570E+01  0.9752E+01
      9.487  0.1868E+01  0.9909E+01
      9.571  0.1436E+01  0.1003E+02
      9.655  0.1092E+01  0.1012E+02
      9.739  0.1375E+01  0.1024E+02
      9.823  0.1370E+01  0.1035E+02
      9.907  0.1565E+01  0.1048E+02
      9.990  0.2155E+01  0.1066E+02
     10.074  0.2291E+01  0.1085E+02
     10.158  0.1836E+01  0.1101E+02
     10.242  0.1412E+01  0.1113E+02
     10.326  0.1520E+01  0.1125E+02
     10.410  0.1710E+01  0.1140E+02
     10.494  0.1639E+01  0.1154E+02
     10.577  0.1478E+01  0.1166E+02
     10.661  0.8664E+00  0.1173E+02
     10.745  0.8060E+00  0.1180E+02
     10.829  0.8236E+00  0.1187E+02
     10.913  0.7430E+00  0.1193E+02
     10.997  0.8256E+00  0.1200E+02
     11.080  0.8338E+00  0.1207E+02
     11.164  0.1244E+01  0.1217E+02
     11.248  0.1326E+01  0.1229E+02
     11.332  0.1400E+01  0.1240E+02
     11.416  0.1803E+01  0.1255E+02
     11.500  0.2006E+01  0.1272E+02
     11.583  0.1819E+01  0.1287E+02
     11.667  0.1314E+01  0.1299E+02
     11.751  0.8809E+00  0.1306E+02
     11.835  0.1004E+01  0.1314E+02
     11.919  0.1385E+01  0.1326E+02
     12.003  0.1239E+01  0.1336E+02
     12.087  0.9357E+00  0.1344E+02
     12.170  0.5906E+00  0.1349E+02
     12.254  0.5581E+00  0.1354E+02
     12.338  0.7268E+00  0.1360E+02
     12.422  0.8052E+00  0.1367E+02
     12.506  0.9725E+00  0.1375E+02
     12.590  0.1388E+01  0.1386E+02
     12.673  0.1217E+01  0.1397E+02
     12.757  0.4852E+00  0.1401E+02
     12.841  0.5277E+00  0.1405E+02
     12.925  0.1137E+01  0.1415E+02
     13.009  0.1234E+01  0.1425E+02
     13.093  0.1141E+01  0.1435E+02
     13.177  0.1061E+01  0.1443E+02
     13.260  0.1213E+01  0.1454E+02
     13.344  0.1549E+01  0.1467E+02
     13.428  0.1099E+01  0.1476E+02
     13.512  0.7547E+00  0.1482E+02
     13.596  0.6657E+00  0.1488E+02
     13.680  0.6579E+00  0.1493E+02
     13.763  0.7272E+00  0.1499E+02
     13.847  0.6827E+00  0.1505E+02
     13.931  0.4654E+00  0.1509E+02
     14.015  0.3300E+00  0.1512E+02
     14.099  0.6726E+00  0.1517E+02
     14.183  0.8180E+00  0.1524E+02
     14.267  0.7195E+00  0.1530E+02
     14.350  0.5152E+00  0.1535E+02
     14.434  0.3466E+00  0.1538E+02
     14.518  0.3312E+00  0.1540E+02
     14.602  0.5938E+00  0.1545E+02
     14.686  0.8919E+00  0.1553E+02
     14.770  0.8608E+00  0.1560E+02
     14.853  0.8057E+00  0.1567E+02
     14.937  0.5550E+00  0.1571E+02
     15.021  0.2806E+00  0.1574E+02
     15.105  0.4946E+00  0.1578E+02
     15.189  0.8182E+00  0.1585E+02
     15.273  0.5778E+00  0.1590E+02
     15.356  0.1541E+00  0.1591E+02
     15.440  0.1360E-01  0.1591E+02
     15.524  0.3613E-03  0.1591E+02
     15.608  0.2710E-05  0.1591E+02
     15.692  0.5488E-08  0.1591E+02
     15.776  0.2906E-11  0.1591E+02
     15.860  0.3820E-15  0.1591E+02
     15.943  0.0000E+00  0.1591E+02
     16.027  0.1292E-12  0.1591E+02
     16.111  0.3881E-09  0.1591E+02
     16.195  0.2960E-06  0.1591E+02
     16.279  0.5823E-04  0.1591E+02
     16.363  0.3040E-02  0.1591E+02
     16.446  0.4432E-01  0.1591E+02
     16.530  0.1981E+00  0.1593E+02
     16.614  0.3192E+00  0.1596E+02
     16.698  0.2219E+00  0.1598E+02
     16.782  0.6680E-01  0.1598E+02
     16.866  0.1794E-01  0.1598E+02
     16.950  0.6050E-01  0.1599E+02
     17.033  0.9497E-01  0.1600E+02
     17.117  0.4282E-01  0.1600E+02
     17.201  0.5438E-02  0.1600E+02
     17.285  0.1888E-03  0.1600E+02
     17.369  0.1738E-05  0.1600E+02
     17.453  0.4140E-08  0.1600E+02
     17.536  0.2513E-11  0.1600E+02
     17.620  0.3820E-15  0.1600E+02
     17.704  0.0000E+00  0.1600E+02
     17.788  0.0000E+00  0.1600E+02
     17.872  0.0000E+00  0.1600E+02
     17.956  0.0000E+00  0.1600E+02
     18.039  0.0000E+00  0.1600E+02
     18.123  0.0000E+00  0.1600E+02
