    2    2    1    1
  0.1860962E+02  0.3747666E-09  0.3747666E-09  0.3747666E-09  0.5000000E-15
  1.000000000000000E-004
  CAR 
 diamond Si                              
      8     56      8
 
  0.0000000E+00  0.0000000E+00  0.0000000E+00  0.7513148E-03
      1         -5.886504   1.000000
      2          6.603059   0.999034
      3          6.603131   0.999031
      4          6.603131   0.999031
      5          9.195144   0.000000
      6          9.195203   0.000000
      7          9.195203   0.000000
      8         10.828909   0.000000
 
  0.9090909E-01 -0.1356833E-18  0.2193696E-17  0.6010518E-02
      1         -5.771187   1.000000
      2          5.602541   1.000000
      3          6.421295   1.000000
      4          6.421356   1.000000
      5          9.340163   0.000000
      6          9.464810   0.000000
      7          9.464877   0.000000
      8         11.499438   0.000000
 
  0.1818182E+00 -0.9652561E-18  0.5081282E-17  0.6010518E-02
      1         -5.429339   1.000000
      2          3.851369   1.000000
      3          6.057735   1.000000
      4          6.057793   1.000000
      5          9.127805   0.000000
      6          9.969658   0.000000
      7          9.969749   0.000000
      8         13.003722   0.000000
 
  0.2727273E+00 -0.1100939E-17  0.7274978E-17  0.6010518E-02
      1         -4.877138   1.000000
      2          2.099130   1.000000
      3          5.716320   1.000000
      4          5.716381   1.000000
      5          8.806672   0.000000
      6         10.190885   0.000000
      7         10.191025   0.000000
      8         14.057789   0.000000
 
  0.3636364E+00  0.1264117E-16 -0.4409114E-17  0.6010518E-02
      1         -4.163879   1.000000
      2          0.547397   1.000000
      3          5.474482   1.000000
      4          5.474546   1.000000
      5          8.555509   0.000000
      6         10.078173   0.000000
      7         10.078329   0.000000
      8         14.655416   0.000000
 
  0.4545455E+00  0.1181159E-16 -0.1521528E-17  0.6010518E-02
      1         -3.489503   1.000000
      2         -0.554610   1.000000
      3          5.351433   1.000000
      4          5.351501   1.000000
      5          8.425253   0.000000
      6          9.937023   0.000000
      7          9.937186   0.000000
      8         14.449676   0.000000
 
  0.9090909E-01  0.9090909E-01  0.2535407E-17  0.4507889E-02
      1         -5.732557   1.000000
      2          5.852317   1.000000
      3          6.060991   1.000000
      4          6.061035   1.000000
      5          8.853725   0.000000
      6          9.931168   0.000000
      7          9.931209   0.000000
      8         11.467114   0.000000
 
  0.1818182E+00  0.9090909E-01  0.7003611E-17  0.1803156E-01
      1         -5.465603   1.000000
      2          4.403446   1.000000
      3          5.634406   1.000000
      4          5.871105   1.000000
      5          8.906647   0.000000
      6         10.141197   0.000000
      7         10.566268   0.000000
      8         11.931438   0.000000
 
  0.2727273E+00  0.9090909E-01  0.9197307E-17  0.1803156E-01
      1         -4.981050   1.000000
      2          2.684795   1.000000
      3          5.297247   1.000000
      4          5.480777   1.000000
      5          9.118970   0.000000
      6         10.091681   0.000000
      7         10.904931   0.000000
      8         12.059543   0.000000
 
  0.3636364E+00  0.9090909E-01  0.1139100E-16  0.1803156E-01
      1         -4.312139   1.000000
      2          1.077095   1.000000
      3          5.076725   1.000000
      4          5.102696   1.000000
      5          9.033316   0.000000
      6         10.010346   0.000000
      7         10.778869   0.000000
      8         12.892793   0.000000
 
  0.4545455E+00  0.9090909E-01  0.1427859E-16  0.1803156E-01
      1         -3.579553   1.000000
      2         -0.209971   1.000000
      3          4.757421   1.000000
      4          5.066750   1.000000
      5          8.925455   0.000000
      6          9.908198   0.000000
      7         10.492435   0.000000
      8         14.213208   0.000000
 
 -0.4545455E+00  0.9090909E-01 -0.1043393E-16  0.1803156E-01
      1         -3.275673   1.000000
      2         -0.653563   1.000000
      3          4.561632   1.000000
      4          5.181219   1.000000
      5          8.927681   0.000000
      6          9.936395   0.000000
      7         10.283012   0.000000
      8         14.864942   0.000000
 
 -0.3636364E+00  0.9090909E-01 -0.7546345E-17  0.1803156E-01
      1         -3.815184   1.000000
      2          0.167562   1.000000
      3          4.513178   1.000000
      4          5.428778   1.000000
      5          9.052949   0.000000
      6         10.137372   0.000000
      7         10.212463   0.000000
      8         14.652887   0.000000
 
 -0.2727273E+00  0.9090909E-01  0.8525139E-17  0.1803156E-01
      1         -4.552923   1.000000
      2          1.593248   1.000000
      3          4.629235   1.000000
      4          5.777674   1.000000
      5          9.281493   0.000000
      6         10.185567   0.000000
      7         10.396284   0.000000
      8         13.494979   0.000000
 
 -0.1818182E+00  0.9090909E-01  0.6208554E-17  0.1803156E-01
      1         -5.166605   1.000000
      2          3.245078   1.000000
      3          4.928488   1.000000
      4          6.166562   1.000000
      5          9.568542   0.000000
      6          9.929352   0.000000
      7         10.341074   0.000000
      8         12.849234   0.000000
 
 -0.9090909E-01  0.9090909E-01 -0.2713667E-18  0.9015778E-02
      1         -5.580118   1.000000
      2          4.800620   1.000000
      3          5.515904   1.000000
      4          6.458550   1.000000
      5          9.509727   0.000000
      6          9.727919   0.000000
      7          9.791542   0.000000
      8         12.237124   0.000000
 
  0.1818182E+00  0.1818182E+00  0.5070814E-17  0.4507889E-02
      1         -5.273632   1.000000
      2          4.349266   1.000000
      3          5.166156   1.000000
      4          5.166194   1.000000
      5          8.161226   0.000000
      6         10.901277   0.000000
      7         11.390697   0.000000
      8         11.390712   0.000000
 
  0.2727273E+00  0.1818182E+00  0.1268089E-16  0.1803156E-01
      1         -4.860326   1.000000
      2          3.096672   1.000000
      3          4.747088   1.000000
      4          4.799943   1.000000
      5          8.218750   0.000000
      6         10.368233   0.000000
      7         11.709142   0.000000
      8         11.993858   0.000000
 
  0.3636364E+00  0.1818182E+00  0.1261944E-16  0.1803156E-01
      1         -4.248103   1.000000
      2          1.612743   1.000000
      3          4.192803   1.000000
      4          4.593366   1.000000
      5          8.458044   0.000000
      6         10.730916   0.000000
      7         11.551468   0.000000
      8         12.019322   0.000000
 
  0.4545455E+00  0.1818182E+00  0.1550703E-16  0.1803156E-01
      1         -3.510170   1.000000
      2          0.272056   1.000000
      3          3.688289   1.000000
      4          4.563939   1.000000
      5          8.495007   0.000000
      6         11.276919   0.000000
      7         11.705607   0.000000
      8         12.081652   0.000000
 
 -0.4545455E+00  0.1818182E+00 -0.9205490E-17  0.1803156E-01
      1         -2.971350   1.000000
      2         -0.512497   1.000000
      3          3.326015   1.000000
      4          4.709000   1.000000
      5          8.616090   0.000000
      6         11.153657   0.000000
      7         11.373522   0.000000
      8         13.793433   0.000000
 
 -0.3636364E+00  0.1818182E+00 -0.6317905E-17  0.1803156E-01
      1         -3.290474   1.000000
      2         -0.057315   1.000000
      3          3.149651   1.000000
      4          5.012007   1.000000
      5          8.917293   0.000000
      6         11.119261   0.000000
      7         11.148631   0.000000
      8         14.566061   0.000000
 
 -0.2727273E+00  0.1818182E+00  0.7330174E-18  0.1803156E-01
      1         -4.023998   1.000000
      2          1.161136   1.000000
      3          3.211496   1.000000
      4          5.431927   1.000000
      5          9.357990   0.000000
      6         10.935475   0.000000
      7         11.136835   0.000000
      8         13.179305   0.000000
 
 -0.1818182E+00  0.1818182E+00 -0.1095107E-16  0.9015778E-02
      1         -4.687565   1.000000
      2          2.442327   1.000000
      3          3.701414   1.000000
      4          5.881041   1.000000
      5          9.779332   0.000000
      6         10.445664   0.000000
      7         10.806682   0.000000
      8         12.597097   0.000000
 
  0.2727273E+00  0.2727273E+00  0.7606220E-17  0.4507889E-02
      1         -4.518325   1.000000
      2          2.662130   1.000000
      3          4.395456   1.000000
      4          4.395496   1.000000
      5          7.520728   0.000000
      6          9.340075   0.000000
      7         13.056559   0.000000
      8         13.056574   0.000000
 
  0.3636364E+00  0.2727273E+00  0.1211316E-16  0.1803156E-01
      1         -3.969323   1.000000
      2          1.643565   1.000000
      3          3.814798   1.000000
      4          4.149642   1.000000
      5          7.654853   0.000000
      6          9.037484   0.000000
      7         13.415610   0.000000
      8         13.509852   0.000000
 
  0.4545455E+00  0.2727273E+00  0.2193964E-16  0.1803156E-01
      1         -3.258445   1.000000
      2          0.531887   1.000000
      3          3.031794   1.000000
      4          4.087030   1.000000
      5          7.839480   0.000000
      6          9.873711   0.000000
      7         13.292037   0.000000
      8         13.303548   0.000000
 
 -0.4545455E+00  0.2727273E+00 -0.1214039E-16  0.1803156E-01
      1         -2.581120   1.000000
      2         -0.352506   1.000000
      3          2.416646   1.000000
      4          4.210514   1.000000
      5          7.981491   0.000000
      6         11.423954   0.000000
      7         12.935555   0.000000
      8         13.150016   0.000000
 
 -0.3636364E+00  0.2727273E+00  0.9482213E-17  0.1803156E-01
      1         -2.637471   1.000000
      2         -0.269605   1.000000
      3          2.100556   1.000000
      4          4.507452   1.000000
      5          8.304342   0.000000
      6         12.584334   0.000000
      7         12.605083   0.000000
      8         13.716230   0.000000
 
 -0.2727273E+00  0.2727273E+00 -0.2201879E-17  0.9015778E-02
      1         -3.332076   1.000000
      2          0.556261   1.000000
      3          2.262846   1.000000
      4          4.943859   1.000000
      5          8.809827   0.000000
      6         11.998925   0.000000
      7         12.351375   0.000000
      8         13.349346   0.000000
 
  0.3636364E+00  0.3636364E+00  0.1014163E-16  0.4507889E-02
      1         -3.483254   1.000000
      2          0.949500   1.000000
      3          3.856141   1.000000
      4          3.856181   1.000000
      5          7.122567   0.000011
      6          8.129328   0.000000
      7         14.814883   0.000000
      8         14.814902   0.000000
 
  0.4545455E+00  0.3636364E+00  0.1935169E-16  0.1803156E-01
      1         -2.816617   1.000000
      2          0.083937   1.000000
      3          3.264107   1.000000
      4          3.745329   1.000000
      5          7.327956   0.000000
      6          8.178091   0.000000
      7         15.108666   0.000000
      8         15.213164   0.000000
 
 -0.4545455E+00  0.3636364E+00  0.3659731E-17  0.1803156E-01
      1         -2.082192   1.000000
      2         -0.682811   1.000000
      3          2.402689   1.000000
      4          3.825216   1.000000
      5          7.494902   0.000000
      6          9.464947   0.000000
      7         14.784066   0.000000
      8         15.103411   0.000000
 
 -0.3636364E+00  0.3636364E+00  0.2528233E-16  0.9015778E-02
      1         -1.991243   1.000000
      2         -0.733992   1.000000
      3          1.868050   1.000000
      4          4.088200   1.000000
      5          7.798566   0.000000
      6         11.276825   0.000000
      7         14.112678   0.000000
      8         14.723597   0.000000
 
  0.4545455E+00  0.4545455E+00  0.1267703E-16  0.4507889E-02
      1         -2.194546   1.000000
      2         -0.696075   1.000000
      3          3.581496   1.000000
      4          3.581536   1.000000
      5          7.056052   0.000474
      6          7.376551   0.000000
      7         16.647172   0.000000
      8         16.647196   0.000000
 
 -0.4545455E+00  0.4545455E+00  0.2362318E-16  0.9015778E-02
      1         -1.496078   1.000000
      2         -1.386290   1.000000
      3          3.085102   1.000000
      4          3.608781   1.000000
      5          7.236900   0.000000
      6          7.872340   0.000000
      7         16.600327   0.000000
      8         16.979992   0.000000
 
  0.2727273E+00  0.1818182E+00  0.9090909E-01  0.1803156E-01
      1         -5.125943   1.000000
      2          3.541479   1.000000
      3          4.612295   1.000000
      4          5.740994   1.000000
      5          8.961755   0.000000
      6         10.526281   0.000000
      7         11.160913   0.000000
      8         11.443012   0.000000
 
  0.3636364E+00  0.1818182E+00  0.9090909E-01  0.3606311E-01
      1         -4.576584   1.000000
      2          2.130114   1.000000
      3          4.034544   1.000000
      4          5.391853   1.000000
      5          9.312299   0.000000
      6         10.389408   0.000000
      7         11.420263   0.000000
      8         11.624424   0.000000
 
  0.4545455E+00  0.1818182E+00  0.9090909E-01  0.3606311E-01
      1         -3.865670   1.000000
      2          0.681097   1.000000
      3          3.787326   1.000000
      4          5.013332   1.000000
      5          9.396327   0.000000
      6         10.034395   0.000000
      7         11.580435   0.000000
      8         12.499632   0.000000
 
 -0.4545455E+00  0.1818182E+00  0.9090909E-01  0.3606311E-01
      1         -3.187437   1.000000
      2         -0.390914   1.000000
      3          3.696896   1.000000
      4          4.778846   1.000000
      5          9.441645   0.000000
      6          9.720768   0.000000
      7         11.492492   0.000000
      8         14.080528   0.000000
 
  0.3636364E+00  0.2727273E+00  0.9090909E-01  0.1803156E-01
      1         -4.380228   1.000000
      2          2.229345   1.000000
      3          3.846658   1.000000
      4          4.638251   1.000000
      5          8.351710   0.000000
      6          9.891628   0.000000
      7         11.840415   0.000000
      8         12.923428   0.000000
 
  0.4545455E+00  0.2727273E+00  0.9090909E-01  0.3606311E-01
      1         -3.716196   1.000000
      2          1.068355   1.000000
      3          3.245627   1.000000
      4          4.287793   1.000000
      5          8.717795   0.000000
      6         10.326976   0.000000
      7         11.519760   0.000000
      8         13.323906   0.000000
 
 -0.4545455E+00  0.2727273E+00  0.9090909E-01  0.3606311E-01
      1         -2.981639   1.000000
      2         -0.038161   1.000000
      3          2.850613   1.000000
      4          4.114479   1.000000
      5          8.848192   0.000000
      6         10.978362   0.000000
      7         11.889557   0.000000
      8         13.283004   0.000000
 
 -0.3636364E+00  0.2727273E+00  0.9090909E-01  0.3606311E-01
      1         -2.680875   1.000000
      2         -0.430150   1.000000
      3          2.602186   1.000000
      4          4.214026   1.000000
      5          9.084517   0.000000
      6         10.724404   0.000000
      7         13.101156   0.000000
      8         13.672694   0.000000
 
 -0.2727273E+00  0.2727273E+00  0.9090909E-01  0.3606311E-01
      1         -3.242101   1.000000
      2          0.335055   1.000000
      3          2.570209   1.000000
      4          4.539024   1.000000
      5          9.490433   0.000000
      6         10.515996   0.000000
      7         12.360306   0.000000
      8         13.032183   0.000000
 
 -0.1818182E+00  0.2727273E+00  0.9090909E-01  0.1803156E-01
      1         -3.974491   1.000000
      2          1.396820   1.000000
      3          2.954907   1.000000
      4          4.994816   1.000000
      5         10.006696   0.000000
      6         10.082564   0.000000
      7         11.367349   0.000000
      8         12.590344   0.000000
 
  0.4545455E+00  0.3636364E+00  0.9090909E-01  0.1803156E-01
      1         -3.363330   1.000000
      2          0.804459   1.000000
      3          3.337295   1.000000
      4          3.754545   1.000000
      5          7.954732   0.000000
      6          8.785627   0.000000
      7         13.288919   0.000000
      8         14.774041   0.000000
 
 -0.4545455E+00  0.3636364E+00  0.9090909E-01  0.3606311E-01
      1         -2.626918   1.000000
      2         -0.072969   1.000000
      3          2.630667   1.000000
      4          3.560306   1.000000
      5          8.297503   0.000000
      6          9.688435   0.000000
      7         12.902300   0.000000
      8         15.176026   0.000000
 
 -0.3636364E+00  0.3636364E+00  0.9090909E-01  0.3606311E-01
      1         -2.103121   1.000000
      2         -0.623813   1.000000
      3          2.057477   1.000000
      4          3.688844   1.000000
      5          8.526327   0.000000
      6         11.326253   0.000000
      7         12.593520   0.000000
      8         14.260423   0.000000
 
 -0.2727273E+00  0.3636364E+00  0.9090909E-01  0.1803156E-01
      1         -2.522257   1.000000
      2         -0.196271   1.000000
      3          1.943196   1.000000
      4          4.040898   1.000000
      5          8.933581   0.000000
      6         11.820900   0.000000
      7         12.643373   0.000000
      8         13.549212   0.000000
 
 -0.4545455E+00  0.4545455E+00  0.9090909E-01  0.1803156E-01
      1         -2.110725   1.000000
      2         -0.686159   1.000000
      3          3.129139   1.000000
      4          3.255990   1.000000
      5          7.859266   0.000000
      6          8.119877   0.000000
      7         14.890891   0.000000
      8         16.536363   0.000000
 
 -0.3636364E+00  0.4545455E+00  0.9090909E-01  0.1803156E-01
      1         -1.549820   1.000000
      2         -1.169473   1.000000
      3          2.389913   1.000000
      4          3.336053   1.000000
      5          8.148602   0.000000
      6          9.478835   0.000000
      7         14.401283   0.000000
      8         14.638392   0.000000
 
 -0.4545455E+00  0.3636364E+00  0.1818182E+00  0.1803156E-01
      1         -3.021462   1.000000
      2          0.375948   1.000000
      3          2.508899   1.000000
      4          3.770527   1.000000
      5          9.724893   0.000000
      6         10.277509   0.000000
      7         11.150809   0.000000
      8         14.634485   0.000000
 
 -0.3636364E+00  0.3636364E+00  0.1818182E+00  0.3606311E-01
      1         -2.326894   1.000000
      2         -0.381012   1.000000
      3          2.208162   1.000000
      4          3.417096   1.000000
      5         10.043525   0.000000
      6         10.530093   0.000000
      7         11.873261   0.000000
      8         13.851890   0.000000
 
 -0.3636364E+00  0.4545455E+00  0.1818182E+00  0.1803156E-01
      1         -1.896853   1.000000
      2         -0.721126   1.000000
      3          2.443860   1.000000
      4          2.849417   1.000000
      5          9.613214   0.000000
      6          9.801936   0.000000
      7         12.459882   0.000000
      8         14.123365   0.000000
 
 -0.2727273E+00  0.4545455E+00  0.1818182E+00  0.1803156E-01
      1         -1.670572   1.000000
      2         -0.901582   1.000000
      3          2.128654   1.000000
      4          2.891718   1.000000
      5          9.961771   0.000000
      6         11.253064   0.000000
      7         12.208012   0.000000
      8         12.281325   0.000000
