       N       E                     dE             d eps       ncg     rms          rms(c)
DAV:   1    -0.185306480101E+01   -0.18531E+01   -0.20347E+03   904   0.421E+02
DAV:   2    -0.108519652148E+02   -0.89989E+01   -0.87330E+01  1376   0.557E+01
DAV:   3    -0.109380462836E+02   -0.86081E-01   -0.86081E-01  1112   0.676E+00
DAV:   4    -0.109383054797E+02   -0.25920E-03   -0.25920E-03  1432   0.383E-01
DAV:   5    -0.109383055576E+02   -0.77849E-07   -0.77635E-07  1168   0.588E-03    0.603E+00
DAV:   6    -0.107804313486E+02    0.15787E+00   -0.10845E-01  1032   0.172E+00    0.372E+00
DAV:   7    -0.107123229523E+02    0.68108E-01   -0.19523E-01  1136   0.244E+00    0.279E-01
DAV:   8    -0.107131414136E+02   -0.81846E-03   -0.44159E-03  1016   0.488E-01    0.739E-02
DAV:   9    -0.107133121984E+02   -0.17078E-03   -0.16068E-04  1296   0.101E-01    0.628E-02
DAV:  10    -0.107133355682E+02   -0.23370E-04   -0.25373E-05   608   0.384E-02
   1 F= -.10713336E+02 E0= -.10713334E+02  d E =-.215112E-05
