 vasp.6.3.0 20Jan22 (build Feb 01 2022 16:52:37) complex                        
  
 executed on           TETRA_NSC1 date 2022.02.23  07:07:28
 running    4 mpi-ranks, with    1 threads/rank
 distrk:  each k-point on    4 cores,    1 groups
 distr:  one band on NCORE=   1 cores,    4 groups


--------------------------------------------------------------------------------------------------------


 INCAR:
   SYSTEM = diamond Si
   ISTART = 0
   ICHARG = 2
   ENCUT = 240
   ISMEAR = 0
   SIGMA = 0.1

 POTCAR:    PAW_PBE Si 05Jan2001                  
 POTCAR:    PAW_PBE Si 05Jan2001                  
   VRHFIN =Si: s2p2                                                                                 
   LEXCH  = PE                                                                                      
   EATOM  =   103.0669 eV,    7.5752 Ry                                                             
                                                                                                    
   TITEL  = PAW_PBE Si 05Jan2001                                                                    
   LULTRA =        F    use ultrasoft PP ?                                                          
   IUNSCR =        1    unscreen: 0-lin 1-nonlin 2-no                                               
   RPACOR =    1.500    partial core radius                                                         
   POMASS =   28.085; ZVAL   =    4.000    mass and valenz                                          
   RCORE  =    1.900    outmost cutoff radius                                                       
   RWIGS  =    2.480; RWIGS  =    1.312    wigner-seitz radius (au A)                               
   ENMAX  =  245.345; ENMIN  =  184.009 eV                                                          
   ICORE  =        2    local potential                                                             
   LCOR   =        T    correct aug charges                                                         
   LPAW   =        T    paw PP                                                                      
   EAUG   =  322.069                                                                                
   DEXC   =    0.000                                                                                
   RMAX   =    1.950    core radius for proj-oper                                                   
   RAUG   =    1.300    factor for augmentation sphere                                              
   RDEP   =    1.993    radius for radial grids                                                     
   RDEPT  =    1.837    core radius for aug-charge                                                  
                                                                                                    
   Atomic configuration                                                                             
    6 entries                                                                                       
     n  l   j            E        occ.                                                              
     1  0  0.50     -1785.8828   2.0000                                                             
     2  0  0.50      -139.4969   2.0000                                                             
     2  1  1.50       -95.5546   6.0000                                                             
     3  0  0.50       -10.8127   2.0000                                                             
     3  1  0.50        -4.0811   2.0000                                                             
     3  2  1.50        -4.0817   0.0000                                                             
   Description                                                                                      
     l       E           TYP  RCUT    TYP  RCUT                                                     
     0    -10.8127223     23  1.900                                                                 
     0     -7.6451159     23  1.900                                                                 
     1     -4.0811372     23  1.900                                                                 
     1      2.4879257     23  1.900                                                                 
     2     -4.0817478      7  1.900                                                                 
  local pseudopotential read in
  partial core-charges read in
  partial kinetic energy density read in
  atomic valenz-charges read in
  non local Contribution for L=           0  read in
    real space projection operators read in
  non local Contribution for L=           0  read in
    real space projection operators read in
  non local Contribution for L=           1  read in
    real space projection operators read in
  non local Contribution for L=           1  read in
    real space projection operators read in
    PAW grid and wavefunctions read in
 
   number of l-projection  operators is LMAX  =           4
   number of lm-projection operators is LMMAX =           8
 
  PAW_PBE Si 05Jan2001                  :
 energy of atom  1       EATOM= -103.0669
 kinetic energy error for atom=    0.0061 (will be added to EATOM!!)
 
 
 POSCAR: cubic diamond Si
  positions in direct lattice
  No initial velocities read in
 exchange correlation table for  LEXCH =        8
   RHO(1)=    0.500       N(1)  =     2000
   RHO(2)=  100.500       N(2)  =     4000
 


--------------------------------------------------------------------------------------------------------


 ion  position               nearest neighbor table
   1  0.875  0.875  0.875-   2 2.29   2 2.29   2 2.29   2 2.29
   2  0.125  0.125  0.125-   1 2.29   1 2.29   1 2.29   1 2.29
 
  LATTYP: Found a face centered cubic cell.
 ALAT       =     5.3000000000
  
  Lattice vectors:
  
 A1 = (   0.0000000000,   2.6500000000,   2.6500000000)
 A2 = (   2.6500000000,   0.0000000000,   2.6500000000)
 A3 = (   2.6500000000,   2.6500000000,   0.0000000000)


Analysis of symmetry for initial positions (statically):
=====================================================================
 Subroutine PRICEL returns:
 Original cell was already a primitive cell.
 

 Routine SETGRP: Setting up the symmetry group for a 
 face centered cubic supercell.


 Subroutine GETGRP returns: Found 48 space group operations
 (whereof 12 operations were pure point group operations)
 out of a pool of 48 trial point group operations.


The static configuration has the point symmetry D_3d.
 The point group associated with its full space group is O_h .


Analysis of symmetry for dynamics (positions and initial velocities):
=====================================================================
 Subroutine PRICEL returns:
 Original cell was already a primitive cell.
 

 Routine SETGRP: Setting up the symmetry group for a 
 face centered cubic supercell.


 Subroutine GETGRP returns: Found 48 space group operations
 (whereof 12 operations were pure point group operations)
 out of a pool of 48 trial point group operations.


The dynamic configuration has the point symmetry D_3d.
 The point group associated with its full space group is O_h .


 Subroutine INISYM returns: Found 48 space group operations
 (whereof 12 operations are pure point group operations),
 and found     1 'primitive' translations


----------------------------------------------------------------------------------------

                                     Primitive cell                                     

  volume of cell :      37.2192

  direct lattice vectors                    reciprocal lattice vectors
     0.000000000  2.650000000  2.650000000    -0.188679245  0.188679245  0.188679245
     2.650000000  0.000000000  2.650000000     0.188679245 -0.188679245  0.188679245
     2.650000000  2.650000000  0.000000000     0.188679245  0.188679245 -0.188679245

  length of vectors
     3.747665940  3.747665940  3.747665940     0.326802039  0.326802039  0.326802039

  position of ions in fractional coordinates (direct lattice)
     0.875000000  0.875000000  0.875000000
     0.125000000  0.125000000  0.125000000

  ion indices of the primitive-cell ions
   primitive index   ion index
                 1           1
                 2           2

----------------------------------------------------------------------------------------

 
 
 KPOINTS: k-points                                

Automatic generation of k-mesh.
 Grid dimensions read from file:
 generate k-points for:   11   11   11

 Generating k-lattice:

  Cartesian coordinates                     Fractional coordinates (reciprocal lattice)
    -0.017152659  0.017152659  0.017152659     0.090909091 -0.000000000  0.000000000
     0.017152659 -0.017152659  0.017152659    -0.000000000  0.090909091 -0.000000000
     0.017152659  0.017152659 -0.017152659     0.000000000  0.000000000  0.090909091

  Length of vectors
     0.029709276  0.029709276  0.029709276

  Shift w.r.t. Gamma in fractional coordinates (k-lattice)
     0.000000000  0.000000000  0.000000000

 
 Subroutine IBZKPT returns following result:
 ===========================================
 
 Found     56 irreducible k-points:
 
 Following reciprocal coordinates:
            Coordinates               Weight
  0.000000  0.000000  0.000000      1.000000
  0.090909 -0.000000  0.000000      8.000000
  0.181818 -0.000000  0.000000      8.000000
  0.272727 -0.000000  0.000000      8.000000
  0.363636  0.000000 -0.000000      8.000000
  0.454545  0.000000 -0.000000      8.000000
  0.090909  0.090909  0.000000      6.000000
  0.181818  0.090909  0.000000     24.000000
  0.272727  0.090909  0.000000     24.000000
  0.363636  0.090909  0.000000     24.000000
  0.454545  0.090909  0.000000     24.000000
 -0.454545  0.090909 -0.000000     24.000000
 -0.363636  0.090909 -0.000000     24.000000
 -0.272727  0.090909  0.000000     24.000000
 -0.181818  0.090909  0.000000     24.000000
 -0.090909  0.090909 -0.000000     12.000000
  0.181818  0.181818  0.000000      6.000000
  0.272727  0.181818  0.000000     24.000000
  0.363636  0.181818  0.000000     24.000000
  0.454545  0.181818  0.000000     24.000000
 -0.454545  0.181818 -0.000000     24.000000
 -0.363636  0.181818 -0.000000     24.000000
 -0.272727  0.181818  0.000000     24.000000
 -0.181818  0.181818 -0.000000     12.000000
  0.272727  0.272727  0.000000      6.000000
  0.363636  0.272727  0.000000     24.000000
  0.454545  0.272727  0.000000     24.000000
 -0.454545  0.272727 -0.000000     24.000000
 -0.363636  0.272727  0.000000     24.000000
 -0.272727  0.272727 -0.000000     12.000000
  0.363636  0.363636  0.000000      6.000000
  0.454545  0.363636  0.000000     24.000000
 -0.454545  0.363636  0.000000     24.000000
 -0.363636  0.363636  0.000000     12.000000
  0.454545  0.454545  0.000000      6.000000
 -0.454545  0.454545  0.000000     12.000000
  0.272727  0.181818  0.090909     24.000000
  0.363636  0.181818  0.090909     48.000000
  0.454545  0.181818  0.090909     48.000000
 -0.454545  0.181818  0.090909     48.000000
  0.363636  0.272727  0.090909     24.000000
  0.454545  0.272727  0.090909     48.000000
 -0.454545  0.272727  0.090909     48.000000
 -0.363636  0.272727  0.090909     48.000000
 -0.272727  0.272727  0.090909     48.000000
 -0.181818  0.272727  0.090909     24.000000
  0.454545  0.363636  0.090909     24.000000
 -0.454545  0.363636  0.090909     48.000000
 -0.363636  0.363636  0.090909     48.000000
 -0.272727  0.363636  0.090909     24.000000
 -0.454545  0.454545  0.090909     24.000000
 -0.363636  0.454545  0.090909     24.000000
 -0.454545  0.363636  0.181818     24.000000
 -0.363636  0.363636  0.181818     48.000000
 -0.363636  0.454545  0.181818     24.000000
 -0.272727  0.454545  0.181818     24.000000
 
 Following cartesian coordinates:
            Coordinates               Weight
  0.000000  0.000000  0.000000      1.000000
 -0.090909  0.090909  0.090909      8.000000
 -0.181818  0.181818  0.181818      8.000000
 -0.272727  0.272727  0.272727      8.000000
 -0.363636  0.363636  0.363636      8.000000
 -0.454545  0.454545  0.454545      8.000000
 -0.000000  0.000000  0.181818      6.000000
 -0.090909  0.090909  0.272727     24.000000
 -0.181818  0.181818  0.363636     24.000000
 -0.272727  0.272727  0.454545     24.000000
 -0.363636  0.363636  0.545455     24.000000
  0.545455 -0.545455 -0.363636     24.000000
  0.454545 -0.454545 -0.272727     24.000000
  0.363636 -0.363636 -0.181818     24.000000
  0.272727 -0.272727 -0.090909     24.000000
  0.181818 -0.181818 -0.000000     12.000000
 -0.000000  0.000000  0.363636      6.000000
 -0.090909  0.090909  0.454545     24.000000
 -0.181818  0.181818  0.545455     24.000000
 -0.272727  0.272727  0.636364     24.000000
  0.636364 -0.636364 -0.272727     24.000000
  0.545455 -0.545455 -0.181818     24.000000
  0.454545 -0.454545 -0.090909     24.000000
  0.363636 -0.363636 -0.000000     12.000000
 -0.000000  0.000000  0.545455      6.000000
 -0.090909  0.090909  0.636364     24.000000
 -0.181818  0.181818  0.727273     24.000000
  0.727273 -0.727273 -0.181818     24.000000
  0.636364 -0.636364 -0.090909     24.000000
  0.545455 -0.545455 -0.000000     12.000000
  0.000000 -0.000000  0.727273      6.000000
 -0.090909  0.090909  0.818182     24.000000
  0.818182 -0.818182 -0.090909     24.000000
  0.727273 -0.727273 -0.000000     12.000000
  0.000000  0.000000  0.909091      6.000000
  0.909091 -0.909091 -0.000000     12.000000
  0.000000  0.181818  0.363636     24.000000
 -0.090909  0.272727  0.454545     48.000000
 -0.181818  0.363636  0.545455     48.000000
  0.727273 -0.545455 -0.363636     48.000000
  0.000000  0.181818  0.545455     24.000000
 -0.090909  0.272727  0.636364     48.000000
  0.818182 -0.636364 -0.272727     48.000000
  0.727273 -0.545455 -0.181818     48.000000
  0.636364 -0.454545 -0.090909     48.000000
  0.545455 -0.363636 -0.000000     24.000000
  0.000000  0.181818  0.727273     24.000000
  0.909091 -0.727273 -0.181818     48.000000
  0.818182 -0.636364 -0.090909     48.000000
  0.727273 -0.545455 -0.000000     24.000000
  1.000000 -0.818182 -0.090909     24.000000
  0.909091 -0.727273 -0.000000     24.000000
  1.000000 -0.636364 -0.272727     24.000000
  0.909091 -0.545455 -0.181818     48.000000
  1.000000 -0.636364 -0.090909     24.000000
  0.909091 -0.545455 -0.000000     24.000000
 


--------------------------------------------------------------------------------------------------------




 Dimension of arrays:
   k-points           NKPTS =     56   k-points in BZ     NKDIM =     56   number of bands    NBANDS=      8
   number of dos      NEDOS =    301   number of ions     NIONS =      2
   non local maximal  LDIM  =      4   non local SUM 2l+1 LMDIM =      8
   total plane-waves  NPLWV =   2744
   max r-space proj   IRMAX =      1   max aug-charges    IRDMAX=   2664
   dimension x,y,z NGX =    14 NGY =   14 NGZ =   14
   dimension x,y,z NGXF=    28 NGYF=   28 NGZF=   28
   support grid    NGXF=    28 NGYF=   28 NGZF=   28
   ions per type =               2
   NGX,Y,Z   is equivalent  to a cutoff of   6.21,  6.21,  6.21 a.u.
   NGXF,Y,Z  is equivalent  to a cutoff of  12.42, 12.42, 12.42 a.u.

 SYSTEM =  diamond Si                              
 POSCAR =  cubic diamond Si                        

 Startparameter for this run:
   NWRITE =      2    write-flag & timer
   PREC   = normal    normal or accurate (medium, high low for compatibility)
   ISTART =      0    job   : 0-new  1-cont  2-samecut
   ICHARG =      2    charge: 1-file 2-atom 10-const
   ISPIN  =      1    spin polarized calculation?
   LNONCOLLINEAR =      F non collinear calculations
   LSORBIT =      F    spin-orbit coupling
   INIWAV =      1    electr: 0-lowe 1-rand  2-diag
   LASPH  =      F    aspherical Exc in radial PAW
 Electronic Relaxation 1
   ENCUT  =  240.0 eV  17.64 Ry    4.20 a.u.   4.73  4.73  4.73*2*pi/ulx,y,z
   ENINI  =  240.0     initial cutoff
   ENAUG  =  322.1 eV  augmentation charge cutoff
   NELM   =     60;   NELMIN=  2; NELMDL= -5     # of ELM steps 
   EDIFF  = 0.1E-03   stopping-criterion for ELM
   LREAL  =      F    real-space projection
   NLSPLINE    = F    spline interpolate recip. space projectors
   LCOMPAT=      F    compatible to vasp.4.4
   GGA_COMPAT  = T    GGA compatible to vasp.4.4-vasp.4.6
   LMAXPAW     = -100 max onsite density
   LMAXMIX     =    2 max onsite mixed and CHGCAR
   VOSKOWN=      0    Vosko Wilk Nusair interpolation
   ROPT   =    0.00000
 Ionic relaxation
   EDIFFG = 0.1E-02   stopping-criterion for IOM
   NSW    =      0    number of steps for IOM
   NBLOCK =      1;   KBLOCK =      1    inner block; outer block 
   IBRION =     -1    ionic relax: 0-MD 1-quasi-New 2-CG
   NFREE  =      0    steps in history (QN), initial steepest desc. (CG)
   ISIF   =      2    stress and relaxation
   IWAVPR =     10    prediction:  0-non 1-charg 2-wave 3-comb
   ISYM   =      2    0-nonsym 1-usesym 2-fastsym
   LCORR  =      T    Harris-Foulkes like correction to forces

   POTIM  = 0.5000    time-step for ionic-motion
   TEIN   =    0.0    initial temperature
   TEBEG  =    0.0;   TEEND  =   0.0 temperature during run
   SMASS  =  -3.00    Nose mass-parameter (am)
   estimated Nose-frequenzy (Omega)   =  0.10E-29 period in steps = 0.13E+47 mass=  -0.321E-27a.u.
   SCALEE = 1.0000    scale energy and forces
   NPACO  =    256;   APACO  = 10.0  distance and # of slots for P.C.
   PSTRESS=    0.0 pullay stress

  Mass of Ions in am
   POMASS =  28.09
  Ionic Valenz
   ZVAL   =   4.00
  Atomic Wigner-Seitz radii
   RWIGS  =  -1.00
  virtual crystal weights 
   VCA    =   1.00
   NELECT =       8.0000    total number of electrons
   NUPDOWN=      -1.0000    fix difference up-down

 DOS related values:
   EMIN   =  10.00;   EMAX   =-10.00  energy-range for DOS
   EFERMI =   0.00
   ISMEAR =     0;   SIGMA  =   0.10  broadening in eV -4-tet -1-fermi 0-gaus

 Electronic relaxation 2 (details)
   IALGO  =     38    algorithm
   LDIAG  =      T    sub-space diagonalisation (order eigenvalues)
   LSUBROT=      F    optimize rotation matrix (better conditioning)
   TURBO    =      0    0=normal 1=particle mesh
   IRESTART =      0    0=no restart 2=restart with 2 vectors
   NREBOOT  =      0    no. of reboots
   NMIN     =      0    reboot dimension
   EREF     =   0.00    reference energy to select bands
   IMIX   =      4    mixing-type and parameters
     AMIX     =   0.40;   BMIX     =  1.00
     AMIX_MAG =   1.60;   BMIX_MAG =  1.00
     AMIN     =   0.10
     WC   =   100.;   INIMIX=   1;  MIXPRE=   1;  MAXMIX= -45

 Intra band minimization:
   WEIMIN = 0.0000     energy-eigenvalue tresh-hold
   EBREAK =  0.31E-05  absolut break condition
   DEPER  =   0.30     relativ break condition  

   TIME   =   0.40     timestep for ELM

  volume/ion in A,a.u.               =      18.61       125.58
  Fermi-wavevector in a.u.,A,eV,Ry     =   0.980654  1.853167 13.084471  0.961681
  Thomas-Fermi vector in A             =   2.111600
 
 Write flags
   LWAVE        =      T    write WAVECAR
   LDOWNSAMPLE  =      F    k-point downsampling of WAVECAR
   LCHARG       =      T    write CHGCAR
   LVTOT        =      F    write LOCPOT, total local potential
   LVHAR        =      F    write LOCPOT, Hartree potential only
   LELF         =      F    write electronic localiz. function (ELF)
   LORBIT       =      0    0 simple, 1 ext, 2 COOP (PROOUT), +10 PAW based schemes


 Dipole corrections
   LMONO  =      F    monopole corrections only (constant potential shift)
   LDIPOL =      F    correct potential (dipole corrections)
   IDIPOL =      0    1-x, 2-y, 3-z, 4-all directions 
   EPSILON=  1.0000000 bulk dielectric constant

 Exchange correlation treatment:
   GGA     =    --    GGA type
   LEXCH   =     8    internal setting for exchange type
   LIBXC   =     F    Libxc                    
   VOSKOWN =     0    Vosko Wilk Nusair interpolation
   LHFCALC =     F    Hartree Fock is set to
   LHFONE  =     F    Hartree Fock one center treatment
   AEXX    =    0.0000 exact exchange contribution

 Linear response parameters
   LEPSILON=     F    determine dielectric tensor
   LRPA    =     F    only Hartree local field effects (RPA)
   LNABLA  =     F    use nabla operator in PAW spheres
   LVEL    =     F    velocity operator in full k-point grid
   CSHIFT  =0.1000    complex shift for real part using Kramers Kronig
   OMEGAMAX=  -1.0    maximum frequency
   DEG_THRESHOLD= 0.2000000E-02 threshold for treating states as degnerate
   RTIME   =   -0.100 relaxation time in fs
  (WPLASMAI=    0.000 imaginary part of plasma frequency in eV, 0.658/RTIME)
   DFIELD  = 0.0000000 0.0000000 0.0000000 field for delta impulse in time
 
  Optional k-point grid parameters
   LKPOINTS_OPT  =     F    use optional k-point grid
   KPOINTS_OPT_MODE=     1    mode for optional k-point grid
 
 Orbital magnetization related:
   ORBITALMAG=     F  switch on orbital magnetization
   LCHIMAG   =     F  perturbation theory with respect to B field
   DQ        =  0.001000  dq finite difference perturbation B field
   LLRAUG    =     F  two centre corrections for induced B field



--------------------------------------------------------------------------------------------------------


 Static calculation
 charge density and potential will be updated during run
 non-spin polarized calculation
 Variant of blocked Davidson
 Davidson routine will perform the subspace rotation
 perform sub-space diagonalisation
    after iterative eigenvector-optimisation
 modified Broyden-mixing scheme, WC =      100.0
 initial mixing is a Kerker type mixing with AMIX =  0.4000 and BMIX =      1.0000
 Hartree-type preconditioning will be used
 using additional bands            4
 reciprocal scheme for non local part
 use partial core corrections
 calculate Harris-corrections to forces 
   (improved forces if not selfconsistent)
 use gradient corrections 
 use of overlap-Matrix (Vanderbilt PP)
 Gauss-broadening in eV      SIGMA  =   0.10


--------------------------------------------------------------------------------------------------------


  energy-cutoff  :      240.00
  volume of cell :       37.22
      direct lattice vectors                 reciprocal lattice vectors
     0.000000000  2.650000000  2.650000000    -0.188679245  0.188679245  0.188679245
     2.650000000  0.000000000  2.650000000     0.188679245 -0.188679245  0.188679245
     2.650000000  2.650000000  0.000000000     0.188679245  0.188679245 -0.188679245

  length of vectors
     3.747665940  3.747665940  3.747665940     0.326802039  0.326802039  0.326802039


 
 k-points in units of 2pi/SCALE and weight: k-points                                
   0.00000000  0.00000000  0.00000000       0.001
  -0.09090909  0.09090909  0.09090909       0.006
  -0.18181818  0.18181818  0.18181818       0.006
  -0.27272727  0.27272727  0.27272727       0.006
  -0.36363636  0.36363636  0.36363636       0.006
  -0.45454545  0.45454545  0.45454545       0.006
  -0.00000000  0.00000000  0.18181818       0.005
  -0.09090909  0.09090909  0.27272727       0.018
  -0.18181818  0.18181818  0.36363636       0.018
  -0.27272727  0.27272727  0.45454545       0.018
  -0.36363636  0.36363636  0.54545455       0.018
   0.54545455 -0.54545455 -0.36363636       0.018
   0.45454545 -0.45454545 -0.27272727       0.018
   0.36363636 -0.36363636 -0.18181818       0.018
   0.27272727 -0.27272727 -0.09090909       0.018
   0.18181818 -0.18181818 -0.00000000       0.009
  -0.00000000  0.00000000  0.36363636       0.005
  -0.09090909  0.09090909  0.45454545       0.018
  -0.18181818  0.18181818  0.54545455       0.018
  -0.27272727  0.27272727  0.63636364       0.018
   0.63636364 -0.63636364 -0.27272727       0.018
   0.54545455 -0.54545455 -0.18181818       0.018
   0.45454545 -0.45454545 -0.09090909       0.018
   0.36363636 -0.36363636 -0.00000000       0.009
  -0.00000000  0.00000000  0.54545455       0.005
  -0.09090909  0.09090909  0.63636364       0.018
  -0.18181818  0.18181818  0.72727273       0.018
   0.72727273 -0.72727273 -0.18181818       0.018
   0.63636364 -0.63636364 -0.09090909       0.018
   0.54545455 -0.54545455 -0.00000000       0.009
   0.00000000 -0.00000000  0.72727273       0.005
  -0.09090909  0.09090909  0.81818182       0.018
   0.81818182 -0.81818182 -0.09090909       0.018
   0.72727273 -0.72727273 -0.00000000       0.009
   0.00000000  0.00000000  0.90909091       0.005
   0.90909091 -0.90909091 -0.00000000       0.009
   0.00000000  0.18181818  0.36363636       0.018
  -0.09090909  0.27272727  0.45454545       0.036
  -0.18181818  0.36363636  0.54545455       0.036
   0.72727273 -0.54545455 -0.36363636       0.036
   0.00000000  0.18181818  0.54545455       0.018
  -0.09090909  0.27272727  0.63636364       0.036
   0.81818182 -0.63636364 -0.27272727       0.036
   0.72727273 -0.54545455 -0.18181818       0.036
   0.63636364 -0.45454545 -0.09090909       0.036
   0.54545455 -0.36363636 -0.00000000       0.018
   0.00000000  0.18181818  0.72727273       0.018
   0.90909091 -0.72727273 -0.18181818       0.036
   0.81818182 -0.63636364 -0.09090909       0.036
   0.72727273 -0.54545455 -0.00000000       0.018
   1.00000000 -0.81818182 -0.09090909       0.018
   0.90909091 -0.72727273 -0.00000000       0.018
   1.00000000 -0.63636364 -0.27272727       0.018
   0.90909091 -0.54545455 -0.18181818       0.036
   1.00000000 -0.63636364 -0.09090909       0.018
   0.90909091 -0.54545455 -0.00000000       0.018
 
 k-points in reciprocal lattice and weights: k-points                                
   0.00000000  0.00000000  0.00000000       0.001
   0.09090909 -0.00000000  0.00000000       0.006
   0.18181818 -0.00000000  0.00000000       0.006
   0.27272727 -0.00000000  0.00000000       0.006
   0.36363636  0.00000000 -0.00000000       0.006
   0.45454545  0.00000000 -0.00000000       0.006
   0.09090909  0.09090909  0.00000000       0.005
   0.18181818  0.09090909  0.00000000       0.018
   0.27272727  0.09090909  0.00000000       0.018
   0.36363636  0.09090909  0.00000000       0.018
   0.45454545  0.09090909  0.00000000       0.018
  -0.45454545  0.09090909 -0.00000000       0.018
  -0.36363636  0.09090909 -0.00000000       0.018
  -0.27272727  0.09090909  0.00000000       0.018
  -0.18181818  0.09090909  0.00000000       0.018
  -0.09090909  0.09090909 -0.00000000       0.009
   0.18181818  0.18181818  0.00000000       0.005
   0.27272727  0.18181818  0.00000000       0.018
   0.36363636  0.18181818  0.00000000       0.018
   0.45454545  0.18181818  0.00000000       0.018
  -0.45454545  0.18181818 -0.00000000       0.018
  -0.36363636  0.18181818 -0.00000000       0.018
  -0.27272727  0.18181818  0.00000000       0.018
  -0.18181818  0.18181818 -0.00000000       0.009
   0.27272727  0.27272727  0.00000000       0.005
   0.36363636  0.27272727  0.00000000       0.018
   0.45454545  0.27272727  0.00000000       0.018
  -0.45454545  0.27272727 -0.00000000       0.018
  -0.36363636  0.27272727  0.00000000       0.018
  -0.27272727  0.27272727 -0.00000000       0.009
   0.36363636  0.36363636  0.00000000       0.005
   0.45454545  0.36363636  0.00000000       0.018
  -0.45454545  0.36363636  0.00000000       0.018
  -0.36363636  0.36363636  0.00000000       0.009
   0.45454545  0.45454545  0.00000000       0.005
  -0.45454545  0.45454545  0.00000000       0.009
   0.27272727  0.18181818  0.09090909       0.018
   0.36363636  0.18181818  0.09090909       0.036
   0.45454545  0.18181818  0.09090909       0.036
  -0.45454545  0.18181818  0.09090909       0.036
   0.36363636  0.27272727  0.09090909       0.018
   0.45454545  0.27272727  0.09090909       0.036
  -0.45454545  0.27272727  0.09090909       0.036
  -0.36363636  0.27272727  0.09090909       0.036
  -0.27272727  0.27272727  0.09090909       0.036
  -0.18181818  0.27272727  0.09090909       0.018
   0.45454545  0.36363636  0.09090909       0.018
  -0.45454545  0.36363636  0.09090909       0.036
  -0.36363636  0.36363636  0.09090909       0.036
  -0.27272727  0.36363636  0.09090909       0.018
  -0.45454545  0.45454545  0.09090909       0.018
  -0.36363636  0.45454545  0.09090909       0.018
  -0.45454545  0.36363636  0.18181818       0.018
  -0.36363636  0.36363636  0.18181818       0.036
  -0.36363636  0.45454545  0.18181818       0.018
  -0.27272727  0.45454545  0.18181818       0.018
 
 position of ions in fractional coordinates (direct lattice) 
   0.87500000  0.87500000  0.87500000
   0.12500000  0.12500000  0.12500000
 
 position of ions in cartesian coordinates  (Angst):
   4.63750000  4.63750000  4.63750000
   0.66250000  0.66250000  0.66250000
 


--------------------------------------------------------------------------------------------------------


 k-point   1 :   0.0000 0.0000 0.0000  plane waves:     331
 k-point   2 :   0.0909-0.0000 0.0000  plane waves:     319
 k-point   3 :   0.1818-0.0000 0.0000  plane waves:     311
 k-point   4 :   0.2727-0.0000 0.0000  plane waves:     311
 k-point   5 :   0.3636 0.0000-0.0000  plane waves:     308
 k-point   6 :   0.4545 0.0000-0.0000  plane waves:     317
 k-point   7 :   0.0909 0.0909 0.0000  plane waves:     323
 k-point   8 :   0.1818 0.0909 0.0000  plane waves:     317
 k-point   9 :   0.2727 0.0909 0.0000  plane waves:     313
 k-point  10 :   0.3636 0.0909 0.0000  plane waves:     316
 k-point  11 :   0.4545 0.0909 0.0000  plane waves:     315
 k-point  12 :  -0.4545 0.0909-0.0000  plane waves:     318
 k-point  13 :  -0.3636 0.0909-0.0000  plane waves:     312
 k-point  14 :  -0.2727 0.0909 0.0000  plane waves:     309
 k-point  15 :  -0.1818 0.0909 0.0000  plane waves:     315
 k-point  16 :  -0.0909 0.0909-0.0000  plane waves:     315
 k-point  17 :   0.1818 0.1818 0.0000  plane waves:     307
 k-point  18 :   0.2727 0.1818 0.0000  plane waves:     311
 k-point  19 :   0.3636 0.1818 0.0000  plane waves:     318
 k-point  20 :   0.4545 0.1818 0.0000  plane waves:     314
 k-point  21 :  -0.4545 0.1818-0.0000  plane waves:     315
 k-point  22 :  -0.3636 0.1818-0.0000  plane waves:     314
 k-point  23 :  -0.2727 0.1818 0.0000  plane waves:     315
 k-point  24 :  -0.1818 0.1818-0.0000  plane waves:     317
 k-point  25 :   0.2727 0.2727 0.0000  plane waves:     311
 k-point  26 :   0.3636 0.2727 0.0000  plane waves:     317
 k-point  27 :   0.4545 0.2727 0.0000  plane waves:     317
 k-point  28 :  -0.4545 0.2727-0.0000  plane waves:     312
 k-point  29 :  -0.3636 0.2727 0.0000  plane waves:     315
 k-point  30 :  -0.2727 0.2727-0.0000  plane waves:     311
 k-point  31 :   0.3636 0.3636 0.0000  plane waves:     322
 k-point  32 :   0.4545 0.3636 0.0000  plane waves:     320
 k-point  33 :  -0.4545 0.3636 0.0000  plane waves:     314
 k-point  34 :  -0.3636 0.3636 0.0000  plane waves:     313
 k-point  35 :   0.4545 0.4545 0.0000  plane waves:     314
 k-point  36 :  -0.4545 0.4545 0.0000  plane waves:     314
 k-point  37 :   0.2727 0.1818 0.0909  plane waves:     312
 k-point  38 :   0.3636 0.1818 0.0909  plane waves:     314
 k-point  39 :   0.4545 0.1818 0.0909  plane waves:     313
 k-point  40 :  -0.4545 0.1818 0.0909  plane waves:     313
 k-point  41 :   0.3636 0.2727 0.0909  plane waves:     316
 k-point  42 :   0.4545 0.2727 0.0909  plane waves:     317
 k-point  43 :  -0.4545 0.2727 0.0909  plane waves:     316
 k-point  44 :  -0.3636 0.2727 0.0909  plane waves:     310
 k-point  45 :  -0.2727 0.2727 0.0909  plane waves:     313
 k-point  46 :  -0.1818 0.2727 0.0909  plane waves:     316
 k-point  47 :   0.4545 0.3636 0.0909  plane waves:     319
 k-point  48 :  -0.4545 0.3636 0.0909  plane waves:     311
 k-point  49 :  -0.3636 0.3636 0.0909  plane waves:     313
 k-point  50 :  -0.2727 0.3636 0.0909  plane waves:     311
 k-point  51 :  -0.4545 0.4545 0.0909  plane waves:     316
 k-point  52 :  -0.3636 0.4545 0.0909  plane waves:     316
 k-point  53 :  -0.4545 0.3636 0.1818  plane waves:     311
 k-point  54 :  -0.3636 0.3636 0.1818  plane waves:     314
 k-point  55 :  -0.3636 0.4545 0.1818  plane waves:     311
 k-point  56 :  -0.2727 0.4545 0.1818  plane waves:     315

 maximum and minimum number of plane-waves per node :       331      307

 maximum number of plane-waves:       331
 maximum index in each direction: 
   IXMAX=    5   IYMAX=    4   IZMAX=    4
   IXMIN=   -5   IYMIN=   -5   IZMIN=   -4


 serial   3D FFT for wavefunctions
 parallel 3D FFT for charge:
    minimum data exchange during FFTs selected (reduces bandwidth)


 total amount of memory used by VASP MPI-rank0    32421. kBytes
=======================================================================

   base      :      30000. kBytes
   nonl-proj :       1200. kBytes
   fftplans  :        204. kBytes
   grid      :        388. kBytes
   one-center:          6. kBytes
   wavefun   :        623. kBytes
 
     INWAV:  cpu time      0.0000: real time      0.0001
 Broyden mixing: mesh for mixing (old mesh)
   NGX =  9   NGY =  9   NGZ =  9
  (NGX  = 28   NGY  = 28   NGZ  = 28)
  gives a total of    729 points

 initial charge density was supplied:
 charge density of overlapping atoms calculated
 number of electron       8.0000000 magnetization 
 keeping initial charge density in first step


--------------------------------------------------------------------------------------------------------


 Maximum index for augmentation-charges          611 (set IRDMAX)


--------------------------------------------------------------------------------------------------------


 First call to EWALD:  gamma=   0.531
 Maximum number of real-space cells 3x 3x 3
 Maximum number of reciprocal cells 3x 3x 3

    FEWALD:  cpu time      0.0015: real time      0.0015


--------------------------------------- Iteration      1(   1)  ---------------------------------------


    POTLOK:  cpu time      0.0033: real time      0.0035
    SETDIJ:  cpu time      0.0014: real time      0.0014
     EDDAV:  cpu time      0.0677: real time      0.0681
       DOS:  cpu time      0.0007: real time      0.0008
    --------------------------------------------
      LOOP:  cpu time      0.0731: real time      0.0737

 eigenvalue-minimisations  :   904
 total energy-change (2. order) :-0.1853065E+01  (-0.2034681E+03)
 number of electron       8.0000000 magnetization 
 augmentation part        8.0000000 magnetization 

 Free energy of the ion-electron system (eV)
  ---------------------------------------------------
  alpha Z        PSCENC =         3.61781936
  Ewald energy   TEWEN  =      -234.16980007
  -Hartree energ DENC   =        -9.93748042
  -exchange      EXHF   =         0.00000000
  -V(xc)+E(xc)   XCENC  =       -18.30951370
  PAW double counting   =       176.24759923     -141.06103558
  entropy T*S    EENTRO =        -0.00273668
  eigenvalues    EBANDS =        15.64052990
  atomic energy  EATOM  =       206.12155316
  Solvation  Ediel_sol  =         0.00000000
  ---------------------------------------------------
  free energy    TOTEN  =        -1.85306480 eV

  energy without entropy =       -1.85032812  energy(sigma->0) =       -1.85169646


--------------------------------------------------------------------------------------------------------




--------------------------------------- Iteration      1(   2)  ---------------------------------------


     EDDAV:  cpu time      0.1039: real time      0.1045
       DOS:  cpu time      0.0004: real time      0.0004
    --------------------------------------------
      LOOP:  cpu time      0.1043: real time      0.1050

 eigenvalue-minimisations  :  1376
 total energy-change (2. order) :-0.8998900E+01  (-0.8732974E+01)
 number of electron       8.0000000 magnetization 
 augmentation part        8.0000000 magnetization 

 Free energy of the ion-electron system (eV)
  ---------------------------------------------------
  alpha Z        PSCENC =         3.61781936
  Ewald energy   TEWEN  =      -234.16980007
  -Hartree energ DENC   =        -9.93748042
  -exchange      EXHF   =         0.00000000
  -V(xc)+E(xc)   XCENC  =       -18.30951370
  PAW double counting   =       176.24759923     -141.06103558
  entropy T*S    EENTRO =        -0.00000000
  eigenvalues    EBANDS =         6.63889281
  atomic energy  EATOM  =       206.12155316
  Solvation  Ediel_sol  =         0.00000000
  ---------------------------------------------------
  free energy    TOTEN  =       -10.85196521 eV

  energy without entropy =      -10.85196521  energy(sigma->0) =      -10.85196521


--------------------------------------------------------------------------------------------------------




--------------------------------------- Iteration      1(   3)  ---------------------------------------


     EDDAV:  cpu time      0.0828: real time      0.0833
       DOS:  cpu time      0.0004: real time      0.0004
    --------------------------------------------
      LOOP:  cpu time      0.0833: real time      0.0837

 eigenvalue-minimisations  :  1112
 total energy-change (2. order) :-0.8608107E-01  (-0.8608107E-01)
 number of electron       8.0000000 magnetization 
 augmentation part        8.0000000 magnetization 

 Free energy of the ion-electron system (eV)
  ---------------------------------------------------
  alpha Z        PSCENC =         3.61781936
  Ewald energy   TEWEN  =      -234.16980007
  -Hartree energ DENC   =        -9.93748042
  -exchange      EXHF   =         0.00000000
  -V(xc)+E(xc)   XCENC  =       -18.30951370
  PAW double counting   =       176.24759923     -141.06103558
  entropy T*S    EENTRO =        -0.00000000
  eigenvalues    EBANDS =         6.55281174
  atomic energy  EATOM  =       206.12155316
  Solvation  Ediel_sol  =         0.00000000
  ---------------------------------------------------
  free energy    TOTEN  =       -10.93804628 eV

  energy without entropy =      -10.93804628  energy(sigma->0) =      -10.93804628


--------------------------------------------------------------------------------------------------------




--------------------------------------- Iteration      1(   4)  ---------------------------------------


     EDDAV:  cpu time      0.1089: real time      0.1094
       DOS:  cpu time      0.0005: real time      0.0005
    --------------------------------------------
      LOOP:  cpu time      0.1094: real time      0.1099

 eigenvalue-minimisations  :  1432
 total energy-change (2. order) :-0.2591961E-03  (-0.2591956E-03)
 number of electron       8.0000000 magnetization 
 augmentation part        8.0000000 magnetization 

 Free energy of the ion-electron system (eV)
  ---------------------------------------------------
  alpha Z        PSCENC =         3.61781936
  Ewald energy   TEWEN  =      -234.16980007
  -Hartree energ DENC   =        -9.93748042
  -exchange      EXHF   =         0.00000000
  -V(xc)+E(xc)   XCENC  =       -18.30951370
  PAW double counting   =       176.24759923     -141.06103558
  entropy T*S    EENTRO =        -0.00000000
  eigenvalues    EBANDS =         6.55255254
  atomic energy  EATOM  =       206.12155316
  Solvation  Ediel_sol  =         0.00000000
  ---------------------------------------------------
  free energy    TOTEN  =       -10.93830548 eV

  energy without entropy =      -10.93830548  energy(sigma->0) =      -10.93830548


--------------------------------------------------------------------------------------------------------




--------------------------------------- Iteration      1(   5)  ---------------------------------------


     EDDAV:  cpu time      0.0866: real time      0.0869
       DOS:  cpu time      0.0004: real time      0.0004
    CHARGE:  cpu time      0.0025: real time      0.0026
    MIXING:  cpu time      0.0004: real time      0.0004
    --------------------------------------------
      LOOP:  cpu time      0.0900: real time      0.0903

 eigenvalue-minimisations  :  1168
 total energy-change (2. order) :-0.7784922E-07  (-0.7763494E-07)
 number of electron       8.0000010 magnetization 
 augmentation part       -0.4740199 magnetization 

 Broyden mixing:
  rms(total) = 0.60255E+00    rms(broyden)= 0.60254E+00
  rms(prec ) = 0.10718E+01
  weight for this iteration     100.00

 Free energy of the ion-electron system (eV)
  ---------------------------------------------------
  alpha Z        PSCENC =         3.61781936
  Ewald energy   TEWEN  =      -234.16980007
  -Hartree energ DENC   =        -9.93748042
  -exchange      EXHF   =         0.00000000
  -V(xc)+E(xc)   XCENC  =       -18.30951370
  PAW double counting   =       176.24759923     -141.06103558
  entropy T*S    EENTRO =        -0.00000000
  eigenvalues    EBANDS =         6.55255246
  atomic energy  EATOM  =       206.12155316
  Solvation  Ediel_sol  =         0.00000000
  ---------------------------------------------------
  free energy    TOTEN  =       -10.93830556 eV

  energy without entropy =      -10.93830556  energy(sigma->0) =      -10.93830556


--------------------------------------------------------------------------------------------------------




--------------------------------------- Iteration      1(   6)  ---------------------------------------


    POTLOK:  cpu time      0.0030: real time      0.0031
    SETDIJ:  cpu time      0.0012: real time      0.0012
     EDDAV:  cpu time      0.0745: real time      0.0746
       DOS:  cpu time      0.0005: real time      0.0005
    CHARGE:  cpu time      0.0023: real time      0.0024
    MIXING:  cpu time      0.0003: real time      0.0004
    --------------------------------------------
      LOOP:  cpu time      0.0819: real time      0.0821

 eigenvalue-minimisations  :  1032
 total energy-change (2. order) : 0.1578742E+00  (-0.1084550E-01)
 number of electron       8.0000010 magnetization 
 augmentation part       -0.4671503 magnetization 

 Broyden mixing:
  rms(total) = 0.37244E+00    rms(broyden)= 0.37244E+00
  rms(prec ) = 0.63467E+00
  weight for this iteration     100.00

 eigenvalues of (default mixing * dielectric matrix)
  average eigenvalue GAMMA=   2.6067
  2.6067

 Free energy of the ion-electron system (eV)
  ---------------------------------------------------
  alpha Z        PSCENC =         3.61781936
  Ewald energy   TEWEN  =      -234.16980007
  -Hartree energ DENC   =       -11.53909088
  -exchange      EXHF   =         0.00000000
  -V(xc)+E(xc)   XCENC  =       -18.04673821
  PAW double counting   =       465.55990739     -430.51782075
  entropy T*S    EENTRO =        -0.00000001
  eigenvalues    EBANDS =         8.19373866
  atomic energy  EATOM  =       206.12155316
  Solvation  Ediel_sol  =         0.00000000
  ---------------------------------------------------
  free energy    TOTEN  =       -10.78043135 eV

  energy without entropy =      -10.78043134  energy(sigma->0) =      -10.78043134


--------------------------------------------------------------------------------------------------------




--------------------------------------- Iteration      1(   7)  ---------------------------------------


    POTLOK:  cpu time      0.0032: real time      0.0032
    SETDIJ:  cpu time      0.0011: real time      0.0011
     EDDAV:  cpu time      0.0827: real time      0.0829
       DOS:  cpu time      0.0006: real time      0.0006
    CHARGE:  cpu time      0.0025: real time      0.0025
    MIXING:  cpu time      0.0003: real time      0.0003
    --------------------------------------------
      LOOP:  cpu time      0.0903: real time      0.0905

 eigenvalue-minimisations  :  1136
 total energy-change (2. order) : 0.6810840E-01  (-0.1952320E-01)
 number of electron       8.0000010 magnetization 
 augmentation part       -0.4588234 magnetization 

 Broyden mixing:
  rms(total) = 0.27921E-01    rms(broyden)= 0.27921E-01
  rms(prec ) = 0.50570E-01
  weight for this iteration     100.00

 eigenvalues of (default mixing * dielectric matrix)
  average eigenvalue GAMMA=   2.1000
  1.8136  2.3864

 Free energy of the ion-electron system (eV)
  ---------------------------------------------------
  alpha Z        PSCENC =         3.61781936
  Ewald energy   TEWEN  =      -234.16980007
  -Hartree energ DENC   =       -14.10947662
  -exchange      EXHF   =         0.00000000
  -V(xc)+E(xc)   XCENC  =       -17.61979838
  PAW double counting   =      1218.47270004    -1183.62177669
  entropy T*S    EENTRO =        -0.00000430
  eigenvalues    EBANDS =        10.59646054
  atomic energy  EATOM  =       206.12155316
  Solvation  Ediel_sol  =         0.00000000
  ---------------------------------------------------
  free energy    TOTEN  =       -10.71232295 eV

  energy without entropy =      -10.71231865  energy(sigma->0) =      -10.71232080


--------------------------------------------------------------------------------------------------------




--------------------------------------- Iteration      1(   8)  ---------------------------------------


    POTLOK:  cpu time      0.0031: real time      0.0031
    SETDIJ:  cpu time      0.0011: real time      0.0011
     EDDAV:  cpu time      0.0737: real time      0.0742
       DOS:  cpu time      0.0006: real time      0.0006
    CHARGE:  cpu time      0.0024: real time      0.0024
    MIXING:  cpu time      0.0003: real time      0.0003
    --------------------------------------------
      LOOP:  cpu time      0.0811: real time      0.0817

 eigenvalue-minimisations  :  1016
 total energy-change (2. order) :-0.8184613E-03  (-0.4415864E-03)
 number of electron       8.0000010 magnetization 
 augmentation part       -0.4599266 magnetization 

 Broyden mixing:
  rms(total) = 0.73873E-02    rms(broyden)= 0.73868E-02
  rms(prec ) = 0.13368E-01
  weight for this iteration     100.00

 eigenvalues of (default mixing * dielectric matrix)
  average eigenvalue GAMMA=   2.2406
  2.8792  1.9213  1.9213

 Free energy of the ion-electron system (eV)
  ---------------------------------------------------
  alpha Z        PSCENC =         3.61781936
  Ewald energy   TEWEN  =      -234.16980007
  -Hartree energ DENC   =       -14.01058371
  -exchange      EXHF   =         0.00000000
  -V(xc)+E(xc)   XCENC  =       -17.62065926
  PAW double counting   =      1253.30049506    -1218.41949235
  entropy T*S    EENTRO =        -0.00000237
  eigenvalues    EBANDS =        10.46752877
  atomic energy  EATOM  =       206.12155316
  Solvation  Ediel_sol  =         0.00000000
  ---------------------------------------------------
  free energy    TOTEN  =       -10.71314141 eV

  energy without entropy =      -10.71313905  energy(sigma->0) =      -10.71314023


--------------------------------------------------------------------------------------------------------




--------------------------------------- Iteration      1(   9)  ---------------------------------------


    POTLOK:  cpu time      0.0031: real time      0.0032
    SETDIJ:  cpu time      0.0012: real time      0.0012
     EDDAV:  cpu time      0.0964: real time      0.0966
       DOS:  cpu time      0.0006: real time      0.0006
    CHARGE:  cpu time      0.0024: real time      0.0024
    MIXING:  cpu time      0.0003: real time      0.0003
    --------------------------------------------
      LOOP:  cpu time      0.1039: real time      0.1042

 eigenvalue-minimisations  :  1296
 total energy-change (2. order) :-0.1707848E-03  (-0.1606798E-04)
 number of electron       8.0000010 magnetization 
 augmentation part       -0.4600560 magnetization 

 Broyden mixing:
  rms(total) = 0.62807E-02    rms(broyden)= 0.62807E-02
  rms(prec ) = 0.70909E-02
  weight for this iteration     100.00

 eigenvalues of (default mixing * dielectric matrix)
  average eigenvalue GAMMA=   2.0683
  2.6608  2.3584  2.3584  0.8956

 Free energy of the ion-electron system (eV)
  ---------------------------------------------------
  alpha Z        PSCENC =         3.61781936
  Ewald energy   TEWEN  =      -234.16980007
  -Hartree energ DENC   =       -14.04939282
  -exchange      EXHF   =         0.00000000
  -V(xc)+E(xc)   XCENC  =       -17.61201229
  PAW double counting   =      1263.07349674    -1228.19042862
  entropy T*S    EENTRO =        -0.00000223
  eigenvalues    EBANDS =        10.49545457
  atomic energy  EATOM  =       206.12155316
  Solvation  Ediel_sol  =         0.00000000
  ---------------------------------------------------
  free energy    TOTEN  =       -10.71331220 eV

  energy without entropy =      -10.71330997  energy(sigma->0) =      -10.71331109


--------------------------------------------------------------------------------------------------------




--------------------------------------- Iteration      1(  10)  ---------------------------------------


    POTLOK:  cpu time      0.0031: real time      0.0032
    SETDIJ:  cpu time      0.0011: real time      0.0011
     EDDAV:  cpu time      0.0478: real time      0.0479
       DOS:  cpu time      0.0006: real time      0.0006
    --------------------------------------------
      LOOP:  cpu time      0.0526: real time      0.0528

 eigenvalue-minimisations  :   608
 total energy-change (2. order) :-0.2336979E-04  (-0.2537278E-05)
 number of electron       8.0000010 magnetization 
 augmentation part       -0.4600560 magnetization 

 Free energy of the ion-electron system (eV)
  ---------------------------------------------------
  alpha Z        PSCENC =         3.61781936
  Ewald energy   TEWEN  =      -234.16980007
  -Hartree energ DENC   =       -14.05674620
  -exchange      EXHF   =         0.00000000
  -V(xc)+E(xc)   XCENC  =       -17.61162268
  PAW double counting   =      1246.82119844    -1211.93782773
  entropy T*S    EENTRO =        -0.00000215
  eigenvalues    EBANDS =        10.50209231
  atomic energy  EATOM  =       206.12155316
  Solvation  Ediel_sol  =         0.00000000
  ---------------------------------------------------
  free energy    TOTEN  =       -10.71333557 eV

  energy without entropy =      -10.71333342  energy(sigma->0) =      -10.71333449


--------------------------------------------------------------------------------------------------------




 average (electrostatic) potential at core
  the test charge radii are     0.9892
  (the norm of the test charge is              1.0000)
       1 -82.4108       2 -82.4108
 
 
 
 E-fermi :   6.8223     XC(G=0):  -9.6991     alpha+bet :-12.8882

 Fermi energy:         6.8222967626

 k-point     1 :       0.0000    0.0000    0.0000
  band No.  band energies     occupation 
      1      -5.8865      2.00000
      2       6.6031      1.99807
      3       6.6031      1.99806
      4       6.6031      1.99806
      5       9.1951      0.00000
      6       9.1952      0.00000
      7       9.1952      0.00000
      8      10.8289      0.00000

 k-point     2 :       0.0909   -0.0000    0.0000
  band No.  band energies     occupation 
      1      -5.7712      2.00000
      2       5.6025      2.00000
      3       6.4213      2.00000
      4       6.4214      2.00000
      5       9.3402      0.00000
      6       9.4648      0.00000
      7       9.4649      0.00000
      8      11.4994      0.00000

 k-point     3 :       0.1818   -0.0000    0.0000
  band No.  band energies     occupation 
      1      -5.4293      2.00000
      2       3.8514      2.00000
      3       6.0577      2.00000
      4       6.0578      2.00000
      5       9.1278      0.00000
      6       9.9697      0.00000
      7       9.9697      0.00000
      8      13.0037      0.00000

 k-point     4 :       0.2727   -0.0000    0.0000
  band No.  band energies     occupation 
      1      -4.8771      2.00000
      2       2.0991      2.00000
      3       5.7163      2.00000
      4       5.7164      2.00000
      5       8.8067      0.00000
      6      10.1909      0.00000
      7      10.1910      0.00000
      8      14.0578      0.00000

 k-point     5 :       0.3636    0.0000   -0.0000
  band No.  band energies     occupation 
      1      -4.1639      2.00000
      2       0.5474      2.00000
      3       5.4745      2.00000
      4       5.4745      2.00000
      5       8.5555      0.00000
      6      10.0782      0.00000
      7      10.0783      0.00000
      8      14.6554      0.00000

 k-point     6 :       0.4545    0.0000   -0.0000
  band No.  band energies     occupation 
      1      -3.4895      2.00000
      2      -0.5546      2.00000
      3       5.3514      2.00000
      4       5.3515      2.00000
      5       8.4253      0.00000
      6       9.9370      0.00000
      7       9.9372      0.00000
      8      14.4497      0.00000

 k-point     7 :       0.0909    0.0909    0.0000
  band No.  band energies     occupation 
      1      -5.7326      2.00000
      2       5.8523      2.00000
      3       6.0610      2.00000
      4       6.0610      2.00000
      5       8.8537      0.00000
      6       9.9312      0.00000
      7       9.9312      0.00000
      8      11.4671      0.00000

 k-point     8 :       0.1818    0.0909    0.0000
  band No.  band energies     occupation 
      1      -5.4656      2.00000
      2       4.4034      2.00000
      3       5.6344      2.00000
      4       5.8711      2.00000
      5       8.9066      0.00000
      6      10.1412      0.00000
      7      10.5663      0.00000
      8      11.9314      0.00000

 k-point     9 :       0.2727    0.0909    0.0000
  band No.  band energies     occupation 
      1      -4.9810      2.00000
      2       2.6848      2.00000
      3       5.2972      2.00000
      4       5.4808      2.00000
      5       9.1190      0.00000
      6      10.0917      0.00000
      7      10.9049      0.00000
      8      12.0595      0.00000

 k-point    10 :       0.3636    0.0909    0.0000
  band No.  band energies     occupation 
      1      -4.3121      2.00000
      2       1.0771      2.00000
      3       5.0767      2.00000
      4       5.1027      2.00000
      5       9.0333      0.00000
      6      10.0103      0.00000
      7      10.7789      0.00000
      8      12.8928      0.00000

 k-point    11 :       0.4545    0.0909    0.0000
  band No.  band energies     occupation 
      1      -3.5796      2.00000
      2      -0.2100      2.00000
      3       4.7574      2.00000
      4       5.0667      2.00000
      5       8.9255      0.00000
      6       9.9082      0.00000
      7      10.4924      0.00000
      8      14.2132      0.00000

 k-point    12 :      -0.4545    0.0909   -0.0000
  band No.  band energies     occupation 
      1      -3.2757      2.00000
      2      -0.6536      2.00000
      3       4.5616      2.00000
      4       5.1812      2.00000
      5       8.9277      0.00000
      6       9.9364      0.00000
      7      10.2830      0.00000
      8      14.8649      0.00000

 k-point    13 :      -0.3636    0.0909   -0.0000
  band No.  band energies     occupation 
      1      -3.8152      2.00000
      2       0.1676      2.00000
      3       4.5132      2.00000
      4       5.4288      2.00000
      5       9.0529      0.00000
      6      10.1374      0.00000
      7      10.2125      0.00000
      8      14.6529      0.00000

 k-point    14 :      -0.2727    0.0909    0.0000
  band No.  band energies     occupation 
      1      -4.5529      2.00000
      2       1.5932      2.00000
      3       4.6292      2.00000
      4       5.7777      2.00000
      5       9.2815      0.00000
      6      10.1856      0.00000
      7      10.3963      0.00000
      8      13.4950      0.00000

 k-point    15 :      -0.1818    0.0909    0.0000
  band No.  band energies     occupation 
      1      -5.1666      2.00000
      2       3.2451      2.00000
      3       4.9285      2.00000
      4       6.1666      2.00000
      5       9.5685      0.00000
      6       9.9294      0.00000
      7      10.3411      0.00000
      8      12.8492      0.00000

 k-point    16 :      -0.0909    0.0909   -0.0000
  band No.  band energies     occupation 
      1      -5.5801      2.00000
      2       4.8006      2.00000
      3       5.5159      2.00000
      4       6.4585      2.00000
      5       9.5097      0.00000
      6       9.7279      0.00000
      7       9.7915      0.00000
      8      12.2371      0.00000

 k-point    17 :       0.1818    0.1818    0.0000
  band No.  band energies     occupation 
      1      -5.2736      2.00000
      2       4.3493      2.00000
      3       5.1662      2.00000
      4       5.1662      2.00000
      5       8.1612      0.00000
      6      10.9013      0.00000
      7      11.3907      0.00000
      8      11.3907      0.00000

 k-point    18 :       0.2727    0.1818    0.0000
  band No.  band energies     occupation 
      1      -4.8603      2.00000
      2       3.0967      2.00000
      3       4.7471      2.00000
      4       4.7999      2.00000
      5       8.2187      0.00000
      6      10.3682      0.00000
      7      11.7091      0.00000
      8      11.9939      0.00000

 k-point    19 :       0.3636    0.1818    0.0000
  band No.  band energies     occupation 
      1      -4.2481      2.00000
      2       1.6127      2.00000
      3       4.1928      2.00000
      4       4.5934      2.00000
      5       8.4580      0.00000
      6      10.7309      0.00000
      7      11.5515      0.00000
      8      12.0193      0.00000

 k-point    20 :       0.4545    0.1818    0.0000
  band No.  band energies     occupation 
      1      -3.5102      2.00000
      2       0.2721      2.00000
      3       3.6883      2.00000
      4       4.5639      2.00000
      5       8.4950      0.00000
      6      11.2769      0.00000
      7      11.7056      0.00000
      8      12.0817      0.00000

 k-point    21 :      -0.4545    0.1818   -0.0000
  band No.  band energies     occupation 
      1      -2.9713      2.00000
      2      -0.5125      2.00000
      3       3.3260      2.00000
      4       4.7090      2.00000
      5       8.6161      0.00000
      6      11.1537      0.00000
      7      11.3735      0.00000
      8      13.7934      0.00000

 k-point    22 :      -0.3636    0.1818   -0.0000
  band No.  band energies     occupation 
      1      -3.2905      2.00000
      2      -0.0573      2.00000
      3       3.1497      2.00000
      4       5.0120      2.00000
      5       8.9173      0.00000
      6      11.1193      0.00000
      7      11.1486      0.00000
      8      14.5661      0.00000

 k-point    23 :      -0.2727    0.1818    0.0000
  band No.  band energies     occupation 
      1      -4.0240      2.00000
      2       1.1611      2.00000
      3       3.2115      2.00000
      4       5.4319      2.00000
      5       9.3580      0.00000
      6      10.9355      0.00000
      7      11.1368      0.00000
      8      13.1793      0.00000

 k-point    24 :      -0.1818    0.1818   -0.0000
  band No.  band energies     occupation 
      1      -4.6876      2.00000
      2       2.4423      2.00000
      3       3.7014      2.00000
      4       5.8810      2.00000
      5       9.7793      0.00000
      6      10.4457      0.00000
      7      10.8067      0.00000
      8      12.5971      0.00000

 k-point    25 :       0.2727    0.2727    0.0000
  band No.  band energies     occupation 
      1      -4.5183      2.00000
      2       2.6621      2.00000
      3       4.3955      2.00000
      4       4.3955      2.00000
      5       7.5207      0.00000
      6       9.3401      0.00000
      7      13.0566      0.00000
      8      13.0566      0.00000

 k-point    26 :       0.3636    0.2727    0.0000
  band No.  band energies     occupation 
      1      -3.9693      2.00000
      2       1.6436      2.00000
      3       3.8148      2.00000
      4       4.1496      2.00000
      5       7.6549      0.00000
      6       9.0375      0.00000
      7      13.4156      0.00000
      8      13.5099      0.00000

 k-point    27 :       0.4545    0.2727    0.0000
  band No.  band energies     occupation 
      1      -3.2584      2.00000
      2       0.5319      2.00000
      3       3.0318      2.00000
      4       4.0870      2.00000
      5       7.8395      0.00000
      6       9.8737      0.00000
      7      13.2920      0.00000
      8      13.3035      0.00000

 k-point    28 :      -0.4545    0.2727   -0.0000
  band No.  band energies     occupation 
      1      -2.5811      2.00000
      2      -0.3525      2.00000
      3       2.4166      2.00000
      4       4.2105      2.00000
      5       7.9815      0.00000
      6      11.4240      0.00000
      7      12.9356      0.00000
      8      13.1500      0.00000

 k-point    29 :      -0.3636    0.2727    0.0000
  band No.  band energies     occupation 
      1      -2.6375      2.00000
      2      -0.2696      2.00000
      3       2.1006      2.00000
      4       4.5075      2.00000
      5       8.3043      0.00000
      6      12.5843      0.00000
      7      12.6051      0.00000
      8      13.7162      0.00000

 k-point    30 :      -0.2727    0.2727   -0.0000
  band No.  band energies     occupation 
      1      -3.3321      2.00000
      2       0.5563      2.00000
      3       2.2628      2.00000
      4       4.9439      2.00000
      5       8.8098      0.00000
      6      11.9989      0.00000
      7      12.3514      0.00000
      8      13.3493      0.00000

 k-point    31 :       0.3636    0.3636    0.0000
  band No.  band energies     occupation 
      1      -3.4833      2.00000
      2       0.9495      2.00000
      3       3.8561      2.00000
      4       3.8562      2.00000
      5       7.1226      0.00002
      6       8.1293      0.00000
      7      14.8149      0.00000
      8      14.8149      0.00000

 k-point    32 :       0.4545    0.3636    0.0000
  band No.  band energies     occupation 
      1      -2.8166      2.00000
      2       0.0839      2.00000
      3       3.2641      2.00000
      4       3.7453      2.00000
      5       7.3280      0.00000
      6       8.1781      0.00000
      7      15.1087      0.00000
      8      15.2132      0.00000

 k-point    33 :      -0.4545    0.3636    0.0000
  band No.  band energies     occupation 
      1      -2.0822      2.00000
      2      -0.6828      2.00000
      3       2.4027      2.00000
      4       3.8252      2.00000
      5       7.4949      0.00000
      6       9.4649      0.00000
      7      14.7841      0.00000
      8      15.1034      0.00000

 k-point    34 :      -0.3636    0.3636    0.0000
  band No.  band energies     occupation 
      1      -1.9912      2.00000
      2      -0.7340      2.00000
      3       1.8681      2.00000
      4       4.0882      2.00000
      5       7.7986      0.00000
      6      11.2768      0.00000
      7      14.1127      0.00000
      8      14.7236      0.00000

 k-point    35 :       0.4545    0.4545    0.0000
  band No.  band energies     occupation 
      1      -2.1945      2.00000
      2      -0.6961      2.00000
      3       3.5815      2.00000
      4       3.5815      2.00000
      5       7.0561      0.00095
      6       7.3766      0.00000
      7      16.6472      0.00000
      8      16.6472      0.00000

 k-point    36 :      -0.4545    0.4545    0.0000
  band No.  band energies     occupation 
      1      -1.4961      2.00000
      2      -1.3863      2.00000
      3       3.0851      2.00000
      4       3.6088      2.00000
      5       7.2369      0.00000
      6       7.8723      0.00000
      7      16.6003      0.00000
      8      16.9800      0.00000

 k-point    37 :       0.2727    0.1818    0.0909
  band No.  band energies     occupation 
      1      -5.1259      2.00000
      2       3.5415      2.00000
      3       4.6123      2.00000
      4       5.7410      2.00000
      5       8.9618      0.00000
      6      10.5263      0.00000
      7      11.1609      0.00000
      8      11.4430      0.00000

 k-point    38 :       0.3636    0.1818    0.0909
  band No.  band energies     occupation 
      1      -4.5766      2.00000
      2       2.1301      2.00000
      3       4.0345      2.00000
      4       5.3919      2.00000
      5       9.3123      0.00000
      6      10.3894      0.00000
      7      11.4203      0.00000
      8      11.6244      0.00000

 k-point    39 :       0.4545    0.1818    0.0909
  band No.  band energies     occupation 
      1      -3.8657      2.00000
      2       0.6811      2.00000
      3       3.7873      2.00000
      4       5.0133      2.00000
      5       9.3963      0.00000
      6      10.0344      0.00000
      7      11.5804      0.00000
      8      12.4996      0.00000

 k-point    40 :      -0.4545    0.1818    0.0909
  band No.  band energies     occupation 
      1      -3.1874      2.00000
      2      -0.3909      2.00000
      3       3.6969      2.00000
      4       4.7788      2.00000
      5       9.4416      0.00000
      6       9.7208      0.00000
      7      11.4925      0.00000
      8      14.0805      0.00000

 k-point    41 :       0.3636    0.2727    0.0909
  band No.  band energies     occupation 
      1      -4.3802      2.00000
      2       2.2293      2.00000
      3       3.8467      2.00000
      4       4.6383      2.00000
      5       8.3517      0.00000
      6       9.8916      0.00000
      7      11.8404      0.00000
      8      12.9234      0.00000

 k-point    42 :       0.4545    0.2727    0.0909
  band No.  band energies     occupation 
      1      -3.7162      2.00000
      2       1.0684      2.00000
      3       3.2456      2.00000
      4       4.2878      2.00000
      5       8.7178      0.00000
      6      10.3270      0.00000
      7      11.5198      0.00000
      8      13.3239      0.00000

 k-point    43 :      -0.4545    0.2727    0.0909
  band No.  band energies     occupation 
      1      -2.9816      2.00000
      2      -0.0382      2.00000
      3       2.8506      2.00000
      4       4.1145      2.00000
      5       8.8482      0.00000
      6      10.9784      0.00000
      7      11.8896      0.00000
      8      13.2830      0.00000

 k-point    44 :      -0.3636    0.2727    0.0909
  band No.  band energies     occupation 
      1      -2.6809      2.00000
      2      -0.4302      2.00000
      3       2.6022      2.00000
      4       4.2140      2.00000
      5       9.0845      0.00000
      6      10.7244      0.00000
      7      13.1012      0.00000
      8      13.6727      0.00000

 k-point    45 :      -0.2727    0.2727    0.0909
  band No.  band energies     occupation 
      1      -3.2421      2.00000
      2       0.3351      2.00000
      3       2.5702      2.00000
      4       4.5390      2.00000
      5       9.4904      0.00000
      6      10.5160      0.00000
      7      12.3603      0.00000
      8      13.0322      0.00000

 k-point    46 :      -0.1818    0.2727    0.0909
  band No.  band energies     occupation 
      1      -3.9745      2.00000
      2       1.3968      2.00000
      3       2.9549      2.00000
      4       4.9948      2.00000
      5      10.0067      0.00000
      6      10.0826      0.00000
      7      11.3673      0.00000
      8      12.5903      0.00000

 k-point    47 :       0.4545    0.3636    0.0909
  band No.  band energies     occupation 
      1      -3.3633      2.00000
      2       0.8045      2.00000
      3       3.3373      2.00000
      4       3.7545      2.00000
      5       7.9547      0.00000
      6       8.7856      0.00000
      7      13.2889      0.00000
      8      14.7740      0.00000

 k-point    48 :      -0.4545    0.3636    0.0909
  band No.  band energies     occupation 
      1      -2.6269      2.00000
      2      -0.0730      2.00000
      3       2.6307      2.00000
      4       3.5603      2.00000
      5       8.2975      0.00000
      6       9.6884      0.00000
      7      12.9023      0.00000
      8      15.1760      0.00000

 k-point    49 :      -0.3636    0.3636    0.0909
  band No.  band energies     occupation 
      1      -2.1031      2.00000
      2      -0.6238      2.00000
      3       2.0575      2.00000
      4       3.6888      2.00000
      5       8.5263      0.00000
      6      11.3263      0.00000
      7      12.5935      0.00000
      8      14.2604      0.00000

 k-point    50 :      -0.2727    0.3636    0.0909
  band No.  band energies     occupation 
      1      -2.5223      2.00000
      2      -0.1963      2.00000
      3       1.9432      2.00000
      4       4.0409      2.00000
      5       8.9336      0.00000
      6      11.8209      0.00000
      7      12.6434      0.00000
      8      13.5492      0.00000

 k-point    51 :      -0.4545    0.4545    0.0909
  band No.  band energies     occupation 
      1      -2.1107      2.00000
      2      -0.6862      2.00000
      3       3.1291      2.00000
      4       3.2560      2.00000
      5       7.8593      0.00000
      6       8.1199      0.00000
      7      14.8909      0.00000
      8      16.5364      0.00000

 k-point    52 :      -0.3636    0.4545    0.0909
  band No.  band energies     occupation 
      1      -1.5498      2.00000
      2      -1.1695      2.00000
      3       2.3899      2.00000
      4       3.3361      2.00000
      5       8.1486      0.00000
      6       9.4788      0.00000
      7      14.4013      0.00000
      8      14.6384      0.00000

 k-point    53 :      -0.4545    0.3636    0.1818
  band No.  band energies     occupation 
      1      -3.0215      2.00000
      2       0.3759      2.00000
      3       2.5089      2.00000
      4       3.7705      2.00000
      5       9.7249      0.00000
      6      10.2775      0.00000
      7      11.1508      0.00000
      8      14.6345      0.00000

 k-point    54 :      -0.3636    0.3636    0.1818
  band No.  band energies     occupation 
      1      -2.3269      2.00000
      2      -0.3810      2.00000
      3       2.2082      2.00000
      4       3.4171      2.00000
      5      10.0435      0.00000
      6      10.5301      0.00000
      7      11.8733      0.00000
      8      13.8519      0.00000

 k-point    55 :      -0.3636    0.4545    0.1818
  band No.  band energies     occupation 
      1      -1.8969      2.00000
      2      -0.7211      2.00000
      3       2.4439      2.00000
      4       2.8494      2.00000
      5       9.6132      0.00000
      6       9.8019      0.00000
      7      12.4599      0.00000
      8      14.1234      0.00000

 k-point    56 :      -0.2727    0.4545    0.1818
  band No.  band energies     occupation 
      1      -1.6706      2.00000
      2      -0.9016      2.00000
      3       2.1287      2.00000
      4       2.8917      2.00000
      5       9.9618      0.00000
      6      11.2531      0.00000
      7      12.2080      0.00000
      8      12.2813      0.00000


--------------------------------------------------------------------------------------------------------


 soft charge-density along one line, spin component           1
         0         1         2         3         4         5         6         7         8         9
 total charge-density along one line
 
 pseudopotential strength for first ion, spin component:           1
 18.332  25.575   0.000   0.000   0.000   0.000   0.000   0.000
 25.575  35.685   0.000   0.000   0.000   0.000   0.000   0.000
  0.000   0.000   4.171  -0.000  -0.000   7.772  -0.000  -0.000
  0.000   0.000  -0.000   4.171  -0.000  -0.000   7.772  -0.000
  0.000   0.000  -0.000  -0.000   4.171  -0.000  -0.000   7.772
  0.000   0.000   7.772  -0.000  -0.000  14.492  -0.000  -0.000
  0.000   0.000  -0.000   7.772  -0.000  -0.000  14.492  -0.000
  0.000   0.000  -0.000  -0.000   7.772  -0.000  -0.000  14.492
 total augmentation occupancy for first ion, spin component:           1
  6.901  -2.817   0.000  -0.000   0.000   0.000   0.000   0.000
 -2.817   1.254   0.000  -0.000   0.000  -0.000   0.000  -0.000
  0.000  -0.000   3.800  -0.000  -0.000  -0.967   0.000  -0.000
 -0.000  -0.000  -0.000   3.800   0.000  -0.000  -0.967  -0.000
 -0.000   0.000  -0.000   0.000   3.800  -0.000   0.000  -0.967
  0.000   0.000  -0.967  -0.000  -0.000   0.254  -0.000   0.000
  0.000   0.000  -0.000  -0.967   0.000   0.000   0.254  -0.000
 -0.000  -0.000   0.000  -0.000  -0.967   0.000  -0.000   0.254


------------------------ aborting loop because EDIFF is reached ----------------------------------------


    CHARGE:  cpu time      0.0025: real time      0.0025
    FORLOC:  cpu time      0.0002: real time      0.0002
    FORNL :  cpu time      0.0043: real time      0.0043
    STRESS:  cpu time      0.0689: real time      0.0691
    FORCOR:  cpu time      0.0029: real time      0.0029
    FORHAR:  cpu time      0.0006: real time      0.0006
    MIXING:  cpu time      0.0003: real time      0.0003
    OFIELD:  cpu time      0.0000: real time      0.0000

  FORCE on cell =-STRESS in cart. coord.  units (eV):
  Direction    XX          YY          ZZ          XY          YZ          ZX
  --------------------------------------------------------------------------------------
  Alpha Z     3.61782     3.61782     3.61782
  Ewald     -78.05664   -78.05664   -78.05664     0.00000     0.00000    -0.00000
  Hartree     4.68530     4.68530     4.68530    -0.00000    -0.00000    -0.00000
  E(xc)     -25.83275   -25.83275   -25.83275    -0.00000    -0.00000    -0.00000
  Local     -28.40494   -28.40494   -28.40494     0.00007     0.00007     0.00007
  n-local    80.57051    81.98670    76.14798     2.39782    -1.43482     0.62788
  augment   -11.65471   -11.65471   -11.65471    -0.00008    -0.00008    -0.00008
  Kinetic    60.60994    57.21326    57.36076     3.58199    -0.51164     1.05275
  Fock        0.00000     0.00000     0.00000     0.00000     0.00000     0.00000
  -------------------------------------------------------------------------------------
  Total       2.31714     2.31714     2.31714    -0.00000     0.00000    -0.00000
  in kB      99.74586    99.74586    99.74586    -0.00000     0.00000    -0.00000
  external pressure =       99.75 kB  Pullay stress =        0.00 kB


 VOLUME and BASIS-vectors are now :
 -----------------------------------------------------------------------------
  energy-cutoff  :      240.00
  volume of cell :       37.22
      direct lattice vectors                 reciprocal lattice vectors
     0.000000000  2.650000000  2.650000000    -0.188679245  0.188679245  0.188679245
     2.650000000  0.000000000  2.650000000     0.188679245 -0.188679245  0.188679245
     2.650000000  2.650000000  0.000000000     0.188679245  0.188679245 -0.188679245

  length of vectors
     3.747665940  3.747665940  3.747665940     0.326802039  0.326802039  0.326802039


 FORCES acting on ions
    electron-ion (+dipol)            ewald-force                    non-local-force                 convergence-correction
 -----------------------------------------------------------------------------------------------
   0.875E-05 0.875E-05 0.716E-05   -.206E-14 -.273E-14 0.815E-15   -.419E-16 -.558E-16 -.684E-16   0.566E-06 0.566E-06 0.566E-06
   -.875E-05 -.875E-05 -.716E-05   0.193E-14 0.275E-14 -.661E-15   0.750E-16 0.265E-16 0.411E-16   -.566E-06 -.566E-06 -.566E-06
 -----------------------------------------------------------------------------------------------
   0.107E-12 -.283E-13 -.168E-13   -.127E-15 0.188E-16 0.154E-15   0.331E-16 -.293E-16 -.272E-16   -.214E-15 -.122E-14 -.984E-15
 
 
 POSITION                                       TOTAL-FORCE (eV/Angst)
 -----------------------------------------------------------------------------------
      4.63750      4.63750      4.63750         0.000000      0.000000     -0.000000
      0.66250      0.66250      0.66250        -0.000000     -0.000000      0.000000
 -----------------------------------------------------------------------------------
    total drift:                                0.000000     -0.000000     -0.000000


--------------------------------------------------------------------------------------------------------



  FREE ENERGIE OF THE ION-ELECTRON SYSTEM (eV)
  ---------------------------------------------------
  free  energy   TOTEN  =       -10.71333557 eV

  energy  without entropy=      -10.71333342  energy(sigma->0) =      -10.71333449
 


--------------------------------------------------------------------------------------------------------


    POTLOK:  cpu time      0.0043: real time      0.0043


--------------------------------------------------------------------------------------------------------


 writing wavefunctions
     LOOP+:  cpu time      0.9968: real time      1.0038
    4ORBIT:  cpu time      0.0000: real time      0.0000

 total amount of memory used by VASP MPI-rank0    32421. kBytes
=======================================================================

   base      :      30000. kBytes
   nonl-proj :       1200. kBytes
   fftplans  :        204. kBytes
   grid      :        388. kBytes
   one-center:          6. kBytes
   wavefun   :        623. kBytes
 
  
  
 General timing and accounting informations for this job:
 ========================================================
  
                  Total CPU time used (sec):        1.201
                            User time (sec):        1.101
                          System time (sec):        0.100
                         Elapsed time (sec):        1.243
  
                   Maximum memory used (kb):       47128.
                   Average memory used (kb):          N/A
  
                          Minor page faults:         9855
                          Major page faults:            0
                 Voluntary context switches:          131
