fcc Ni                                  
   3.80000000000000     
     0.500000    0.500000    0.000000
     0.000000    0.500000    0.500000
     0.500000    0.000000    0.500000
   Ni
     1
Direct
  0.000000  0.000000  0.000000
 
   24   24   24
  191.23      181.27      154.20      117.20      78.891      46.396      23.653      11.046      6.0357      4.5174    
  3.6302      3.1358      2.9813      3.1358      3.6302      4.5174      6.0357      11.046      23.653      46.396    
  78.891      117.20      154.20      181.27      181.27      162.78      130.90      93.642      58.915      32.181    
  15.478      7.5903      5.0406      3.9780      3.3063      2.9970      2.9970      3.3062      3.9780      5.0407    
  7.5904      15.478      32.181      58.915      93.642      130.90      162.78      181.27      154.20      130.90    
  99.087      66.269      38.666      19.669      9.4600      5.5907      4.3056      3.4871      3.0388      2.8998    
  3.0388      3.4871      4.3056      5.5907      9.4601      19.669      38.666      66.269      99.087      130.90    
  154.20      162.78      117.20      93.642      66.269      41.090      22.221      11.011      6.1504      4.5700    
  3.6517      3.0932      2.8417      2.8417      3.0931      3.6517      4.5700      6.1504      11.012      22.221    
  41.090      66.269      93.642      117.20      130.90      130.90      78.891      58.915      38.666      22.221    
  11.615      6.5195      4.7400      3.7757      3.1443      2.8122      2.7111      2.8122      3.1443      3.7757    
  4.7400      6.5195      11.615      22.221      38.666      58.915      78.891      93.642      99.087      93.642    
  46.396      32.181      19.669      11.011      6.5195      4.7988      3.8420      3.1797      2.7996      2.6334    
  2.6334      2.7995      3.1797      3.8420      4.7988      6.5195      11.011      19.669      32.180      46.396    
  58.915      66.269      66.269      58.915      23.653      15.478      9.4600      6.1504      4.7400      3.8420    
  3.1922      2.7952      2.5938      2.5335      2.5938      2.7952      3.1922      3.8420      4.7400      6.1504    
  9.4600      15.478      23.653      32.180      38.666      41.090      38.666      32.181      11.046      7.5903    
  5.5907      4.5700      3.7757      3.1797      2.7952      2.5818      2.4902      2.4902      2.5818      2.7952    
  3.1797      3.7758      4.5701      5.5907      7.5903      11.046      15.478      19.669      22.221      22.221    
  19.669      15.478      6.0357      5.0406      4.3056      3.6517      3.1443      2.7996      2.5938      2.4902    
  2.4592      2.4902      2.5938      2.7996      3.1443      3.6517      4.3056      5.0407      6.0357      7.5903    
  9.4600      11.011      11.615      11.012      9.4601      7.5904      4.5174      3.9780      3.4871      3.0932    
  2.8122      2.6334      2.5335      2.4902      2.4902      2.5335      2.6334      2.8122      3.0932      3.4871    
  3.9781      4.5175      5.0407      5.5907      6.1504      6.5195      6.5195      6.1504      5.5907      5.0407    
  3.6302      3.3063      3.0388      2.8417      2.7111      2.6334      2.5938      2.5818      2.5938      2.6334    
  2.7111      2.8417      3.0388      3.3063      3.6303      3.9781      4.3056      4.5701      4.7400      4.7988    
  4.7400      4.5700      4.3056      3.9780      3.1358      2.9970      2.8998      2.8417      2.8122      2.7995    
  2.7952      2.7952      2.7996      2.8122      2.8417      2.8997      2.9970      3.1358      3.3063      3.4871    
  3.6517      3.7758      3.8420      3.8420      3.7757      3.6517      3.4871      3.3062      2.9813      2.9970    
  3.0388      3.0931      3.1443      3.1797      3.1922      3.1797      3.1443      3.0932      3.0388      2.9970    
  2.9812      2.9970      3.0388      3.0932      3.1443      3.1797      3.1922      3.1797      3.1443      3.0931    
  3.0388      2.9970      3.1358      3.3062      3.4871      3.6517      3.7757      3.8420      3.8420      3.7758    
  3.6517      3.4871      3.3063      3.1358      2.9970      2.8997      2.8417      2.8122      2.7996      2.7952    
  2.7952      2.7995      2.8122      2.8417      2.8998      2.9970      3.6302      3.9780      4.3056      4.5700    
  4.7400      4.7988      4.7400      4.5701      4.3056      3.9781      3.6303      3.3063      3.0388      2.8417    
  2.7111      2.6334      2.5938      2.5818      2.5938      2.6334      2.7111      2.8417      3.0388      3.3063    
  4.5174      5.0407      5.5907      6.1504      6.5195      6.5195      6.1504      5.5907      5.0407      4.5175    
  3.9781      3.4871      3.0932      2.8122      2.6334      2.5335      2.4902      2.4902      2.5335      2.6334    
  2.8122      3.0932      3.4871      3.9780      6.0357      7.5904      9.4601      11.012      11.615      11.011    
  9.4600      7.5903      6.0357      5.0407      4.3056      3.6517      3.1443      2.7996      2.5938      2.4902    
  2.4592      2.4902      2.5938      2.7996      3.1443      3.6517      4.3056      5.0406      11.046      15.478    
  19.669      22.221      22.221      19.669      15.478      11.046      7.5903      5.5907      4.5701      3.7758    
  3.1797      2.7952      2.5818      2.4902      2.4902      2.5818      2.7952      3.1797      3.7757      4.5700    
  5.5907      7.5903      23.653      32.181      38.666      41.090      38.666      32.180      23.653      15.478    
  9.4600      6.1504      4.7400      3.8420      3.1922      2.7952      2.5938      2.5335      2.5938      2.7952    
  3.1922      3.8420      4.7400      6.1504      9.4600      15.478      46.396      58.915      66.269      66.269    
  58.915      46.396      32.180      19.669      11.011      6.5195      4.7988      3.8420      3.1797      2.7995    
  2.6334      2.6334      2.7996      3.1797      3.8420      4.7988      6.5195      11.011      19.669      32.181    
  78.891      93.642      99.087      93.642      78.891      58.915      38.666      22.221      11.615      6.5195    
  4.7400      3.7757      3.1443      2.8122      2.7111      2.8122      3.1443      3.7757      4.7400      6.5195    
  11.615      22.221      38.666      58.915      117.20      130.90      130.90      117.20      93.642      66.269    
  41.090      22.221      11.012      6.1504      4.5700      3.6517      3.0931      2.8417      2.8417      3.0932    
  3.6517      4.5700      6.1504      11.011      22.221      41.090      66.269      93.642      154.20      162.78    
  154.20      130.90      99.087      66.269      38.666      19.669      9.4601      5.5907      4.3056      3.4871    
  3.0388      2.8998      3.0388      3.4871      4.3056      5.5907      9.4600      19.669      38.666      66.269    
  99.087      130.90      181.27      181.27      162.78      130.90      93.642      58.915      32.181      15.478    
  7.5904      5.0407      3.9780      3.3062      2.9970      2.9970      3.3063      3.9780      5.0406      7.5903    
  15.478      32.181      58.915      93.642      130.90      162.78      181.27      162.78      130.90      93.642    
  58.915      32.181      15.478      7.5903      5.0407      3.9780      3.3063      2.9970      2.9970      3.3062    
  3.9780      5.0407      7.5904      15.478      32.181      58.915      93.642      130.90      162.78      181.27    
  162.78      138.12      104.54      69.958      40.879      20.802      9.9125      5.7203      4.3753      3.5371    
  3.0751      2.9314      3.0751      3.5371      4.3753      5.7203      9.9126      20.802      40.879      69.958    
  104.54      138.12      162.78      171.86      130.90      104.54      74.023      45.991      24.899      12.192    
  6.5253      4.7162      3.7589      3.1677      2.8995      2.8995      3.1678      3.7589      4.7162      6.5253    
  12.192      24.899      45.991      74.023      104.54      130.90      146.26      146.26      93.642      69.958    
  45.991      26.437      13.607      7.2153      4.9663      3.9410      3.2567      2.8921      2.7803      2.8921    
  3.2567      3.9410      4.9663      7.2152      13.607      26.437      45.991      69.958      93.642      111.19    
  117.69      111.19      58.915      40.879      24.899      13.607      7.4890      5.1096      4.0595      3.3253    
  2.8967      2.7077      2.7077      2.8967      3.3253      4.0595      5.1096      7.4889      13.607      24.899    
  40.879      58.915      74.804      84.158      84.158      74.804      32.181      20.802      12.192      7.2153    
  5.1096      4.1005      3.3622      2.9031      2.6682      2.5975      2.6682      2.9031      3.3622      4.1005    
  5.1096      7.2152      12.192      20.802      32.180      43.919      52.821      56.148      52.821      43.919    
  15.478      9.9125      6.5253      4.9663      4.0595      3.3622      2.9058      2.6512      2.5416      2.5416    
  2.6512      2.9058      3.3623      4.0595      4.9664      6.5253      9.9125      15.478      22.362      28.752    
  32.614      32.614      28.752      22.362      7.5903      5.7203      4.7162      3.9410      3.3253      2.9031    
  2.6512      2.5248      2.4871      2.5247      2.6512      2.9031      3.3254      3.9411      4.7162      5.7203    
  7.5903      10.514      13.888      16.615      17.663      16.615      13.888      10.514      5.0407      4.3753    
  3.7589      3.2567      2.8967      2.6682      2.5416      2.4871      2.4871      2.5415      2.6681      2.8967    
  3.2568      3.7590      4.3753      5.0407      5.8805      7.0492      8.2780      9.0769      9.0769      8.2781    
  7.0492      5.8805      3.9780      3.5371      3.1677      2.8921      2.7077      2.5975      2.5416      2.5247    
  2.5415      2.5975      2.7076      2.8920      3.1678      3.5371      3.9781      4.4436      4.8743      5.2541    
  5.5602      5.6823      5.5602      5.2541      4.8743      4.4436      3.3063      3.0751      2.8995      2.7803    
  2.7077      2.6682      2.6512      2.6512      2.6681      2.7076      2.7803      2.8994      3.0751      3.3063    
  3.5764      3.8548      4.1045      4.2911      4.3905      4.3905      4.2911      4.1044      3.8548      3.5764    
  2.9970      2.9314      2.8995      2.8921      2.8967      2.9031      2.9058      2.9031      2.8967      2.8920    
  2.8994      2.9313      2.9970      3.0964      3.2188      3.3447      3.4527      3.5249      3.5502      3.5249    
  3.4527      3.3447      3.2188      3.0965      2.9970      3.0751      3.1678      3.2567      3.3253      3.3622    
  3.3623      3.3254      3.2568      3.1678      3.0751      2.9970      2.9469      2.9287      2.9358      2.9558    
  2.9761      2.9881      2.9881      2.9760      2.9557      2.9358      2.9287      2.9469      3.3062      3.5371    
  3.7589      3.9410      4.0595      4.1005      4.0595      3.9411      3.7590      3.5371      3.3063      3.0964    
  2.9287      2.8100      2.7350      2.6924      2.6713      2.6650      2.6713      2.6924      2.7350      2.8100    
  2.9287      3.0965      3.9780      4.3753      4.7162      4.9663      5.1096      5.1096      4.9664      4.7162    
  4.3753      3.9781      3.5764      3.2188      2.9358      2.7350      2.6067      2.5342      2.5022      2.5022    
  2.5342      2.6067      2.7350      2.9358      3.2188      3.5764      5.0407      5.7203      6.5253      7.2152    
  7.4889      7.2152      6.5253      5.7203      5.0407      4.4436      3.8548      3.3447      2.9558      2.6924    
  2.5342      2.4536      2.4294      2.4536      2.5342      2.6924      2.9558      3.3447      3.8548      4.4436    
  7.5904      9.9126      12.192      13.607      13.607      12.192      9.9125      7.5903      5.8805      4.8743    
  4.1045      3.4527      2.9761      2.6713      2.5022      2.4294      2.4294      2.5022      2.6713      2.9761    
  3.4527      4.1044      4.8743      5.8805      15.478      20.802      24.899      26.437      24.899      20.802    
  15.478      10.514      7.0492      5.2541      4.2911      3.5249      2.9881      2.6650      2.5022      2.4536    
  2.5022      2.6650      2.9881      3.5249      4.2911      5.2541      7.0492      10.514      32.181      40.879    
  45.991      45.991      40.879      32.180      22.362      13.888      8.2780      5.5602      4.3905      3.5502    
  2.9881      2.6713      2.5342      2.5342      2.6713      2.9881      3.5502      4.3905      5.5602      8.2780    
  13.888      22.362      58.915      69.958      74.023      69.958      58.915      43.919      28.752      16.615    
  9.0769      5.6823      4.3905      3.5249      2.9760      2.6924      2.6067      2.6924      2.9761      3.5249    
  4.3905      5.6822      9.0768      16.614      28.752      43.919      93.642      104.54      104.54      93.642    
  74.804      52.821      32.614      17.663      9.0769      5.5602      4.2911      3.4527      2.9557      2.7350    
  2.7350      2.9558      3.4527      4.2911      5.5602      9.0768      17.663      32.614      52.821      74.804    
  130.90      138.12      130.90      111.19      84.158      56.148      32.614      16.615      8.2781      5.2541    
  4.1044      3.3447      2.9358      2.8100      2.9358      3.3447      4.1044      5.2541      8.2780      16.614    
  32.614      56.148      84.158      111.19      162.78      162.78      146.26      117.69      84.158      52.821    
  28.752      13.888      7.0492      4.8743      3.8548      3.2188      2.9287      2.9287      3.2188      3.8548    
  4.8743      7.0492      13.888      28.752      52.821      84.158      117.69      146.26      181.27      171.86    
  146.26      111.19      74.804      43.919      22.362      10.514      5.8805      4.4436      3.5764      3.0965    
  2.9469      3.0965      3.5764      4.4436      5.8805      10.514      22.362      43.919      74.804      111.19    
  146.26      171.86      154.20      130.90      99.087      66.269      38.666      19.669      9.4600      5.5907    
  4.3056      3.4871      3.0388      2.8998      3.0388      3.4870      4.3056      5.5907      9.4601      19.669    
  38.666      66.269      99.087      130.90      154.20      162.78      130.90      104.54      74.023      45.991    
  24.899      12.192      6.5253      4.7162      3.7589      3.1677      2.8995      2.8995      3.1678      3.7589    
  4.7162      6.5253      12.192      24.899      45.991      74.023      104.54      130.90      146.26      146.26    
  99.087      74.023      48.687      27.999      14.359      7.4865      5.0478      3.9986      3.2963      2.9201    
  2.8046      2.9201      3.2963      3.9986      5.0477      7.4864      14.359      27.999      48.687      74.023    
  99.087      117.69      124.58      117.69      66.269      45.991      27.999      15.183      8.1035      5.2930    
  4.1751      3.4040      2.9491      2.7475      2.7475      2.9492      3.4040      4.1751      5.2929      8.1033    
  15.183      27.999      45.991      66.269      84.158      94.707      94.707      84.158      38.666      24.899    
  14.359      8.1035      5.3879      4.2680      3.4749      2.9747      2.7169      2.6391      2.7169      2.9747    
  3.4749      4.2679      5.3877      8.1033      14.359      24.899      38.666      52.821      63.558      67.574    
  63.558      52.821      19.669      12.192      7.4865      5.2930      4.2680      3.4995      2.9891      2.7025    
  2.5787      2.5788      2.7026      2.9892      3.4995      4.2680      5.2929      7.4865      12.192      19.669    
  28.752      37.121      42.169      42.169      37.121      28.752      9.4600      6.5253      5.0478      4.1751    
  3.4749      2.9891      2.6984      2.5525      2.5091      2.5525      2.6984      2.9892      3.4749      4.1751    
  5.0478      6.5253      9.4600      13.888      18.866      22.835      24.353      22.835      18.866      13.888    
  5.5907      4.7162      3.9986      3.4040      2.9747      2.7025      2.5525      2.4882      2.4882      2.5525    
  2.7026      2.9748      3.4041      3.9987      4.7162      5.5907      7.0492      9.1174      11.235      12.588    
  12.588      11.235      9.1174      7.0492      4.3056      3.7589      3.2963      2.9491      2.7169      2.5787    
  2.5091      2.4882      2.5090      2.5787      2.7169      2.9492      3.2963      3.7590      4.3056      4.8743    
  5.4807      6.1926      6.8171      7.0690      6.8172      6.1926      5.4807      4.8743      3.4871      3.1677    
  2.9201      2.7475      2.6391      2.5788      2.5525      2.5525      2.5787      2.6390      2.7475      2.9201    
  3.1678      3.4871      3.8548      4.2299      4.5635      4.8120      4.9491      4.9491      4.8120      4.5635    
  4.2299      3.8548      3.0388      2.8995      2.8046      2.7475      2.7169      2.7026      2.6984      2.7026    
  2.7169      2.7475      2.8046      2.8994      3.0388      3.2188      3.4231      3.6255      3.7966      3.9108    
  3.9508      3.9108      3.7966      3.6255      3.4231      3.2188      2.8998      2.8995      2.9201      2.9492    
  2.9747      2.9892      2.9892      2.9748      2.9492      2.9201      2.8994      2.8997      2.9287      2.9849    
  3.0578      3.1316      3.1905      3.2229      3.2229      3.1905      3.1316      3.0578      2.9849      2.9287    
  3.0388      3.1678      3.2963      3.4040      3.4749      3.4995      3.4749      3.4041      3.2963      3.1678    
  3.0388      2.9287      2.8495      2.8030      2.7820      2.7759      2.7756      2.7760      2.7756      2.7759    
  2.7820      2.8030      2.8495      2.9287      3.4870      3.7589      3.9986      4.1751      4.2679      4.2680    
  4.1751      3.9987      3.7590      3.4871      3.2188      2.9849      2.8030      2.6756      2.5945      2.5483    
  2.5275      2.5275      2.5482      2.5945      2.6756      2.8030      2.9849      3.2188      4.3056      4.7162    
  5.0477      5.2929      5.3877      5.2929      5.0478      4.7162      4.3056      3.8548      3.4231      3.0578    
  2.7820      2.5945      2.4801      2.4206      2.4023      2.4205      2.4801      2.5945      2.7820      3.0578    
  3.4231      3.8548      5.5907      6.5253      7.4864      8.1033      8.1033      7.4865      6.5253      5.5907    
  4.8743      4.2299      3.6255      3.1316      2.7759      2.5483      2.4206      2.3650      2.3650      2.4206    
  2.5483      2.7759      3.1316      3.6255      4.2299      4.8743      9.4601      12.192      14.359      15.183    
  14.359      12.192      9.4600      7.0492      5.4807      4.5635      3.7966      3.1905      2.7756      2.5275    
  2.4023      2.3650      2.4024      2.5275      2.7757      3.1906      3.7966      4.5635      5.4807      7.0492    
  19.669      24.899      27.999      27.999      24.899      19.669      13.888      9.1174      6.1926      4.8120    
  3.9108      3.2229      2.7760      2.5275      2.4205      2.4206      2.5275      2.7761      3.2230      3.9108    
  4.8120      6.1925      9.1174      13.888      38.666      45.991      48.687      45.991      38.666      28.752    
  18.866      11.235      6.8171      4.9491      3.9508      3.2229      2.7756      2.5482      2.4801      2.5483    
  2.7757      3.2230      3.9508      4.9490      6.8171      11.235      18.866      28.752      66.269      74.023    
  74.023      66.269      52.821      37.121      22.835      12.588      7.0690      4.9491      3.9108      3.1905    
  2.7759      2.5945      2.5945      2.7759      3.1906      3.9108      4.9490      7.0689      12.587      22.835    
  37.121      52.821      99.087      104.54      99.087      84.158      63.558      42.169      24.353      12.588    
  6.8172      4.8120      3.7966      3.1316      2.7820      2.6756      2.7820      3.1316      3.7966      4.8120    
  6.8171      12.587      24.353      42.169      63.558      84.158      130.90      130.90      117.69      94.707    
  67.574      42.169      22.835      11.235      6.1926      4.5635      3.6255      3.0578      2.8030      2.8030    
  3.0578      3.6255      4.5635      6.1925      11.235      22.835      42.169      67.574      94.707      117.69    
  154.20      146.26      124.58      94.707      63.558      37.121      18.866      9.1174      5.4807      4.2299    
  3.4231      2.9849      2.8495      2.9849      3.4231      4.2299      5.4807      9.1174      18.866      37.121    
  63.558      94.707      124.58      146.26      162.78      146.26      117.69      84.158      52.821      28.752    
  13.888      7.0492      4.8743      3.8548      3.2188      2.9287      2.9287      3.2188      3.8548      4.8743    
  7.0492      13.888      28.752      52.821      84.158      117.69      146.26      162.78      117.20      93.642    
  66.269      41.090      22.221      11.011      6.1504      4.5700      3.6517      3.0932      2.8417      2.8417    
  3.0931      3.6517      4.5700      6.1504      11.012      22.221      41.090      66.269      93.642      117.20    
  130.90      130.90      93.642      69.958      45.991      26.437      13.607      7.2153      4.9663      3.9410    
  3.2567      2.8921      2.7803      2.8921      3.2567      3.9410      4.9663      7.2152      13.607      26.437    
  45.991      69.958      93.642      111.19      117.69      111.19      66.269      45.991      27.999      15.183    
  8.1035      5.2930      4.1751      3.4040      2.9491      2.7475      2.7475      2.9492      3.4040      4.1751    
  5.2929      8.1033      15.183      27.999      45.991      66.269      84.158      94.707      94.707      84.158    
  41.090      26.437      15.183      8.4497      5.4954      4.3258      3.5143      2.9998      2.7339      2.6535    
  2.7339      2.9999      3.5143      4.3257      5.4952      8.4494      15.183      26.437      41.090      56.148    
  67.574      71.849      67.574      56.148      22.221      13.607      8.1035      5.4954      4.3776      3.5730    
  3.0339      2.7298      2.5982      2.5983      2.7299      3.0340      3.5730      4.3775      5.4952      8.1033    
  13.607      22.221      32.614      42.169      47.930      47.929      42.169      32.614      11.011      7.2153    
  5.2930      4.3258      3.5730      3.0458      2.7292      2.5701      2.5228      2.5702      2.7293      3.0459    
  3.5730      4.3257      5.2929      7.2153      11.011      16.615      22.835      27.767      29.650      27.767    
  22.835      16.614      6.1504      4.9663      4.1751      3.5143      3.0339      2.7292      2.5616      2.4900    
  2.4900      2.5617      2.7293      3.0340      3.5143      4.1751      4.9664      6.1504      8.2780      11.235    
  14.207      16.086      16.086      14.207      11.235      8.2780      4.5700      3.9410      3.4040      2.9998    
  2.7298      2.5701      2.4900      2.4662      2.4900      2.5701      2.7299      2.9999      3.4041      3.9411    
  4.5701      5.2541      6.1926      7.3705      8.3985      8.8097      8.3985      7.3705      6.1925      5.2541    
  3.6517      3.2567      2.9491      2.7339      2.5982      2.5228      2.4900      2.4900      2.5227      2.5982    
  2.7338      2.9492      3.2568      3.6518      4.1045      4.5635      4.9750      5.3325      5.5622      5.5622    
  5.3326      4.9750      4.5635      4.1044      3.0932      2.8921      2.7475      2.6535      2.5983      2.5702    
  2.5617      2.5701      2.5982      2.6534      2.7475      2.8920      3.0932      3.3447      3.6255      3.9019    
  4.1354      4.2914      4.3461      4.2914      4.1355      3.9019      3.6255      3.3447      2.8417      2.7803    
  2.7475      2.7339      2.7299      2.7293      2.7293      2.7299      2.7338      2.7475      2.7803      2.8417    
  2.9358      3.0578      3.1935      3.3225      3.4233      3.4786      3.4786      3.4233      3.3225      3.1935    
  3.0578      2.9358      2.8417      2.8921      2.9492      2.9999      3.0340      3.0459      3.0340      2.9999    
  2.9492      2.8920      2.8417      2.8100      2.8030      2.8185      2.8476      2.8785      2.9013      2.9095    
  2.9012      2.8785      2.8476      2.8185      2.8030      2.8100      3.0931      3.2567      3.4040      3.5143    
  3.5730      3.5730      3.5143      3.4041      3.2568      3.0932      2.9358      2.8030      2.7040      2.6383    
  2.5987      2.5771      2.5676      2.5675      2.5771      2.5987      2.6383      2.7040      2.8030      2.9358    
  3.6517      3.9410      4.1751      4.3257      4.3775      4.3257      4.1751      3.9411      3.6518      3.3447    
  3.0578      2.8185      2.6383      2.5145      2.4371      2.3954      2.3823      2.3953      2.4370      2.5145    
  2.6383      2.8185      3.0578      3.3447      4.5700      4.9663      5.2929      5.4952      5.4952      5.2929    
  4.9664      4.5701      4.1045      3.6255      3.1935      2.8476      2.5987      2.4371      2.3440      2.3024    
  2.3023      2.3439      2.4370      2.5987      2.8476      3.1935      3.6255      4.1044      6.1504      7.2152    
  8.1033      8.4494      8.1033      7.2153      6.1504      5.2541      4.5635      3.9019      3.3225      2.8785    
  2.5771      2.3954      2.3024      2.2743      2.3024      2.3954      2.5771      2.8785      3.3225      3.9019    
  4.5636      5.2541      11.012      13.607      15.183      15.183      13.607      11.011      8.2780      6.1926    
  4.9750      4.1354      3.4233      2.9013      2.5676      2.3823      2.3023      2.3024      2.3823      2.5676    
  2.9013      3.4233      4.1355      4.9750      6.1926      8.2781      22.221      26.437      27.999      26.437    
  22.221      16.615      11.235      7.3705      5.3325      4.2914      3.4786      2.9095      2.5675      2.3953    
  2.3439      2.3954      2.5676      2.9096      3.4786      4.2914      5.3325      7.3705      11.235      16.615    
  41.090      45.991      45.991      41.090      32.614      22.835      14.207      8.3985      5.5622      4.3461    
  3.4786      2.9012      2.5771      2.4370      2.4370      2.5771      2.9013      3.4786      4.3461      5.5621    
  8.3985      14.207      22.835      32.614      66.269      69.958      66.269      56.148      42.169      27.767    
  16.086      8.8097      5.5622      4.2914      3.4233      2.8785      2.5987      2.5145      2.5987      2.8785    
  3.4233      4.2914      5.5621      8.8096      16.086      27.767      42.169      56.148      93.642      93.642    
  84.158      67.574      47.930      29.650      16.086      8.3985      5.3326      4.1355      3.3225      2.8476    
  2.6383      2.6383      2.8476      3.3225      4.1355      5.3325      8.3985      16.086      29.650      47.929    
  67.574      84.158      117.20      111.19      94.707      71.849      47.929      27.767      14.207      7.3705    
  4.9750      3.9019      3.1935      2.8185      2.7040      2.8185      3.1935      3.9019      4.9750      7.3705    
  14.207      27.767      47.929      71.849      94.707      111.19      130.90      117.69      94.707      67.574    
  42.169      22.835      11.235      6.1925      4.5635      3.6255      3.0578      2.8030      2.8030      3.0578    
  3.6255      4.5636      6.1926      11.235      22.835      42.169      67.574      94.707      117.69      130.90    
  130.90      111.19      84.158      56.148      32.614      16.614      8.2780      5.2541      4.1044      3.3447    
  2.9358      2.8100      2.9358      3.3447      4.1044      5.2541      8.2781      16.615      32.614      56.148    
  84.158      111.19      130.90      138.12      78.891      58.915      38.666      22.221      11.615      6.5195    
  4.7400      3.7757      3.1443      2.8122      2.7111      2.8122      3.1443      3.7757      4.7400      6.5195    
  11.615      22.221      38.666      58.915      78.891      93.642      99.087      93.642      58.915      40.879    
  24.899      13.607      7.4890      5.1096      4.0595      3.3253      2.8967      2.7077      2.7077      2.8967    
  3.3253      4.0595      5.1096      7.4889      13.607      24.899      40.879      58.915      74.804      84.158    
  84.158      74.804      38.666      24.899      14.359      8.1035      5.3879      4.2680      3.4749      2.9747    
  2.7169      2.6391      2.7169      2.9747      3.4749      4.2679      5.3877      8.1033      14.359      24.899    
  38.666      52.821      63.558      67.574      63.558      52.821      22.221      13.607      8.1035      5.4954    
  4.3776      3.5730      3.0339      2.7298      2.5982      2.5983      2.7299      3.0340      3.5730      4.3775    
  5.4952      8.1033      13.607      22.221      32.614      42.169      47.930      47.929      42.169      32.614    
  11.615      7.4890      5.3879      4.3776      3.6071      3.0656      2.7399      2.5761      2.5274      2.5762    
  2.7399      3.0656      3.6071      4.3775      5.3878      7.4890      11.615      17.663      24.353      29.650    
  31.671      29.650      24.353      17.663      6.5195      5.1096      4.2680      3.5730      3.0656      2.7435    
  2.5665      2.4910      2.4911      2.5666      2.7436      3.0656      3.5730      4.2680      5.1096      6.5195    
  9.0769      12.588      16.086      18.288      18.288      16.086      12.587      9.0768      4.7400      4.0595    