fcc Ni                                  
   3.80000000000000     
     0.500000    0.500000    0.000000
     0.000000    0.500000    0.500000
     0.500000    0.000000    0.500000
   Ni
     1
Direct
  0.000000  0.000000  0.000000
 
   24   24   24
 0.19123411620E+03 0.18127177294E+03 0.15419927284E+03 0.11720140035E+03 0.78890974634E+02
 0.46396067537E+02 0.23653394578E+02 0.11045642393E+02 0.60357142794E+01 0.45174367079E+01
 0.36302426974E+01 0.31358070361E+01 0.29812881457E+01 0.31358070361E+01 0.36302426974E+01
 0.45174367079E+01 0.60357142794E+01 0.11045642393E+02 0.23653394578E+02 0.46396067537E+02
 0.78890974634E+02 0.11720140035E+03 0.15419927284E+03 0.18127177294E+03 0.18127177294E+03
 0.16277698391E+03 0.13089558915E+03 0.93641911177E+02 0.58915104888E+02 0.32180543410E+02
 0.15478412440E+02 0.75903345325E+01 0.50406485318E+01 0.39780466136E+01 0.33062579400E+01
 0.29970149400E+01 0.29970053622E+01 0.33062413096E+01 0.39780432322E+01 0.50406650019E+01
 0.75903674307E+01 0.15478464404E+02 0.32180616982E+02 0.58915181837E+02 0.93641955973E+02
 0.13089558251E+03 0.16277694837E+03 0.18127175361E+03 0.15419927284E+03 0.13089558915E+03
 0.99086946306E+02 0.66269197254E+02 0.38665804726E+02 0.19668540821E+02 0.94599904243E+01
 0.55906841150E+01 0.43055683452E+01 0.34870675492E+01 0.30388134080E+01 0.28997952997E+01
 0.30387985243E+01 0.34870539829E+01 0.43055733412E+01 0.55907174018E+01 0.94600553077E+01
 0.19668630419E+02 0.38665896775E+02 0.66269265853E+02 0.99086982856E+02 0.13089560385E+03
 0.15419927801E+03 0.16277694837E+03 0.11720140035E+03 0.93641911177E+02 0.66269197254E+02
 0.41090040079E+02 0.22220869572E+02 0.11011455072E+02 0.61503763663E+01 0.45700220370E+01
 0.36516976866E+01 0.30931613700E+01 0.28416932720E+01 0.28416878933E+01 0.30931494017E+01
 0.36516890709E+01 0.45700290777E+01 0.61504109087E+01 0.11011517255E+02 0.22220939278E+02
 0.41090093473E+02 0.66269234786E+02 0.93641952314E+02 0.11720144570E+03 0.13089560385E+03
 0.13089558251E+03 0.78890974634E+02 0.58915104888E+02 0.38665804726E+02 0.22220869572E+02
 0.11615042013E+02 0.65194708281E+01 0.47400093766E+01 0.37757443150E+01 0.31443193428E+01
 0.28122373839E+01 0.27110996240E+01 0.28122171637E+01 0.31442980749E+01 0.37757362007E+01
 0.47400148596E+01 0.65194894360E+01 0.11615074353E+02 0.22220904675E+02 0.38665824672E+02
 0.58915105328E+02 0.78890967776E+02 0.93641952314E+02 0.99086982856E+02 0.93641955973E+02
 0.46396067537E+02 0.32180543410E+02 0.19668540821E+02 0.11011455072E+02 0.65194708281E+01
 0.47987831288E+01 0.38419930953E+01 0.31797110753E+01 0.27995701067E+01 0.26334374656E+01
 0.26334189216E+01 0.27995342110E+01 0.31796902393E+01 0.38419950144E+01 0.47987956834E+01
 0.65194867713E+01 0.11011469524E+02 0.19668534652E+02 0.32180496162E+02 0.46395986676E+02
 0.58915105328E+02 0.66269234786E+02 0.66269265853E+02 0.58915181837E+02 0.23653394578E+02
 0.15478412440E+02 0.94599904243E+01 0.61503763663E+01 0.47400093766E+01 0.38419930953E+01
 0.31922210600E+01 0.27951825200E+01 0.25938260603E+01 0.25335487193E+01 0.25938061306E+01
 0.27951620998E+01 0.31922176161E+01 0.38420104343E+01 0.47400414647E+01 0.61504040899E+01
 0.94599804855E+01 0.15478339534E+02 0.23653272918E+02 0.32180496162E+02 0.38665824672E+02
 0.41090093473E+02 0.38665896775E+02 0.32180616982E+02 0.11045642393E+02 0.75903345325E+01
 0.55906841150E+01 0.45700220370E+01 0.37757443150E+01 0.31797110753E+01 0.27951825200E+01
 0.25818291568E+01 0.24901828798E+01 0.24901774721E+01 0.25818181227E+01 0.27951766602E+01
 0.31797211524E+01 0.37757768701E+01 0.45700690012E+01 0.55907114824E+01 0.75903017062E+01
 0.11045543212E+02 0.15478339534E+02 0.19668534652E+02 0.22220904675E+02 0.22220939278E+02
 0.19668630419E+02 0.15478464404E+02 0.60357142794E+01 0.50406485318E+01 0.43055683452E+01
 0.36516976866E+01 0.31443193428E+01 0.27995701067E+01 0.25938260603E+01 0.24901828798E+01
 0.24592496052E+01 0.24901540418E+01 0.25937953726E+01 0.27995633064E+01 0.31443424063E+01
 0.36517406881E+01 0.43056127851E+01 0.50406687383E+01 0.60356889884E+01 0.75903017062E+01
 0.94599804855E+01 0.11011469524E+02 0.11615074353E+02 0.11011517255E+02 0.94600553077E+01
 0.75903674307E+01 0.45174367079E+01 0.39780466136E+01 0.34870675492E+01 0.30931613700E+01
 0.28122373839E+01 0.26334374656E+01 0.25335487193E+01 0.24901774721E+01 0.24901540418E+01
 0.25334981089E+01 0.26333977104E+01 0.28122289521E+01 0.30931792121E+01 0.34870969435E+01
 0.39780747652E+01 0.45174546658E+01 0.50406687383E+01 0.55907114824E+01 0.61504040899E+01
 0.65194867713E+01 0.65194894360E+01 0.61504109087E+01 0.55907174018E+01 0.50406650019E+01
 0.36302426974E+01 0.33062579400E+01 0.30388134080E+01 0.28416932720E+01 0.27110996240E+01
 0.26334189216E+01 0.25938061306E+01 0.25818181227E+01 0.25937953726E+01 0.26333977104E+01
 0.27110696012E+01 0.28416607650E+01 0.30387904897E+01 0.33062551187E+01 0.36302602823E+01
 0.39780747652E+01 0.43056127851E+01 0.45700690012E+01 0.47400414647E+01 0.47987956834E+01
 0.47400148596E+01 0.45700290777E+01 0.43055733412E+01 0.39780432322E+01 0.31358070361E+01
 0.29970149400E+01 0.28997952997E+01 0.28416878933E+01 0.28122171637E+01 0.27995342110E+01
 0.27951620998E+01 0.27951766602E+01 0.27995633064E+01 0.28122289521E+01 0.28416607650E+01
 0.28997371203E+01 0.29969571595E+01 0.31357802698E+01 0.33062551187E+01 0.34870969435E+01
 0.36517406881E+01 0.37757768701E+01 0.38420104343E+01 0.38419950144E+01 0.37757362007E+01
 0.36516890709E+01 0.34870539829E+01 0.33062413096E+01 0.29812881457E+01 0.29970053622E+01
 0.30387985243E+01 0.30931494017E+01 0.31442980749E+01 0.31796902393E+01 0.31922176161E+01
 0.31797211524E+01 0.31443424063E+01 0.30931792121E+01 0.30387904897E+01 0.29969571595E+01
 0.29812226861E+01 0.29969571595E+01 0.30387904897E+01 0.30931792121E+01 0.31443424063E+01
 0.31797211524E+01 0.31922176161E+01 0.31796902393E+01 0.31442980749E+01 0.30931494017E+01
 0.30387985243E+01 0.29970053622E+01 0.31358070361E+01 0.33062413096E+01 0.34870539829E+01
 0.36516890709E+01 0.37757362007E+01 0.38419950144E+01 0.38420104343E+01 0.37757768701E+01
 0.36517406881E+01 0.34870969435E+01 0.33062551187E+01 0.31357802698E+01 0.29969571595E+01
 0.28997371203E+01 0.28416607650E+01 0.28122289521E+01 0.27995633064E+01 0.27951766602E+01
 0.27951620998E+01 0.27995342110E+01 0.28122171637E+01 0.28416878933E+01 0.28997952997E+01
 0.29970149400E+01 0.36302426974E+01 0.39780432322E+01 0.43055733412E+01 0.45700290777E+01
 0.47400148596E+01 0.47987956834E+01 0.47400414647E+01 0.45700690012E+01 0.43056127851E+01
 0.39780747652E+01 0.36302602823E+01 0.33062551187E+01 0.30387904897E+01 0.28416607650E+01
 0.27110696012E+01 0.26333977104E+01 0.25937953726E+01 0.25818181227E+01 0.25938061306E+01
 0.26334189216E+01 0.27110996240E+01 0.28416932720E+01 0.30388134080E+01 0.33062579400E+01
 0.45174367079E+01 0.50406650019E+01 0.55907174018E+01 0.61504109087E+01 0.65194894360E+01
 0.65194867713E+01 0.61504040899E+01 0.55907114824E+01 0.50406687383E+01 0.45174546658E+01
 0.39780747652E+01 0.34870969435E+01 0.30931792121E+01 0.28122289521E+01 0.26333977104E+01
 0.25334981089E+01 0.24901540418E+01 0.24901774721E+01 0.25335487193E+01 0.26334374656E+01
 0.28122373839E+01 0.30931613700E+01 0.34870675492E+01 0.39780466136E+01 0.60357142794E+01
 0.75903674307E+01 0.94600553077E+01 0.11011517255E+02 0.11615074353E+02 0.11011469524E+02
 0.94599804855E+01 0.75903017062E+01 0.60356889884E+01 0.50406687383E+01 0.43056127851E+01
 0.36517406881E+01 0.31443424063E+01 0.27995633064E+01 0.25937953726E+01 0.24901540418E+01
 0.24592496052E+01 0.24901828798E+01 0.25938260603E+01 0.27995701067E+01 0.31443193428E+01
 0.36516976866E+01 0.43055683452E+01 0.50406485318E+01 0.11045642393E+02 0.15478464404E+02
 0.19668630419E+02 0.22220939278E+02 0.22220904675E+02 0.19668534652E+02 0.15478339534E+02
 0.11045543212E+02 0.75903017062E+01 0.55907114824E+01 0.45700690012E+01 0.37757768701E+01
 0.31797211524E+01 0.27951766602E+01 0.25818181227E+01 0.24901774721E+01 0.24901828798E+01
 0.25818291568E+01 0.27951825200E+01 0.31797110753E+01 0.37757443150E+01 0.45700220370E+01
 0.55906841150E+01 0.75903345325E+01 0.23653394578E+02 0.32180616982E+02 0.38665896775E+02
 0.41090093473E+02 0.38665824672E+02 0.32180496162E+02 0.23653272918E+02 0.15478339534E+02
 0.94599804855E+01 0.61504040899E+01 0.47400414647E+01 0.38420104343E+01 0.31922176161E+01
 0.27951620998E+01 0.25938061306E+01 0.25335487193E+01 0.25938260603E+01 0.27951825200E+01
 0.31922210600E+01 0.38419930953E+01 0.47400093766E+01 0.61503763663E+01 0.94599904243E+01
 0.15478412440E+02 0.46396067537E+02 0.58915181837E+02 0.66269265853E+02 0.66269234786E+02
 0.58915105328E+02 0.46395986676E+02 0.32180496162E+02 0.19668534652E+02 0.11011469524E+02
 0.65194867713E+01 0.47987956834E+01 0.38419950144E+01 0.31796902393E+01 0.27995342110E+01
 0.26334189216E+01 0.26334374656E+01 0.27995701067E+01 0.31797110753E+01 0.38419930953E+01
 0.47987831288E+01 0.65194708281E+01 0.11011455072E+02 0.19668540821E+02 0.32180543410E+02
 0.78890974634E+02 0.93641955973E+02 0.99086982856E+02 0.93641952314E+02 0.78890967776E+02
 0.58915105328E+02 0.38665824672E+02 0.22220904675E+02 0.11615074353E+02 0.65194894360E+01
 0.47400148596E+01 0.37757362007E+01 0.31442980749E+01 0.28122171637E+01 0.27110996240E+01
 0.28122373839E+01 0.31443193428E+01 0.37757443150E+01 0.47400093766E+01 0.65194708281E+01
 0.11615042013E+02 0.22220869572E+02 0.38665804726E+02 0.58915104888E+02 0.11720140035E+03
 0.13089558251E+03 0.13089560385E+03 0.11720144570E+03 0.93641952314E+02 0.66269234786E+02
 0.41090093473E+02 0.22220939278E+02 0.11011517255E+02 0.61504109087E+01 0.45700290777E+01
 0.36516890709E+01 0.30931494017E+01 0.28416878933E+01 0.28416932720E+01 0.30931613700E+01
 0.36516976866E+01 0.45700220370E+01 0.61503763663E+01 0.11011455072E+02 0.22220869572E+02
 0.41090040079E+02 0.66269197254E+02 0.93641911177E+02 0.15419927284E+03 0.16277694837E+03
 0.15419927801E+03 0.13089560385E+03 0.99086982856E+02 0.66269265853E+02 0.38665896775E+02
 0.19668630419E+02 0.94600553077E+01 0.55907174018E+01 0.43055733412E+01 0.34870539829E+01
 0.30387985243E+01 0.28997952997E+01 0.30388134080E+01 0.34870675492E+01 0.43055683452E+01
 0.55906841150E+01 0.94599904243E+01 0.19668540821E+02 0.38665804726E+02 0.66269197254E+02
 0.99086946306E+02 0.13089558915E+03 0.18127177294E+03 0.18127175361E+03 0.16277694837E+03
 0.13089558251E+03 0.93641955973E+02 0.58915181837E+02 0.32180616982E+02 0.15478464404E+02
 0.75903674307E+01 0.50406650019E+01 0.39780432322E+01 0.33062413096E+01 0.29970053622E+01
 0.29970149400E+01 0.33062579400E+01 0.39780466136E+01 0.50406485318E+01 0.75903345325E+01
 0.15478412440E+02 0.32180543410E+02 0.58915104888E+02 0.93641911177E+02 0.13089558915E+03
 0.16277698391E+03 0.18127176956E+03 0.16277697842E+03 0.13089558580E+03 0.93641910162E+02
 0.58915103783E+02 0.32180543006E+02 0.15478415095E+02 0.75903385027E+01 0.50406501065E+01
 0.39780463024E+01 0.33062586798E+01 0.29970159655E+01 0.29970038542E+01 0.33062383389E+01
 0.39780420224E+01 0.50406650187E+01 0.75903661767E+01 0.15478463273E+02 0.32180619220E+02
 0.58915186323E+02 0.93641958961E+02 0.13089558382E+03 0.16277694999E+03 0.18127175412E+03
 0.16277697842E+03 0.13812384579E+03 0.10454104225E+03 0.69958013468E+02 0.40879003922E+02
 0.20801965672E+02 0.99125302322E+01 0.57202807873E+01 0.43752734707E+01 0.35370957296E+01
 0.30751044303E+01 0.29314192325E+01 0.30751017958E+01 0.35370915806E+01 0.43752672463E+01
 0.57202822993E+01 0.99125672925E+01 0.20802055921E+02 0.40879118273E+02 0.69958092700E+02
 0.10454105460E+03 0.13812381315E+03 0.16277694693E+03 0.17186249985E+03 0.13089558580E+03
 0.10454104225E+03 0.74023456115E+02 0.45990845579E+02 0.24899299988E+02 0.12192423008E+02
 0.65253051385E+01 0.47161848319E+01 0.37589196671E+01 0.31677465704E+01 0.28994942593E+01
 0.28994995986E+01 0.31677560965E+01 0.37589187741E+01 0.47161677916E+01 0.65252911400E+01
 0.12192439455E+02 0.24899345539E+02 0.45990888523E+02 0.74023476670E+02 0.10454105347E+03
 0.13089560114E+03 0.14625930601E+03 0.14625929721E+03 0.93641910162E+02 0.69958013468E+02
 0.45990845579E+02 0.26437037269E+02 0.13607416658E+02 0.72152839364E+01 0.49663436827E+01
 0.39410119076E+01 0.32567331266E+01 0.28920620376E+01 0.27803287450E+01 0.28920622807E+01
 0.32567388733E+01 0.39410122987E+01 0.49663162526E+01 0.72152261190E+01 0.13607353027E+02
 0.26436994006E+02 0.45990834216E+02 0.69958036105E+02 0.93641957033E+02 0.11119266945E+03
 0.11768704553E+03 0.11119262945E+03 0.58915103783E+02 0.40879003922E+02 0.24899299988E+02
 0.13607416658E+02 0.74890161687E+01 0.51096267003E+01 0.40595223027E+01 0.33253152424E+01
 0.28966575162E+01 0.27076527149E+01 0.27076514141E+01 0.28966609775E+01 0.33253237527E+01
 0.40595085217E+01 0.51095640237E+01 0.74889185604E+01 0.13607327094E+02 0.24899247281E+02
 0.40878987438E+02 0.58915109383E+02 0.74804242400E+02 0.84158129677E+02 0.84158122992E+02
 0.74804229233E+02 0.32180543006E+02 0.20801965672E+02 0.12192423008E+02 0.72152839364E+01
 0.51096267003E+01 0.41005118483E+01 0.33622325580E+01 0.29031072790E+01 0.26681671369E+01
 0.25975390730E+01 0.26681773909E+01 0.29031220720E+01 0.33622357387E+01 0.41004883607E+01
 0.51095801261E+01 0.72152299298E+01 0.12192367864E+02 0.20801906198E+02 0.32180485700E+02
 0.43919261146E+02 0.52821007251E+02 0.56147933580E+02 0.52821024376E+02 0.43919301056E+02
 0.15478415095E+02 0.99125302322E+01 0.65253051385E+01 0.49663436827E+01 0.40595223027E+01
 0.33622325580E+01 0.29058085602E+01 0.26511963071E+01 0.25415822851E+01 0.25415863660E+01
 0.26512091761E+01 0.29058296644E+01 0.33622578518E+01 0.40595467673E+01 0.49663580553E+01
 0.65252914835E+01 0.99124758325E+01 0.15478333930E+02 0.22362245591E+02 0.28751603141E+02
 0.32614178818E+02 0.32614189076E+02 0.28751641952E+02 0.22362317450E+02 0.75903385027E+01
 0.57202807873E+01 0.47161848319E+01 0.39410119076E+01 0.33253152424E+01 0.29031072790E+01
 0.26511963071E+01 0.25247570313E+01 0.24871197123E+01 0.25247458598E+01 0.26511982036E+01
 0.29031412447E+01 0.33253746412E+01 0.39410718697E+01 0.47162209244E+01 0.57202778210E+01
 0.75902973492E+01 0.10514168606E+02 0.13888112589E+02 0.16614529511E+02 0.17662923886E+02
 0.16614560147E+02 0.13888167660E+02 0.10514229611E+02 0.50406501065E+01 0.43752734707E+01
 0.37589196671E+01 0.32567331266E+01 0.28966575162E+01 0.26681671369E+01 0.25415822851E+01
 0.24871197123E+01 0.24870989148E+01 0.25415403537E+01 0.26681446019E+01 0.28966767929E+01
 0.32567854227E+01 0.37589793403E+01 0.43753173174E+01 0.50406639220E+01 0.58805095932E+01
 0.70491932154E+01 0.82780369986E+01 0.90769242930E+01 0.90769401742E+01 0.82780758873E+01
 0.70492334629E+01 0.58805288094E+01 0.39780463024E+01 0.35370957296E+01 0.31677465704E+01
 0.28920620376E+01 0.27076527149E+01 0.25975390730E+01 0.25415863660E+01 0.25247458598E+01
 0.25415403537E+01 0.25974724603E+01 0.27076008793E+01 0.28920488840E+01 0.31677714986E+01
 0.35371364083E+01 0.39780765339E+01 0.44435782737E+01 0.48743018610E+01 0.52541083181E+01
 0.55602293609E+01 0.56822629201E+01 0.55602327699E+01 0.52541156575E+01 0.48743073062E+01
 0.44435693105E+01 0.33062586798E+01 0.30751044303E+01 0.28994942593E+01 0.27803287450E+01
 0.27076514141E+01 0.26681773909E+01 0.26512091761E+01 0.26511982036E+01 0.26681446019E+01
 0.27076008793E+01 0.27802730011E+01 0.28994489777E+01 0.30750790747E+01 0.33062533865E+01
 0.35763990437E+01 0.38548439313E+01 0.41044529196E+01 0.42911308183E+01 0.43905452994E+01
 0.43905367040E+01 0.42911090559E+01 0.41044273127E+01 0.38548232073E+01 0.35763889532E+01
 0.29970159655E+01 0.29314192325E+01 0.28994995986E+01 0.28920622807E+01 0.28966609775E+01
 0.29031220720E+01 0.29058296644E+01 0.29031412447E+01 0.28966767929E+01 0.28920488840E+01
 0.28994489777E+01 0.29313478696E+01 0.29969553269E+01 0.30964464726E+01 0.32188017167E+01
 0.33447200687E+01 0.34527147974E+01 0.35249114324E+01 0.35501963171E+01 0.35248939253E+01
 0.34526800442E+01 0.33446804729E+01 0.32187832507E+01 0.30964694743E+01 0.29970038542E+01
 0.30751017958E+01 0.31677560965E+01 0.32567388733E+01 0.33253237527E+01 0.33622357387E+01
 0.33622578518E+01 0.33253746412E+01 0.32567854227E+01 0.31677714986E+01 0.30750790747E+01
 0.29969553269E+01 0.29469004501E+01 0.29286786954E+01 0.29358065986E+01 0.29557764242E+01
 0.29760523003E+01 0.29881009098E+01 0.29880874920E+01 0.29760185254E+01 0.29557413849E+01
 0.29357946540E+01 0.29287023786E+01 0.29469495737E+01 0.33062383389E+01 0.35370915806E+01
 0.37589187741E+01 0.39410122987E+01 0.40595085217E+01 0.41004883607E+01 0.40595467673E+01
 0.39410718697E+01 0.37589793403E+01 0.35371364083E+01 0.33062533865E+01 0.30964464726E+01
 0.29286786954E+01 0.28099732118E+01 0.27350083909E+01 0.26924029267E+01 0.26713153617E+01
 0.26649953142E+01 0.26712910527E+01 0.26923744118E+01 0.27350015966E+01 0.28099971561E+01
 0.29287152633E+01 0.30964654781E+01 0.39780420224E+01 0.43752672463E+01 0.47161677916E+01
 0.49663162526E+01 0.51095640237E+01 0.51095801261E+01 0.49663580553E+01 0.47162209244E+01
 0.43753173174E+01 0.39780765339E+01 0.35763990437E+01 0.32188017167E+01 0.29358065986E+01
 0.27350083909E+01 0.26067170974E+01 0.25341720726E+01 0.25022025334E+01 0.25022067772E+01
 0.25341790037E+01 0.26067196996E+01 0.27350105314E+01 0.29358139066E+01 0.32188066318E+01
 0.35763870036E+01 0.50406650187E+01 0.57202822993E+01 0.65252911400E+01 0.72152261190E+01
 0.74889185604E+01 0.72152299298E+01 0.65252914835E+01 0.57202778210E+01 0.50406639220E+01
 0.44435782737E+01 0.38548439313E+01 0.33447200687E+01 0.29557764242E+01 0.26924029267E+01
 0.25341720726E+01 0.24536162492E+01 0.24294076151E+01 0.24536448555E+01 0.25342027960E+01
 0.26924128793E+01 0.29557653836E+01 0.33447004122E+01 0.38548267914E+01 0.44435696385E+01
 0.75903661767E+01 0.99125672925E+01 0.12192439455E+02 0.13607353027E+02 0.13607327094E+02
 0.12192367864E+02 0.99124758325E+01 0.75902973492E+01 0.58805095932E+01 0.48743018610E+01
 0.41044529196E+01 0.34527147974E+01 0.29760523003E+01 0.26713153617E+01 0.25022025334E+01
 0.24294076151E+01 0.24294174654E+01 0.25022267685E+01 0.26713419556E+01 0.29760667512E+01
 0.34527051152E+01 0.41044214768E+01 0.48742757046E+01 0.58805259807E+01 0.15478463273E+02
 0.20802055921E+02 0.24899345539E+02 0.26436994006E+02 0.24899247281E+02 0.20801906198E+02
 0.15478333930E+02 0.10514168606E+02 0.70491932154E+01 0.52541083181E+01 0.42911308183E+01
 0.35249114324E+01 0.29881009098E+01 0.26649953142E+01 0.25022067772E+01 0.24536448555E+01
 0.25022267685E+01 0.26650248917E+01 0.29881256715E+01 0.35249163845E+01 0.42911058574E+01
 0.52540661852E+01 0.70491776256E+01 0.10514224510E+02 0.32180619220E+02 0.40879118273E+02
 0.45990888523E+02 0.45990834216E+02 0.40878987438E+02 0.32180485700E+02 0.22362245591E+02
 0.13888112589E+02 0.82780369986E+01 0.55602293609E+01 0.43905452994E+01 0.35501963171E+01
 0.29880874920E+01 0.26712910527E+01 0.25341790037E+01 0.25342027960E+01 0.26713419556E+01
 0.29881256715E+01 0.35501982555E+01 0.43905110754E+01 0.55601726409E+01 0.82779848682E+01
 0.13888106535E+02 0.22362317033E+02 0.58915186323E+02 0.69958092700E+02 0.74023476670E+02
 0.69958036105E+02 0.58915109383E+02 0.43919261146E+02 0.28751603141E+02 0.16614529511E+02
 0.90769242930E+01 0.56822629201E+01 0.43905367040E+01 0.35248939253E+01 0.29760185254E+01
 0.26923744118E+01 0.26067196996E+01 0.26924128793E+01 0.29760667512E+01 0.35249163845E+01
 0.43905110754E+01 0.56821883422E+01 0.90768241670E+01 0.16614447836E+02 0.28751581149E+02
 0.43919305946E+02 0.93641958961E+02 0.10454105460E+03 0.10454105347E+03 0.93641957033E+02
 0.74804242400E+02 0.52821007251E+02 0.32614178818E+02 0.17662923886E+02 0.90769401742E+01
 0.55602327699E+01 0.42911090559E+01 0.34526800442E+01 0.29557413849E+01 0.27350015966E+01
 0.27350105314E+01 0.29557653836E+01 0.34527051152E+01 0.42911058574E+01 0.55601726409E+01
 0.90768241670E+01 0.17662791927E+02 0.32614080261E+02 0.52820961696E+02 0.74804233326E+02
 0.13089558382E+03 0.13812381315E+03 0.13089560114E+03 0.11119266945E+03 0.84158129677E+02
 0.56147933580E+02 0.32614189076E+02 0.16614560147E+02 0.82780758873E+01 0.52541156575E+01
 0.41044273127E+01 0.33446804729E+01 0.29357946540E+01 0.28099971561E+01 0.29358139066E+01
 0.33447004122E+01 0.41044214768E+01 0.52540661852E+01 0.82779848682E+01 0.16614447836E+02
 0.32614080261E+02 0.56147845382E+02 0.84158067718E+02 0.11119263178E+03 0.16277694999E+03
 0.16277694693E+03 0.14625930601E+03 0.11768704553E+03 0.84158122992E+02 0.52821024376E+02
 0.28751641952E+02 0.13888167660E+02 0.70492334629E+01 0.48743073062E+01 0.38548232073E+01
 0.32187832507E+01 0.29287023786E+01 0.29287152633E+01 0.32188066318E+01 0.38548267914E+01
 0.48742757046E+01 0.70491776256E+01 0.13888106535E+02 0.28751581149E+02 0.52820961696E+02
 0.84158067718E+02 0.11768701523E+03 0.14625930218E+03 0.18127175412E+03 0.17186249985E+03
 0.14625929721E+03 0.11119262945E+03 0.74804229233E+02 0.43919301056E+02 0.22362317450E+02
 0.10514229611E+02 0.58805288094E+01 0.44435693105E+01 0.35763889532E+01 0.30964694743E+01
 0.29469495737E+01 0.30964654781E+01 0.35763870036E+01 0.44435696385E+01 0.58805259807E+01
 0.10514224510E+02 0.22362317033E+02 0.43919305946E+02 0.74804233326E+02 0.11119263178E+03
 0.14625930218E+03 0.17186250585E+03 0.15419926535E+03 0.13089558169E+03 0.99086945297E+02
 0.66269200035E+02 0.38665805884E+02 0.19668542417E+02 0.94599960416E+01 0.55906894403E+01
 0.43055679409E+01 0.34870647688E+01 0.30388136631E+01 0.28997958405E+01 0.30387947832E+01
 0.34870495516E+01 0.43055735963E+01 0.55907195934E+01 0.94600549034E+01 0.19668630772E+02
 0.38665902392E+02 0.66269272422E+02 0.99086984015E+02 0.13089560166E+03 0.15419927700E+03
 0.16277694588E+03 0.13089558169E+03 0.10454104027E+03 0.74023458459E+02 0.45990849375E+02
 0.24899302251E+02 0.12192425008E+02 0.65253081015E+01 0.47161861869E+01 0.37589176880E+01
 0.31677441012E+01 0.28994937745E+01 0.28994991139E+01 0.31677538634E+01 0.37589173136E+01
 0.47161692565E+01 0.65252933148E+01 0.12192440305E+02 0.24899347023E+02 0.45990891902E+02
 0.74023478752E+02 0.10454105164E+03 0.13089559764E+03 0.14625930338E+03 0.14625929421E+03
 0.99086945297E+02 0.74023458459E+02 0.48686835792E+02 0.27998691827E+02 0.14359325866E+02
 0.74865192959E+01 0.50477588309E+01 0.39985919938E+01 0.32962668869E+01 0.29201245956E+01
 0.28046213241E+01 0.29201367168E+01 0.32962840865E+01 0.39985895181E+01 0.50477092980E+01
 0.74864265661E+01 0.14359226546E+02 0.27998622067E+02 0.48686809730E+02 0.74023474289E+02
 0.99086988331E+02 0.11768704999E+03 0.12457620714E+03 0.11768701260E+03 0.66269200035E+02
 0.45990849375E+02 0.27998691827E+02 0.15182733420E+02 0.81035009839E+01 0.52929967200E+01
 0.41750785279E+01 0.34039813837E+01 0.29491460804E+01 0.27475230228E+01 0.27475290588E+01
 0.29491663323E+01 0.34040023744E+01 0.41750545661E+01 0.52928858846E+01 0.81033178716E+01
 0.15182547656E+02 0.27998575953E+02 0.45990833011E+02 0.66269260540E+02 0.84158148367E+02
 0.94707386921E+02 0.94707351488E+02 0.84158069188E+02 0.38665805884E+02 0.24899302251E+02
 0.14359325866E+02 0.81035009839E+01 0.53878731161E+01 0.42680223966E+01 0.34748616943E+01
 0.29746984919E+01 0.27168715762E+01 0.26390996141E+01 0.27169091251E+01 0.29747426605E+01
 0.34748634856E+01 0.42679461751E+01 0.53877261595E+01 0.81033312890E+01 0.14359190079E+02
 0.24899237843E+02 0.38665819508E+02 0.52821022095E+02 0.63557733766E+02 0.67573699188E+02
 0.63557678947E+02 0.52820959866E+02 0.19668542417E+02 0.12192425008E+02 0.74865192959E+01
 0.52929967200E+01 0.42680223966E+01 0.34994984335E+01 0.29891414351E+01 0.27025324662E+01
 0.25787392927E+01 0.25787662463E+01 0.27025904237E+01 0.29891815316E+01 0.34994862135E+01
 0.42679624679E+01 0.52929194860E+01 0.74864515388E+01 0.12192378233E+02 0.19668521514E+02
 0.28751585028E+02 0.37120876892E+02 0.42168854191E+02 0.42168842487E+02 0.37120855151E+02
 0.28751578259E+02 0.94599960416E+01 0.65253081015E+01 0.50477588309E+01 0.41750785279E+01
 0.34748616943E+01 0.29891414351E+01 0.26984043603E+01 0.25524784782E+01 0.25090532124E+01
 0.25525011323E+01 0.26984453712E+01 0.29891895564E+01 0.34749015071E+01 0.41751000810E+01
 0.50477634471E+01 0.65253036090E+01 0.94599895759E+01 0.13888103631E+02 0.18865817969E+02
 0.22835027557E+02 0.24353287885E+02 0.22835030907E+02 0.18865823379E+02 0.13888109915E+02
 0.55906894403E+01 0.47161861869E+01 0.39985919938E+01 0.34039813837E+01 0.29746984919E+01
 0.27025324662E+01 0.25524784782E+01 0.24882245294E+01 0.24882202440E+01 0.25524776422E+01
 0.27025572282E+01 0.29747558735E+01 0.34040542864E+01 0.39986550708E+01 0.47162267520E+01
 0.55907085998E+01 0.70491866159E+01 0.91173840268E+01 0.11235363026E+02 0.12587572810E+02
 0.12587580229E+02 0.11235378601E+02 0.91173944875E+01 0.70491840819E+01 0.43055679409E+01
 0.37589176880E+01 0.32962668869E+01 0.29491460804E+01 0.27168715762E+01 0.25787392927E+01
 0.25090532124E+01 0.24882202440E+01 0.25090272693E+01 0.25787024105E+01 0.27168505370E+01
 0.29491640197E+01 0.32963239620E+01 0.37589879065E+01 0.43056196706E+01 0.48742931036E+01
 0.54807096281E+01 0.61925555445E+01 0.68171384120E+01 0.70690498642E+01 0.68171609043E+01
 0.61925853483E+01 0.54807250232E+01 0.48742765543E+01 0.34870647688E+01 0.31677441012E+01
 0.29201245956E+01 0.27475230228E+01 0.26390996141E+01 0.25787662463E+01 0.25525011323E+01
 0.25524776422E+01 0.25787024105E+01 0.26390185376E+01 0.27474607375E+01 0.29201076942E+01
 0.31677692026E+01 0.34871035543E+01 0.38548478345E+01 0.42299285019E+01 0.45635261704E+01
 0.48119963554E+01 0.49490916564E+01 0.49491029898E+01 0.48120222333E+01 0.45635485772E+01
 0.42299308609E+01 0.38548239942E+01 0.30388136631E+01 0.28994937745E+01 0.28046213241E+01
 0.27475290588E+01 0.27169091251E+01 0.27025904237E+01 0.26984453712E+01 0.27025572282E+01
 0.27168505370E+01 0.27474607375E+01 0.28045600055E+01 0.28994479063E+01 0.30387850477E+01
 0.32187977623E+01 0.34230786388E+01 0.36254937809E+01 0.37966460259E+01 0.39107889233E+01
 0.39508170691E+01 0.39107912632E+01 0.37966428155E+01 0.36254840543E+01 0.34230733868E+01
 0.32188080966E+01 0.28997958405E+01 0.28994991139E+01 0.29201367168E+01 0.29491663323E+01
 0.29747426605E+01 0.29891815316E+01 0.29891895564E+01 0.29747558735E+01 0.29491640197E+01
 0.29201076942E+01 0.28994479063E+01 0.28997374799E+01 0.29286738316E+01 0.29848918757E+01
 0.30578335045E+01 0.31316402935E+01 0.31905475204E+01 0.32229326854E+01 0.32229236442E+01
 0.31905218659E+01 0.31316077601E+01 0.30578151870E+01 0.29849057467E+01 0.29287187748E+01
 0.30387947832E+01 0.31677538634E+01 0.32962840865E+01 0.34040023744E+01 0.34748634856E+01
 0.34994862135E+01 0.34749015071E+01 0.34040542864E+01 0.32963239620E+01 0.31677692026E+01
 0.30387850477E+01 0.29286738316E+01 0.28495251168E+01 0.28030074276E+01 0.27820255448E+01
 0.27759199014E+01 0.27756343440E+01 0.27760357635E+01 0.27756059483E+01 0.27758790402E+01
 0.27819970649E+01 0.28030078617E+01 0.28495490209E+01 0.29287001455E+01 0.34870495516E+01
 0.37589173136E+01 0.39985895181E+01 0.41750545661E+01 0.42679461751E+01 0.42679624679E+01
 0.41751000810E+01 0.39986550708E+01 0.37589879065E+01 0.34871035543E+01 0.32187977623E+01
 0.29848918757E+01 0.28030074276E+01 0.26756031334E+01 0.25945255014E+01 0.25482525706E+01
 0.25274925967E+01 0.25274794808E+01 0.25482199538E+01 0.25944926655E+01 0.26755908260E+01
 0.28030175822E+01 0.29849007746E+01 0.32187777939E+01 0.43055735963E+01 0.47161692565E+01
 0.50477092980E+01 0.52928858846E+01 0.53877261595E+01 0.52929194860E+01 0.50477634471E+01
 0.47162267520E+01 0.43056196706E+01 0.38548478345E+01 0.34230786388E+01 0.30578335045E+01
 0.27820255448E+01 0.25945255014E+01 0.24801055458E+01 0.24205570645E+01 0.24023432189E+01
 0.24205498897E+01 0.24800905390E+01 0.25945092517E+01 0.27820184770E+01 0.30578347137E+01
 0.34230733868E+01 0.38548227226E+01 0.55907195934E+01 0.65252933148E+01 0.74864265661E+01
 0.81033178716E+01 0.81033312890E+01 0.74864515388E+01 0.65253036090E+01 0.55907085998E+01
 0.48742931036E+01 0.42299285019E+01 0.36254937809E+01 0.31316402935E+01 0.27759199014E+01
 0.25482525706E+01 0.24205570645E+01 0.23649515656E+01 0.23649571798E+01 0.24205690779E+01
 0.25482613942E+01 0.27759204590E+01 0.31316346973E+01 0.36254904097E+01 0.42299358330E+01
 0.48743098090E+01 0.94600549034E+01 0.12192440305E+02 0.14359226546E+02 0.15182547656E+02
 0.14359190079E+02 0.12192378233E+02 0.94599895759E+01 0.70491866159E+01 0.54807096281E+01
 0.45635261704E+01 0.37966460259E+01 0.31905475204E+01 0.27756343440E+01 0.25274925967E+01
 0.24023432189E+01 0.23649571798E+01 0.24023647303E+01 0.25275239149E+01 0.27756608539E+01
 0.31905598185E+01 0.37966448982E+01 0.45635235539E+01 0.54807250232E+01 0.70492314839E+01
 0.19668630772E+02 0.24899347023E+02 0.27998622067E+02 0.27998575953E+02 0.24899237843E+02
 0.19668521514E+02 0.13888103631E+02 0.91173840268E+01 0.61925555445E+01 0.48119963554E+01
 0.39107889233E+01 0.32229326854E+01 0.27760357635E+01 0.25274794808E+01 0.24205498897E+01
 0.24205690779E+01 0.25275239149E+01 0.27760781511E+01 0.32229533512E+01 0.39107837306E+01
 0.48119726331E+01 0.61925318072E+01 0.91173895154E+01 0.13888164043E+02 0.38665902392E+02
 0.45990891902E+02 0.48686809730E+02 0.45990833011E+02 0.38665819508E+02 0.28751585028E+02
 0.18865817969E+02 0.11235363026E+02 0.68171384120E+01 0.49490916564E+01 0.39508170691E+01
 0.32229236442E+01 0.27756059483E+01 0.25482199538E+01 0.24800905390E+01 0.25482613942E+01
 0.27756608539E+01 0.32229533512E+01 0.39507967351E+01 0.49490263006E+01 0.68170603237E+01
 0.11235312829E+02 0.18865823379E+02 0.28751644915E+02 0.66269272422E+02 0.74023478752E+02
 0.74023474289E+02 0.66269260540E+02 0.52821022095E+02 0.37120876892E+02 0.22835027557E+02
 0.12587572810E+02 0.70690498642E+01 0.49491029898E+01 0.39107912632E+01 0.31905218659E+01
 0.27758790402E+01 0.25944926655E+01 0.25945092517E+01 0.27759204590E+01 0.31905598185E+01
 0.39107837306E+01 0.49490263006E+01 0.70689263456E+01 0.12587456678E+02 0.22834960303E+02