   1   1   1   0
  0.1371800E+02  0.2687006E-09  0.2687006E-09  0.2687006E-09  0.5000000E-15
  1.000000000000000E-004
  CAR 
 fcc Ni                                  
     48.37741244     -3.45500457  301      6.46403550      1.00000000
     -3.455  0.0000E+00  0.0000E+00  0.0000E+00  0.0000E+00
     -3.282  0.0000E+00  0.0000E+00  0.0000E+00  0.0000E+00
     -3.109  0.0000E+00  0.0000E+00  0.0000E+00  0.0000E+00
     -2.937  0.0000E+00  0.0000E+00  0.0000E+00  0.0000E+00
     -2.764 -0.3257E-34 -0.8184E-32 -0.5628E-35 -0.1414E-32
     -2.591 -0.4319E-28 -0.6132E-26 -0.7462E-29 -0.1060E-26
     -2.418 -0.1272E-22 -0.1019E-20 -0.2197E-23 -0.1761E-21
     -2.246 -0.8285E-18 -0.3621E-16 -0.1431E-18 -0.6257E-17
     -2.073 -0.1146E-13 -0.2894E-12 -0.1979E-14 -0.5000E-13
     -1.900 -0.3534E-10 -0.4978E-09 -0.6108E-11 -0.8607E-10
     -1.727 -0.2319E-07 -0.1798E-06 -0.4014E-08 -0.3116E-07
     -1.554 -0.3088E-05 -0.1272E-04 -0.5376E-06 -0.2228E-05
     -1.382 -0.7176E-04 -0.1345E-03 -0.1294E-04 -0.2547E-04
     -1.209 -0.8938E-04  0.1776E-03 -0.2838E-04  0.5209E-05
     -1.036  0.7989E-03  0.1494E-02  0.1097E-03  0.2634E-03
     -0.863  0.7499E-02  0.1668E-01  0.1405E-02  0.3145E-02
     -0.691  0.3371E-01  0.3593E-01  0.7229E-02  0.9354E-02
     -0.518  0.2251E-01  0.1429E-01  0.1112E-01  0.1182E-01
     -0.345  0.1802E-01  0.2650E-01  0.1423E-01  0.1640E-01
     -0.172  0.4160E-01  0.5467E-01  0.2142E-01  0.2585E-01
      0.000  0.8376E-01  0.8578E-01  0.3589E-01  0.4067E-01
      0.173  0.5036E-01  0.2512E-01  0.4459E-01  0.4501E-01
      0.346  0.5145E-02  0.7444E-02  0.4548E-01  0.4630E-01
      0.519  0.3328E-01  0.5780E-01  0.5123E-01  0.5628E-01
      0.692  0.1180E+00  0.1253E+00  0.7161E-01  0.7793E-01
      0.864  0.8340E-01  0.5911E-01  0.8602E-01  0.8814E-01
      1.037  0.6133E-01  0.6896E-01  0.9661E-01  0.1001E+00
      1.210  0.9594E-01  0.9880E-01  0.1132E+00  0.1171E+00
      1.383  0.7366E-01  0.5677E-01  0.1259E+00  0.1269E+00
      1.555  0.1189E-01  0.1040E-01  0.1280E+00  0.1287E+00
      1.728  0.1014E+00  0.1052E+00  0.1455E+00  0.1469E+00
      1.901  0.2223E+00  0.2192E+00  0.1839E+00  0.1848E+00
      2.074  0.1119E+00  0.9232E-01  0.2032E+00  0.2007E+00
      2.247  0.1549E+00  0.1160E+00  0.2300E+00  0.2208E+00
      2.419  0.1141E+00  0.1403E+00  0.2497E+00  0.2450E+00
      2.592  0.9236E-01  0.5885E-01  0.2656E+00  0.2552E+00
      2.765  0.3765E+00  0.1084E+00  0.3307E+00  0.2739E+00
      2.938  0.4669E+00  0.2836E+00  0.4113E+00  0.3229E+00
      3.110  0.5781E+00  0.3476E+00  0.5112E+00  0.3830E+00
      3.283  0.6446E+00  0.3409E+00  0.6226E+00  0.4419E+00
      3.456  0.9505E+00  0.4030E+00  0.7868E+00  0.5115E+00
      3.629  0.1322E+01  0.4961E+00  0.1015E+01  0.5972E+00
      3.802  0.1215E+01  0.6799E+00  0.1225E+01  0.7147E+00
      3.974  0.1161E+01  0.7112E+00  0.1426E+01  0.8376E+00
      4.147  0.1256E+01  0.9666E+00  0.1643E+01  0.1005E+01
      4.320  0.1649E+01  0.1118E+01  0.1928E+01  0.1198E+01
      4.493  0.1818E+01  0.1141E+01  0.2242E+01  0.1395E+01
      4.665  0.2186E+01  0.1062E+01  0.2619E+01  0.1578E+01
      4.838  0.2242E+01  0.1359E+01  0.3007E+01  0.1813E+01
      5.011  0.1600E+01  0.1601E+01  0.3283E+01  0.2090E+01
      5.184  0.1432E+01  0.1790E+01  0.3531E+01  0.2399E+01
      5.357  0.2010E+01  0.2096E+01  0.3878E+01  0.2761E+01
      5.529  0.1870E+01  0.1984E+01  0.4201E+01  0.3104E+01
      5.702  0.2266E+01  0.1491E+01  0.4593E+01  0.3361E+01
      5.875  0.2800E+01  0.1561E+01  0.5076E+01  0.3631E+01
      6.048  0.1235E+01  0.1905E+01  0.5290E+01  0.3960E+01
      6.220 -0.2635E-01  0.1558E+01  0.5285E+01  0.4229E+01
      6.393  0.4615E-01  0.1702E+01  0.5293E+01  0.4523E+01
      6.566  0.3021E+00  0.2507E+01  0.5345E+01  0.4957E+01
      6.739  0.3844E+00  0.1733E+01  0.5412E+01  0.5256E+01
      6.911  0.1625E+00  0.2446E+00  0.5440E+01  0.5298E+01
      7.084  0.8779E-01  0.1721E+00  0.5455E+01  0.5328E+01
      7.257  0.7670E-01  0.4379E+00  0.5468E+01  0.5404E+01
      7.430  0.1288E+00  0.2512E+00  0.5491E+01  0.5447E+01
      7.603  0.1107E+00  0.1363E+00  0.5510E+01  0.5471E+01
      7.775  0.1856E+00  0.1697E+00  0.5542E+01  0.5500E+01
      7.948  0.3139E+00  0.8775E-01  0.5596E+01  0.5515E+01
      8.121  0.1722E+00  0.1083E+00  0.5626E+01  0.5534E+01
      8.294  0.1149E+00  0.3518E+00  0.5646E+01  0.5595E+01
      8.466  0.1396E+00  0.1987E+00  0.5670E+01  0.5629E+01
      8.639  0.1236E+00  0.1148E+00  0.5691E+01  0.5649E+01
      8.812  0.1911E+00  0.1646E+00  0.5724E+01  0.5677E+01
      8.985  0.6217E-01  0.2054E+00  0.5735E+01  0.5713E+01
      9.158  0.6150E-01  0.1561E+00  0.5745E+01  0.5740E+01
      9.330  0.5289E-01  0.8075E-01  0.5755E+01  0.5754E+01
      9.503  0.9874E-01  0.1366E-01  0.5772E+01  0.5756E+01
      9.676  0.2799E+00  0.5244E-01  0.5820E+01  0.5765E+01
      9.849  0.2481E+00  0.2592E+00  0.5863E+01  0.5810E+01
     10.021  0.1515E-01  0.2743E+00  0.5865E+01  0.5857E+01
     10.194  0.7521E-01  0.4664E-01  0.5878E+01  0.5865E+01
     10.367  0.1152E+00  0.4535E-01  0.5898E+01  0.5873E+01
     10.540  0.4672E-01  0.1311E+00  0.5906E+01  0.5896E+01
     10.713  0.1382E+00  0.9946E-01  0.5930E+01  0.5913E+01
     10.885  0.1201E+00  0.1123E+00  0.5951E+01  0.5932E+01
     11.058  0.1844E+00  0.4756E-01  0.5983E+01  0.5941E+01
     11.231  0.1602E+00  0.1883E+00  0.6011E+01  0.5973E+01
     11.404  0.1015E+00  0.1641E+00  0.6028E+01  0.6001E+01
     11.576  0.2211E+00  0.8323E-01  0.6066E+01  0.6016E+01
     11.749  0.1500E+00  0.1867E+00  0.6092E+01  0.6048E+01
     11.922  0.3813E-01  0.2283E+00  0.6099E+01  0.6087E+01
     12.095  0.5644E-01  0.7778E-01  0.6109E+01  0.6101E+01
     12.267  0.1182E+00  0.2530E-01  0.6129E+01  0.6105E+01
     12.440  0.2361E+00  0.1307E+00  0.6170E+01  0.6128E+01
     12.613  0.3047E+00  0.2749E+00  0.6222E+01  0.6175E+01
     12.786  0.1492E+00  0.3035E+00  0.6248E+01  0.6228E+01
     12.959  0.5052E-01  0.1177E+00  0.6257E+01  0.6248E+01
     13.131  0.2907E+00  0.7425E-01  0.6307E+01  0.6261E+01
     13.304  0.1906E+00  0.2864E+00  0.6340E+01  0.6310E+01
     13.477  0.1849E-01  0.1701E+00  0.6343E+01  0.6340E+01
     13.650  0.1187E+00  0.3890E-01  0.6364E+01  0.6347E+01
     13.822  0.8254E-01  0.1202E+00  0.6378E+01  0.6367E+01
     13.995  0.3904E-01  0.5504E-01  0.6385E+01  0.6377E+01
     14.168  0.1534E+00  0.4452E-01  0.6411E+01  0.6385E+01
     14.341  0.1736E+00  0.1815E+00  0.6441E+01  0.6416E+01
     14.514  0.8306E-01  0.1560E+00  0.6456E+01  0.6443E+01
     14.686  0.2102E+00  0.9574E-01  0.6492E+01  0.6459E+01
     14.859  0.2544E+00  0.2527E+00  0.6536E+01  0.6503E+01
     15.032  0.2819E+00  0.2975E+00  0.6585E+01  0.6554E+01
     15.205  0.1456E+00  0.2341E+00  0.6610E+01  0.6595E+01
     15.377  0.2673E+00  0.1691E+00  0.6656E+01  0.6624E+01
     15.550  0.2755E+00  0.2937E+00  0.6704E+01  0.6675E+01
     15.723  0.2123E+00  0.2424E+00  0.6740E+01  0.6717E+01
     15.896  0.1765E+00  0.2120E+00  0.6771E+01  0.6753E+01
     16.069  0.1062E+00  0.1485E+00  0.6789E+01  0.6779E+01
     16.241  0.5807E-01  0.8628E-01  0.6799E+01  0.6794E+01
     16.414  0.1767E+00  0.8846E-01  0.6830E+01  0.6809E+01
     16.587  0.3302E+00  0.2564E+00  0.6887E+01  0.6854E+01
     16.760  0.2253E+00  0.3142E+00  0.6926E+01  0.6908E+01
     16.932  0.2475E+00  0.2044E+00  0.6968E+01  0.6943E+01
     17.105  0.2815E+00  0.3141E+00  0.7017E+01  0.6997E+01
     17.278  0.9874E-01  0.1779E+00  0.7034E+01  0.7028E+01
     17.451  0.1144E+00  0.7626E-01  0.7054E+01  0.7041E+01
     17.624  0.1879E+00  0.1961E+00  0.7086E+01  0.7075E+01
     17.796  0.8694E-01  0.1293E+00  0.7101E+01  0.7098E+01
     17.969  0.2193E+00  0.1251E+00  0.7139E+01  0.7119E+01
     18.142  0.3719E+00  0.3825E+00  0.7204E+01  0.7185E+01
     18.315  0.2632E+00  0.2714E+00  0.7249E+01  0.7232E+01
     18.487  0.2558E+00  0.2555E+00  0.7293E+01  0.7276E+01
     18.660  0.2941E+00  0.2973E+00  0.7344E+01  0.7328E+01
     18.833  0.2024E+00  0.2359E+00  0.7379E+01  0.7368E+01
     19.006  0.2346E+00  0.2404E+00  0.7420E+01  0.7410E+01
     19.178  0.1216E+00  0.1447E+00  0.7441E+01  0.7435E+01
     19.351  0.1442E+00  0.1281E+00  0.7465E+01  0.7457E+01
     19.524  0.2397E+00  0.2201E+00  0.7507E+01  0.7495E+01
     19.697  0.3683E+00  0.3329E+00  0.7570E+01  0.7553E+01
     19.870  0.2434E+00  0.2918E+00  0.7613E+01  0.7603E+01
     20.042  0.2217E+00  0.2206E+00  0.7651E+01  0.7641E+01
     20.215  0.2857E+00  0.2795E+00  0.7700E+01  0.7689E+01
     20.388  0.2220E+00  0.2417E+00  0.7739E+01  0.7731E+01
     20.561  0.2453E+00  0.2432E+00  0.7781E+01  0.7773E+01
     20.733  0.2480E+00  0.2276E+00  0.7824E+01  0.7813E+01
     20.906  0.1604E+00  0.1952E+00  0.7852E+01  0.7846E+01
     21.079  0.9907E-01  0.9334E-01  0.7869E+01  0.7862E+01
     21.252  0.2162E+00  0.1919E+00  0.7906E+01  0.7896E+01
     21.425  0.2527E+00  0.2602E+00  0.7950E+01  0.7941E+01
     21.597  0.2234E+00  0.2470E+00  0.7988E+01  0.7983E+01
     21.770  0.2193E+00  0.1927E+00  0.8026E+01  0.8016E+01
     21.943  0.3267E+00  0.3196E+00  0.8083E+01  0.8072E+01
     22.116  0.2770E+00  0.3051E+00  0.8130E+01  0.8124E+01
     22.288  0.1655E+00  0.1748E+00  0.8159E+01  0.8155E+01
     22.461  0.1273E+00  0.1204E+00  0.8181E+01  0.8175E+01
     22.634  0.1531E+00  0.1589E+00  0.8207E+01  0.8203E+01
     22.807  0.7487E-01  0.9481E-01  0.8220E+01  0.8219E+01
     22.980  0.3596E-01  0.2848E-01  0.8227E+01  0.8224E+01
     23.152  0.2326E+00  0.1820E+00  0.8267E+01  0.8256E+01
     23.325  0.2751E+00  0.2993E+00  0.8314E+01  0.8307E+01
     23.498  0.1578E+00  0.1767E+00  0.8342E+01  0.8338E+01
     23.671  0.2504E+00  0.2374E+00  0.8385E+01  0.8379E+01
     23.843  0.2498E+00  0.2505E+00  0.8428E+01  0.8422E+01
     24.016  0.1168E+00  0.1287E+00  0.8448E+01  0.8444E+01
     24.189  0.1539E+00  0.1567E+00  0.8475E+01  0.8471E+01
     24.362  0.2153E+00  0.1993E+00  0.8512E+01  0.8506E+01
     24.535  0.2137E+00  0.2101E+00  0.8549E+01  0.8542E+01
     24.707  0.1951E+00  0.2135E+00  0.8583E+01  0.8579E+01
     24.880  0.1254E+00  0.1158E+00  0.8604E+01  0.8599E+01
     25.053  0.1818E+00  0.1828E+00  0.8636E+01  0.8631E+01
     25.226  0.2938E+00  0.3003E+00  0.8686E+01  0.8683E+01
     25.398  0.3582E+00  0.3530E+00  0.8748E+01  0.8744E+01
     25.571  0.1967E+00  0.2089E+00  0.8782E+01  0.8780E+01
     25.744  0.1769E+00  0.1638E+00  0.8813E+01  0.8808E+01
     25.917  0.3164E+00  0.3335E+00  0.8868E+01  0.8866E+01
     26.089  0.2132E+00  0.2641E+00  0.8904E+01  0.8911E+01
     26.262  0.1973E+00  0.1584E+00  0.8938E+01  0.8939E+01
     26.435  0.2899E+00  0.2661E+00  0.8989E+01  0.8985E+01
     26.608  0.3173E+00  0.3900E+00  0.9043E+01  0.9052E+01
     26.781  0.3514E+00  0.3893E+00  0.9104E+01  0.9119E+01
     26.953  0.2662E+00  0.1887E+00  0.9150E+01  0.9152E+01
     27.126  0.2180E+00  0.2238E+00  0.9188E+01  0.9190E+01
     27.299  0.3296E+00  0.3062E+00  0.9245E+01  0.9243E+01
     27.472  0.4670E+00  0.4455E+00  0.9325E+01  0.9320E+01
     27.644  0.3760E+00  0.3831E+00  0.9390E+01  0.9387E+01
     27.817  0.3981E+00  0.4365E+00  0.9459E+01  0.9462E+01
     27.990  0.4067E+00  0.3642E+00  0.9529E+01  0.9525E+01
     28.163  0.2974E+00  0.3280E+00  0.9581E+01  0.9582E+01
     28.336  0.3460E+00  0.3803E+00  0.9641E+01  0.9647E+01
     28.508  0.2907E+00  0.3429E+00  0.9691E+01  0.9707E+01
     28.681  0.2329E+00  0.1834E+00  0.9731E+01  0.9738E+01
     28.854  0.1197E+00  0.1060E+00  0.9752E+01  0.9757E+01
     29.027  0.2144E+00  0.1975E+00  0.9789E+01  0.9791E+01
     29.199  0.3496E+00  0.3009E+00  0.9849E+01  0.9843E+01
     29.372  0.3079E+00  0.2963E+00  0.9902E+01  0.9894E+01
     29.545  0.1680E+00  0.1534E+00  0.9931E+01  0.9920E+01
     29.718  0.9928E-01  0.1509E+00  0.9949E+01  0.9946E+01
     29.891  0.1045E+00  0.2021E+00  0.9967E+01  0.9981E+01
     30.063  0.1626E+00  0.1250E+00  0.9995E+01  0.1000E+02
     30.236  0.8309E-01  0.5985E-01  0.1001E+02  0.1001E+02
     30.409  0.8084E-01  0.7606E-01  0.1002E+02  0.1003E+02
     30.582  0.1735E+00  0.1634E+00  0.1005E+02  0.1005E+02
     30.754  0.2620E+00  0.2315E+00  0.1010E+02  0.1009E+02
     30.927  0.3351E+00  0.2751E+00  0.1016E+02  0.1014E+02
     31.100  0.2944E+00  0.3140E+00  0.1021E+02  0.1020E+02
     31.273  0.2003E+00  0.2207E+00  0.1024E+02  0.1023E+02
     31.445  0.2688E+00  0.3127E+00  0.1029E+02  0.1029E+02
     31.618  0.4050E+00  0.4012E+00  0.1036E+02  0.1036E+02
     31.791  0.1571E+00  0.1326E+00  0.1039E+02  0.1038E+02
     31.964  0.1182E+00  0.1093E+00  0.1041E+02  0.1040E+02
     32.137  0.3149E+00  0.3472E+00  0.1046E+02  0.1046E+02
     32.309  0.3443E+00  0.3855E+00  0.1052E+02  0.1053E+02
     32.482  0.3653E+00  0.3649E+00  0.1058E+02  0.1059E+02
     32.655  0.2503E+00  0.2750E+00  0.1063E+02  0.1064E+02
     32.828  0.3789E+00  0.4713E+00  0.1069E+02  0.1072E+02
     33.000  0.5822E+00  0.5063E+00  0.1079E+02  0.1081E+02
     33.173  0.1940E+00  0.1097E+00  0.1083E+02  0.1082E+02
     33.346  0.1282E-01  0.8193E-02  0.1083E+02  0.1083E+02
     33.519  0.4010E-01  0.6241E-01  0.1083E+02  0.1084E+02
     33.692  0.1268E+00  0.1546E+00  0.1086E+02  0.1086E+02
     33.864  0.1366E+00  0.1476E+00  0.1088E+02  0.1089E+02
     34.037  0.2265E+00  0.2032E+00  0.1092E+02  0.1092E+02
     34.210  0.2706E+00  0.2821E+00  0.1097E+02  0.1097E+02
     34.383  0.2971E+00  0.2770E+00  0.1102E+02  0.1102E+02
     34.555  0.1480E+00  0.1559E+00  0.1104E+02  0.1105E+02
     34.728  0.1761E+00  0.1711E+00  0.1107E+02  0.1108E+02
     34.901  0.4531E+00  0.4179E+00  0.1115E+02  0.1115E+02
     35.074  0.4321E+00  0.4492E+00  0.1123E+02  0.1123E+02
     35.247  0.1756E+00  0.2295E+00  0.1126E+02  0.1127E+02
     35.419  0.2345E+00  0.2253E+00  0.1130E+02  0.1131E+02
     35.592  0.1958E+00  0.2093E+00  0.1133E+02  0.1134E+02
     35.765  0.1864E+00  0.1489E+00  0.1136E+02  0.1137E+02
     35.938  0.2864E-01  0.1673E-01  0.1137E+02  0.1137E+02
     36.110  0.6089E-01  0.1085E+00  0.1138E+02  0.1139E+02
     36.283  0.4392E+00  0.4404E+00  0.1145E+02  0.1147E+02
     36.456  0.4556E+00  0.3819E+00  0.1153E+02  0.1153E+02
     36.629  0.6157E-01  0.8637E-01  0.1154E+02  0.1155E+02
     36.802  0.5833E-01  0.7566E-01  0.1155E+02  0.1156E+02
     36.974  0.9117E-01  0.9576E-01  0.1157E+02  0.1158E+02
     37.147  0.2439E+00  0.2552E+00  0.1161E+02  0.1162E+02
     37.320  0.2323E+00  0.2044E+00  0.1165E+02  0.1166E+02
     37.493  0.4801E-01  0.5335E-01  0.1166E+02  0.1166E+02
     37.665  0.1210E+00  0.1569E+00  0.1168E+02  0.1169E+02
     37.838  0.1319E+00  0.1076E+00  0.1170E+02  0.1171E+02
     38.011  0.5006E-01  0.3578E-01  0.1171E+02  0.1172E+02
     38.184  0.1071E+00  0.1096E+00  0.1173E+02  0.1174E+02
     38.356  0.1638E+00  0.1938E+00  0.1176E+02  0.1177E+02
     38.529  0.1960E+00  0.1766E+00  0.1179E+02  0.1180E+02
     38.702  0.8074E-01  0.4614E-01  0.1181E+02  0.1181E+02
     38.875 -0.3291E-02 -0.4566E-02  0.1181E+02  0.1181E+02
     39.048 -0.2589E-02 -0.1572E-02  0.1181E+02  0.1181E+02
     39.220 -0.7074E-03 -0.1301E-02  0.1181E+02  0.1181E+02
     39.393 -0.6314E-02 -0.7103E-02  0.1180E+02  0.1180E+02
     39.566  0.2265E-01  0.4641E-01  0.1181E+02  0.1181E+02
     39.739  0.1492E+00  0.1727E+00  0.1183E+02  0.1184E+02
     39.911  0.1839E+00  0.2052E+00  0.1187E+02  0.1188E+02
     40.084  0.1458E+00  0.1108E+00  0.1189E+02  0.1190E+02
     40.257  0.4782E-01  0.2819E-01  0.1190E+02  0.1190E+02
     40.430  0.2770E-01  0.2016E-01  0.1190E+02  0.1191E+02
     40.603  0.5506E-02 -0.3015E-03  0.1191E+02  0.1191E+02
     40.775 -0.1463E-02 -0.7318E-03  0.1191E+02  0.1191E+02
     40.948 -0.2153E-03 -0.2587E-03  0.1191E+02  0.1191E+02
     41.121 -0.1708E-02 -0.2733E-02  0.1191E+02  0.1190E+02
     41.294  0.1169E-02  0.1045E-01  0.1191E+02  0.1191E+02
     41.466  0.5220E-01  0.6547E-01  0.1191E+02  0.1192E+02
     41.639  0.5191E-01  0.3191E-01  0.1192E+02  0.1192E+02
     41.812 -0.1337E-02  0.1637E-02  0.1192E+02  0.1192E+02
     41.985  0.3657E-01  0.7422E-01  0.1193E+02  0.1194E+02
     42.158  0.1050E+00  0.1154E+00  0.1195E+02  0.1196E+02
     42.330  0.8770E-01  0.4701E-01  0.1196E+02  0.1196E+02
     42.503  0.1163E-01 -0.2470E-02  0.1196E+02  0.1196E+02
     42.676 -0.3551E-02 -0.1468E-02  0.1196E+02  0.1196E+02
     42.849 -0.3155E-03 -0.5200E-04  0.1196E+02  0.1196E+02
     43.021 -0.1787E-04 -0.6132E-04  0.1196E+02  0.1196E+02
     43.194 -0.6371E-03 -0.1517E-02  0.1196E+02  0.1196E+02
     43.367 -0.3047E-02  0.7279E-04  0.1196E+02  0.1196E+02
     43.540  0.2719E-01  0.4889E-01  0.1197E+02  0.1197E+02
     43.712  0.6827E-01  0.5619E-01  0.1198E+02  0.1198E+02
     43.885  0.1598E-01  0.2847E-02  0.1198E+02  0.1198E+02
     44.058 -0.3037E-02 -0.1958E-02  0.1198E+02  0.1198E+02
     44.231 -0.3653E-03 -0.2331E-03  0.1198E+02  0.1198E+02
     44.404 -0.6177E-03 -0.1424E-02  0.1198E+02  0.1198E+02
     44.576 -0.6730E-03  0.6075E-02  0.1198E+02  0.1198E+02
     44.749  0.2149E-01  0.3335E-01  0.1199E+02  0.1199E+02
     44.922  0.3038E-01  0.1600E-01  0.1199E+02  0.1199E+02
     45.095  0.2278E-02 -0.2161E-02  0.1199E+02  0.1199E+02
     45.267 -0.7703E-04  0.4381E-02  0.1199E+02  0.1199E+02
     45.440  0.1463E-01  0.1718E-01  0.1199E+02  0.1199E+02
     45.613  0.1125E-01  0.5421E-02  0.1200E+02  0.1200E+02
     45.786 -0.9251E-03 -0.1290E-03  0.1200E+02  0.1200E+02
     45.959  0.7052E-02  0.1380E-01  0.1200E+02  0.1200E+02
     46.131  0.1690E-01  0.1236E-01  0.1200E+02  0.1200E+02
     46.304  0.3524E-02  0.5809E-04  0.1200E+02  0.1200E+02
     46.477 -0.7387E-03 -0.3866E-03  0.1200E+02  0.1200E+02
     46.650 -0.7593E-04 -0.1581E-04  0.1200E+02  0.1200E+02
     46.822 -0.1079E-05 -0.1117E-06  0.1200E+02  0.1200E+02
     46.995 -0.2987E-08 -0.1603E-09  0.1200E+02  0.1200E+02
     47.168 -0.1736E-11 -0.4898E-13  0.1200E+02  0.1200E+02
     47.341 -0.2201E-15 -0.5793E-17  0.1200E+02  0.1200E+02
     47.514  0.0000E+00  0.0000E+00  0.1200E+02  0.1200E+02
     47.686  0.0000E+00  0.0000E+00  0.1200E+02  0.1200E+02
     47.859  0.0000E+00  0.0000E+00  0.1200E+02  0.1200E+02
     48.032  0.0000E+00  0.0000E+00  0.1200E+02  0.1200E+02
     48.205  0.0000E+00  0.0000E+00  0.1200E+02  0.1200E+02
     48.377  0.0000E+00  0.0000E+00  0.1200E+02  0.1200E+02
     48.37741244     -3.45500457  301      6.46403550      1.00000000
     -3.455  0.0000E+00  0.0000E+00  0.0000E+00  0.0000E+00  0.0000E+00  0.0000E+00  0.0000E+00  0.0000E+00  0.0000E+00  0.0000E+00  0.0000E+00  0.0000E+00  0.0000E+00  0.0000E+00  0.0000E+00  0.0000E+00  0.0000E+00  0.0000E+00
     -3.282  0.0000E+00  0.0000E+00  0.0000E+00  0.0000E+00  0.0000E+00  0.0000E+00  0.0000E+00  0.0000E+00  0.0000E+00  0.0000E+00  0.0000E+00  0.0000E+00  0.0000E+00  0.0000E+00  0.0000E+00  0.0000E+00  0.0000E+00  0.0000E+00
     -3.109  0.0000E+00  0.0000E+00  0.0000E+00  0.0000E+00  0.0000E+00  0.0000E+00  0.0000E+00  0.0000E+00  0.0000E+00  0.0000E+00  0.0000E+00  0.0000E+00  0.0000E+00  0.0000E+00  0.0000E+00  0.0000E+00  0.0000E+00  0.0000E+00
     -2.937  0.0000E+00  0.0000E+00  0.0000E+00  0.0000E+00  0.0000E+00  0.0000E+00  0.0000E+00  0.0000E+00  0.0000E+00  0.0000E+00  0.0000E+00  0.0000E+00  0.0000E+00  0.0000E+00  0.0000E+00  0.0000E+00  0.0000E+00  0.0000E+00
     -2.764 -0.1863E-34 -0.4662E-32 -0.1876E-49 -0.3470E-45 -0.1876E-49 -0.3470E-45 -0.1876E-49 -0.3470E-45 -0.1710E-44 -0.2085E-42 -0.1710E-44 -0.2085E-42 -0.7742E-52 -0.7914E-48 -0.1710E-44 -0.2085E-42 -0.7742E-52 -0.7914E-48
     -2.591 -0.2471E-28 -0.3493E-26 -0.2487E-43 -0.6642E-37 -0.2487E-43 -0.6642E-37 -0.2487E-43 -0.6642E-37 -0.2267E-38 -0.1579E-36 -0.2267E-38 -0.1579E-36 -0.1027E-45 -0.5931E-42 -0.2267E-38 -0.1579E-36 -0.1027E-45 -0.5931E-42
     -2.418 -0.7274E-23 -0.5806E-21 -0.6099E-33 -0.1180E-30 -0.6099E-33 -0.1180E-30 -0.6099E-33 -0.1180E-30 -0.6870E-33 -0.2903E-31 -0.6870E-33 -0.2903E-31 -0.1437E-37 -0.3340E-35 -0.6870E-33 -0.2903E-31 -0.1437E-37 -0.3340E-35
     -2.246 -0.4739E-18 -0.2063E-16 -0.4265E-27 -0.4671E-25 -0.4265E-27 -0.4671E-25 -0.4265E-27 -0.4671E-25 -0.5712E-28 -0.2138E-26 -0.5712E-28 -0.2138E-26 -0.2201E-31 -0.2821E-29 -0.5712E-28 -0.2138E-26 -0.2201E-31 -0.2821E-29
     -2.073 -0.6553E-14 -0.1648E-12 -0.6618E-22 -0.4101E-20 -0.6618E-22 -0.4101E-20 -0.6618E-22 -0.4101E-20 -0.2714E-23 -0.1139E-21 -0.2714E-23 -0.1139E-21 -0.7497E-26 -0.5435E-24 -0.2714E-23 -0.1139E-21 -0.7497E-26 -0.5435E-24
     -1.900 -0.2022E-10 -0.2836E-09 -0.2207E-17 -0.7683E-16 -0.2207E-17 -0.7683E-16 -0.2207E-17 -0.7683E-16 -0.7208E-19 -0.2001E-17 -0.7208E-19 -0.2001E-17 -0.5655E-21 -0.2238E-19 -0.7208E-19 -0.2001E-17 -0.5655E-21 -0.2238E-19
     -1.727 -0.1327E-07 -0.1024E-06 -0.1646E-13 -0.3230E-12 -0.1646E-13 -0.3230E-12 -0.1646E-13 -0.3230E-12 -0.5220E-15 -0.8293E-14 -0.5220E-15 -0.8293E-14 -0.9066E-17 -0.2084E-15 -0.5220E-15 -0.8293E-14 -0.9066E-17 -0.2084E-15
     -1.554 -0.1766E-05 -0.7243E-05 -0.2674E-10 -0.2935E-09 -0.2674E-10 -0.2935E-09 -0.2674E-10 -0.2935E-09 -0.8341E-12 -0.7390E-11 -0.8341E-12 -0.7390E-11 -0.3245E-13 -0.4175E-12 -0.8341E-12 -0.7390E-11 -0.3245E-13 -0.4175E-12
     -1.382 -0.4102E-04 -0.7646E-04 -0.9257E-08 -0.5611E-07 -0.9257E-08 -0.5611E-07 -0.9257E-08 -0.5611E-07 -0.2798E-09 -0.1353E-08 -0.2798E-09 -0.1353E-08 -0.2478E-10 -0.1762E-09 -0.2798E-09 -0.1353E-08 -0.2478E-10 -0.1762E-09
     -1.209 -0.4916E-04  0.1074E-03 -0.6482E-06 -0.2066E-05 -0.6482E-06 -0.2066E-05 -0.6482E-06 -0.2066E-05 -0.1819E-07 -0.4478E-07 -0.1819E-07 -0.4478E-07 -0.3860E-08 -0.1467E-07 -0.1819E-07 -0.4478E-07 -0.3860E-08 -0.1467E-07
     -1.036  0.4785E-03  0.8739E-03 -0.7078E-05 -0.7481E-05 -0.7078E-05 -0.7481E-05 -0.7078E-05 -0.7481E-05 -0.1567E-06 -0.8300E-07 -0.1567E-06 -0.8300E-07 -0.1058E-06 -0.1821E-06 -0.1567E-06 -0.8300E-07 -0.1058E-06 -0.1821E-06
     -0.863  0.4214E-02  0.9265E-02  0.2488E-04  0.7782E-04  0.2488E-04  0.7782E-04  0.2488E-04  0.7782E-04  0.8254E-06  0.1590E-05  0.8254E-06  0.1590E-05 -0.6420E-07  0.6342E-06  0.8254E-06  0.1590E-05 -0.6420E-07  0.6342E-06
     -0.691  0.1875E-01  0.1989E-01  0.1757E-03  0.1907E-03  0.1757E-03  0.1907E-03  0.1757E-03  0.1907E-03  0.2991E-05  0.1779E-05  0.2991E-05  0.1779E-05  0.3379E-05  0.4070E-05  0.2991E-05  0.1779E-05  0.3379E-05  0.4070E-05
     -0.518  0.1250E-01  0.7832E-02  0.1236E-03  0.1014E-03  0.1236E-03  0.1014E-03  0.1236E-03  0.1014E-03  0.4168E-06  0.1995E-05  0.4168E-06  0.1995E-05  0.3980E-05  0.2428E-05  0.4168E-06  0.1995E-05  0.3980E-05  0.2428E-05
     -0.345  0.9651E-02  0.1408E-01  0.2111E-03  0.3249E-03  0.2111E-03  0.3249E-03  0.2111E-03  0.3249E-03  0.1351E-04  0.1713E-04  0.1351E-04  0.1713E-04  0.2746E-05  0.4913E-05  0.1351E-04  0.1713E-04  0.2746E-05  0.4913E-05
     -0.172  0.2197E-01  0.2846E-01  0.5734E-03  0.8423E-03  0.5734E-03  0.8423E-03  0.5734E-03  0.8423E-03  0.3830E-04  0.4827E-04  0.3830E-04  0.4827E-04  0.2660E-04  0.4512E-04  0.3830E-04  0.4827E-04  0.2660E-04  0.4512E-04
      0.000  0.4334E-01  0.4413E-01  0.1407E-02  0.1472E-02  0.1407E-02  0.1472E-02  0.1407E-02  0.1472E-02  0.1220E-03  0.1086E-03  0.1220E-03  0.1086E-03  0.9441E-04  0.7765E-04  0.1220E-03  0.1086E-03  0.9441E-04  0.7765E-04
      0.173  0.2598E-01  0.1289E-01  0.8638E-03  0.4407E-03  0.8638E-03  0.4407E-03  0.8638E-03  0.4407E-03  0.9482E-04  0.3635E-04  0.9482E-04  0.3635E-04  0.4267E-04  0.2225E-04  0.9482E-04  0.3635E-04  0.4267E-04  0.2225E-04
      0.346  0.2563E-02  0.3632E-02  0.1159E-03  0.1831E-03  0.1159E-03  0.1831E-03  0.1159E-03  0.1831E-03 -0.2581E-04 -0.2354E-04 -0.2581E-04 -0.2354E-04  0.5720E-04  0.7058E-04 -0.2581E-04 -0.2354E-04  0.5720E-04  0.7058E-04
      0.519  0.1601E-01  0.2756E-01  0.8618E-03  0.1561E-02  0.8618E-03  0.1561E-02  0.8618E-03  0.1561E-02  0.1319E-03  0.2315E-03  0.1319E-03  0.2315E-03  0.1305E-03  0.1481E-03  0.1319E-03  0.2315E-03  0.1305E-03  0.1481E-03
      0.692  0.5596E-01  0.5928E-01  0.3233E-02  0.3504E-02  0.3233E-02  0.3504E-02  0.3233E-02  0.3504E-02  0.6542E-03  0.5127E-03  0.6542E-03  0.5127E-03  0.3738E-03  0.3647E-03  0.6542E-03  0.5127E-03  0.3738E-03  0.3647E-03
      0.864  0.3925E-01  0.2752E-01  0.2357E-02  0.1745E-02  0.2357E-02  0.1745E-02  0.2357E-02  0.1745E-02  0.4597E-03  0.3045E-03  0.4597E-03  0.3045E-03  0.3422E-03  0.2033E-03  0.4597E-03  0.3045E-03  0.3422E-03  0.2033E-03
      1.037  0.2744E-01  0.3078E-01  0.1931E-02  0.2268E-02  0.1931E-02  0.2268E-02  0.1931E-02  0.2268E-02  0.7825E-03  0.6509E-03  0.7825E-03  0.6509E-03  0.2270E-03  0.2609E-03  0.7825E-03  0.6509E-03  0.2270E-03  0.2609E-03
      1.210  0.4173E-01  0.4296E-01  0.3205E-02  0.3458E-02  0.3205E-02  0.3458E-02  0.3205E-02  0.3458E-02  0.1088E-02  0.7320E-03  0.1088E-02  0.7320E-03  0.9823E-03  0.9873E-03  0.1088E-02  0.7320E-03  0.9823E-03  0.9873E-03
      1.383  0.3155E-01  0.2447E-01  0.2573E-02  0.2039E-02  0.2573E-02  0.2039E-02  0.2573E-02  0.2039E-02  0.5451E-03  0.2999E-03  0.5451E-03  0.2999E-03  0.1242E-02  0.7705E-03  0.5451E-03  0.2999E-03  0.1242E-02  0.7705E-03
      1.555  0.5172E-02  0.4400E-02  0.4667E-03  0.4381E-03  0.4667E-03  0.4381E-03  0.4667E-03  0.4381E-03  0.5044E-04  0.1039E-03  0.5044E-04  0.1039E-03  0.8237E-04 -0.7982E-05  0.5044E-04  0.1039E-03  0.8237E-04 -0.7982E-05
      1.728  0.3890E-01  0.4114E-01  0.4037E-02  0.4435E-02  0.4037E-02  0.4435E-02  0.4037E-02  0.4435E-02  0.2808E-02  0.1978E-02  0.2808E-02  0.1978E-02  0.1072E-02  0.1026E-02  0.2808E-02  0.1978E-02  0.1072E-02  0.1026E-02
      1.901  0.8386E-01  0.8455E-01  0.8767E-02  0.9189E-02  0.8767E-02  0.9189E-02  0.8767E-02  0.9189E-02  0.6393E-02  0.4488E-02  0.6393E-02  0.4488E-02  0.3214E-02  0.2600E-02  0.6393E-02  0.4488E-02  0.3214E-02  0.2600E-02
      2.074  0.3984E-01  0.3438E-01  0.4430E-02  0.3978E-02  0.4430E-02  0.3978E-02  0.4430E-02  0.3978E-02  0.3283E-02  0.1531E-02  0.3283E-02  0.1531E-02  0.3195E-02  0.2205E-02  0.3283E-02  0.1531E-02  0.3195E-02  0.2205E-02
      2.247  0.4913E-01  0.3938E-01  0.5718E-02  0.5010E-02  0.5718E-02  0.5010E-02  0.5718E-02  0.5010E-02  0.7884E-02  0.3255E-02  0.7884E-02  0.3255E-02  0.5166E-02  0.3626E-02  0.7884E-02  0.3255E-02  0.5166E-02  0.3626E-02
      2.419  0.3600E-01  0.4663E-01  0.4245E-02  0.5810E-02  0.4245E-02  0.5810E-02  0.4245E-02  0.5810E-02  0.5770E-02  0.5818E-02  0.5770E-02  0.5818E-02  0.3915E-02  0.3132E-02  0.5770E-02  0.5818E-02  0.3915E-02  0.3132E-02
      2.592  0.2278E-01  0.1851E-01  0.3036E-02  0.2342E-02  0.3036E-02  0.2342E-02  0.3036E-02  0.2342E-02  0.5773E-02  0.2223E-02  0.5773E-02  0.2223E-02  0.7277E-02  0.2577E-02  0.5773E-02  0.2223E-02  0.7277E-02  0.2577E-02
      2.765  0.8300E-01  0.2956E-01  0.1037E-01  0.4968E-02  0.1037E-01  0.4968E-02  0.1037E-01  0.4968E-02  0.4545E-01  0.2680E-02  0.4545E-01  0.2680E-02  0.1131E-01  0.8500E-02  0.4545E-01  0.2680E-02  0.1131E-01  0.8500E-02
      2.938  0.9070E-01  0.7563E-01  0.1161E-01  0.1186E-01  0.1161E-01  0.1186E-01  0.1161E-01  0.1186E-01  0.5782E-01  0.2011E-01  0.5782E-01  0.2011E-01  0.2429E-01  0.8195E-02  0.5782E-01  0.2011E-01  0.2429E-01  0.8195E-02
      3.110  0.7396E-01  0.8243E-01  0.1046E-01  0.1205E-01  0.1046E-01  0.1205E-01  0.1046E-01  0.1205E-01  0.5390E-01  0.3252E-01  0.5390E-01  0.3252E-01  0.9338E-01  0.1247E-01  0.5390E-01  0.3252E-01  0.9338E-01  0.1247E-01
      3.283  0.5668E-01  0.6417E-01  0.7428E-02  0.9509E-02  0.7428E-02  0.9509E-02  0.7428E-02  0.9509E-02  0.7339E-01  0.2992E-01  0.7339E-01  0.2992E-01  0.1154E+00  0.3268E-01  0.7339E-01  0.2992E-01  0.1154E+00  0.3268E-01
      3.456  0.4941E-01  0.5233E-01  0.1024E-01  0.7048E-02  0.1024E-01  0.7048E-02  0.1024E-01  0.7048E-02  0.1552E+00  0.3241E-01  0.1552E+00  0.3241E-01  0.1325E+00  0.7036E-01  0.1552E+00  0.3241E-01  0.1325E+00  0.7036E-01
      3.629  0.4598E-01  0.5281E-01  0.1390E-01  0.7278E-02  0.1390E-01  0.7278E-02  0.1390E-01  0.7278E-02  0.2571E+00  0.5186E-01  0.2571E+00  0.5186E-01  0.1448E+00  0.8251E-01  0.2571E+00  0.5186E-01  0.1448E+00  0.8251E-01
      3.802  0.1376E-01  0.6387E-01  0.1304E-01  0.1407E-01  0.1304E-01  0.1407E-01  0.1304E-01  0.1407E-01  0.2382E+00  0.6128E-01  0.2382E+00  0.6128E-01  0.1532E+00  0.1246E+00  0.2382E+00  0.6128E-01  0.1532E+00  0.1246E+00
      3.974  0.4033E-02  0.4791E-01  0.1422E-01  0.1268E-01  0.1422E-01  0.1268E-01  0.1422E-01  0.1268E-01  0.2193E+00  0.7969E-01  0.2193E+00  0.7969E-01  0.1639E+00  0.1279E+00  0.2193E+00  0.7969E-01  0.1639E+00  0.1279E+00
      4.147  0.3474E-02  0.2313E-01  0.1575E-01  0.1011E-01  0.1575E-01  0.1011E-01  0.1575E-01  0.1011E-01  0.2356E+00  0.1682E+00  0.2356E+00  0.1682E+00  0.1839E+00  0.1384E+00  0.2356E+00  0.1682E+00  0.1839E+00  0.1384E+00
      4.320  0.1012E-01  0.1155E-01  0.2098E-01  0.1465E-01  0.2098E-01  0.1465E-01  0.2098E-01  0.1465E-01  0.3491E+00  0.2266E+00  0.3491E+00  0.2266E+00  0.1853E+00  0.1193E+00  0.3491E+00  0.2266E+00  0.1853E+00  0.1193E+00
      4.493  0.1268E-01  0.4771E-02  0.2018E-01  0.1592E-01  0.2018E-01  0.1592E-01  0.2018E-01  0.1592E-01  0.3728E+00  0.2253E+00  0.3728E+00  0.2253E+00  0.2366E+00  0.1370E+00  0.3728E+00  0.2253E+00  0.2366E+00  0.1370E+00
      4.665  0.9849E-02  0.2456E-02  0.1780E-01  0.1510E-01  0.1780E-01  0.1510E-01  0.1780E-01  0.1510E-01  0.4474E+00  0.2030E+00  0.4474E+00  0.2030E+00  0.3171E+00  0.1404E+00  0.4474E+00  0.2030E+00  0.3171E+00  0.1404E+00
      4.838  0.1205E-01  0.4492E-02  0.1775E-01  0.2081E-01  0.1775E-01  0.2081E-01  0.1775E-01  0.2081E-01  0.4733E+00  0.2829E+00  0.4733E+00  0.2829E+00  0.3092E+00  0.1471E+00  0.4733E+00  0.2829E+00  0.3092E+00  0.1471E+00
      5.011  0.1352E-01  0.8801E-02  0.1462E-01  0.2275E-01  0.1462E-01  0.2275E-01  0.1462E-01  0.2275E-01  0.3119E+00  0.3477E+00  0.3119E+00  0.3477E+00  0.2535E+00  0.1605E+00  0.3119E+00  0.3477E+00  0.2535E+00  0.1605E+00
      5.184  0.5772E-02  0.1180E-01  0.8610E-02  0.2356E-01  0.8610E-02  0.2356E-01  0.8610E-02  0.2356E-01  0.1990E+00  0.3551E+00  0.1990E+00  0.3551E+00  0.3679E+00  0.2417E+00  0.1990E+00  0.3551E+00  0.3679E+00  0.2417E+00