    1    1    1    2
  0.1371800E+02  0.2687006E-09  0.2687006E-09  0.2687006E-09  0.5000000E-15
  1.000000000000000E-004
  CAR 
 fcc Ni                                  
     10     56     12
 
  0.0000000E+00  0.0000000E+00  0.0000000E+00  0.7513148E-03
      1         -1.033426       -1.098986   1.000000   1.000000
      2          4.543260        5.275441   1.000000   1.000000
      3          4.543272        5.275449   1.000000   1.000000
      4          4.543272        5.275449   1.000000   1.000000
      5          5.390866        6.001433   1.000000   1.002562
      6          5.390866        6.001433   1.000000   1.002562
      7         28.232472       28.019371   0.000000   0.000000
      8         30.338931       30.332657   0.000000   0.000000
      9         30.338969       30.332667   0.000000   0.000000
     10         30.338969       30.332667   0.000000   0.000000
     11         32.936684       32.970595   0.000000   0.000000
     12         32.936731       32.970646   0.000000   0.000000
 
  0.9090909E-01 -0.7818706E-18 -0.7818706E-18  0.6010518E-02
      1         -0.761446       -0.826719   1.000000   1.000000
      2          4.488626        5.211834   1.000000   1.000000
      3          4.592364        5.326451   1.000000   1.000000
      4          4.592379        5.326464   1.000000   1.000000
      5          5.371826        5.981576   1.000000   1.001698
      6          5.371830        5.981582   1.000000   1.001698
      7         26.193513       26.159318   0.000000   0.000000
      8         28.841391       28.710399   0.000000   0.000000
      9         29.662799       29.683367   0.000000   0.000000
     10         29.662838       29.683398   0.000000   0.000000
     11         34.003125       33.998459   0.000000   0.000000
     12         34.003184       33.998481   0.000000   0.000000
 
  0.1818182E+00  0.6069042E-17  0.6069042E-17  0.6010518E-02
      1          0.026500       -0.034268   1.000000   1.000000
      2          4.374979        5.067989   1.000000   1.000000
      3          4.687394        5.410533   1.000000   1.000000
      4          4.687423        5.410568   1.000000   1.000000
      5          5.361145        5.985635   1.000000   1.001851
      6          5.361152        5.985654   1.000000   1.001851
      7         21.874518       21.918263   0.000000   0.000000
      8         28.492174       28.331313   0.000000   0.000000
      9         28.712825       28.759944   0.000000   0.000000
     10         28.712846       28.759976   0.000000   0.000000
     11         34.374257       34.276216   0.000000   0.000000
     12         34.966078       34.905634   0.000000   0.000000
 
  0.2727273E+00 -0.7549782E-17 -0.7549782E-17  0.6010518E-02
      1          1.199975        1.174190   1.000000   1.000000
      2          4.359073        4.974774   1.000000   1.000000
      3          4.703984        5.382443   1.000000   1.000000
      4          4.704027        5.382492   1.000000   1.000000
      5          5.472700        6.148362   1.000000   1.024067
      6          5.472702        6.148374   1.000000   1.024070
      7         17.725021       17.822286   0.000000   0.000000
      8         27.915593       27.743742   0.000000   0.000000
      9         28.006405       28.068628   0.000000   0.000000
     10         28.006435       28.068632   0.000000   0.000000
     11         33.047223       33.036999   0.000000   0.000000
     12         33.047349       33.037124   0.000000   0.000000
 
  0.3636364E+00  0.3811412E-17  0.3811412E-17  0.6010518E-02
      1          2.293153        2.447780   1.000000   1.000000
      2          4.638462        5.256557   1.000000   1.000000
      3          4.638506        5.282830   1.000000   1.000000
      4          4.893489        5.282880   1.000000   1.000000
      5          5.670401        6.388429   1.000000   0.795983
      6          5.670416        6.388430   1.000000   0.795980
      7         14.035562       14.207617   0.000000   0.000000
      8         27.280442       27.095697   0.000000   0.000000
      9         27.574292       27.640914   0.000000   0.000000
     10         27.574413       27.640982   0.000000   0.000000
     11         31.451305       31.445686   0.000000   0.000000
     12         31.451568       31.445936   0.000000   0.000000
 
  0.4545455E+00 -0.2784854E-16 -0.9296126E-19  0.6010518E-02
      1          2.711626        3.100247   1.000000   1.000000
      2          4.582066        5.211824   1.000000   1.000000
      3          4.582110        5.211874   1.000000   1.000000
      4          5.815525        6.230295   1.000023   1.034936
      5          5.815561        6.553939   1.000023   0.158874
      6          6.246057        6.553960   1.032117   0.158813
      7         11.224489       11.541137  -0.000000  -0.000000
      8         26.886674       26.694210   0.000000   0.000000
      9         27.382523       27.447229   0.000000   0.000000
     10         27.382735       27.447372   0.000000   0.000000
     11         30.596826       30.592783   0.000000   0.000000
     12         30.597199       30.593131   0.000000   0.000000
 
  0.9090909E-01  0.9090909E-01 -0.2696706E-18  0.4507889E-02
      1         -0.671131       -0.736386   1.000000   1.000000
      2          4.441318        5.162750   1.000000   1.000000
      3          4.627896        5.363696   1.000000   1.000000
      4          4.627905        5.363701   1.000000   1.000000
      5          5.293278        5.896690   1.000000   1.000226
      6          5.429488        6.041893   1.000000   1.005500
      7         27.211825       27.077848   0.000000   0.000000
      8         27.921686       27.956595   0.000000   0.000000
      9         27.921711       27.956618   0.000000   0.000000
     10         29.130197       29.082773   0.000000   0.000000
     11         34.730983       34.697534   0.000000   0.000000
     12         34.811386       34.896272   0.000000   0.000000
 
  0.1818182E+00  0.9090909E-01  0.1378981E-16  0.1803156E-01
      1         -0.055359       -0.118088   1.000000   1.000000
      2          4.319646        5.023007   1.000000   1.000000
      3          4.724894        5.452707   1.000000   1.000000
      4          4.731031        5.464322   1.000000   1.000000
      5          5.222235        5.828966   1.000000   1.000034
      6          5.463402        6.085056   1.000000   1.011060
      7         23.505566       23.531306   0.000000   0.000000
      8         26.583830       26.628828   0.000000   0.000000
      9         27.300692       27.215436   0.000000   0.000000
     10         30.207362       30.131031   0.000000   0.000000
     11         32.025012       32.135577   0.000000   0.000000
     12         34.849190       34.836370   0.000000   0.000000
 
  0.2727273E+00  0.9090909E-01 -0.2168653E-16  0.1803156E-01
      1          1.000636        0.957645   1.000000   1.000000
      2          4.222650        4.883368   1.000000   1.000000
      3          4.726742        5.390171   1.000000   1.000000
      4          4.789840        5.490292   1.000000   1.000000
      5          5.341244        6.004205   1.000000   1.002709
      6          5.558111        6.220553   1.000000   1.035450
      7         19.257084       19.331992   0.000000   0.000000
      8         25.696460       25.746129   0.000000   0.000000
      9         26.752039       26.660190   0.000000   0.000000
     10         29.229585       29.281066   0.000000   0.000000
     11         32.429412       32.386941   0.000000   0.000000
     12         34.617239       34.605776   0.000000   0.000000
 
  0.3636364E+00  0.9090909E-01 -0.8937561E-17  0.1803156E-01
      1          2.177850        2.253297   1.000000   1.000000
      2          4.388816        4.917841   1.000000   1.000000
      3          4.612742        5.246621   1.000000   1.000000
      4          4.751985        5.413236   1.000000   1.000000
      5          5.720163        6.409182   1.000001   0.722707
      6          5.750861        6.429559   1.000003   0.643504
      7         15.386015       15.519927   0.000000   0.000000
      8         25.302466       25.351601   0.000000   0.000000
      9         26.186299       26.070632   0.000000   0.000000
     10         27.343991       27.426011   0.000000   0.000000
     11         33.000967       32.928466   0.000000   0.000000
     12         34.332715       34.322802   0.000000   0.000000
 
  0.4545455E+00  0.9090909E-01  0.1352586E-16  0.1803156E-01
      1          2.790558        3.137898   1.000000   1.000000
      2          4.516548        5.091464   1.000000   1.000000
      3          4.685244        5.323275   1.000000   1.000000
      4          4.999745        5.445580   1.000000   1.000000
      5          5.831623        6.568487   1.000037   0.117923
      6          6.647586        7.079015  -0.014353  -0.000061
      7         12.139162       12.380227   0.000000   0.000000
      8         25.175295       25.128134   0.000000   0.000000
      9         25.453803       25.501426   0.000000   0.000000
     10         26.634366       26.629315   0.000000   0.000000
     11         32.825268       32.765064   0.000000   0.000000
     12         32.928018       32.928679   0.000000   0.000000
 
 -0.4545455E+00  0.9090909E-01  0.1509956E-16  0.1803156E-01
      1          2.886170        3.314769   1.000000   1.000000
      2          4.497062        5.087236   1.000000   1.000000
      3          4.657365        5.286448   1.000000   1.000000
      4          5.257375        5.719120   1.000000   1.000001
      5          5.804728        6.547221   1.000016   0.179505
      6          7.391377        7.608919  -0.000000  -0.000000
      7         10.834935       11.184316  -0.000000  -0.000000
      8         24.198075       24.194775   0.000000   0.000000
      9         26.211466       26.262630   0.000000   0.000000
     10         26.797964       26.730372   0.000000   0.000000
     11         31.984593       31.989461   0.000000   0.000000
     12         32.796339       32.750941   0.000000   0.000000
 
 -0.3636364E+00  0.9090909E-01  0.3617521E-16  0.1803156E-01
      1          2.673334        2.935713   1.000000   1.000000
      2          4.553664        5.151054   1.000000   1.000000
      3          4.691171        5.277537   1.000000   1.000000
      4          4.859123        5.324878   1.000000   1.000000
      5          5.626646        6.355519   1.000000   0.892583
      6          6.373926        6.947503   0.841741  -0.001662
      7         13.128141       13.325006   0.000000   0.000000
      8         23.697370       23.712235   0.000000   0.000000
      9         27.486794       27.391292   0.000000   0.000000
     10         27.572924       27.636903   0.000000   0.000000
     11         31.491924       31.493325   0.000000   0.000000
     12         32.847724       32.811113   0.000000   0.000000
 
 -0.2727273E+00  0.9090909E-01 -0.3811412E-17  0.1803156E-01
      1          1.816009        1.829590   1.000000   1.000000
      2          4.311193        4.904539   1.000000   1.000000
      3          4.660109        5.300776   1.000000   1.000000
      4          4.766454        5.425555   1.000000   1.000000
      5          5.378203        6.071296   1.000000   1.008974
      6          5.828197        6.511123   1.000033   0.306750
      7         16.629900       16.742148   0.000000   0.000000
      8         23.701400       23.724621   0.000000   0.000000
      9         28.641166       28.533516   0.000000   0.000000
     10         29.455420       29.546543   0.000000   0.000000
     11         31.461401       31.441728   0.000000   0.000000
     12         32.647207       32.595051   0.000000   0.000000
 
 -0.1818182E+00  0.9090909E-01  0.7549782E-17  0.1803156E-01
      1          0.611105        0.557404   1.000000   1.000000
      2          4.271916        4.951678   1.000000   1.000000
      3          4.719747        5.406308   1.000000   1.000000
      4          4.779024        5.502413   1.000000   1.000000
      5          5.225227        5.846826   1.000000   1.000057
      6          5.556111        6.213776   1.000000   1.035353
      7         20.645660       20.704865   0.000000   0.000000
      8         24.178693       24.200289   0.000000   0.000000
      9         29.951063       29.837133   0.000000   0.000000
     10         31.212082       31.296138   0.000000   0.000000
     11         32.178261       32.092559   0.000000   0.000000
     12         32.398334       32.378141   0.000000   0.000000
 
 -0.9090909E-01  0.9090909E-01  0.1563741E-17  0.9015778E-02
      1         -0.316752       -0.380721   1.000000   1.000000
      2          4.395061        5.105591   1.000000   1.000000
      3          4.664669        5.399141   1.000000   1.000000
      4          4.674036        5.405015   1.000000   1.000000
      5          5.274973        5.877169   1.000000   1.000134
      6          5.429333        6.050692   1.000000   1.006406
      7         24.705322       24.704696   0.000000   0.000000
      8         25.368096       25.386921   0.000000   0.000000
      9         29.966917       29.855603   0.000000   0.000000
     10         31.366939       31.375120   0.000000   0.000000
     11         32.920097       32.824091   0.000000   0.000000
     12         33.312888       33.336370   0.000000   0.000000
 
  0.1818182E+00  0.1818182E+00  0.1195067E-16  0.4507889E-02
      1          0.371382        0.311093   1.000000   1.000000
      2          4.168863        4.863104   1.000000   1.000000
      3          4.869692        5.617261   1.000000   1.000000
      4          4.869700        5.617266   1.000000   1.000000
      5          5.075516        5.651746   1.000000   1.000000
      6          5.533847        6.151254   1.000000   1.024736
      7         24.921751       24.965566   0.000000   0.000000
      8         24.921773       24.965593   0.000000   0.000000
      9         25.743430       25.693626   0.000000   0.000000
     10         27.030726       26.930275   0.000000   0.000000
     11         29.570987       29.740502   0.000000   0.000000
     12         38.437554       38.352812   0.000000   0.000000
 
  0.2727273E+00  0.1818182E+00  0.6850913E-17  0.1803156E-01
      1          1.242936        1.199990   1.000000   1.000000
      2          4.017415        4.690070   1.000000   1.000000
      3          4.806516        5.421929   1.000000   1.000000
      4          4.995365        5.728100   1.000000   1.000001
      5          5.264430        5.950717   1.000000   1.000856
      6          5.617760        6.261741   1.000000   1.026277
      7         21.151530       21.201717   0.000000   0.000000
      8         23.778006       23.818548   0.000000   0.000000
      9         25.424425       25.358175   0.000000   0.000000
     10         26.420384       26.457739   0.000000   0.000000
     11         29.292946       29.378657   0.000000   0.000000
     12         38.172489       38.062641   0.000000   0.000000
 
  0.3636364E+00  0.1818182E+00  0.1162016E-16  0.1803156E-01
      1          2.332810        2.374163   1.000000   1.000000
      2          3.968986        4.589529   1.000000   1.000000
      3          4.606385        5.207337   1.000000   1.000000
      4          5.007130        5.694612   1.000000   1.000000
      5          5.759565        6.458505   1.000004   0.523392
      6          5.882708        6.517031   1.000156   0.284247
      7         17.171969       17.264222   0.000000   0.000000
      8         23.201320       23.237500   0.000000   0.000000
      9         23.635690       23.634416   0.000000   0.000000
     10         25.887922       25.916305   0.000000   0.000000
     11         32.103195       32.131453   0.000000   0.000000
     12         37.275510       37.167653   0.000000   0.000000
 
  0.4545455E+00  0.1818182E+00 -0.7549782E-17  0.1803156E-01
      1          3.060298        3.362713   1.000000   1.000000
      2          4.161947        4.637708   1.000000   1.000000
      3          4.518287        5.132717   1.000000   1.000000
      4          4.948760        5.602635   1.000000   1.000000
      5          5.854662        6.590953   1.000072   0.065069
      6          7.072938        7.521863  -0.000073  -0.000000
      7         13.632899       13.790811   0.000000   0.000000
      8         21.918485       21.947077   0.000000   0.000000
      9         23.251173       23.285200   0.000000   0.000000
     10         25.779301       25.778456   0.000000   0.000000
     11         35.390838       35.388200   0.000000   0.000000
     12         36.206448       36.192099   0.000000   0.000000
 
 -0.4545455E+00  0.1818182E+00  0.2177949E-16  0.1803156E-01
      1          3.241074        3.712397   1.000000   1.000000
      2          4.254326        4.716432   1.000000   1.000000
      3          4.681263        5.258042   1.000000   1.000000
      4          4.896917        5.531113   1.000000   1.000000
      5          5.808472        6.558579   1.000018   0.145254
      6          8.693478        8.897145  -0.000000  -0.000000
      7         11.096922       11.393824  -0.000000  -0.000000
      8         20.634873       20.677200   0.000000   0.000000
      9         23.960674       23.998804   0.000000   0.000000
     10         26.022459       25.994675   0.000000   0.000000
     11         35.090083       35.084016   0.000000   0.000000
     12         35.615426       35.540744   0.000000   0.000000
 
 -0.3636364E+00  0.1818182E+00  0.1787512E-16  0.1803156E-01
      1          3.199587        3.584594   1.000000   1.000000
      2          4.335309        4.831571   1.000000   1.000000
      3          4.555934        5.104990   1.000000   1.000000
      4          4.894649        5.519110   1.000000   1.000000
      5          5.605600        6.352768   1.000000   0.899458
      6          7.743735        8.132734  -0.000000  -0.000000
      7         12.633683       12.833851   0.000000   0.000000
      8         19.866009       19.917560   0.000000   0.000000
      9         25.308104       25.355896   0.000000   0.000000
     10         26.684590       26.634068   0.000000   0.000000
     11         34.414600       34.414413   0.000000   0.000000
     12         34.944897       34.864483   0.000000   0.000000
 
 -0.2727273E+00  0.1818182E+00  0.1480740E-17  0.1803156E-01
      1          2.699426        2.800137   1.000000   1.000000
      2          4.182418        4.784165   1.000000   1.000000
      3          4.494554        5.078962   1.000000   1.000000
      4          4.952107        5.576952   1.000000   1.000000
      5          5.311175        6.044507   1.000000   1.005758
      6          6.532597        7.150238   0.227926  -0.000007
      7         15.970183       16.087694   0.000000   0.000000
      8         19.645018       19.702921   0.000000   0.000000
      9         27.212769       27.270979   0.000000   0.000000
     10         27.830520       27.763809   0.000000   0.000000
     11         33.870385       33.766372   0.000000   0.000000
     12         34.174758       34.180698   0.000000   0.000000
 
 -0.1818182E+00  0.1818182E+00 -0.1213808E-16  0.9015778E-02
      1          1.610760        1.584308   1.000000   1.000000
      2          4.143246        4.806416   1.000000   1.000000
      3          4.652107        5.283774   1.000000   1.000000
      4          4.980983        5.686409   1.000000   1.000000
      5          5.099671        5.742699   1.000000   1.000002
      6          5.912498        6.590975   1.000339   0.065023
      7         19.600121       19.680164   0.000000   0.000000
      8         20.188222       20.236343   0.000000   0.000000
      9         29.418879       29.341429   0.000000   0.000000
     10         29.573987       29.638090   0.000000   0.000000
     11         32.326266       32.204471   0.000000   0.000000
     12         34.237358       34.275967   0.000000   0.000000
 
  0.2727273E+00  0.2727273E+00 -0.1502901E-17  0.4507889E-02
      1          1.854278        1.843417   1.000000   1.000000
      2          3.825027        4.485771   1.000000   1.000000
      3          5.018871        5.509812   1.000000   1.000000
      4          5.231415        5.999848   1.000000   1.002482
      5          5.231422        5.999851   1.000000   1.002482
      6          5.674094        6.298005   1.000000   0.997364
      7         22.366191       22.396105   0.000000   0.000000
      8         22.366211       22.396135   0.000000   0.000000
      9         23.070557       23.071563   0.000000   0.000000
     10         24.663386       24.674453   0.000000   0.000000
     11         26.850674       26.956755   0.000000   0.000000
     12         42.164003       42.034906   0.000000   0.000000
 
  0.3636364E+00  0.2727273E+00 -0.7373820E-17  0.1803156E-01
      1          2.617042        2.711103   1.000000   1.000000
      2          3.694923        4.336366   1.000000   1.000000
      3          4.930474        5.461631   1.000000   1.000000
      4          5.338247        6.064591   1.000000   1.008067
      5          5.778114        6.459022   1.000007   0.521205
      6          5.898720        6.514941   1.000238   0.292142
      7         19.264019       19.312515   0.000000   0.000000
      8         20.800641       20.849696   0.000000   0.000000
      9         21.545219       21.565281   0.000000   0.000000
     10         25.027152       25.057786   0.000000   0.000000
     11         27.962999       28.021493   0.000000   0.000000
     12         41.467686       41.417393   0.000000   0.000000
 
  0.4545455E+00  0.2727273E+00  0.6762932E-17  0.1803156E-01
      1          3.196496        3.481951   1.000000   1.000000
      2          3.703990        4.293546   1.000000   1.000000
      3          4.762592        5.332566   1.000000   1.000000
      4          5.307572        5.983349   1.000000   1.001763
      5          5.873513        6.610761   1.000121   0.028933
      6          7.332309        7.736444  -0.000000  -0.000000
      7         15.656015       15.745874   0.000000   0.000000
      8         18.893299       18.963824   0.000000   0.000000
      9         21.398538       21.414456   0.000000   0.000000
     10         25.091269       25.122116   0.000000   0.000000
     11         31.146505       31.177608   0.000000   0.000000
     12         39.832757       39.796898   0.000000   0.000000
 
 -0.4545455E+00  0.2727273E+00  0.9030522E-17  0.1803156E-01
      1          3.471123        3.954541   1.000000   1.000000
      2          3.856071        4.324212   1.000000   1.000000
      3          4.615769        5.219579   1.000000   1.000000
      4          5.241956        5.883814   1.000000   1.000161
      5          5.825572        6.589407   1.000031   0.068298
      6          9.443253        9.675185  -0.000000  -0.000000
      7         12.496376       12.658093   0.000000   0.000000
      8         17.449856       17.535027   0.000000   0.000000
      9         21.962360       21.983807   0.000000   0.000000
     10         25.298676       25.312423   0.000000   0.000000
     11         35.012897       35.029677   0.000000   0.000000
     12         38.541918       38.510874   0.000000   0.000000
 
 -0.3636364E+00  0.2727273E+00  0.5126149E-17  0.1803156E-01
      1          3.608926        4.120931   1.000000   1.000000
      2          4.026046        4.447825   1.000000   1.000000
      3          4.412836        5.022300   1.000000   1.000000
      4          5.186629        5.797908   1.000000   1.000013
      5          5.621325        6.399646   1.000000   0.757430
      6          9.604457        9.847707  -0.000000  -0.000000
      7         12.440623       12.616983   0.000000   0.000000
      8         16.524585       16.619344   0.000000   0.000000
      9         23.192159       23.226366   0.000000   0.000000
     10         25.802740       25.792581   0.000000   0.000000
     11         37.641829       37.609682   0.000000   0.000000
     12         37.821965       37.722780   0.000000   0.000000
 
 -0.2727273E+00  0.2727273E+00  0.1509956E-16  0.9015778E-02
      1          3.457982        3.738950   1.000000   1.000000
      2          4.160473        4.760339   1.000000   1.000000
      3          4.248598        4.781819   1.000000   1.000000
      4          5.134710        5.718314   1.000000   1.000001
      5          5.372708        6.160613   1.000000   1.026882
      6          7.740908        8.188934  -0.000000  -0.000000
      7         15.251328       15.373554   0.000000   0.000000
      8         16.519839       16.610209   0.000000   0.000000
      9         24.990030       25.037721   0.000000   0.000000
     10         26.668424       26.631690   0.000000   0.000000
     11         36.078284       35.955336   0.000000   0.000000
     12         36.821423       36.779237   0.000000   0.000000
 
  0.3636364E+00  0.3636364E+00 -0.1495647E-16  0.4507889E-02
      1          2.862960        3.083632   1.000000   1.000000
      2          3.516688        4.149390   1.000000   1.000000
      3          5.616866        6.273489   1.000000   1.019501
      4          5.616872        6.413353   1.000000   0.707009
      5          5.802949        6.413354   1.000015   0.707007
      6          6.066897        6.433267   1.008371   0.628502
      7         18.353712       18.435763   0.000000   0.000000
      8         20.463688       20.467525   0.000000   0.000000
      9         20.463712       20.467559   0.000000   0.000000
     10         23.966475       24.020641   0.000000   0.000000
     11         26.031109       26.114387   0.000000   0.000000
     12         45.420547       45.360646   0.000000   0.000000
 
  0.4545455E+00  0.3636364E+00  0.8932581E-17  0.1803156E-01
      1          3.076775        3.404121   1.000000   1.000000
      2          3.453245        4.073173   1.000000   1.000000
      3          5.453573        6.107148   1.000000   1.015037
      4          5.659903        6.349315   1.000000   0.907816
      5          5.881923        6.630509   1.000153   0.002128
      6          7.591148        7.812949  -0.000000  -0.000000
      7         16.376344       16.493405   0.000000   0.000000
      8         17.995440       18.028426   0.000000   0.000000
      9         20.075022       20.070165   0.000000   0.000000
     10         24.475282       24.526937   0.000000   0.000000
     11         27.307617       27.369635   0.000000   0.000000
     12         43.609095       43.550594   0.000000   0.000000
 
 -0.4545455E+00  0.3636364E+00 -0.9428928E-18  0.1803156E-01
      1          3.308705        3.710876   1.000000   1.000000
      2          3.533750        4.123352   1.000000   1.000000
      3          5.112065        5.745703   1.000000   1.000002
      4          5.595638        6.236180   1.000000   1.034197
      5          5.854999        6.645598   1.000072  -0.012727
      6          9.669514        9.822315  -0.000000  -0.000000
      7         14.799275       14.878847   0.000000   0.000000
      8         14.997467       15.143950   0.000000   0.000000
      9         20.441205       20.441725   0.000000   0.000000
     10         24.772642       24.817312   0.000000   0.000000
     11         30.687269       30.722663   0.000000   0.000000
     12         42.016843       41.951146   0.000000   0.000000
 
 -0.3636364E+00  0.3636364E+00 -0.7622823E-17  0.9015778E-02
      1          3.550054        4.045145   1.000000   1.000000
      2          3.735841        4.233658   1.000000   1.000000
      3          4.699043        5.315250   1.000000   1.000000
      4          5.458299        6.060617   1.000000   1.007562
      5          5.705421        6.515163   1.000001   0.291301
      6         11.740019       11.865316  -0.000000  -0.000000
      7         11.971757       12.113221   0.000000   0.000000
      8         14.582893       14.740880   0.000000   0.000000
      9         21.520781       21.537329   0.000000   0.000000
     10         25.155640       25.178578   0.000000   0.000000
     11         34.831987       34.853488   0.000000   0.000000
     12         40.315204       40.242830   0.000000   0.000000
 
  0.4545455E+00  0.4545455E+00  0.1044777E-16  0.4507889E-02
      1          3.009288        3.372203   1.000000   1.000000
      2          3.337674        3.954689   1.000000   1.000000
      3          5.875871        6.513301   1.000130   0.298387
      4          5.875876        6.695499   1.000130  -0.034691
      5          5.878958        6.695500   1.000141  -0.034691
      6          8.274343        8.245161  -0.000000  -0.000000
      7         14.564768       14.741613   0.000000   0.000000
      8         19.428396       19.409382   0.000000   0.000000
      9         19.428423       19.409420   0.000000   0.000000
     10         23.637246       23.713478   0.000000   0.000000
     11         25.728595       25.817186   0.000000   0.000000
     12         46.021393       45.949207   0.000000   0.000000
 
 -0.4545455E+00  0.4545455E+00  0.2961480E-17  0.9015778E-02
      1          3.091808        3.473121   1.000000   1.000000
      2          3.364344        3.976920   1.000000   1.000000
      3          5.658643        6.390567   1.000000   0.788840
      4          5.822184        6.452422   1.000028   0.549051
      5          5.889491        6.711102   1.000187  -0.035441
      6          9.280998        9.289873  -0.000000  -0.000000
      7         13.882669       14.092915   0.000000   0.000000
      8         17.537429       17.559354   0.000000   0.000000
      9         19.555853       19.539137   0.000000   0.000000
     10         24.301102       24.361497   0.000000   0.000000