       N       E                     dE             d eps       ncg     rms          rms(c)
DAV:   1     0.198487150187E+02    0.19849E+02   -0.30223E+03  2940   0.593E+02
DAV:   2    -0.561292253800E+01   -0.25462E+02   -0.23950E+02  2912   0.118E+02
DAV:   3    -0.614180449041E+01   -0.52888E+00   -0.52753E+00  3132   0.197E+01
DAV:   4    -0.614444699758E+01   -0.26425E-02   -0.26423E-02  3084   0.126E+00
DAV:   5    -0.614448634238E+01   -0.39345E-04   -0.39345E-04  3152   0.150E-01    0.864E+00
DAV:   6    -0.579102684693E+01    0.35346E+00   -0.18561E+01  3220   0.482E+01    0.835E+00
DAV:   7    -0.518569836596E+01    0.60533E+00   -0.43988E+00  3160   0.208E+01    0.127E+00
DAV:   8    -0.517899781615E+01    0.67005E-02   -0.72412E-03  3036   0.626E-01    0.731E-01
DAV:   9    -0.517705629827E+01    0.19415E-02   -0.13851E-03  2816   0.250E-01    0.216E-01
DAV:  10    -0.517648398135E+01    0.57232E-03   -0.16924E-03  2504   0.278E-01    0.647E-02
DAV:  11    -0.517648759282E+01   -0.36115E-05   -0.29400E-05  1676   0.525E-02
   1 F= -.51764876E+01 E0= -.51739266E+01  d E =-.768285E-02  mag=     0.6185
