PROCAR lm decomposed
# of k-points:   56         # of bands:   12         # of ions:    1

 k-point     1 :    0.00000000 0.00000000 0.00000000     weight = 0.00075131

band     1 # energy   -1.03342565 # occ.  1.00000000
 
ion      s     py     pz     px    dxy    dyz    dz2    dxz  x2-y2    tot
    1  0.572  0.000  0.000  0.000  0.000  0.000  0.000  0.000  0.000  0.572
 
band     2 # energy    4.54325999 # occ.  1.00000000
 
ion      s     py     pz     px    dxy    dyz    dz2    dxz  x2-y2    tot
    1  0.000  0.000  0.000  0.000  0.321  0.320  0.000  0.321  0.000  0.962
 
band     3 # energy    4.54327244 # occ.  1.00000000
 
ion      s     py     pz     px    dxy    dyz    dz2    dxz  x2-y2    tot
    1  0.000  0.000  0.000  0.000  0.478  0.483  0.000  0.000  0.000  0.962
 
band     4 # energy    4.54327247 # occ.  1.00000000
 
ion      s     py     pz     px    dxy    dyz    dz2    dxz  x2-y2    tot
    1  0.000  0.000  0.000  0.000  0.163  0.158  0.000  0.641  0.000  0.962
 
band     5 # energy    5.39086574 # occ.  1.00000000
 
ion      s     py     pz     px    dxy    dyz    dz2    dxz  x2-y2    tot
    1  0.000  0.000  0.000  0.000  0.000  0.000  0.246  0.000  0.737  0.983
 
band     6 # energy    5.39086575 # occ.  1.00000000
 
ion      s     py     pz     px    dxy    dyz    dz2    dxz  x2-y2    tot
    1  0.000  0.000  0.000  0.000  0.000  0.000  0.737  0.000  0.246  0.983
 
band     7 # energy   28.23247171 # occ.  0.00000000
 
ion      s     py     pz     px    dxy    dyz    dz2    dxz  x2-y2    tot
    1  0.000  0.000  0.000  0.000  0.000  0.000  0.000  0.000  0.000  0.000
 
band     8 # energy   30.33893075 # occ.  0.00000000
 
ion      s     py     pz     px    dxy    dyz    dz2    dxz  x2-y2    tot
    1  0.000  0.155  0.155  0.155  0.000  0.000  0.000  0.000  0.000  0.465
 
band     9 # energy   30.33896934 # occ.  0.00000000
 
ion      s     py     pz     px    dxy    dyz    dz2    dxz  x2-y2    tot
    1  0.000  0.310  0.075  0.081  0.000  0.000  0.000  0.000  0.000  0.465
 
band    10 # energy   30.33896935 # occ.  0.00000000
 
ion      s     py     pz     px    dxy    dyz    dz2    dxz  x2-y2    tot
    1  0.000  0.000  0.236  0.229  0.000  0.000  0.000  0.000  0.000  0.465
 
band    11 # energy   32.93668365 # occ.  0.00000000
 
ion      s     py     pz     px    dxy    dyz    dz2    dxz  x2-y2    tot
    1  0.000  0.000  0.000  0.000  0.031  0.648  0.000  0.215  0.000  0.895
 
band    12 # energy   32.93673141 # occ.  0.00000000
 
ion      s     py     pz     px    dxy    dyz    dz2    dxz  x2-y2    tot
    1  0.000  0.000  0.000  0.000  0.355  0.077  0.000  0.463  0.000  0.895
 

 k-point     2 :    0.09090909-0.00000000-0.00000000     weight = 0.00601052

band     1 # energy   -0.76144581 # occ.  1.00000000
 
ion      s     py     pz     px    dxy    dyz    dz2    dxz  x2-y2    tot
    1  0.557  0.005  0.005  0.005  0.000  0.000  0.000  0.000  0.000  0.572
 
band     2 # energy    4.48862600 # occ.  1.00000000
 
ion      s     py     pz     px    dxy    dyz    dz2    dxz  x2-y2    tot
    1  0.000  0.001  0.001  0.001  0.318  0.318  0.000  0.318  0.000  0.956
 
band     3 # energy    4.59236386 # occ.  1.00000000
 
ion      s     py     pz     px    dxy    dyz    dz2    dxz  x2-y2    tot
    1  0.000  0.000  0.000  0.000  0.639  0.160  0.004  0.160  0.000  0.962
 
band     4 # energy    4.59237936 # occ.  1.00000000
 
ion      s     py     pz     px    dxy    dyz    dz2    dxz  x2-y2    tot
    1  0.000  0.000  0.000  0.000  0.000  0.479  0.000  0.479  0.004  0.962
 
band     5 # energy    5.37182615 # occ.  1.00000000
 
ion      s     py     pz     px    dxy    dyz    dz2    dxz  x2-y2    tot
    1  0.000  0.000  0.000  0.000  0.000  0.002  0.000  0.002  0.977  0.981
 
band     6 # energy    5.37182958 # occ.  1.00000000
 
ion      s     py     pz     px    dxy    dyz    dz2    dxz  x2-y2    tot
    1  0.000  0.000  0.000  0.000  0.003  0.001  0.977  0.001  0.000  0.981
 
band     7 # energy   26.19351347 # occ.  0.00000000
 
ion      s     py     pz     px    dxy    dyz    dz2    dxz  x2-y2    tot
    1  0.016  0.069  0.069  0.069  0.085  0.085  0.000  0.085  0.000  0.479
 
band     8 # energy   28.84139138 # occ.  0.00000000
 
ion      s     py     pz     px    dxy    dyz    dz2    dxz  x2-y2    tot
    1  0.022  0.051  0.051  0.051  0.000  0.000  0.000  0.000  0.000  0.177
 
band     9 # energy   29.66279893 # occ.  0.00000000
 
ion      s     py     pz     px    dxy    dyz    dz2    dxz  x2-y2    tot
    1  0.000  0.068  0.271  0.068  0.117  0.029  0.009  0.029  0.000  0.590
 
band    10 # energy   29.66283839 # occ.  0.00000000
 
ion      s     py     pz     px    dxy    dyz    dz2    dxz  x2-y2    tot
    1  0.000  0.203  0.000  0.203  0.000  0.087  0.000  0.087  0.009  0.590
 
band    11 # energy   34.00312500 # occ.  0.00000000
 
ion      s     py     pz     px    dxy    dyz    dz2    dxz  x2-y2    tot
    1  0.000  0.020  0.014  0.013  0.195  0.185  0.004  0.290  0.006  0.727
 
band    12 # energy   34.00318413 # occ.  0.00000000
 
ion      s     py     pz     px    dxy    dyz    dz2    dxz  x2-y2    tot
    1  0.000  0.011  0.018  0.018  0.255  0.261  0.006  0.155  0.004  0.727
 

 k-point     3 :    0.18181818 0.00000000 0.00000000     weight = 0.00601052

band     1 # energy    0.02650028 # occ.  1.00000000
 
ion      s     py     pz     px    dxy    dyz    dz2    dxz  x2-y2    tot
    1  0.513  0.018  0.018  0.018  0.003  0.003  0.000  0.003  0.000  0.576
 
band     2 # energy    4.37497912 # occ.  1.00000000
 
ion      s     py     pz     px    dxy    dyz    dz2    dxz  x2-y2    tot
    1  0.002  0.003  0.003  0.003  0.310  0.310  0.000  0.310  0.000  0.942
 
band     3 # energy    4.68739377 # occ.  1.00000000
 
ion      s     py     pz     px    dxy    dyz    dz2    dxz  x2-y2    tot
    1  0.000  0.000  0.001  0.000  0.593  0.148  0.073  0.148  0.000  0.963
 
band     4 # energy    4.68742336 # occ.  1.00000000
 
ion      s     py     pz     px    dxy    dyz    dz2    dxz  x2-y2    tot
    1  0.000  0.000  0.000  0.000  0.000  0.445  0.000  0.445  0.073  0.963
 
band     5 # energy    5.36114494 # occ.  1.00000000
 
ion      s     py     pz     px    dxy    dyz    dz2    dxz  x2-y2    tot
    1  0.000  0.000  0.000  0.000  0.000  0.037  0.000  0.037  0.903  0.978
 
band     6 # energy    5.36115206 # occ.  1.00000000
 
ion      s     py     pz     px    dxy    dyz    dz2    dxz  x2-y2    tot
    1  0.000  0.000  0.000  0.000  0.050  0.012  0.903  0.012  0.000  0.978
 
band     7 # energy   21.87451776 # occ.  0.00000000
 
ion      s     py     pz     px    dxy    dyz    dz2    dxz  x2-y2    tot
    1  0.063  0.095  0.095  0.095  0.086  0.086  0.000  0.086  0.000  0.606
 
band     8 # energy   28.49217380 # occ.  0.00000000
 
ion      s     py     pz     px    dxy    dyz    dz2    dxz  x2-y2    tot
    1  0.035  0.009  0.009  0.009  0.020  0.020  0.000  0.020  0.000  0.123
 
band     9 # energy   28.71282526 # occ.  0.00000000
 
ion      s     py     pz     px    dxy    dyz    dz2    dxz  x2-y2    tot
    1  0.000  0.068  0.270  0.067  0.165  0.041  0.022  0.041  0.000  0.676
 
band    10 # energy   28.71284570 # occ.  0.00000000
 
ion      s     py     pz     px    dxy    dyz    dz2    dxz  x2-y2    tot
    1  0.000  0.203  0.000  0.203  0.000  0.124  0.000  0.124  0.022  0.676
 
band    11 # energy   34.37425682 # occ.  0.00000000
 
ion      s     py     pz     px    dxy    dyz    dz2    dxz  x2-y2    tot
    1  0.004  0.067  0.067  0.067  0.002  0.002  0.000  0.002  0.000  0.210
 
band    12 # energy   34.96607798 # occ.  0.00000000
 
ion      s     py     pz     px    dxy    dyz    dz2    dxz  x2-y2    tot
    1  0.000  0.027  0.000  0.027  0.000  0.028  0.000  0.028  0.354  0.464
 

 k-point     4 :    0.27272727-0.00000000-0.00000000     weight = 0.00601052

band     1 # energy    1.19997459 # occ.  1.00000000
 
ion      s     py     pz     px    dxy    dyz    dz2    dxz  x2-y2    tot
    1  0.429  0.031  0.031  0.031  0.025  0.025  0.000  0.025  0.000  0.599
 
band     2 # energy    4.35907276 # occ.  1.00000000
 
ion      s     py     pz     px    dxy    dyz    dz2    dxz  x2-y2    tot
    1  0.016  0.016  0.016  0.016  0.278  0.278  0.000  0.278  0.000  0.897
 
band     3 # energy    4.70398355 # occ.  1.00000000
 
ion      s     py     pz     px    dxy    dyz    dz2    dxz  x2-y2    tot
    1  0.000  0.000  0.000  0.000  0.446  0.111  0.291  0.112  0.000  0.961
 
band     4 # energy    4.70402662 # occ.  1.00000000
 
ion      s     py     pz     px    dxy    dyz    dz2    dxz  x2-y2    tot
    1  0.000  0.000  0.000  0.000  0.000  0.335  0.000  0.335  0.291  0.961
 
band     5 # energy    5.47269980 # occ.  1.00000000
 
ion      s     py     pz     px    dxy    dyz    dz2    dxz  x2-y2    tot
    1  0.000  0.000  0.000  0.000  0.199  0.049  0.681  0.050  0.000  0.980
 
band     6 # energy    5.47270168 # occ.  1.00000000
 
ion      s     py     pz     px    dxy    dyz    dz2    dxz  x2-y2    tot
    1  0.000  0.000  0.000  0.000  0.000  0.150  0.000  0.149  0.681  0.980
 
band     7 # energy   17.72502085 # occ.  0.00000000
 
ion      s     py     pz     px    dxy    dyz    dz2    dxz  x2-y2    tot
    1  0.130  0.094  0.094  0.094  0.080  0.080  0.000  0.080  0.000  0.651
 
band     8 # energy   27.91559332 # occ.  0.00000000
 
ion      s     py     pz     px    dxy    dyz    dz2    dxz  x2-y2    tot
    1  0.026  0.000  0.000  0.000  0.022  0.022  0.000  0.022  0.000  0.093
 
band     9 # energy   28.00640452 # occ.  0.00000000
 
ion      s     py     pz     px    dxy    dyz    dz2    dxz  x2-y2    tot
    1  0.000  0.229  0.000  0.229  0.000  0.106  0.000  0.106  0.028  0.698
 
band    10 # energy   28.00643460 # occ.  0.00000000
 
ion      s     py     pz     px    dxy    dyz    dz2    dxz  x2-y2    tot
    1  0.000  0.076  0.305  0.076  0.142  0.035  0.029  0.035  0.000  0.698
 
band    11 # energy   33.04722322 # occ.  0.00000000
 
ion      s     py     pz     px    dxy    dyz    dz2    dxz  x2-y2    tot
    1  0.000  0.022  0.088  0.022  0.024  0.006  0.460  0.006  0.000  0.628
 
band    12 # energy   33.04734864 # occ.  0.00000000
 
ion      s     py     pz     px    dxy    dyz    dz2    dxz  x2-y2    tot
    1  0.000  0.066  0.000  0.066  0.000  0.018  0.000  0.018  0.460  0.628
 

 k-point     5 :    0.36363636 0.00000000 0.00000000     weight = 0.00601052

band     1 # energy    2.29315277 # occ.  1.00000000
 
ion      s     py     pz     px    dxy    dyz    dz2    dxz  x2-y2    tot
    1  0.273  0.022  0.022  0.022  0.123  0.123  0.000  0.123  0.000  0.709
 
band     2 # energy    4.63846234 # occ.  1.00000000
 
ion      s     py     pz     px    dxy    dyz    dz2    dxz  x2-y2    tot
    1  0.000  0.000  0.000  0.000  0.334  0.083  0.456  0.084  0.000  0.958
 
band     3 # energy    4.63850631 # occ.  1.00000000
 
ion      s     py     pz     px    dxy    dyz    dz2    dxz  x2-y2    tot
    1  0.000  0.000  0.000  0.000  0.000  0.251  0.000  0.251  0.456  0.958
 
band     4 # energy    4.89348923 # occ.  1.00000000
 
ion      s     py     pz     px    dxy    dyz    dz2    dxz  x2-y2    tot
    1  0.072  0.065  0.065  0.065  0.162  0.162  0.000  0.162  0.000  0.752
 
band     5 # energy    5.67040101 # occ.  1.00000015
 
ion      s     py     pz     px    dxy    dyz    dz2    dxz  x2-y2    tot
    1  0.000  0.000  0.000  0.000  0.315  0.079  0.512  0.079  0.000  0.985
 
band     6 # energy    5.67041623 # occ.  1.00000015
 
ion      s     py     pz     px    dxy    dyz    dz2    dxz  x2-y2    tot
    1  0.000  0.000  0.000  0.000  0.000  0.236  0.000  0.236  0.512  0.985
 
band     7 # energy   14.03556249 # occ.  0.00000000
 
ion      s     py     pz     px    dxy    dyz    dz2    dxz  x2-y2    tot
    1  0.225  0.074  0.074  0.074  0.083  0.083  0.000  0.083  0.000  0.695
 
band     8 # energy   27.28044195 # occ.  0.00000000
 
ion      s     py     pz     px    dxy    dyz    dz2    dxz  x2-y2    tot
    1  0.010  0.004  0.004  0.004  0.010  0.010  0.000  0.010  0.000  0.051
 
band     9 # energy   27.57429194 # occ.  0.00000000
 
ion      s     py     pz     px    dxy    dyz    dz2    dxz  x2-y2    tot
    1  0.000  0.271  0.000  0.271  0.000  0.058  0.000  0.058  0.020  0.677
 
band    10 # energy   27.57441334 # occ.  0.00000000
 
ion      s     py     pz     px    dxy    dyz    dz2    dxz  x2-y2    tot
    1  0.000  0.090  0.361  0.090  0.077  0.019  0.020  0.019  0.000  0.677
 
band    11 # energy   31.45130452 # occ.  0.00000000
 
ion      s     py     pz     px    dxy    dyz    dz2    dxz  x2-y2    tot
    1  0.000  0.013  0.052  0.013  0.093  0.023  0.480  0.023  0.000  0.697
 
band    12 # energy   31.45156817 # occ.  0.00000000
 
ion      s     py     pz     px    dxy    dyz    dz2    dxz  x2-y2    tot
    1  0.000  0.039  0.000  0.039  0.000  0.070  0.000  0.070  0.480  0.697
 

 k-point     6 :    0.45454545-0.00000000-0.00000000     weight = 0.00601052

band     1 # energy    2.71162585 # occ.  1.00000000
 
ion      s     py     pz     px    dxy    dyz    dz2    dxz  x2-y2    tot
    1  0.153  0.002  0.002  0.002  0.220  0.220  0.000  0.220  0.000  0.821
 
band     2 # energy    4.58206642 # occ.  1.00000000
 
ion      s     py     pz     px    dxy    dyz    dz2    dxz  x2-y2    tot
    1  0.000  0.000  0.000  0.000  0.291  0.073  0.519  0.073  0.000  0.955
 
band     3 # energy    4.58211034 # occ.  1.00000000
 
ion      s     py     pz     px    dxy    dyz    dz2    dxz  x2-y2    tot
    1  0.000  0.000  0.000  0.000  0.000  0.218  0.000  0.218  0.519  0.955
 
band     4 # energy    5.81552532 # occ.  1.00002257
 
ion      s     py     pz     px    dxy    dyz    dz2    dxz  x2-y2    tot
    1  0.000  0.000  0.000  0.000  0.361  0.090  0.449  0.090  0.000  0.990
 
band     5 # energy    5.81556099 # occ.  1.00002260
 
ion      s     py     pz     px    dxy    dyz    dz2    dxz  x2-y2    tot
    1  0.000  0.000  0.000  0.000  0.000  0.270  0.000  0.270  0.449  0.990
 
band     6 # energy    6.24605743 # occ.  1.03211653
 
ion      s     py     pz     px    dxy    dyz    dz2    dxz  x2-y2    tot
    1  0.042  0.145  0.145  0.145  0.027  0.027  0.000  0.027  0.000  0.561
 
band     7 # energy   11.22448857 # occ. -0.00000000
 
ion      s     py     pz     px    dxy    dyz    dz2    dxz  x2-y2    tot
    1  0.371  0.022  0.022  0.022  0.113  0.113  0.000  0.113  0.000  0.776
 
band     8 # energy   26.88667400 # occ.  0.00000000
 
ion      s     py     pz     px    dxy    dyz    dz2    dxz  x2-y2    tot
    1  0.001  0.008  0.008  0.008  0.001  0.001  0.000  0.001  0.000  0.028
 
band     9 # energy   27.38252312 # occ.  0.00000000
 
ion      s     py     pz     px    dxy    dyz    dz2    dxz  x2-y2    tot
    1  0.000  0.310  0.000  0.310  0.000  0.008  0.000  0.008  0.003  0.641
 
band    10 # energy   27.38273466 # occ.  0.00000000
 
ion      s     py     pz     px    dxy    dyz    dz2    dxz  x2-y2    tot
    1  0.000  0.103  0.414  0.104  0.011  0.003  0.003  0.003  0.000  0.641
 
band    11 # energy   30.59682612 # occ.  0.00000000
 
ion      s     py     pz     px    dxy    dyz    dz2    dxz  x2-y2    tot
    1  0.000  0.002  0.008  0.002  0.159  0.040  0.495  0.040  0.000  0.745
 
band    12 # energy   30.59719875 # occ.  0.00000000
 
ion      s     py     pz     px    dxy    dyz    dz2    dxz  x2-y2    tot
    1  0.000  0.006  0.000  0.006  0.000  0.119  0.000  0.119  0.495  0.744
 

 k-point     7 :    0.09090909 0.09090909-0.00000000     weight = 0.00450789

band     1 # energy   -0.67113057 # occ.  1.00000000
 
ion      s     py     pz     px    dxy    dyz    dz2    dxz  x2-y2    tot
    1  0.552  0.019  0.000  0.000  0.000  0.000  0.000  0.000  0.000  0.572
 
band     2 # energy    4.44131783 # occ.  1.00000000
 
ion      s     py     pz     px    dxy    dyz    dz2    dxz  x2-y2    tot
    1  0.000  0.000  0.000  0.000  0.000  0.000  0.000  0.957  0.000  0.957
 
band     3 # energy    4.62789649 # occ.  1.00000000
 
ion      s     py     pz     px    dxy    dyz    dz2    dxz  x2-y2    tot
    1  0.000  0.000  0.001  0.001  0.480  0.480  0.000  0.000  0.000  0.962
 
band     4 # energy    4.62790467 # occ.  1.00000000
 
ion      s     py     pz     px    dxy    dyz    dz2    dxz  x2-y2    tot
    1  0.000  0.000  0.001  0.001  0.480  0.480  0.000  0.000  0.000  0.962
 
band     5 # energy    5.29327822 # occ.  1.00000000
 
ion      s     py     pz     px    dxy    dyz    dz2    dxz  x2-y2    tot
    1  0.000  0.000  0.000  0.000  0.000  0.000  0.244  0.000  0.732  0.977
 
band     6 # energy    5.42948823 # occ.  1.00000000
 
ion      s     py     pz     px    dxy    dyz    dz2    dxz  x2-y2    tot
    1  0.000  0.000  0.000  0.000  0.000  0.000  0.738  0.000  0.246  0.983
 
band     7 # energy   27.21182470 # occ.  0.00000000
 
ion      s     py     pz     px    dxy    dyz    dz2    dxz  x2-y2    tot
    1  0.000  0.000  0.000  0.000  0.000  0.000  0.000  0.245  0.000  0.245
 
band     8 # energy   27.92168641 # occ.  0.00000000
 
ion      s     py     pz     px    dxy    dyz    dz2    dxz  x2-y2    tot
    1  0.000  0.000  0.202  0.202  0.118  0.118  0.000  0.000  0.000  0.640
 
band     9 # energy   27.92171130 # occ.  0.00000000
 
ion      s     py     pz     px    dxy    dyz    dz2    dxz  x2-y2    tot
    1  0.000  0.000  0.202  0.202  0.118  0.118  0.000  0.000  0.000  0.640
 
band    10 # energy   29.13019700 # occ.  0.00000000
 
ion      s     py     pz     px    dxy    dyz    dz2    dxz  x2-y2    tot
    1  0.061  0.276  0.000  0.000  0.000  0.000  0.010  0.000  0.031  0.378
 
band    11 # energy   34.73098339 # occ.  0.00000000
 
ion      s     py     pz     px    dxy    dyz    dz2    dxz  x2-y2    tot
    1  0.000  0.000  0.000  0.000  0.000  0.000  0.000  0.651  0.000  0.651
 
band    12 # energy   34.81138616 # occ.  0.00000000
 
ion      s     py     pz     px    dxy    dyz    dz2    dxz  x2-y2    tot
    1  0.007  0.471  0.000  0.000  0.000  0.000  0.046  0.000  0.137  0.661
 

 k-point     8 :    0.18181818 0.09090909 0.00000000     weight = 0.01803156

band     1 # energy   -0.05535945 # occ.  1.00000000
 
ion      s     py     pz     px    dxy    dyz    dz2    dxz  x2-y2    tot
    1  0.518  0.042  0.004  0.004  0.002  0.002  0.001  0.000  0.002  0.574
 
band     2 # energy    4.31964569 # occ.  1.00000000
 
ion      s     py     pz     px    dxy    dyz    dz2    dxz  x2-y2    tot
    1  0.000  0.000  0.001  0.001  0.053  0.053  0.000  0.839  0.000  0.947
 
band     3 # energy    4.72489429 # occ.  1.00000000
 
ion      s     py     pz     px    dxy    dyz    dz2    dxz  x2-y2    tot
    1  0.000  0.001  0.001  0.001  0.405  0.402  0.012  0.106  0.034  0.962
 
band     4 # energy    4.73103066 # occ.  1.00000000
 
ion      s     py     pz     px    dxy    dyz    dz2    dxz  x2-y2    tot
    1  0.000  0.000  0.001  0.001  0.463  0.465  0.025  0.000  0.008  0.963
 
band     5 # energy    5.22223531 # occ.  1.00000000
 
ion      s     py     pz     px    dxy    dyz    dz2    dxz  x2-y2    tot
    1  0.002  0.001  0.000  0.000  0.020  0.020  0.231  0.005  0.692  0.972
 
band     6 # energy    5.46340245 # occ.  1.00000000
 
ion      s     py     pz     px    dxy    dyz    dz2    dxz  x2-y2    tot
    1  0.000  0.000  0.000  0.000  0.017  0.017  0.712  0.000  0.237  0.982
 
band     7 # energy   23.50556596 # occ.  0.00000000
 
ion      s     py     pz     px    dxy    dyz    dz2    dxz  x2-y2    tot
    1  0.038  0.045  0.119  0.119  0.076  0.076  0.001  0.113  0.002  0.590
 
band     8 # energy   26.58383020 # occ.  0.00000000
 
ion      s     py     pz     px    dxy    dyz    dz2    dxz  x2-y2    tot
    1  0.000  0.000  0.212  0.212  0.117  0.117  0.005  0.000  0.002  0.664
 
band     9 # energy   27.30069238 # occ.  0.00000000
 
ion      s     py     pz     px    dxy    dyz    dz2    dxz  x2-y2    tot
    1  0.042  0.070  0.004  0.004  0.003  0.003  0.007  0.191  0.020  0.342
 
band    10 # energy   30.20736242 # occ.  0.00000000
 
ion      s     py     pz     px    dxy    dyz    dz2    dxz  x2-y2    tot
    1  0.007  0.019  0.082  0.082  0.016  0.016  0.027  0.028  0.082  0.359
 
band    11 # energy   32.02501201 # occ.  0.00000000
 
ion      s     py     pz     px    dxy    dyz    dz2    dxz  x2-y2    tot
    1  0.037  0.501  0.025  0.025  0.003  0.003  0.028  0.010  0.085  0.718
 
band    12 # energy   34.84919009 # occ.  0.00000000
 
ion      s     py     pz     px    dxy    dyz    dz2    dxz  x2-y2    tot
    1  0.023  0.028  0.000  0.000  0.135  0.135  0.019  0.278  0.056  0.673
 

 k-point     9 :    0.27272727 0.09090909-0.00000000     weight = 0.01803156

band     1 # energy    1.00063585 # occ.  1.00000000
 
ion      s     py     pz     px    dxy    dyz    dz2    dxz  x2-y2    tot
    1  0.448  0.065  0.015  0.015  0.015  0.015  0.002  0.006  0.006  0.587
 
band     2 # energy    4.22264966 # occ.  1.00000000
 
ion      s     py     pz     px    dxy    dyz    dz2    dxz  x2-y2    tot
    1  0.004  0.004  0.008  0.008  0.091  0.091  0.001  0.717  0.002  0.925
 
band     3 # energy    4.72674220 # occ.  1.00000000
 
ion      s     py     pz     px    dxy    dyz    dz2    dxz  x2-y2    tot
    1  0.000  0.000  0.001  0.001  0.228  0.228  0.087  0.153  0.260  0.958
 
band     4 # energy    4.78984041 # occ.  1.00000000
 
ion      s     py     pz     px    dxy    dyz    dz2    dxz  x2-y2    tot
    1  0.000  0.000  0.001  0.001  0.380  0.381  0.149  0.000  0.050  0.963
 
band     5 # energy    5.34124382 # occ.  1.00000000
 
ion      s     py     pz     px    dxy    dyz    dz2    dxz  x2-y2    tot
    1  0.008  0.005  0.001  0.001  0.139  0.139  0.152  0.064  0.457  0.967
 
band     6 # energy    5.55811111 # occ.  1.00000000
 
ion      s     py     pz     px    dxy    dyz    dz2    dxz  x2-y2    tot
    1  0.000  0.000  0.000  0.000  0.102  0.102  0.584  0.000  0.195  0.983
 
band     7 # energy   19.25708373 # occ.  0.00000000
 
ion      s     py     pz     px    dxy    dyz    dz2    dxz  x2-y2    tot
    1  0.097  0.057  0.120  0.120  0.070  0.070  0.001  0.099  0.003  0.637
 
band     8 # energy   25.69645965 # occ.  0.00000000
 
ion      s     py     pz     px    dxy    dyz    dz2    dxz  x2-y2    tot
    1  0.000  0.000  0.226  0.226  0.098  0.098  0.017  0.000  0.006  0.671
 
band     9 # energy   26.75203913 # occ.  0.00000000
 
ion      s     py     pz     px    dxy    dyz    dz2    dxz  x2-y2    tot
    1  0.039  0.031  0.002  0.002  0.000  0.000  0.016  0.190  0.048  0.327
 
band    10 # energy   29.22958526 # occ.  0.00000000
 
ion      s     py     pz     px    dxy    dyz    dz2    dxz  x2-y2    tot
    1  0.047  0.367  0.006  0.006  0.000  0.000  0.044  0.040  0.131  0.641
 
band    11 # energy   32.42941238 # occ.  0.00000000
 
ion      s     py     pz     px    dxy    dyz    dz2    dxz  x2-y2    tot
    1  0.001  0.101  0.096  0.096  0.008  0.008  0.025  0.000  0.074  0.411
 
band    12 # energy   34.61723899 # occ.  0.00000000
 
ion      s     py     pz     px    dxy    dyz    dz2    dxz  x2-y2    tot
    1  0.010  0.023  0.051  0.051  0.076  0.076  0.025  0.221  0.074  0.606
 

 k-point    10 :    0.36363636 0.09090909-0.00000000     weight = 0.01803156

band     1 # energy    2.17784950 # occ.  1.00000000
 
ion      s     py     pz     px    dxy    dyz    dz2    dxz  x2-y2    tot
    1  0.315  0.064  0.016  0.016  0.085  0.085  0.004  0.067  0.011  0.663
 
band     2 # energy    4.38881569 # occ.  1.00000000
 
ion      s     py     pz     px    dxy    dyz    dz2    dxz  x2-y2    tot
    1  0.029  0.028  0.030  0.030  0.053  0.053  0.012  0.584  0.037  0.855
 
band     3 # energy    4.61274156 # occ.  1.00000000
 
ion      s     py     pz     px    dxy    dyz    dz2    dxz  x2-y2    tot
    1  0.000  0.000  0.000  0.000  0.124  0.124  0.127  0.194  0.382  0.953
 
band     4 # energy    4.75198542 # occ.  1.00000000
 
ion      s     py     pz     px    dxy    dyz    dz2    dxz  x2-y2    tot
    1  0.000  0.000  0.001  0.001  0.283  0.283  0.295  0.000  0.098  0.961
 
band     5 # energy    5.72016309 # occ.  1.00000096
 
ion      s     py     pz     px    dxy    dyz    dz2    dxz  x2-y2    tot
    1  0.000  0.000  0.000  0.000  0.203  0.203  0.436  0.000  0.145  0.987
 
band     6 # energy    5.75086094 # occ.  1.00000279
 
ion      s     py     pz     px    dxy    dyz    dz2    dxz  x2-y2    tot
    1  0.030  0.021  0.008  0.008  0.202  0.202  0.097  0.081  0.291  0.940
 
band     7 # energy   15.38601536 # occ.  0.00000000
 
ion      s     py     pz     px    dxy    dyz    dz2    dxz  x2-y2    tot
    1  0.180  0.048  0.106  0.106  0.066  0.066  0.001  0.099  0.003  0.674
 
band     8 # energy   25.30246626 # occ.  0.00000000
 
ion      s     py     pz     px    dxy    dyz    dz2    dxz  x2-y2    tot
    1  0.000  0.000  0.241  0.241  0.069  0.069  0.035  0.000  0.012  0.666
 
band     9 # energy   26.18629886 # occ.  0.00000000
 
ion      s     py     pz     px    dxy    dyz    dz2    dxz  x2-y2    tot
    1  0.007  0.008  0.002  0.002  0.001  0.001  0.036  0.107  0.108  0.271
 
band    10 # energy   27.34399106 # occ.  0.00000000
 
ion      s     py     pz     px    dxy    dyz    dz2    dxz  x2-y2    tot
    1  0.084  0.393  0.037  0.037  0.003  0.003  0.015  0.073  0.046  0.691
 
band    11 # energy   33.00096727 # occ.  0.00000000
 
ion      s     py     pz     px    dxy    dyz    dz2    dxz  x2-y2    tot
    1  0.000  0.027  0.006  0.006  0.044  0.044  0.070  0.073  0.210  0.481
 
band    12 # energy   34.33271488 # occ.  0.00000000
 
ion      s     py     pz     px    dxy    dyz    dz2    dxz  x2-y2    tot
    1  0.000  0.000  0.064  0.064  0.041  0.041  0.314  0.000  0.105  0.629
 

 k-point    11 :    0.45454545 0.09090909 0.00000000     weight = 0.01803156

band     1 # energy    2.79055800 # occ.  1.00000000
 
ion      s     py     pz     px    dxy    dyz    dz2    dxz  x2-y2    tot
    1  0.161  0.023  0.002  0.002  0.196  0.196  0.002  0.216  0.005  0.802
 
band     2 # energy    4.51654813 # occ.  1.00000000
 
ion      s     py     pz     px    dxy    dyz    dz2    dxz  x2-y2    tot
    1  0.000  0.000  0.002  0.002  0.090  0.090  0.149  0.163  0.447  0.945
 
band     3 # energy    4.68524384 # occ.  1.00000000
 
ion      s     py     pz     px    dxy    dyz    dz2    dxz  x2-y2    tot
    1  0.000  0.000  0.001  0.001  0.228  0.228  0.375  0.000  0.125  0.957
 
band     4 # energy    4.99974499 # occ.  1.00000000
 
ion      s     py     pz     px    dxy    dyz    dz2    dxz  x2-y2    tot
    1  0.022  0.047  0.045  0.045  0.015  0.015  0.039  0.489  0.116  0.831
 
band     5 # energy    5.83162346 # occ.  1.00003667
 
ion      s     py     pz     px    dxy    dyz    dz2    dxz  x2-y2    tot
    1  0.000  0.000  0.000  0.000  0.260  0.260  0.352  0.000  0.117  0.990
 
band     6 # energy    6.64758647 # occ. -0.01435272
 
ion      s     py     pz     px    dxy    dyz    dz2    dxz  x2-y2    tot
    1  0.064  0.090  0.057  0.057  0.142  0.142  0.051  0.026  0.153  0.781
 
band     7 # energy   12.13916233 # occ.  0.00000000
 
ion      s     py     pz     px    dxy    dyz    dz2    dxz  x2-y2    tot
    1  0.303  0.019  0.065  0.065  0.079  0.079  0.001  0.120  0.003  0.734
 
band     8 # energy   25.17529463 # occ.  0.00000000
 
ion      s     py     pz     px    dxy    dyz    dz2    dxz  x2-y2    tot
    1  0.016  0.192  0.010  0.010  0.012  0.012  0.043  0.019  0.128  0.441
 
band     9 # energy   25.45380272 # occ.  0.00000000
 
ion      s     py     pz     px    dxy    dyz    dz2    dxz  x2-y2    tot
    1  0.000  0.000  0.253  0.253  0.037  0.037  0.058  0.000  0.019  0.658
 
band    10 # energy   26.63436594 # occ.  0.00000000
 
ion      s     py     pz     px    dxy    dyz    dz2    dxz  x2-y2    tot
    1  0.067  0.179  0.061  0.061  0.002  0.002  0.001  0.093  0.002  0.468
 
band    11 # energy   32.82526842 # occ.  0.00000000
 
ion      s     py     pz     px    dxy    dyz    dz2    dxz  x2-y2    tot
    1  0.008  0.017  0.000  0.000  0.016  0.016  0.079  0.157  0.236  0.530
 
band    12 # energy   32.92801757 # occ.  0.00000000
 
ion      s     py     pz     px    dxy    dyz    dz2    dxz  x2-y2    tot
    1  0.000  0.000  0.061  0.061  0.082  0.082  0.302  0.000  0.101  0.689
 

 k-point    12 :   -0.45454545 0.09090909 0.00000000     weight = 0.01803156

band     1 # energy    2.88617035 # occ.  1.00000000
 
ion      s     py     pz     px    dxy    dyz    dz2    dxz  x2-y2    tot
    1  0.127  0.003  0.003  0.003  0.221  0.221  0.000  0.260  0.000  0.837
 
band     2 # energy    4.49706224 # occ.  1.00000000
 
ion      s     py     pz     px    dxy    dyz    dz2    dxz  x2-y2    tot
    1  0.000  0.000  0.002  0.002  0.066  0.066  0.144  0.234  0.431  0.945
 
band     3 # energy    4.65736537 # occ.  1.00000000
 
ion      s     py     pz     px    dxy    dyz    dz2    dxz  x2-y2    tot
    1  0.000  0.000  0.000  0.000  0.207  0.207  0.406  0.000  0.135  0.956
 
band     4 # energy    5.25737550 # occ.  1.00000000
 
ion      s     py     pz     px    dxy    dyz    dz2    dxz  x2-y2    tot
    1  0.001  0.040  0.041  0.041  0.102  0.102  0.063  0.284  0.189  0.861
 
band     5 # energy    5.80472831 # occ.  1.00001617
 
ion      s     py     pz     px    dxy    dyz    dz2    dxz  x2-y2    tot
    1  0.000  0.000  0.000  0.000  0.282  0.282  0.319  0.000  0.106  0.989
 
band     6 # energy    7.39137655 # occ. -0.00000000
 
ion      s     py     pz     px    dxy    dyz    dz2    dxz  x2-y2    tot
    1  0.008  0.120  0.126  0.126  0.008  0.008  0.035  0.119  0.104  0.656
 
band     7 # energy   10.83493543 # occ. -0.00000000
 
ion      s     py     pz     px    dxy    dyz    dz2    dxz  x2-y2    tot
    1  0.413  0.022  0.000  0.000  0.124  0.124  0.000  0.114  0.001  0.798
 
band     8 # energy   24.19807493 # occ.  0.00000000
 
ion      s     py     pz     px    dxy    dyz    dz2    dxz  x2-y2    tot