<?xml version="1.0" encoding="ISO-8859-1"?>
<modeling>
 <generator>
  <i name="program" type="string">vasp </i>
  <i name="version" type="string">6.3.0  </i>
  <i name="subversion" type="string">20Jan22 (build Feb 01 2022 16:52:37) complex                          parallel </i>
  <i name="platform" type="string">TETRA_NSC1 </i>
  <i name="date" type="string">2022 02 23 </i>
  <i name="time" type="string">15:19:35 </i>
 </generator>
 <incar>
  <i type="string" name="SYSTEM">fcc Ni</i>
  <i type="int" name="ISTART">     0</i>
  <i type="int" name="ISPIN">     2</i>
  <i type="int" name="ICHARG">     2</i>
  <i name="ENCUT">    270.00000000</i>
  <v name="MAGMOM">      1.00000000</v>
  <i type="int" name="ISMEAR">     1</i>
  <i name="SIGMA">      0.20000000</i>
  <i type="int" name="LORBIT">    11</i>
 </incar>
 <primitive_cell>
  <structure name="primitive_cell" >
   <crystal>
    <varray name="basis" >
     <v>       1.90000000       1.90000000       0.00000000 </v>
     <v>       0.00000000       1.90000000       1.90000000 </v>
     <v>       1.90000000       0.00000000       1.90000000 </v>
    </varray>
    <i name="volume">     13.71800000 </i>
    <varray name="rec_basis" >
     <v>       0.26315789       0.26315789      -0.26315789 </v>
     <v>      -0.26315789       0.26315789       0.26315789 </v>
     <v>       0.26315789      -0.26315789       0.26315789 </v>
    </varray>
   </crystal>
   <varray name="positions" >
    <v>       0.00000000       0.00000000       0.00000000 </v>
   </varray>
  </structure>
  <varray name="primitive_index" >
   <v type="int" >        1 </v>
  </varray>
 </primitive_cell>
 <kpoints>
  <generation param="Monkhorst-Pack">
   <v type="int" name="divisions">      11       11       11 </v>
   <v name="usershift">      0.00000000       0.00000000       0.00000000 </v>
   <v name="genvec1">      0.09090909      -0.00000000      -0.00000000 </v>
   <v name="genvec2">     -0.00000000       0.09090909       0.00000000 </v>
   <v name="genvec3">      0.00000000       0.00000000       0.09090909 </v>
   <v name="shift">      0.00000000       0.00000000       0.00000000 </v>
  </generation>
  <varray name="kpointlist" >
   <v>       0.00000000       0.00000000       0.00000000 </v>
   <v>       0.09090909      -0.00000000      -0.00000000 </v>
   <v>       0.18181818       0.00000000       0.00000000 </v>
   <v>       0.27272727      -0.00000000      -0.00000000 </v>
   <v>       0.36363636       0.00000000       0.00000000 </v>
   <v>       0.45454545      -0.00000000      -0.00000000 </v>
   <v>       0.09090909       0.09090909      -0.00000000 </v>
   <v>       0.18181818       0.09090909       0.00000000 </v>
   <v>       0.27272727       0.09090909      -0.00000000 </v>
   <v>       0.36363636       0.09090909      -0.00000000 </v>
   <v>       0.45454545       0.09090909       0.00000000 </v>
   <v>      -0.45454545       0.09090909       0.00000000 </v>
   <v>      -0.36363636       0.09090909       0.00000000 </v>
   <v>      -0.27272727       0.09090909      -0.00000000 </v>
   <v>      -0.18181818       0.09090909       0.00000000 </v>
   <v>      -0.09090909       0.09090909       0.00000000 </v>
   <v>       0.18181818       0.18181818       0.00000000 </v>
   <v>       0.27272727       0.18181818       0.00000000 </v>
   <v>       0.36363636       0.18181818       0.00000000 </v>
   <v>       0.45454545       0.18181818      -0.00000000 </v>
   <v>      -0.45454545       0.18181818       0.00000000 </v>
   <v>      -0.36363636       0.18181818       0.00000000 </v>
   <v>      -0.27272727       0.18181818       0.00000000 </v>
   <v>      -0.18181818       0.18181818      -0.00000000 </v>
   <v>       0.27272727       0.27272727      -0.00000000 </v>
   <v>       0.36363636       0.27272727      -0.00000000 </v>
   <v>       0.45454545       0.27272727       0.00000000 </v>
   <v>      -0.45454545       0.27272727       0.00000000 </v>
   <v>      -0.36363636       0.27272727       0.00000000 </v>
   <v>      -0.27272727       0.27272727       0.00000000 </v>
   <v>       0.36363636       0.36363636      -0.00000000 </v>
   <v>       0.45454545       0.36363636       0.00000000 </v>
   <v>      -0.45454545       0.36363636      -0.00000000 </v>
   <v>      -0.36363636       0.36363636      -0.00000000 </v>
   <v>       0.45454545       0.45454545       0.00000000 </v>
   <v>      -0.45454545       0.45454545       0.00000000 </v>
   <v>       0.27272727       0.18181818       0.09090909 </v>
   <v>       0.36363636       0.18181818       0.09090909 </v>
   <v>       0.45454545       0.18181818       0.09090909 </v>
   <v>      -0.45454545       0.18181818       0.09090909 </v>
   <v>       0.36363636       0.27272727       0.09090909 </v>
   <v>       0.45454545       0.27272727       0.09090909 </v>
   <v>      -0.45454545       0.27272727       0.09090909 </v>
   <v>      -0.36363636       0.27272727       0.09090909 </v>
   <v>      -0.27272727       0.27272727       0.09090909 </v>
   <v>      -0.18181818       0.27272727       0.09090909 </v>
   <v>       0.45454545       0.36363636       0.09090909 </v>
   <v>      -0.45454545       0.36363636       0.09090909 </v>
   <v>      -0.36363636       0.36363636       0.09090909 </v>
   <v>      -0.27272727       0.36363636       0.09090909 </v>
   <v>      -0.45454545       0.45454545       0.09090909 </v>
   <v>      -0.36363636       0.45454545       0.09090909 </v>
   <v>      -0.45454545       0.36363636       0.18181818 </v>
   <v>      -0.36363636       0.36363636       0.18181818 </v>
   <v>      -0.36363636       0.45454545       0.18181818 </v>
   <v>      -0.27272727       0.45454545       0.18181818 </v>
  </varray>
  <varray name="weights" >
   <v>       0.00075131 </v>
   <v>       0.00601052 </v>
   <v>       0.00601052 </v>
   <v>       0.00601052 </v>
   <v>       0.00601052 </v>
   <v>       0.00601052 </v>
   <v>       0.00450789 </v>
   <v>       0.01803156 </v>
   <v>       0.01803156 </v>
   <v>       0.01803156 </v>
   <v>       0.01803156 </v>
   <v>       0.01803156 </v>
   <v>       0.01803156 </v>
   <v>       0.01803156 </v>
   <v>       0.01803156 </v>
   <v>       0.00901578 </v>
   <v>       0.00450789 </v>
   <v>       0.01803156 </v>
   <v>       0.01803156 </v>
   <v>       0.01803156 </v>
   <v>       0.01803156 </v>
   <v>       0.01803156 </v>
   <v>       0.01803156 </v>
   <v>       0.00901578 </v>
   <v>       0.00450789 </v>
   <v>       0.01803156 </v>
   <v>       0.01803156 </v>
   <v>       0.01803156 </v>
   <v>       0.01803156 </v>
   <v>       0.00901578 </v>
   <v>       0.00450789 </v>
   <v>       0.01803156 </v>
   <v>       0.01803156 </v>
   <v>       0.00901578 </v>
   <v>       0.00450789 </v>
   <v>       0.00901578 </v>
   <v>       0.01803156 </v>
   <v>       0.03606311 </v>
   <v>       0.03606311 </v>
   <v>       0.03606311 </v>
   <v>       0.01803156 </v>
   <v>       0.03606311 </v>
   <v>       0.03606311 </v>
   <v>       0.03606311 </v>
   <v>       0.03606311 </v>
   <v>       0.01803156 </v>
   <v>       0.01803156 </v>
   <v>       0.03606311 </v>
   <v>       0.03606311 </v>
   <v>       0.01803156 </v>
   <v>       0.01803156 </v>
   <v>       0.01803156 </v>
   <v>       0.01803156 </v>
   <v>       0.03606311 </v>
   <v>       0.01803156 </v>
   <v>       0.01803156 </v>
  </varray>
 </kpoints>
 <parameters>
  <separator name="general" >
   <i type="string" name="SYSTEM">fcc Ni</i>
   <i type="logical" name="LCOMPAT"> F  </i>
  </separator>
  <separator name="electronic" >
   <i type="string" name="PREC">normal</i>
   <i name="ENMAX">    270.00000000</i>
   <i name="ENAUG">    544.56500000</i>
   <i name="EDIFF">      0.00010000</i>
   <i type="int" name="IALGO">    38</i>
   <i type="int" name="IWAVPR">    10</i>
   <i type="int" name="NBANDS">    12</i>
   <i type="int" name="NBANDSLOW">    -1</i>
   <i type="int" name="NBANDSHIGH">    -1</i>
   <i name="NELECT">     10.00000000</i>
   <i type="int" name="TURBO">     0</i>
   <i type="int" name="IRESTART">     0</i>
   <i type="int" name="NREBOOT">     0</i>
   <i type="int" name="NMIN">     0</i>
   <i name="EREF">      0.00000000</i>
   <separator name="electronic smearing" >
    <i type="int" name="ISMEAR">     1</i>
    <i name="SIGMA">      0.20000000</i>
    <i name="KSPACING">      0.50000000</i>
    <i type="logical" name="KGAMMA"> T  </i>
    <i type="logical" name="KBLOWUP"> T  </i>
   </separator>
   <separator name="electronic projectors" >
    <i type="logical" name="LREAL"> F  </i>
    <v name="ROPT">      0.00000000</v>
    <i type="int" name="LMAXPAW">  -100</i>
    <i type="int" name="LMAXMIX">     2</i>
    <i type="logical" name="NLSPLINE"> F  </i>
   </separator>
   <separator name="electronic startup" >
    <i type="int" name="ISTART">     0</i>
    <i type="int" name="ICHARG">     2</i>
    <i type="int" name="INIWAV">     1</i>
   </separator>
   <separator name="electronic spin" >
    <i type="int" name="ISPIN">     2</i>
    <i type="logical" name="LNONCOLLINEAR"> F  </i>
    <v name="MAGMOM">      1.00000000</v>
    <i name="NUPDOWN">     -1.00000000</i>
    <i type="logical" name="LSORBIT"> F  </i>
    <v name="SAXIS">      0.00000000      0.00000000      1.00000000</v>
    <i type="logical" name="LSPIRAL"> F  </i>
    <v name="QSPIRAL">      0.00000000      0.00000000      0.00000000</v>
    <i type="logical" name="LZEROZ"> F  </i>
   </separator>
   <separator name="electronic exchange-correlation" >
    <i type="logical" name="LASPH"> F  </i>
    <i type="logical" name="LMETAGGA"> F  </i>
   </separator>
   <separator name="electronic convergence" >
    <i type="int" name="NELM">    60</i>
    <i type="int" name="NELMDL">    -5</i>
    <i type="int" name="NELMIN">     2</i>
    <i name="ENINI">    270.00000000</i>
    <separator name="electronic convergence detail" >
     <i type="logical" name="LDIAG"> T  </i>
     <i type="logical" name="LSUBROT"> F  </i>
     <i name="WEIMIN">      0.00000000</i>
     <i name="EBREAK">      0.00000208</i>
     <i name="DEPER">      0.30000000</i>
     <i type="int" name="NRMM">     4</i>
     <i name="TIME">      0.40000000</i>
    </separator>
   </separator>
   <separator name="electronic mixer" >
    <i name="AMIX">      0.40000000</i>
    <i name="BMIX">      1.00000000</i>
    <i name="AMIN">      0.10000000</i>
    <i name="AMIX_MAG">      1.60000000</i>
    <i name="BMIX_MAG">      1.00000000</i>
    <separator name="electronic mixer details" >
     <i type="int" name="IMIX">     4</i>
     <i type="logical" name="MIXFIRST"> F  </i>
     <i type="int" name="MAXMIX">   -45</i>
     <i name="WC">    100.00000000</i>
     <i type="int" name="INIMIX">     1</i>
     <i type="int" name="MIXPRE">     1</i>
     <i type="int" name="MREMOVE">     5</i>
    </separator>
   </separator>
   <separator name="electronic dipolcorrection" >
    <i type="logical" name="LDIPOL"> F  </i>
    <i type="logical" name="LMONO"> F  </i>
    <i type="int" name="IDIPOL">     0</i>
    <i name="EPSILON">      1.00000000</i>
    <v name="DIPOL">   -100.00000000   -100.00000000   -100.00000000</v>
    <i name="EFIELD">      0.00000000</i>
   </separator>
  </separator>
  <separator name="grids" >
   <i type="int" name="NGX">    12</i>
   <i type="int" name="NGY">    12</i>
   <i type="int" name="NGZ">    12</i>
   <i type="int" name="NGXF">    24</i>
   <i type="int" name="NGYF">    24</i>
   <i type="int" name="NGZF">    24</i>
   <i type="logical" name="ADDGRID"> F  </i>
  </separator>
  <separator name="ionic" >
   <i type="int" name="NSW">     0</i>
   <i type="int" name="IBRION">    -1</i>
   <i type="int" name="MDALGO">     0</i>
   <i type="int" name="ISIF">     2</i>
   <i name="PSTRESS">      0.00000000</i>
   <i name="EDIFFG">      0.00100000</i>
   <i type="int" name="NFREE">     0</i>
   <i name="POTIM">      0.50000000</i>
   <i name="SMASS">     -3.00000000</i>
   <i name="SCALEE">      1.00000000</i>
  </separator>
  <separator name="ionic md" >
   <i name="TEBEG">      0.00010000</i>
   <i name="TEEND">      0.00010000</i>
   <i type="int" name="NBLOCK">     1</i>
   <i type="int" name="KBLOCK">     1</i>
   <i type="int" name="NPACO">   256</i>
   <i name="APACO">     10.00000000</i>
  </separator>
  <separator name="symmetry" >
   <i type="int" name="ISYM">     2</i>
   <i name="SYMPREC">      0.00001000</i>
  </separator>
  <separator name="dos" >
   <i type="int" name="LORBIT">    11</i>
   <v name="RWIGS">     -1.00000000</v>
   <i type="int" name="NEDOS">   301</i>
   <i name="EMIN">     10.00000000</i>
   <i name="EMAX">    -10.00000000</i>
   <i name="EFERMI">      0.00000000</i>
  </separator>
  <separator name="writing" >
   <i type="int" name="NWRITE">     2</i>
   <i type="logical" name="LWAVE"> T  </i>
   <i type="logical" name="LDOWNSAMPLE"> F  </i>
   <i type="logical" name="LCHARG"> T  </i>
   <i type="logical" name="LPARD"> F  </i>
   <i type="logical" name="LVTOT"> F  </i>
   <i type="logical" name="LVHAR"> F  </i>
   <i type="logical" name="LELF"> F  </i>
   <i type="logical" name="LOPTICS"> F  </i>
   <v name="STM">      0.00000000      0.00000000      0.00000000      0.00000000      0.00000000      0.00000000      0.00000000</v>
  </separator>
  <separator name="performance" >
   <i type="int" name="NPAR">     4</i>
   <i type="int" name="NSIM">     4</i>
   <i type="int" name="NBLK">    -1</i>
   <i type="logical" name="LPLANE"> T  </i>
   <i type="logical" name="LSCALAPACK"> T  </i>
   <i type="logical" name="LSCAAWARE"> F  </i>
   <i type="logical" name="LSCALU"> F  </i>
   <i type="logical" name="LASYNC"> F  </i>
   <i type="logical" name="LORBITALREAL"> F  </i>
  </separator>
  <separator name="miscellaneous" >
   <i type="int" name="IDIOT">     3</i>
   <i type="int" name="PHON_NSTRUCT">    -1</i>
   <i type="logical" name="LMUSIC"> F  </i>
   <v name="POMASS">     58.69000000</v>
   <v name="DARWINR">      0.00000000</v>
   <v name="DARWINV">      1.00000000</v>
   <i type="logical" name="LCORR"> T  </i>
  </separator>
  <i type="logical" name="GGA_COMPAT"> T  </i>
  <i type="logical" name="LBERRY"> F  </i>
  <i type="int" name="ICORELEVEL">     0</i>
  <i type="logical" name="LDAU"> F  </i>
  <i type="int" name="I_CONSTRAINED_M">     0</i>
  <separator name="electronic exchange-correlation" >
   <i type="string" name="GGA">--</i>
   <i type="int" name="VOSKOWN">     0</i>
   <i type="logical" name="LHFCALC"> F  </i>
   <i type="string" name="PRECFOCK"></i>
   <i type="logical" name="LSYMGRAD"> F  </i>
   <i type="logical" name="LHFONE"> F  </i>
   <i type="logical" name="LRHFCALC"> F  </i>
   <i type="logical" name="LTHOMAS"> F  </i>
   <i type="logical" name="LMODELHF"> F  </i>
   <i type="logical" name="LFOCKACE"> F  </i>
   <i name="ENCUT4O">     -1.00000000</i>
   <i type="int" name="EXXOEP">     0</i>
   <i type="int" name="FOURORBIT">     0</i>
   <i name="AEXX">      0.00000000</i>
   <i name="HFALPHA">      0.00000000</i>
   <i name="MCALPHA">      0.00000000</i>
   <i name="ALDAX">      1.00000000</i>
   <i name="AGGAX">      1.00000000</i>
   <i name="ALDAC">      1.00000000</i>
   <i name="AGGAC">      1.00000000</i>
   <i type="int" name="NKREDX">     1</i>
   <i type="int" name="NKREDY">     1</i>
   <i type="int" name="NKREDZ">     1</i>
   <i type="logical" name="SHIFTRED"> F  </i>
   <i type="logical" name="ODDONLY"> F  </i>
   <i type="logical" name="EVENONLY"> F  </i>
   <i type="int" name="LMAXFOCK">     0</i>
   <i type="int" name="NMAXFOCKAE">     0</i>
   <i type="logical" name="LFOCKAEDFT"> F  </i>
   <i name="HFSCREEN">      0.00000000</i>
   <i name="HFSCREENC">      0.00000000</i>
   <i type="int" name="NBANDSGWLOW">     0</i>
  </separator>
  <separator name="vdW DFT" >
   <i type="logical" name="LUSE_VDW"> F  </i>
   <i name="Zab_VDW">     -0.84910000</i>
   <i name="PARAM1">      0.12340000</i>
   <i name="PARAM2">      1.00000000</i>
   <i name="PARAM3">      0.00000000</i>
  </separator>
  <separator name="model GW" >
   <i type="int" name="MODEL_GW">     0</i>
   <i name="MODEL_EPS0">      8.23080000</i>
   <i name="MODEL_ALPHA">      1.00000000</i>
  </separator>
  <separator name="linear response parameters" >
   <i type="logical" name="LEPSILON"> F  </i>
   <i type="logical" name="LRPA"> F  </i>
   <i type="logical" name="LNABLA"> F  </i>
   <i type="logical" name="LVEL"> F  </i>
   <i name="CSHIFT">      0.10000000</i>
   <i name="OMEGAMAX">     -1.00000000</i>
   <i name="DEG_THRESHOLD">      0.00200000</i>
   <i name="RTIME">     -0.10000000</i>
   <i name="WPLASMAI">      0.00000000</i>
   <v name="DFIELD">      0.00000000      0.00000000      0.00000000</v>
   <v name="WPLASMA">      0.00000000      0.00000000      0.00000000      0.00000000      0.00000000      0.00000000      0.00000000      0.00000000      0.00000000</v>
  </separator>
  <separator name="orbital magnetization" >
   <i type="logical" name="NUCIND"> F  </i>
   <v name="MAGPOS">      0.00000000      0.00000000      0.00000000</v>
   <i type="logical" name="LNICSALL"> T  </i>
   <i type="logical" name="ORBITALMAG"> F  </i>
   <i type="logical" name="LMAGBLOCH"> F  </i>
   <i type="logical" name="LCHIMAG"> F  </i>
   <i type="logical" name="LGAUGE"> T  </i>
   <i type="int" name="MAGATOM">     0</i>
   <v name="MAGDIPOL">      0.00000000      0.00000000      0.00000000</v>
   <v name="AVECCONST">      0.00000000      0.00000000      0.00000000</v>
  </separator>
  <separator name="response functions" >
   <i type="logical" name="LFINITE_TEMPERATURE"> F  </i>
   <i type="logical" name="LADDER"> F  </i>
   <i type="logical" name="LRPAFORCE"> F  </i>
   <i type="logical" name="LFXC"> F  </i>
   <i type="logical" name="LHARTREE"> T  </i>
   <i type="int" name="IBSE">     0</i>
   <v type="int" name="KPOINT">    -1     0     0     0</v>
   <i type="logical" name="LTCTC"> F  </i>
   <i type="logical" name="LTCTE"> F  </i>
   <i type="logical" name="LTETE"> F  </i>
   <i type="logical" name="LTRIPLET"> F  </i>
   <i type="logical" name="LFXCEPS"> F  </i>
   <i type="logical" name="LFXHEG"> F  </i>
   <i type="int" name="NATURALO">     2</i>
   <i type="logical" name="LHOLEGF"> F  </i>
   <i type="logical" name="L2ORDER"> F  </i>
   <i type="logical" name="LDMP1"> F  </i>
   <i type="logical" name="LMP2LT"> F  </i>
   <i type="logical" name="LSMP2LT"> F  </i>
   <i type="logical" name="LGWLF"> F  </i>
   <i name="ENCUTGW">     -2.00000000</i>
   <i name="ENCUTGWSOFT">     -2.00000000</i>
   <i name="ENCUTLF">     -1.00000000</i>
   <i type="logical" name="LESF_SPLINES"> F  </i>
   <i type="int" name="LMAXMP2">    -1</i>
   <i name="SCISSOR">      0.00000000</i>
   <i type="int" name="NOMEGA">     0</i>
   <i type="int" name="NOMEGAR">     0</i>
   <i type="int" name="NBANDSGW">    -1</i>
   <i type="int" name="NBANDSO">    -1</i>
   <i type="int" name="NBANDSV">    -1</i>
   <i type="int" name="NELMGW">     1</i>
   <i type="int" name="NELMHF">     1</i>
   <i type="int" name="DIM">     3</i>
   <i type="int" name="IESPILON">     4</i>
   <i type="int" name="ANTIRES">     0</i>
   <i name="OMEGAMAX">    -30.00000000</i>
   <i name="OMEGAMIN">    -30.00000000</i>
   <i name="OMEGATL">   -200.00000000</i>
   <i type="int" name="OMEGAGRID">     0</i>
   <i name="CSHIFT">     -0.10000000</i>
   <i type="logical" name="LSELFENERGY"> F  </i>
   <i type="logical" name="LSPECTRAL"> F  </i>
   <i type="logical" name="LSPECTRALGW"> F  </i>
   <i type="logical" name="LSINGLES"> F  </i>
   <i type="logical" name="LFERMIGW"> F  </i>
   <i type="logical" name="ODDONLYGW"> F  </i>
   <i type="logical" name="EVENONLYGW"> F  </i>
   <i type="int" name="NKREDLFX">     1</i>
   <i type="int" name="NKREDLFY">     1</i>
   <i type="int" name="NKREDLFZ">     1</i>
   <i type="int" name="MAXMEM">  2800</i>
   <i type="int" name="TELESCOPE">     0</i>
   <i type="int" name="NTAUPAR">    -1</i>
   <i type="int" name="NOMEGAPAR">    -1</i>
   <i name="DAMP_NEWTON">      0.80000001</i>
   <i name="LAMBDA">      1.00000000</i>
  </separator>
  <separator name="External order field" >
   <i name="OFIELD_KAPPA">      0.00000000</i>
   <v name="OFIELD_K">      0.00000000      0.00000000      0.00000000</v>
   <i name="OFIELD_Q6_NEAR">      0.00000000</i>
   <i name="OFIELD_Q6_FAR">      0.00000000</i>
   <i name="OFIELD_A">      0.00000000</i>
  </separator>
  <separator name="optional k-points parameters" >
   <i type="int" name="KPOINTS_OPT_MODE">     1</i>
   <i type="logical" name="LKPOINTS_OPT"> F  </i>
  </separator>
 </parameters>
 <atominfo>
  <atoms>       1 </atoms>
  <types>       1 </types>
  <array name="atoms" >
   <dimension dim="1">ion</dimension>
   <field type="string">element</field>
   <field type="int">atomtype</field>
   <set>
    <rc><c>Ni</c><c>   1</c></rc>
   </set>
  </array>
  <array name="atomtypes" >
   <dimension dim="1">type</dimension>
   <field type="int">atomspertype</field>
   <field type="string">element</field>
   <field>mass</field>
   <field>valence</field>
   <field type="string">pseudopotential</field>
   <set>
    <rc><c>   1</c><c>Ni</c><c>     58.69000000</c><c>     10.00000000</c><c>  PAW_PBE Ni 02Aug2007                  </c></rc>
   </set>
  </array>
 </atominfo>
 <structure name="initialpos" >
  <crystal>
   <varray name="basis" >
    <v>       1.90000000       1.90000000       0.00000000 </v>
    <v>       0.00000000       1.90000000       1.90000000 </v>
    <v>       1.90000000       0.00000000       1.90000000 </v>
   </varray>
   <i name="volume">     13.71800000 </i>
   <varray name="rec_basis" >
    <v>       0.26315789       0.26315789      -0.26315789 </v>
    <v>      -0.26315789       0.26315789       0.26315789 </v>
    <v>       0.26315789      -0.26315789       0.26315789 </v>
   </varray>
  </crystal>
  <varray name="positions" >
   <v>       0.00000000       0.00000000       0.00000000 </v>
  </varray>
 </structure>
 <calculation>
  <scstep>
   <time name="dav">    0.18    0.18</time>
   <time name="total">    0.19    0.19</time>
   <energy>
    <i name="alphaZ">     37.17699446 </i>
    <i name="ewald">   -868.69786904 </i>
    <i name="hartreedc">   -280.00766366 </i>
    <i name="XCdc">     31.13700445 </i>
    <i name="pawpsdc">    962.83317360 </i>
    <i name="pawaedc">  -1029.67071227 </i>
    <i name="eentropy">      0.00189784 </i>
    <i name="bandstr">     89.43981497 </i>
    <i name="atom">   1077.63607467 </i>
    <i name="e_fr_energy">     19.84871502 </i>
    <i name="e_wo_entrp">     19.84681718 </i>
    <i name="e_0_energy">     19.84808240 </i>
   </energy>
  </scstep>
  <scstep>
   <time name="dav">    0.17    0.17</time>
   <time name="total">    0.17    0.17</time>
   <energy>
    <i name="e_fr_energy">     -5.61292254 </i>
    <i name="e_wo_entrp">     -5.61187689 </i>
    <i name="e_0_energy">     -5.61257399 </i>
   </energy>
  </scstep>
  <scstep>
   <time name="dav">    0.17    0.17</time>
   <time name="total">    0.17    0.18</time>
   <energy>
    <i name="e_fr_energy">     -6.14180449 </i>
    <i name="e_wo_entrp">     -6.13958245 </i>
    <i name="e_0_energy">     -6.14106381 </i>
   </energy>
  </scstep>
  <scstep>
   <time name="dav">    0.17    0.17</time>
   <time name="total">    0.17    0.17</time>
   <energy>
    <i name="e_fr_energy">     -6.14444700 </i>
    <i name="e_wo_entrp">     -6.14220921 </i>
    <i name="e_0_energy">     -6.14370107 </i>
   </energy>
  </scstep>
  <scstep>
   <time name="dav">    0.17    0.17</time>
   <time name="total">    0.18    0.18</time>
   <energy>
    <i name="e_fr_energy">     -6.14448634 </i>
    <i name="e_wo_entrp">     -6.14224819 </i>
    <i name="e_0_energy">     -6.14374029 </i>
   </energy>
  </scstep>
  <scstep>
   <time name="dav">    0.17    0.17</time>
   <time name="total">    0.18    0.18</time>
   <energy>
    <i name="e_fr_energy">     -5.79102685 </i>
    <i name="e_wo_entrp">     -5.78411422 </i>
    <i name="e_0_energy">     -5.78872264 </i>
   </energy>
  </scstep>
  <scstep>
   <time name="dav">    0.17    0.17</time>
   <time name="total">    0.18    0.18</time>
   <energy>
    <i name="e_fr_energy">     -5.18569837 </i>
    <i name="e_wo_entrp">     -5.17759996 </i>
    <i name="e_0_energy">     -5.18299890 </i>
   </energy>
  </scstep>
  <scstep>
   <time name="dav">    0.17    0.17</time>
   <time name="total">    0.18    0.18</time>
   <energy>
    <i name="e_fr_energy">     -5.17899782 </i>
    <i name="e_wo_entrp">     -5.17116399 </i>
    <i name="e_0_energy">     -5.17638654 </i>
   </energy>
  </scstep>
  <scstep>
   <time name="dav">    0.16    0.16</time>
   <time name="total">    0.17    0.17</time>
   <energy>
    <i name="e_fr_energy">     -5.17705630 </i>
    <i name="e_wo_entrp">     -5.16931270 </i>
    <i name="e_0_energy">     -5.17447510 </i>
   </energy>
  </scstep>
  <scstep>
   <time name="dav">    0.15    0.15</time>
   <time name="total">    0.16    0.16</time>
   <energy>
    <i name="e_fr_energy">     -5.17648398 </i>
    <i name="e_wo_entrp">     -5.16882189 </i>
    <i name="e_0_energy">     -5.17392995 </i>
   </energy>
  </scstep>
  <scstep>
   <time name="dav">    0.12    0.12</time>
   <time name="total">    0.13    0.13</time>
   <energy>
    <i name="alphaZ">     37.17699446 </i>
    <i name="ewald">   -868.69786904 </i>
    <i name="hartreedc">   -260.85889170 </i>
    <i name="XCdc">     30.19588513 </i>
    <i name="pawpsdc">   1043.45727434 </i>
    <i name="pawaedc">  -1110.97778345 </i>
    <i name="eentropy">     -0.00768285 </i>
    <i name="bandstr">     46.89951085 </i>
    <i name="atom">   1077.63607467 </i>
    <i name="e_fr_energy">     -5.17648759 </i>
    <i name="e_wo_entrp">     -5.16880474 </i>
    <i name="e_0_energy">     -5.17392664 </i>
   </energy>
  </scstep>
  <structure>
   <crystal>
    <varray name="basis" >
     <v>       1.90000000       1.90000000       0.00000000 </v>
     <v>       0.00000000       1.90000000       1.90000000 </v>
     <v>       1.90000000       0.00000000       1.90000000 </v>
    </varray>
    <i name="volume">     13.71800000 </i>
    <varray name="rec_basis" >
     <v>       0.26315789       0.26315789      -0.26315789 </v>
     <v>      -0.26315789       0.26315789       0.26315789 </v>
     <v>       0.26315789      -0.26315789       0.26315789 </v>
    </varray>
   </crystal>
   <varray name="positions" >
    <v>       0.00000000       0.00000000       0.00000000 </v>
   </varray>
  </structure>
  <varray name="forces" >
   <v>      -0.00000000      -0.00000000      -0.00000000 </v>
  </varray>
  <varray name="stress" >
   <v>    -291.53013270      -0.00000000      -0.00000000 </v>
   <v>       0.00000000    -291.53013270       0.00000000 </v>
   <v>      -0.00000000       0.00000000    -291.53013270 </v>
  </varray>
  <energy>
   <i name="e_fr_energy">     -5.17648759 </i>
   <i name="e_wo_entrp">     -5.16880474 </i>
   <i name="e_0_energy">     -5.17392664 </i>
  </energy>
  <time name="totalsc">    1.98    1.99</time>
  <eigenvalues>
   <array>
    <dimension dim="1">band</dimension>
    <dimension dim="2">kpoint</dimension>
    <dimension dim="3">spin</dimension>
    <field>eigene</field>
    <field>occ</field>
    <set>
     <set comment="spin 1">
      <set comment="kpoint 1">
       <r>   -1.0334    1.0000 </r>
       <r>    4.5433    1.0000 </r>
       <r>    4.5433    1.0000 </r>
       <r>    4.5433    1.0000 </r>
       <r>    5.3909    1.0000 </r>
       <r>    5.3909    1.0000 </r>
       <r>   28.2325    0.0000 </r>
       <r>   30.3389    0.0000 </r>
       <r>   30.3390    0.0000 </r>
       <r>   30.3390    0.0000 </r>
       <r>   32.9367    0.0000 </r>
       <r>   32.9367    0.0000 </r>
      </set>
      <set comment="kpoint 2">
       <r>   -0.7614    1.0000 </r>
       <r>    4.4886    1.0000 </r>
       <r>    4.5924    1.0000 </r>
       <r>    4.5924    1.0000 </r>
       <r>    5.3718    1.0000 </r>
       <r>    5.3718    1.0000 </r>
       <r>   26.1935    0.0000 </r>
       <r>   28.8414    0.0000 </r>
       <r>   29.6628    0.0000 </r>
       <r>   29.6628    0.0000 </r>
       <r>   34.0031    0.0000 </r>
       <r>   34.0032    0.0000 </r>
      </set>
      <set comment="kpoint 3">
       <r>    0.0265    1.0000 </r>
       <r>    4.3750    1.0000 </r>
       <r>    4.6874    1.0000 </r>
       <r>    4.6874    1.0000 </r>
       <r>    5.3611    1.0000 </r>
       <r>    5.3612    1.0000 </r>
       <r>   21.8745    0.0000 </r>
       <r>   28.4922    0.0000 </r>
       <r>   28.7128    0.0000 </r>
       <r>   28.7128    0.0000 </r>
       <r>   34.3743    0.0000 </r>
       <r>   34.9661    0.0000 </r>
      </set>
      <set comment="kpoint 4">
       <r>    1.2000    1.0000 </r>
       <r>    4.3591    1.0000 </r>
       <r>    4.7040    1.0000 </r>
       <r>    4.7040    1.0000 </r>
       <r>    5.4727    1.0000 </r>
       <r>    5.4727    1.0000 </r>
       <r>   17.7250    0.0000 </r>
       <r>   27.9156    0.0000 </r>
       <r>   28.0064    0.0000 </r>
       <r>   28.0064    0.0000 </r>
       <r>   33.0472    0.0000 </r>
       <r>   33.0473    0.0000 </r>
      </set>
      <set comment="kpoint 5">
       <r>    2.2932    1.0000 </r>
       <r>    4.6385    1.0000 </r>
       <r>    4.6385    1.0000 </r>
       <r>    4.8935    1.0000 </r>
       <r>    5.6704    1.0000 </r>
       <r>    5.6704    1.0000 </r>
       <r>   14.0356    0.0000 </r>
       <r>   27.2804    0.0000 </r>
       <r>   27.5743    0.0000 </r>
       <r>   27.5744    0.0000 </r>
       <r>   31.4513    0.0000 </r>
       <r>   31.4516    0.0000 </r>
      </set>
      <set comment="kpoint 6">
       <r>    2.7116    1.0000 </r>
       <r>    4.5821    1.0000 </r>
       <r>    4.5821    1.0000 </r>
       <r>    5.8155    1.0000 </r>
       <r>    5.8156    1.0000 </r>
       <r>    6.2461    1.0321 </r>
       <r>   11.2245   -0.0000 </r>
       <r>   26.8867    0.0000 </r>
       <r>   27.3825    0.0000 </r>
       <r>   27.3827    0.0000 </r>
       <r>   30.5968    0.0000 </r>
       <r>   30.5972    0.0000 </r>
      </set>
      <set comment="kpoint 7">
       <r>   -0.6711    1.0000 </r>
       <r>    4.4413    1.0000 </r>
       <r>    4.6279    1.0000 </r>
       <r>    4.6279    1.0000 </r>
       <r>    5.2933    1.0000 </r>
       <r>    5.4295    1.0000 </r>
       <r>   27.2118    0.0000 </r>
       <r>   27.9217    0.0000 </r>
       <r>   27.9217    0.0000 </r>
       <r>   29.1302    0.0000 </r>
       <r>   34.7310    0.0000 </r>
       <r>   34.8114    0.0000 </r>
      </set>
      <set comment="kpoint 8">
       <r>   -0.0554    1.0000 </r>
       <r>    4.3196    1.0000 </r>
       <r>    4.7249    1.0000 </r>
       <r>    4.7310    1.0000 </r>
       <r>    5.2222    1.0000 </r>
       <r>    5.4634    1.0000 </r>
       <r>   23.5056    0.0000 </r>
       <r>   26.5838    0.0000 </r>
       <r>   27.3007    0.0000 </r>
       <r>   30.2074    0.0000 </r>
       <r>   32.0250    0.0000 </r>
       <r>   34.8492    0.0000 </r>
      </set>
      <set comment="kpoint 9">
       <r>    1.0006    1.0000 </r>
       <r>    4.2226    1.0000 </r>
       <r>    4.7267    1.0000 </r>
       <r>    4.7898    1.0000 </r>
       <r>    5.3412    1.0000 </r>
       <r>    5.5581    1.0000 </r>
       <r>   19.2571    0.0000 </r>
       <r>   25.6965    0.0000 </r>
       <r>   26.7520    0.0000 </r>
       <r>   29.2296    0.0000 </r>
       <r>   32.4294    0.0000 </r>
       <r>   34.6172    0.0000 </r>
      </set>
      <set comment="kpoint 10">
       <r>    2.1778    1.0000 </r>
       <r>    4.3888    1.0000 </r>
       <r>    4.6127    1.0000 </r>
       <r>    4.7520    1.0000 </r>
       <r>    5.7202    1.0000 </r>
       <r>    5.7509    1.0000 </r>
       <r>   15.3860    0.0000 </r>
       <r>   25.3025    0.0000 </r>
       <r>   26.1863    0.0000 </r>
       <r>   27.3440    0.0000 </r>
       <r>   33.0010    0.0000 </r>
       <r>   34.3327    0.0000 </r>
      </set>
      <set comment="kpoint 11">
       <r>    2.7906    1.0000 </r>
       <r>    4.5165    1.0000 </r>
       <r>    4.6852    1.0000 </r>
       <r>    4.9997    1.0000 </r>
       <r>    5.8316    1.0000 </r>
       <r>    6.6476   -0.0144 </r>
       <r>   12.1392    0.0000 </r>
       <r>   25.1753    0.0000 </r>
       <r>   25.4538    0.0000 </r>
       <r>   26.6344    0.0000 </r>
       <r>   32.8253    0.0000 </r>
       <r>   32.9280    0.0000 </r>
      </set>
      <set comment="kpoint 12">
       <r>    2.8862    1.0000 </r>
       <r>    4.4971    1.0000 </r>
       <r>    4.6574    1.0000 </r>
       <r>    5.2574    1.0000 </r>
       <r>    5.8047    1.0000 </r>
       <r>    7.3914   -0.0000 </r>
       <r>   10.8349   -0.0000 </r>
       <r>   24.1981    0.0000 </r>
       <r>   26.2115    0.0000 </r>
       <r>   26.7980    0.0000 </r>
       <r>   31.9846    0.0000 </r>
       <r>   32.7963    0.0000 </r>
      </set>
      <set comment="kpoint 13">
       <r>    2.6733    1.0000 </r>
       <r>    4.5537    1.0000 </r>
       <r>    4.6912    1.0000 </r>
       <r>    4.8591    1.0000 </r>
       <r>    5.6266    1.0000 </r>
       <r>    6.3739    0.8417 </r>
       <r>   13.1281    0.0000 </r>
       <r>   23.6974    0.0000 </r>
       <r>   27.4868    0.0000 </r>
       <r>   27.5729    0.0000 </r>
       <r>   31.4919    0.0000 </r>
       <r>   32.8477    0.0000 </r>
      </set>
      <set comment="kpoint 14">
       <r>    1.8160    1.0000 </r>
       <r>    4.3112    1.0000 </r>
       <r>    4.6601    1.0000 </r>
       <r>    4.7665    1.0000 </r>
       <r>    5.3782    1.0000 </r>
       <r>    5.8282    1.0000 </r>
       <r>   16.6299    0.0000 </r>
       <r>   23.7014    0.0000 </r>
       <r>   28.6412    0.0000 </r>
       <r>   29.4554    0.0000 </r>
       <r>   31.4614    0.0000 </r>
       <r>   32.6472    0.0000 </r>
      </set>
      <set comment="kpoint 15">
       <r>    0.6111    1.0000 </r>
       <r>    4.2719    1.0000 </r>
       <r>    4.7197    1.0000 </r>
       <r>    4.7790    1.0000 </r>
       <r>    5.2252    1.0000 </r>
       <r>    5.5561    1.0000 </r>
       <r>   20.6457    0.0000 </r>
       <r>   24.1787    0.0000 </r>
       <r>   29.9511    0.0000 </r>
       <r>   31.2121    0.0000 </r>
       <r>   32.1783    0.0000 </r>
       <r>   32.3983    0.0000 </r>
      </set>
      <set comment="kpoint 16">
       <r>   -0.3168    1.0000 </r>
       <r>    4.3951    1.0000 </r>
       <r>    4.6647    1.0000 </r>
       <r>    4.6740    1.0000 </r>
       <r>    5.2750    1.0000 </r>
       <r>    5.4293    1.0000 </r>
       <r>   24.7053    0.0000 </r>
       <r>   25.3681    0.0000 </r>
       <r>   29.9669    0.0000 </r>
       <r>   31.3669    0.0000 </r>
       <r>   32.9201    0.0000 </r>
       <r>   33.3129    0.0000 </r>
      </set>
      <set comment="kpoint 17">
       <r>    0.3714    1.0000 </r>
       <r>    4.1689    1.0000 </r>
       <r>    4.8697    1.0000 </r>
       <r>    4.8697    1.0000 </r>
       <r>    5.0755    1.0000 </r>
       <r>    5.5338    1.0000 </r>
       <r>   24.9218    0.0000 </r>
       <r>   24.9218    0.0000 </r>
       <r>   25.7434    0.0000 </r>
       <r>   27.0307    0.0000 </r>
       <r>   29.5710    0.0000 </r>
       <r>   38.4376    0.0000 </r>
      </set>
      <set comment="kpoint 18">
       <r>    1.2429    1.0000 </r>
       <r>    4.0174    1.0000 </r>
       <r>    4.8065    1.0000 </r>
       <r>    4.9954    1.0000 </r>
       <r>    5.2644    1.0000 </r>
       <r>    5.6178    1.0000 </r>
       <r>   21.1515    0.0000 </r>
       <r>   23.7780    0.0000 </r>
       <r>   25.4244    0.0000 </r>
       <r>   26.4204    0.0000 </r>
       <r>   29.2929    0.0000 </r>
       <r>   38.1725    0.0000 </r>
      </set>
      <set comment="kpoint 19">
       <r>    2.3328    1.0000 </r>
       <r>    3.9690    1.0000 </r>
       <r>    4.6064    1.0000 </r>
       <r>    5.0071    1.0000 </r>
       <r>    5.7596    1.0000 </r>
       <r>    5.8827    1.0002 </r>
       <r>   17.1720    0.0000 </r>
       <r>   23.2013    0.0000 </r>
       <r>   23.6357    0.0000 </r>
       <r>   25.8879    0.0000 </r>
       <r>   32.1032    0.0000 </r>
       <r>   37.2755    0.0000 </r>
      </set>
      <set comment="kpoint 20">
       <r>    3.0603    1.0000 </r>
       <r>    4.1619    1.0000 </r>
       <r>    4.5183    1.0000 </r>
       <r>    4.9488    1.0000 </r>
       <r>    5.8547    1.0001 </r>
       <r>    7.0729   -0.0001 </r>
       <r>   13.6329    0.0000 </r>
       <r>   21.9185    0.0000 </r>
       <r>   23.2512    0.0000 </r>
       <r>   25.7793    0.0000 </r>
       <r>   35.3908    0.0000 </r>
       <r>   36.2064    0.0000 </r>
      </set>
      <set comment="kpoint 21">
       <r>    3.2411    1.0000 </r>
       <r>    4.2543    1.0000 </r>
       <r>    4.6813    1.0000 </r>
       <r>    4.8969    1.0000 </r>
       <r>    5.8085    1.0000 </r>
       <r>    8.6935   -0.0000 </r>
       <r>   11.0969   -0.0000 </r>
       <r>   20.6349    0.0000 </r>
       <r>   23.9607    0.0000 </r>
       <r>   26.0225    0.0000 </r>
       <r>   35.0901    0.0000 </r>
       <r>   35.6154    0.0000 </r>
      </set>
      <set comment="kpoint 22">
       <r>    3.1996    1.0000 </r>
       <r>    4.3353    1.0000 </r>
       <r>    4.5559    1.0000 </r>
       <r>    4.8946    1.0000 </r>
       <r>    5.6056    1.0000 </r>
       <r>    7.7437   -0.0000 </r>
       <r>   12.6337    0.0000 </r>
       <r>   19.8660    0.0000 </r>
       <r>   25.3081    0.0000 </r>
       <r>   26.6846    0.0000 </r>
       <r>   34.4146    0.0000 </r>
       <r>   34.9449    0.0000 </r>
      </set>
      <set comment="kpoint 23">
       <r>    2.6994    1.0000 </r>
       <r>    4.1824    1.0000 </r>
       <r>    4.4946    1.0000 </r>
       <r>    4.9521    1.0000 </r>
       <r>    5.3112    1.0000 </r>
       <r>    6.5326    0.2279 </r>
       <r>   15.9702    0.0000 </r>
       <r>   19.6450    0.0000 </r>
       <r>   27.2128    0.0000 </r>
       <r>   27.8305    0.0000 </r>
       <r>   33.8704    0.0000 </r>
       <r>   34.1748    0.0000 </r>
      </set>
      <set comment="kpoint 24">
       <r>    1.6108    1.0000 </r>
       <r>    4.1432    1.0000 </r>
       <r>    4.6521    1.0000 </r>
       <r>    4.9810    1.0000 </r>
       <r>    5.0997    1.0000 </r>
       <r>    5.9125    1.0003 </r>
       <r>   19.6001    0.0000 </r>
       <r>   20.1882    0.0000 </r>
       <r>   29.4189    0.0000 </r>
       <r>   29.5740    0.0000 </r>
       <r>   32.3263    0.0000 </r>
       <r>   34.2374    0.0000 </r>
      </set>
      <set comment="kpoint 25">
       <r>    1.8543    1.0000 </r>
       <r>    3.8250    1.0000 </r>
       <r>    5.0189    1.0000 </r>
       <r>    5.2314    1.0000 </r>
       <r>    5.2314    1.0000 </r>
       <r>    5.6741    1.0000 </r>
       <r>   22.3662    0.0000 </r>
       <r>   22.3662    0.0000 </r>
       <r>   23.0706    0.0000 </r>
       <r>   24.6634    0.0000 </r>
       <r>   26.8507    0.0000 </r>
       <r>   42.1640    0.0000 </r>
      </set>
      <set comment="kpoint 26">
       <r>    2.6170    1.0000 </r>
       <r>    3.6949    1.0000 </r>
       <r>    4.9305    1.0000 </r>
       <r>    5.3382    1.0000 </r>
       <r>    5.7781    1.0000 </r>
       <r>    5.8987    1.0002 </r>
       <r>   19.2640    0.0000 </r>
       <r>   20.8006    0.0000 </r>
       <r>   21.5452    0.0000 </r>
       <r>   25.0272    0.0000 </r>
       <r>   27.9630    0.0000 </r>
       <r>   41.4677    0.0000 </r>
      </set>
      <set comment="kpoint 27">
       <r>    3.1965    1.0000 </r>
       <r>    3.7040    1.0000 </r>
       <r>    4.7626    1.0000 </r>
       <r>    5.3076    1.0000 </r>
       <r>    5.8735    1.0001 </r>
       <r>    7.3323   -0.0000 </r>
       <r>   15.6560    0.0000 </r>
       <r>   18.8933    0.0000 </r>
       <r>   21.3985    0.0000 </r>
       <r>   25.0913    0.0000 </r>
       <r>   31.1465    0.0000 </r>
       <r>   39.8328    0.0000 </r>
      </set>
      <set comment="kpoint 28">
       <r>    3.4711    1.0000 </r>
       <r>    3.8561    1.0000 </r>
       <r>    4.6158    1.0000 </r>
       <r>    5.2420    1.0000 </r>
       <r>    5.8256    1.0000 </r>
       <r>    9.4433   -0.0000 </r>
       <r>   12.4964    0.0000 </r>
       <r>   17.4499    0.0000 </r>
       <r>   21.9624    0.0000 </r>
       <r>   25.2987    0.0000 </r>
       <r>   35.0129    0.0000 </r>
       <r>   38.5419    0.0000 </r>
      </set>
      <set comment="kpoint 29">
       <r>    3.6089    1.0000 </r>
       <r>    4.0260    1.0000 </r>
       <r>    4.4128    1.0000 </r>
       <r>    5.1866    1.0000 </r>
       <r>    5.6213    1.0000 </r>
       <r>    9.6045   -0.0000 </r>
       <r>   12.4406    0.0000 </r>
       <r>   16.5246    0.0000 </r>
       <r>   23.1922    0.0000 </r>
       <r>   25.8027    0.0000 </r>
       <r>   37.6418    0.0000 </r>
       <r>   37.8220    0.0000 </r>
      </set>
      <set comment="kpoint 30">
       <r>    3.4580    1.0000 </r>
       <r>    4.1605    1.0000 </r>
       <r>    4.2486    1.0000 </r>
       <r>    5.1347    1.0000 </r>
       <r>    5.3727    1.0000 </r>
       <r>    7.7409   -0.0000 </r>
       <r>   15.2513    0.0000 </r>
       <r>   16.5198    0.0000 </r>
       <r>   24.9900    0.0000 </r>
       <r>   26.6684    0.0000 </r>
       <r>   36.0783    0.0000 </r>
       <r>   36.8214    0.0000 </r>
      </set>
      <set comment="kpoint 31">
       <r>    2.8630    1.0000 </r>
       <r>    3.5167    1.0000 </r>
       <r>    5.6169    1.0000 </r>
       <r>    5.6169    1.0000 </r>
       <r>    5.8029    1.0000 </r>
       <r>    6.0669    1.0084 </r>
       <r>   18.3537    0.0000 </r>
       <r>   20.4637    0.0000 </r>
       <r>   20.4637    0.0000 </r>
       <r>   23.9665    0.0000 </r>
       <r>   26.0311    0.0000 </r>
       <r>   45.4205    0.0000 </r>
      </set>
      <set comment="kpoint 32">
       <r>    3.0768    1.0000 </r>
       <r>    3.4532    1.0000 </r>
       <r>    5.4536    1.0000 </r>
       <r>    5.6599    1.0000 </r>
       <r>    5.8819    1.0002 </r>
       <r>    7.5911   -0.0000 </r>
       <r>   16.3763    0.0000 </r>
       <r>   17.9954    0.0000 </r>
       <r>   20.0750    0.0000 </r>
       <r>   24.4753    0.0000 </r>
       <r>   27.3076    0.0000 </r>
       <r>   43.6091    0.0000 </r>
      </set>
      <set comment="kpoint 33">
       <r>    3.3087    1.0000 </r>
       <r>    3.5338    1.0000 </r>
       <r>    5.1121    1.0000 </r>
       <r>    5.5956    1.0000 </r>
       <r>    5.8550    1.0001 </r>
       <r>    9.6695   -0.0000 </r>
       <r>   14.7993    0.0000 </r>
       <r>   14.9975    0.0000 </r>
       <r>   20.4412    0.0000 </r>
       <r>   24.7726    0.0000 </r>
       <r>   30.6873    0.0000 </r>
       <r>   42.0168    0.0000 </r>
      </set>
      <set comment="kpoint 34">
       <r>    3.5501    1.0000 </r>
       <r>    3.7358    1.0000 </r>
       <r>    4.6990    1.0000 </r>
       <r>    5.4583    1.0000 </r>
       <r>    5.7054    1.0000 </r>
       <r>   11.7400   -0.0000 </r>
       <r>   11.9718    0.0000 </r>
       <r>   14.5829    0.0000 </r>
       <r>   21.5208    0.0000 </r>
       <r>   25.1556    0.0000 </r>
       <r>   34.8320    0.0000 </r>
       <r>   40.3152    0.0000 </r>
      </set>
      <set comment="kpoint 35">
       <r>    3.0093    1.0000 </r>
       <r>    3.3377    1.0000 </r>
       <r>    5.8759    1.0001 </r>
       <r>    5.8759    1.0001 </r>
       <r>    5.8790    1.0001 </r>
       <r>    8.2743   -0.0000 </r>
       <r>   14.5648    0.0000 </r>
       <r>   19.4284    0.0000 </r>
       <r>   19.4284    0.0000 </r>
       <r>   23.6372    0.0000 </r>
       <r>   25.7286    0.0000 </r>
       <r>   46.0214    0.0000 </r>
      </set>
      <set comment="kpoint 36">
       <r>    3.0918    1.0000 </r>
       <r>    3.3643    1.0000 </r>
       <r>    5.6586    1.0000 </r>
       <r>    5.8222    1.0000 </r>
       <r>    5.8895    1.0002 </r>
       <r>    9.2810   -0.0000 </r>
       <r>   13.8827    0.0000 </r>
       <r>   17.5374    0.0000 </r>
       <r>   19.5559    0.0000 </r>
       <r>   24.3011    0.0000 </r>
       <r>   27.1066    0.0000 </r>
       <r>   44.7762    0.0000 </r>
      </set>
      <set comment="kpoint 37">
       <r>    0.6983    1.0000 </r>
       <r>    4.1792    1.0000 </r>
       <r>    4.7562    1.0000 </r>
       <r>    4.8805    1.0000 </r>
       <r>    5.1729    1.0000 </r>
       <r>    5.5845    1.0000 </r>
       <r>   22.2145    0.0000 </r>
       <r>   22.7164    0.0000 </r>
       <r>   28.5422    0.0000 </r>
       <r>   28.9414    0.0000 </r>
       <r>   30.8697    0.0000 </r>
       <r>   35.3855    0.0000 </r>
      </set>
      <set comment="kpoint 38">
       <r>    1.8054    1.0000 </r>
       <r>    4.0925    1.0000 </r>
       <r>    4.6283    1.0000 </r>
       <r>    4.9544    1.0000 </r>
       <r>    5.3270    1.0000 </r>
       <r>    5.8839    1.0002 </r>
       <r>   18.2998    0.0000 </r>
       <r>   21.8581    0.0000 </r>
       <r>   26.4248    0.0000 </r>
       <r>   29.0084    0.0000 </r>
       <r>   32.3608    0.0000 </r>
       <r>   34.2294    0.0000 </r>
      </set>
      <set comment="kpoint 39">
       <r>    2.7920    1.0000 </r>
       <r>    4.2844    1.0000 </r>
       <r>    4.4712    1.0000 </r>
       <r>    4.8962    1.0000 </r>
       <r>    5.6178    1.0000 </r>
       <r>    6.5530    0.1617 </r>
       <r>   14.5852    0.0000 </r>
       <r>   21.7143    0.0000 </r>
       <r>   24.5371    0.0000 </r>
       <r>   28.4777    0.0000 </r>
       <r>   32.5287    0.0000 </r>
       <r>   35.6718    0.0000 </r>
      </set>
      <set comment="kpoint 40">
       <r>    3.1206    1.0000 </r>
       <r>    4.3465    1.0000 </r>
       <r>    4.7274    1.0000 </r>
       <r>    4.8405    1.0000 </r>
       <r>    5.7769    1.0000 </r>
       <r>    7.9273   -0.0000 </r>
       <r>   11.5846   -0.0000 </r>
       <r>   22.1015    0.0000 </r>
       <r>   23.0964    0.0000 </r>
       <r>   28.1326    0.0000 </r>
       <r>   32.1401    0.0000 </r>
       <r>   36.3137    0.0000 </r>
      </set>
      <set comment="kpoint 41">
       <r>    2.1242    1.0000 </r>
       <r>    3.8749    1.0000 </r>
       <r>    4.6816    1.0000 </r>
       <r>    5.2294    1.0000 </r>
       <r>    5.4068    1.0000 </r>
       <r>    5.8773    1.0001 </r>
       <r>   20.1110    0.0000 </r>
       <r>   20.5553    0.0000 </r>
       <r>   23.4395    0.0000 </r>
       <r>   27.4034    0.0000 </r>
       <r>   29.1257    0.0000 </r>
       <r>   37.6179    0.0000 </r>
      </set>
      <set comment="kpoint 42">
       <r>    3.0081    1.0000 </r>
       <r>    3.8522    1.0000 </r>
       <r>    4.4971    1.0000 </r>
       <r>    5.2464    1.0000 </r>
       <r>    5.6589    1.0000 </r>
       <r>    6.7104   -0.0355 </r>
       <r>   16.4971    0.0000 </r>
       <r>   20.0493    0.0000 </r>
       <r>   21.3837    0.0000 </r>
       <r>   27.7410    0.0000 </r>
       <r>   31.5695    0.0000 </r>
       <r>   36.2147    0.0000 </r>
      </set>
      <set comment="kpoint 43">
       <r>    3.4260    1.0000 </r>
       <r>    4.0005    1.0000 </r>
       <r>    4.4276    1.0000 </r>
       <r>    5.1569    1.0000 </r>
       <r>    5.7893    1.0000 </r>
       <r>    8.3629   -0.0000 </r>
       <r>   13.1317    0.0000 </r>
       <r>   19.7391    0.0000 </r>
       <r>   20.3250    0.0000 </r>
       <r>   27.8305    0.0000 </r>
       <r>   33.9734    0.0000 </r>
       <r>   36.3045    0.0000 </r>
      </set>
      <set comment="kpoint 44">
       <r>    3.5329    1.0000 </r>
       <r>    4.0618    1.0000 </r>
       <r>    4.4510    1.0000 </r>
       <r>    5.0970    1.0000 </r>
       <r>    5.7419    1.0000 </r>
       <r>    9.6803   -0.0000 </r>
       <r>   11.4387   -0.0000 </r>
       <r>   18.6070    0.0000 </r>
       <r>   21.1527    0.0000 </r>
       <r>   28.2848    0.0000 </r>
       <r>   33.6290    0.0000 </r>
       <r>   39.6776    0.0000 </r>
      </set>
      <set comment="kpoint 45">
       <r>    3.4471    1.0000 </r>
       <r>    4.1526    1.0000 </r>
       <r>    4.2357    1.0000 </r>
       <r>    5.1372    1.0000 </r>
       <r>    5.5489    1.0000 </r>
       <r>    7.8637   -0.0000 </r>
       <r>   14.2026    0.0000 </r>
       <r>   18.0059    0.0000 </r>
       <r>   22.5019    0.0000 </r>
       <r>   29.2110    0.0000 </r>
       <r>   32.9185    0.0000 </r>
       <r>   37.1524    0.0000 </r>
      </set>
      <set comment="kpoint 46">
       <r>    2.8049    1.0000 </r>
       <r>    4.0093    1.0000 </r>
       <r>    4.4246    1.0000 </r>
       <r>    5.2206    1.0000 </r>
       <r>    5.2543    1.0000 </r>
       <r>    6.5797    0.0900 </r>
       <r>   17.4671    0.0000 </r>
       <r>   18.2428    0.0000 </r>
       <r>   24.2912    0.0000 </r>
       <r>   30.5143    0.0000 </r>
       <r>   31.5719    0.0000 </r>
       <r>   34.8968    0.0000 </r>
      </set>
      <set comment="kpoint 47">
       <r>    3.0675    1.0000 </r>
       <r>    3.5995    1.0000 </r>
       <r>    4.9456    1.0000 </r>
       <r>    5.6154    1.0000 </r>
       <r>    5.7057    1.0000 </r>
       <r>    6.9019   -0.0041 </r>
       <r>   18.5210    0.0000 </r>
       <r>   18.6098    0.0000 </r>
       <r>   19.0006    0.0000 </r>
       <r>   26.3894    0.0000 </r>
       <r>   28.1968    0.0000 </r>
       <r>   39.9421    0.0000 </r>
      </set>
      <set comment="kpoint 48">
       <r>    3.3832    1.0000 </r>
       <r>    3.6441    1.0000 </r>
       <r>    4.7729    1.0000 </r>
       <r>    5.5288    1.0000 </r>
       <r>    5.8194    1.0000 </r>
       <r>    8.6982   -0.0000 </r>
       <r>   15.3130    0.0000 </r>
       <r>   16.8932    0.0000 </r>
       <r>   18.8835    0.0000 </r>
       <r>   27.0449    0.0000 </r>
       <r>   31.0023    0.0000 </r>
       <r>   38.4074    0.0000 </r>
      </set>
      <set comment="kpoint 49">
       <r>    3.6174    1.0000 </r>
       <r>    3.7850    1.0000 </r>
       <r>    4.5369    1.0000 </r>
       <r>    5.3863    1.0000 </r>
       <r>    5.7848    1.0000 </r>
       <r>   11.0350   -0.0000 </r>
       <r>   12.3347    0.0000 </r>
       <r>   15.6855    0.0000 </r>
       <r>   19.5826    0.0000 </r>
       <r>   27.5020    0.0000 </r>
       <r>   34.8682    0.0000 </r>
       <r>   37.0935    0.0000 </r>
      </set>
      <set comment="kpoint 50">
       <r>    3.7900    1.0000 </r>
       <r>    3.9338    1.0000 </r>
       <r>    4.2473    1.0000 </r>
       <r>    5.2936    1.0000 </r>
       <r>    5.6275    1.0000 </r>
       <r>    9.7502   -0.0000 </r>
       <r>   13.5747    0.0000 </r>
       <r>   15.4418    0.0000 </r>
       <r>   20.8236    0.0000 </r>
       <r>   28.2811    0.0000 </r>
       <r>   35.2686    0.0000 </r>
       <r>   38.1564    0.0000 </r>
      </set>
      <set comment="kpoint 51">
       <r>    3.1753    1.0000 </r>
       <r>    3.4379    1.0000 </r>
       <r>    5.3552    1.0000 </r>
       <r>    5.7670    1.0000 </r>
       <r>    5.8759    1.0001 </r>
       <r>    9.0555   -0.0000 </r>
       <r>   14.7590    0.0000 </r>
       <r>   17.6367    0.0000 </r>
       <r>   18.1340    0.0000 </r>
       <r>   25.8899    0.0000 </r>
       <r>   27.8059    0.0000 </r>
       <r>   42.2181    0.0000 </r>
      </set>
      <set comment="kpoint 52">
       <r>    3.3735    1.0000 </r>
       <r>    3.5660    1.0000 </r>
       <r>    4.9820    1.0000 </r>
       <r>    5.6071    1.0000 </r>
       <r>    5.8770    1.0001 </r>
       <r>   10.6285   -0.0000 </r>
       <r>   14.1790    0.0000 </r>
       <r>   14.8961    0.0000 </r>
       <r>   18.4714    0.0000 </r>
       <r>   26.8217    0.0000 </r>
       <r>   30.8130    0.0000 </r>
       <r>   40.0238    0.0000 </r>
      </set>
      <set comment="kpoint 53">
       <r>    3.5501    1.0000 </r>
       <r>    3.8485    1.0000 </r>
       <r>    4.3017    1.0000 </r>
       <r>    5.4455    1.0000 </r>
       <r>    5.6135    1.0000 </r>
       <r>    8.1372   -0.0000 </r>
       <r>   15.8868    0.0000 </r>
       <r>   16.9253    0.0000 </r>
       <r>   19.4585    0.0000 </r>
       <r>   30.4765    0.0000 </r>
       <r>   31.4284    0.0000 </r>
       <r>   35.3298    0.0000 </r>
      </set>
      <set comment="kpoint 54">
       <r>    3.7688    1.0000 </r>
       <r>    3.9150    1.0000 </r>
       <r>    4.2212    1.0000 </r>
       <r>    5.3253    1.0000 </r>
       <r>    5.7717    1.0000 </r>
       <r>   10.2225   -0.0000 </r>
       <r>   13.0393    0.0000 </r>
       <r>   17.0107    0.0000 </r>
       <r>   17.9824    0.0000 </r>
       <r>   30.7895    0.0000 </r>
       <r>   32.8438    0.0000 </r>
       <r>   36.3719    0.0000 </r>
      </set>
      <set comment="kpoint 55">
       <r>    3.5485    1.0000 </r>
       <r>    3.7460    1.0000 </r>
       <r>    4.5686    1.0000 </r>
       <r>    5.4826    1.0000 </r>
       <r>    5.8774    1.0001 </r>
       <r>   10.6381   -0.0000 </r>
       <r>   15.0131    0.0000 </r>
       <r>   15.4183    0.0000 </r>
       <r>   16.2564    0.0000 </r>
       <r>   29.9162    0.0000 </r>
       <r>   31.7970    0.0000 </r>
       <r>   36.7703    0.0000 </r>
      </set>
      <set comment="kpoint 56">
       <r>    3.6911    1.0000 </r>
       <r>    3.9510    1.0000 </r>
       <r>    4.2698    1.0000 </r>
       <r>    5.3626    1.0000 </r>
       <r>    5.8769    1.0001 </r>
       <r>   12.5743    0.0000 </r>
       <r>   12.6222    0.0000 </r>
       <r>   14.9328    0.0000 </r>
       <r>   16.6779    0.0000 </r>
       <r>   31.0679    0.0000 </r>
       <r>   34.6727    0.0000 </r>
       <r>   34.9236    0.0000 </r>
      </set>
     </set>
     <set comment="spin 2">
      <set comment="kpoint 1">
       <r>   -1.0990    1.0000 </r>
       <r>    5.2754    1.0000 </r>
       <r>    5.2754    1.0000 </r>
       <r>    5.2754    1.0000 </r>
       <r>    6.0014    1.0026 </r>
       <r>    6.0014    1.0026 </r>
       <r>   28.0194    0.0000 </r>
       <r>   30.3327    0.0000 </r>
       <r>   30.3327    0.0000 </r>
       <r>   30.3327    0.0000 </r>
       <r>   32.9706    0.0000 </r>
       <r>   32.9706    0.0000 </r>
      </set>
      <set comment="kpoint 2">
       <r>   -0.8267    1.0000 </r>
       <r>    5.2118    1.0000 </r>
       <r>    5.3265    1.0000 </r>
       <r>    5.3265    1.0000 </r>
       <r>    5.9816    1.0017 </r>
       <r>    5.9816    1.0017 </r>
       <r>   26.1593    0.0000 </r>
       <r>   28.7104    0.0000 </r>
       <r>   29.6834    0.0000 </r>
       <r>   29.6834    0.0000 </r>
       <r>   33.9985    0.0000 </r>
       <r>   33.9985    0.0000 </r>
      </set>
      <set comment="kpoint 3">
       <r>   -0.0343    1.0000 </r>
       <r>    5.0680    1.0000 </r>
       <r>    5.4105    1.0000 </r>
       <r>    5.4106    1.0000 </r>
       <r>    5.9856    1.0019 </r>
       <r>    5.9857    1.0019 </r>
       <r>   21.9183    0.0000 </r>
       <r>   28.3313    0.0000 </r>
       <r>   28.7599    0.0000 </r>
       <r>   28.7600    0.0000 </r>
       <r>   34.2762    0.0000 </r>
       <r>   34.9056    0.0000 </r>
      </set>
      <set comment="kpoint 4">
       <r>    1.1742    1.0000 </r>
       <r>    4.9748    1.0000 </r>
       <r>    5.3824    1.0000 </r>
       <r>    5.3825    1.0000 </r>
       <r>    6.1484    1.0241 </r>
       <r>    6.1484    1.0241 </r>
       <r>   17.8223    0.0000 </r>
       <r>   27.7437    0.0000 </r>
       <r>   28.0686    0.0000 </r>
       <r>   28.0686    0.0000 </r>
       <r>   33.0370    0.0000 </r>
       <r>   33.0371    0.0000 </r>
      </set>
      <set comment="kpoint 5">
       <r>    2.4478    1.0000 </r>
       <r>    5.2566    1.0000 </r>
       <r>    5.2828    1.0000 </r>
       <r>    5.2829    1.0000 </r>
       <r>    6.3884    0.7960 </r>
       <r>    6.3884    0.7960 </r>
       <r>   14.2076    0.0000 </r>
       <r>   27.0957    0.0000 </r>
       <r>   27.6409    0.0000 </r>
       <r>   27.6410    0.0000 </r>
       <r>   31.4457    0.0000 </r>
       <r>   31.4459    0.0000 </r>
      </set>
      <set comment="kpoint 6">
       <r>    3.1002    1.0000 </r>
       <r>    5.2118    1.0000 </r>
       <r>    5.2119    1.0000 </r>
       <r>    6.2303    1.0349 </r>
       <r>    6.5539    0.1589 </r>
       <r>    6.5540    0.1588 </r>
       <r>   11.5411   -0.0000 </r>
       <r>   26.6942    0.0000 </r>
       <r>   27.4472    0.0000 </r>
       <r>   27.4474    0.0000 </r>
       <r>   30.5928    0.0000 </r>
       <r>   30.5931    0.0000 </r>
      </set>
      <set comment="kpoint 7">
       <r>   -0.7364    1.0000 </r>
       <r>    5.1628    1.0000 </r>
       <r>    5.3637    1.0000 </r>
       <r>    5.3637    1.0000 </r>
       <r>    5.8967    1.0002 </r>
       <r>    6.0419    1.0055 </r>
       <r>   27.0778    0.0000 </r>
       <r>   27.9566    0.0000 </r>
       <r>   27.9566    0.0000 </r>
       <r>   29.0828    0.0000 </r>
       <r>   34.6975    0.0000 </r>
       <r>   34.8963    0.0000 </r>
      </set>
      <set comment="kpoint 8">
       <r>   -0.1181    1.0000 </r>
       <r>    5.0230    1.0000 </r>
       <r>    5.4527    1.0000 </r>
       <r>    5.4643    1.0000 </r>
       <r>    5.8290    1.0000 </r>
       <r>    6.0851    1.0111 </r>
       <r>   23.5313    0.0000 </r>
       <r>   26.6288    0.0000 </r>
       <r>   27.2154    0.0000 </r>
       <r>   30.1310    0.0000 </r>
       <r>   32.1356    0.0000 </r>
       <r>   34.8364    0.0000 </r>
      </set>
      <set comment="kpoint 9">
       <r>    0.9576    1.0000 </r>
       <r>    4.8834    1.0000 </r>
       <r>    5.3902    1.0000 </r>
       <r>    5.4903    1.0000 </r>
       <r>    6.0042    1.0027 </r>
       <r>    6.2206    1.0354 </r>
       <r>   19.3320    0.0000 </r>
       <r>   25.7461    0.0000 </r>
       <r>   26.6602    0.0000 </r>
       <r>   29.2811    0.0000 </r>
       <r>   32.3869    0.0000 </r>
       <r>   34.6058    0.0000 </r>
      </set>
      <set comment="kpoint 10">
       <r>    2.2533    1.0000 </r>
       <r>    4.9178    1.0000 </r>
       <r>    5.2466    1.0000 </r>
       <r>    5.4132    1.0000 </r>
       <r>    6.4092    0.7227 </r>
       <r>    6.4296    0.6435 </r>
       <r>   15.5199    0.0000 </r>
       <r>   25.3516    0.0000 </r>
       <r>   26.0706    0.0000 </r>
       <r>   27.4260    0.0000 </r>
       <r>   32.9285    0.0000 </r>
       <r>   34.3228    0.0000 </r>
      </set>
      <set comment="kpoint 11">
       <r>    3.1379    1.0000 </r>
       <r>    5.0915    1.0000 </r>
       <r>    5.3233    1.0000 </r>
       <r>    5.4456    1.0000 </r>
       <r>    6.5685    0.1179 </r>
       <r>    7.0790   -0.0001 </r>
       <r>   12.3802    0.0000 </r>
       <r>   25.1281    0.0000 </r>
       <r>   25.5014    0.0000 </r>
       <r>   26.6293    0.0000 </r>
       <r>   32.7651    0.0000 </r>
       <r>   32.9287    0.0000 </r>
      </set>
      <set comment="kpoint 12">
       <r>    3.3148    1.0000 </r>
       <r>    5.0872    1.0000 </r>
       <r>    5.2864    1.0000 </r>
       <r>    5.7191    1.0000 </r>
       <r>    6.5472    0.1795 </r>
       <r>    7.6089   -0.0000 </r>
       <r>   11.1843   -0.0000 </r>
       <r>   24.1948    0.0000 </r>
       <r>   26.2626    0.0000 </r>
       <r>   26.7304    0.0000 </r>
       <r>   31.9895    0.0000 </r>
       <r>   32.7509    0.0000 </r>
      </set>
      <set comment="kpoint 13">
       <r>    2.9357    1.0000 </r>
       <r>    5.1511    1.0000 </r>
       <r>    5.2775    1.0000 </r>
       <r>    5.3249    1.0000 </r>
       <r>    6.3555    0.8926 </r>
       <r>    6.9475   -0.0017 </r>
       <r>   13.3250    0.0000 </r>
       <r>   23.7122    0.0000 </r>
       <r>   27.3913    0.0000 </r>
       <r>   27.6369    0.0000 </r>
       <r>   31.4933    0.0000 </r>
       <r>   32.8111    0.0000 </r>
      </set>
      <set comment="kpoint 14">
       <r>    1.8296    1.0000 </r>
       <r>    4.9045    1.0000 </r>
       <r>    5.3008    1.0000 </r>
       <r>    5.4256    1.0000 </r>
       <r>    6.0713    1.0090 </r>
       <r>    6.5111    0.3067 </r>
       <r>   16.7421    0.0000 </r>
       <r>   23.7246    0.0000 </r>
       <r>   28.5335    0.0000 </r>
       <r>   29.5465    0.0000 </r>
       <r>   31.4417    0.0000 </r>
       <r>   32.5951    0.0000 </r>
      </set>
      <set comment="kpoint 15">
       <r>    0.5574    1.0000 </r>
       <r>    4.9517    1.0000 </r>
       <r>    5.4063    1.0000 </r>
       <r>    5.5024    1.0000 </r>
       <r>    5.8468    1.0001 </r>
       <r>    6.2138    1.0354 </r>
       <r>   20.7049    0.0000 </r>
       <r>   24.2003    0.0000 </r>
       <r>   29.8371    0.0000 </r>
       <r>   31.2961    0.0000 </r>
       <r>   32.0926    0.0000 </r>
       <r>   32.3781    0.0000 </r>
      </set>
      <set comment="kpoint 16">
       <r>   -0.3807    1.0000 </r>
       <r>    5.1056    1.0000 </r>
       <r>    5.3991    1.0000 </r>
       <r>    5.4050    1.0000 </r>
       <r>    5.8772    1.0001 </r>
       <r>    6.0507    1.0064 </r>
       <r>   24.7047    0.0000 </r>
       <r>   25.3869    0.0000 </r>
       <r>   29.8556    0.0000 </r>
       <r>   31.3751    0.0000 </r>
       <r>   32.8241    0.0000 </r>
       <r>   33.3364    0.0000 </r>
      </set>
      <set comment="kpoint 17">
       <r>    0.3111    1.0000 </r>
       <r>    4.8631    1.0000 </r>
       <r>    5.6173    1.0000 </r>
       <r>    5.6173    1.0000 </r>
       <r>    5.6517    1.0000 </r>
       <r>    6.1513    1.0247 </r>
       <r>   24.9656    0.0000 </r>
       <r>   24.9656    0.0000 </r>
       <r>   25.6936    0.0000 </r>
       <r>   26.9303    0.0000 </r>
       <r>   29.7405    0.0000 </r>
       <r>   38.3528    0.0000 </r>
      </set>
      <set comment="kpoint 18">
       <r>    1.2000    1.0000 </r>
       <r>    4.6901    1.0000 </r>
       <r>    5.4219    1.0000 </r>
       <r>    5.7281    1.0000 </r>
       <r>    5.9507    1.0009 </r>
       <r>    6.2617    1.0263 </r>
       <r>   21.2017    0.0000 </r>
       <r>   23.8185    0.0000 </r>
       <r>   25.3582    0.0000 </r>
       <r>   26.4577    0.0000 </r>
       <r>   29.3787    0.0000 </r>
       <r>   38.0626    0.0000 </r>
      </set>
      <set comment="kpoint 19">
       <r>    2.3742    1.0000 </r>
       <r>    4.5895    1.0000 </r>
       <r>    5.2073    1.0000 </r>
       <r>    5.6946    1.0000 </r>
       <r>    6.4585    0.5234 </r>
       <r>    6.5170    0.2842 </r>
       <r>   17.2642    0.0000 </r>
       <r>   23.2375    0.0000 </r>
       <r>   23.6344    0.0000 </r>
       <r>   25.9163    0.0000 </r>
       <r>   32.1315    0.0000 </r>
       <r>   37.1677    0.0000 </r>
      </set>
      <set comment="kpoint 20">
       <r>    3.3627    1.0000 </r>
       <r>    4.6377    1.0000 </r>
       <r>    5.1327    1.0000 </r>
       <r>    5.6026    1.0000 </r>
       <r>    6.5910    0.0651 </r>
       <r>    7.5219   -0.0000 </r>
       <r>   13.7908    0.0000 </r>
       <r>   21.9471    0.0000 </r>
       <r>   23.2852    0.0000 </r>
       <r>   25.7785    0.0000 </r>
       <r>   35.3882    0.0000 </r>
       <r>   36.1921    0.0000 </r>
      </set>
      <set comment="kpoint 21">
       <r>    3.7124    1.0000 </r>
       <r>    4.7164    1.0000 </r>
       <r>    5.2580    1.0000 </r>
       <r>    5.5311    1.0000 </r>
       <r>    6.5586    0.1453 </r>
       <r>    8.8971   -0.0000 </r>
       <r>   11.3938   -0.0000 </r>
       <r>   20.6772    0.0000 </r>
       <r>   23.9988    0.0000 </r>
       <r>   25.9947    0.0000 </r>
       <r>   35.0840    0.0000 </r>
       <r>   35.5407    0.0000 </r>
      </set>
      <set comment="kpoint 22">
       <r>    3.5846    1.0000 </r>
       <r>    4.8316    1.0000 </r>
       <r>    5.1050    1.0000 </r>
       <r>    5.5191    1.0000 </r>
       <r>    6.3528    0.8995 </r>
       <r>    8.1327   -0.0000 </r>
       <r>   12.8339    0.0000 </r>
       <r>   19.9176    0.0000 </r>
       <r>   25.3559    0.0000 </r>
       <r>   26.6341    0.0000 </r>
       <r>   34.4144    0.0000 </r>
       <r>   34.8645    0.0000 </r>
      </set>
      <set comment="kpoint 23">
       <r>    2.8001    1.0000 </r>
       <r>    4.7842    1.0000 </r>
       <r>    5.0790    1.0000 </r>
       <r>    5.5770    1.0000 </r>
       <r>    6.0445    1.0058 </r>
       <r>    7.1502   -0.0000 </r>
       <r>   16.0877    0.0000 </r>
       <r>   19.7029    0.0000 </r>
       <r>   27.2710    0.0000 </r>
       <r>   27.7638    0.0000 </r>
       <r>   33.7664    0.0000 </r>
       <r>   34.1807    0.0000 </r>
      </set>
      <set comment="kpoint 24">
       <r>    1.5843    1.0000 </r>
       <r>    4.8064    1.0000 </r>
       <r>    5.2838    1.0000 </r>
       <r>    5.6864    1.0000 </r>
       <r>    5.7427    1.0000 </r>
       <r>    6.5910    0.0650 </r>
       <r>   19.6802    0.0000 </r>
       <r>   20.2363    0.0000 </r>
       <r>   29.3414    0.0000 </r>
       <r>   29.6381    0.0000 </r>
       <r>   32.2045    0.0000 </r>
       <r>   34.2760    0.0000 </r>
      </set>
      <set comment="kpoint 25">
       <r>    1.8434    1.0000 </r>
       <r>    4.4858    1.0000 </r>
       <r>    5.5098    1.0000 </r>
       <r>    5.9998    1.0025 </r>
       <r>    5.9999    1.0025 </r>
       <r>    6.2980    0.9974 </r>
       <r>   22.3961    0.0000 </r>
       <r>   22.3961    0.0000 </r>
       <r>   23.0716    0.0000 </r>
       <r>   24.6745    0.0000 </r>
       <r>   26.9568    0.0000 </r>
       <r>   42.0349    0.0000 </r>
      </set>
      <set comment="kpoint 26">
       <r>    2.7111    1.0000 </r>
       <r>    4.3364    1.0000 </r>
       <r>    5.4616    1.0000 </r>
       <r>    6.0646    1.0081 </r>
       <r>    6.4590    0.5212 </r>
       <r>    6.5149    0.2921 </r>
       <r>   19.3125    0.0000 </r>
       <r>   20.8497    0.0000 </r>
       <r>   21.5653    0.0000 </r>
       <r>   25.0578    0.0000 </r>
       <r>   28.0215    0.0000 </r>
       <r>   41.4174    0.0000 </r>
      </set>
      <set comment="kpoint 27">
       <r>    3.4820    1.0000 </r>
       <r>    4.2935    1.0000 </r>
       <r>    5.3326    1.0000 </r>
       <r>    5.9833    1.0018 </r>
       <r>    6.6108    0.0289 </r>
       <r>    7.7364   -0.0000 </r>
       <r>   15.7459    0.0000 </r>
       <r>   18.9638    0.0000 </r>
       <r>   21.4145    0.0000 </r>
       <r>   25.1221    0.0000 </r>
       <r>   31.1776    0.0000 </r>
       <r>   39.7969    0.0000 </r>
      </set>
      <set comment="kpoint 28">
       <r>    3.9545    1.0000 </r>
       <r>    4.3242    1.0000 </r>
       <r>    5.2196    1.0000 </r>
       <r>    5.8838    1.0002 </r>
       <r>    6.5894    0.0683 </r>
       <r>    9.6752   -0.0000 </r>
       <r>   12.6581    0.0000 </r>
       <r>   17.5350    0.0000 </r>
       <r>   21.9838    0.0000 </r>
       <r>   25.3124    0.0000 </r>
       <r>   35.0297    0.0000 </r>
       <r>   38.5109    0.0000 </r>
      </set>
      <set comment="kpoint 29">
       <r>    4.1209    1.0000 </r>
       <r>    4.4478    1.0000 </r>
       <r>    5.0223    1.0000 </r>
       <r>    5.7979    1.0000 </r>
       <r>    6.3996    0.7574 </r>
       <r>    9.8477   -0.0000 </r>
       <r>   12.6170    0.0000 </r>
       <r>   16.6193    0.0000 </r>
       <r>   23.2264    0.0000 </r>
       <r>   25.7926    0.0000 </r>
       <r>   37.6097    0.0000 </r>
       <r>   37.7228    0.0000 </r>
      </set>
      <set comment="kpoint 30">
       <r>    3.7389    1.0000 </r>
       <r>    4.7603    1.0000 </r>
       <r>    4.7818    1.0000 </r>
       <r>    5.7183    1.0000 </r>
       <r>    6.1606    1.0269 </r>
       <r>    8.1889   -0.0000 </r>
       <r>   15.3736    0.0000 </r>
       <r>   16.6102    0.0000 </r>
       <r>   25.0377    0.0000 </r>
       <r>   26.6317    0.0000 </r>
       <r>   35.9553    0.0000 </r>
       <r>   36.7792    0.0000 </r>
      </set>
      <set comment="kpoint 31">
       <r>    3.0836    1.0000 </r>
       <r>    4.1494    1.0000 </r>
       <r>    6.2735    1.0195 </r>
       <r>    6.4134    0.7070 </r>
       <r>    6.4134    0.7070 </r>
       <r>    6.4333    0.6285 </r>
       <r>   18.4358    0.0000 </r>
       <r>   20.4675    0.0000 </r>
       <r>   20.4676    0.0000 </r>
       <r>   24.0206    0.0000 </r>
       <r>   26.1144    0.0000 </r>
       <r>   45.3606    0.0000 </r>
      </set>
      <set comment="kpoint 32">
       <r>    3.4041    1.0000 </r>
       <r>    4.0732    1.0000 </r>
       <r>    6.1071    1.0150 </r>
       <r>    6.3493    0.9078 </r>
       <r>    6.6305    0.0021 </r>
       <r>    7.8129   -0.0000 </r>
       <r>   16.4934    0.0000 </r>
       <r>   18.0284    0.0000 </r>
       <r>   20.0702    0.0000 </r>
       <r>   24.5269    0.0000 </r>
       <r>   27.3696    0.0000 </r>
       <r>   43.5506    0.0000 </r>
      </set>
      <set comment="kpoint 33">
       <r>    3.7109    1.0000 </r>
       <r>    4.1234    1.0000 </r>
       <r>    5.7457    1.0000 </r>
       <r>    6.2362    1.0342 </r>
       <r>    6.6456   -0.0127 </r>
       <r>    9.8223   -0.0000 </r>
       <r>   14.8788    0.0000 </r>
       <r>   15.1440    0.0000 </r>
       <r>   20.4417    0.0000 </r>
       <r>   24.8173    0.0000 </r>
       <r>   30.7227    0.0000 </r>
       <r>   41.9511    0.0000 </r>
      </set>
      <set comment="kpoint 34">
       <r>    4.0451    1.0000 </r>
       <r>    4.2337    1.0000 </r>
       <r>    5.3152    1.0000 </r>
       <r>    6.0606    1.0076 </r>
       <r>    6.5152    0.2913 </r>
       <r>   11.8653   -0.0000 </r>
       <r>   12.1132    0.0000 </r>
       <r>   14.7409    0.0000 </r>
       <r>   21.5373    0.0000 </r>
       <r>   25.1786    0.0000 </r>
       <r>   34.8535    0.0000 </r>
       <r>   40.2428    0.0000 </r>
      </set>
      <set comment="kpoint 35">
       <r>    3.3722    1.0000 </r>
       <r>    3.9547    1.0000 </r>
       <r>    6.5133    0.2984 </r>
       <r>    6.6955   -0.0347 </r>
       <r>    6.6955   -0.0347 </r>
       <r>    8.2452   -0.0000 </r>
       <r>   14.7416    0.0000 </r>
       <r>   19.4094    0.0000 </r>
       <r>   19.4094    0.0000 </r>
       <r>   23.7135    0.0000 </r>
       <r>   25.8172    0.0000 </r>
       <r>   45.9492    0.0000 </r>
      </set>
      <set comment="kpoint 36">
       <r>    3.4731    1.0000 </r>
       <r>    3.9769    1.0000 </r>
       <r>    6.3906    0.7888 </r>
       <r>    6.4524    0.5491 </r>
       <r>    6.7111   -0.0354 </r>
       <r>    9.2899   -0.0000 </r>
       <r>   14.0929    0.0000 </r>
       <r>   17.5594    0.0000 </r>
       <r>   19.5391    0.0000 </r>
       <r>   24.3615    0.0000 </r>
       <r>   27.1731    0.0000 </r>
       <r>   44.6935    0.0000 </r>
      </set>
      <set comment="kpoint 37">
       <r>    0.6435    1.0000 </r>
       <r>    4.8645    1.0000 </r>
       <r>    5.4279    1.0000 </r>
       <r>    5.6315    1.0000 </r>
       <r>    5.7838    1.0000 </r>
       <r>    6.2350    1.0344 </r>
       <r>   22.2607    0.0000 </r>
       <r>   22.7485    0.0000 </r>
       <r>   28.4814    0.0000 </r>
       <r>   28.8830    0.0000 </r>
       <r>   31.0149    0.0000 </r>
       <r>   35.2921    0.0000 </r>
      </set>
      <set comment="kpoint 38">
       <r>    1.7932    1.0000 </r>
       <r>    4.7400    1.0000 </r>
       <r>    5.2511    1.0000 </r>
       <r>    5.6395    1.0000 </r>
       <r>    5.9983    1.0024 </r>
       <r>    6.5615    0.1370 </r>
       <r>   18.3839    0.0000 </r>
       <r>   21.8981    0.0000 </r>
       <r>   26.4178    0.0000 </r>
       <r>   29.0069    0.0000 </r>
       <r>   32.3727    0.0000 </r>
       <r>   34.1808    0.0000 </r>
      </set>
      <set comment="kpoint 39">
       <r>    2.9753    1.0000 </r>
       <r>    4.7921    1.0000 </r>
       <r>    5.0942    1.0000 </r>
       <r>    5.5404    1.0000 </r>
       <r>    6.3320    0.9452 </r>
       <r>    7.1297   -0.0000 </r>
       <r>   14.7286    0.0000 </r>
       <r>   21.7499    0.0000 </r>
       <r>   24.5554    0.0000 </r>
       <r>   28.4603    0.0000 </r>
       <r>   32.5067    0.0000 </r>
       <r>   35.6282    0.0000 </r>
      </set>
      <set comment="kpoint 40">
       <r>    3.5501    1.0000 </r>
       <r>    4.8479    1.0000 </r>
       <r>    5.2717    1.0000 </r>
       <r>    5.4672    1.0000 </r>
       <r>    6.5216    0.2674 </r>
       <r>    8.2212   -0.0000 </r>
       <r>   11.8462   -0.0000 </r>
       <r>   22.1234    0.0000 </r>
       <r>   23.1343    0.0000 </r>
       <r>   28.0941    0.0000 </r>
       <r>   32.1364    0.0000 </r>
       <r>   36.2464    0.0000 </r>
      </set>
      <set comment="kpoint 41">
       <r>    2.1292    1.0000 </r>
       <r>    4.5300    1.0000 </r>
       <r>    5.2706    1.0000 </r>
       <r>    5.9998    1.0025 </r>
       <r>    6.0092    1.0030 </r>
       <r>    6.5501    0.1707 </r>
       <r>   20.1747    0.0000 </r>
       <r>   20.5914    0.0000 </r>
       <r>   23.4658    0.0000 </r>
       <r>   27.3816    0.0000 </r>
       <r>   29.2018    0.0000 </r>
       <r>   37.5519    0.0000 </r>
      </set>
      <set comment="kpoint 42">
       <r>    3.1624    1.0000 </r>
       <r>    4.4639    1.0000 </r>
       <r>    5.0809    1.0000 </r>
       <r>    5.9113    1.0003 </r>
       <r>    6.3669    0.8621 </r>
       <r>    7.2575   -0.0000 </r>
       <r>   16.5899    0.0000 </r>
       <r>   20.0912    0.0000 </r>
       <r>   21.4324    0.0000 </r>
       <r>   27.7374    0.0000 </r>
       <r>   31.5958    0.0000 </r>
       <r>   36.1772    0.0000 </r>
      </set>
      <set comment="kpoint 43">
       <r>    3.8417    1.0000 </r>
       <r>    4.4765    1.0000 </r>
       <r>    5.0338    1.0000 </r>
       <r>    5.7944    1.0000 </r>
       <r>    6.5439    0.1901 </r>
       <r>    8.6874   -0.0000 </r>
       <r>   13.2891    0.0000 </r>
       <r>   19.7901    0.0000 </r>
       <r>   20.3743    0.0000 </r>
       <r>   27.8198    0.0000 </r>
       <r>   33.9510    0.0000 </r>
       <r>   36.3152    0.0000 </r>
      </set>
      <set comment="kpoint 44">
       <r>    4.0421    1.0000 </r>
       <r>    4.4926    1.0000 </r>
       <r>    5.0541    1.0000 </r>
       <r>    5.7193    1.0000 </r>
       <r>    6.5090    0.3150 </r>
       <r>    9.8714   -0.0000 </r>
       <r>   11.6881   -0.0000 </r>
       <r>   18.6710    0.0000 </r>
       <r>   21.1949    0.0000 </r>
       <r>   28.2630    0.0000 </r>
       <r>   33.6008    0.0000 </r>
       <r>   39.6374    0.0000 </r>
      </set>
      <set comment="kpoint 45">
       <r>    3.7709    1.0000 </r>
       <r>    4.6550    1.0000 </r>
       <r>    4.8508    1.0000 </r>
       <r>    5.7493    1.0000 </r>
       <r>    6.3092    0.9831 </r>
       <r>    8.2778   -0.0000 </r>
       <r>   14.3421    0.0000 </r>
       <r>   18.0759    0.0000 </r>
       <r>   22.5387    0.0000 </r>
       <r>   29.1868    0.0000 </r>
       <r>   32.8752    0.0000 </r>
       <r>   37.1824    0.0000 </r>
      </set>
      <set comment="kpoint 46">
       <r>    2.8851    1.0000 </r>
       <r>    4.6487    1.0000 </r>
       <r>    5.0099    1.0000 </r>
       <r>    5.7990    1.0000 </r>
       <r>    6.0310    1.0045 </r>
       <r>    7.1897   -0.0000 </r>
       <r>   17.5666    0.0000 </r>
       <r>   18.3049    0.0000 </r>
       <r>   24.3158    0.0000 </r>
       <r>   30.5086    0.0000 </r>
       <r>   31.5101    0.0000 </r>
       <r>   34.9320    0.0000 </r>
      </set>
      <set comment="kpoint 47">
       <r>    3.3068    1.0000 </r>
       <r>    4.2285    1.0000 </r>
       <r>    5.5115    1.0000 </r>
       <r>    6.3081    0.9846 </r>
       <r>    6.4122    0.7113 </r>
       <r>    7.3434   -0.0000 </r>
       <r>   18.5767    0.0000 </r>
       <r>   18.6771    0.0000 </r>
       <r>   19.0405    0.0000 </r>
       <r>   26.3920    0.0000 </r>
       <r>   28.2621    0.0000 </r>
       <r>   39.8853    0.0000 </r>
      </set>
      <set comment="kpoint 48">
       <r>    3.7513    1.0000 </r>
       <r>    4.2422    1.0000 </r>
       <r>    5.3661    1.0000 </r>
       <r>    6.1647    1.0278 </r>
       <r>    6.6017    0.0442 </r>
       <r>    8.9609   -0.0000 </r>
       <r>   15.3978    0.0000 </r>
       <r>   16.9926    0.0000 </r>
       <r>   18.9210    0.0000 </r>
       <r>   27.0523    0.0000 </r>
       <r>   31.0381    0.0000 </r>
       <r>   38.3543    0.0000 </r>
      </set>
      <set comment="kpoint 49">
       <r>    4.0870    1.0000 </r>
       <r>    4.3067    1.0000 </r>
       <r>    5.1471    1.0000 </r>
       <r>    5.9950    1.0022 </r>
       <r>    6.5854    0.0770 </r>
       <r>   11.1926   -0.0000 </r>
       <r>   12.4868    0.0000 </r>
       <r>   15.8016    0.0000 </r>
       <r>   19.6240    0.0000 </r>
       <r>   27.5020    0.0000 </r>
       <r>   34.8840    0.0000 </r>
       <r>   37.0353    0.0000 </r>
      </set>
      <set comment="kpoint 50">
       <r>    4.2514    1.0000 </r>
       <r>    4.4179    1.0000 </r>
       <r>    4.8591    1.0000 </r>
       <r>    5.8841    1.0002 </r>
       <r>    6.4299    0.6421 </r>
       <r>    9.9995   -0.0000 </r>
       <r>   13.6998    0.0000 </r>
       <r>   15.5572    0.0000 </r>
       <r>   20.8670    0.0000 </r>
       <r>   28.2692    0.0000 </r>
       <r>   35.1934    0.0000 </r>
       <r>   38.2028    0.0000 </r>
      </set>
      <set comment="kpoint 51">
       <r>    3.5501    1.0000 </r>
       <r>    4.0522    1.0000 </r>
       <r>    6.0242    1.0040 </r>
       <r>    6.3939    0.7774 </r>
       <r>    6.6956   -0.0347 </r>
       <r>    9.1699   -0.0000 </r>
       <r>   14.9213    0.0000 </r>
       <r>   17.6768    0.0000 </r>
       <r>   18.1490    0.0000 </r>
       <r>   25.9069    0.0000 </r>
       <r>   27.8753    0.0000 </r>
       <r>   42.1390    0.0000 </r>
      </set>
      <set comment="kpoint 52">
       <r>    3.7801    1.0000 </r>
       <r>    4.1654    1.0000 </r>
       <r>    5.6198    1.0000 </r>
       <r>    6.2185    1.0355 </r>
       <r>    6.6967   -0.0348 </r>
       <r>   10.7267   -0.0000 </r>
       <r>   14.3565    0.0000 </r>
       <r>   14.9770    0.0000 </r>
       <r>   18.5030    0.0000 </r>
       <r>   26.8344    0.0000 </r>
       <r>   30.8537    0.0000 </r>
       <r>   39.9323    0.0000 </r>
      </set>
      <set comment="kpoint 53">
       <r>    3.8468    1.0000 </r>
       <r>    4.4685    1.0000 </r>
       <r>    4.8727    1.0000 </r>
       <r>    6.0367    1.0050 </r>
       <r>    6.4119    0.7125 </r>
       <r>    8.5047   -0.0000 </r>
       <r>   15.9862    0.0000 </r>
       <r>   16.9935    0.0000 </r>
       <r>   19.5213    0.0000 </r>
       <r>   30.4341    0.0000 </r>
       <r>   31.4505    0.0000 </r>
       <r>   35.3290    0.0000 </r>
      </set>
      <set comment="kpoint 54">
       <r>    4.1853    1.0000 </r>
       <r>    4.4762    1.0000 </r>
       <r>    4.8241    1.0000 </r>
       <r>    5.9261    1.0005 </r>
       <r>    6.5732    0.1058 </r>
       <r>   10.4346   -0.0000 </r>
       <r>   13.1815    0.0000 </r>
       <r>   17.0868    0.0000 </r>
       <r>   18.0551    0.0000 </r>
       <r>   30.7667    0.0000 </r>
       <r>   32.8063    0.0000 </r>
       <r>   36.3974    0.0000 </r>
      </set>
      <set comment="kpoint 55">
       <r>    3.9518    1.0000 </r>
       <r>    4.3548    1.0000 </r>
       <r>    5.1756    1.0000 </r>
       <r>    6.0833    1.0108 </r>
[...]
       </set>
       <set comment="band 5">
        <r>  0.0000  0.0016  0.0010  0.0001  0.1744  0.6622  0.0458  0.0118  0.0842 </r>
       </set>
       <set comment="band 6">
        <r>  0.1194  0.0058  0.0859  0.0413  0.0009  0.0031  0.1058  0.3828  0.0884 </r>
       </set>
       <set comment="band 7">
        <r>  0.1535  0.2336  0.0125  0.0401  0.1284  0.0706  0.0113  0.0213  0.0172 </r>
       </set>
       <set comment="band 8">
        <r>  0.1607  0.1655  0.0269  0.0846  0.0500  0.0267  0.0308  0.0225  0.0648 </r>
       </set>
       <set comment="band 9">
        <r>  0.0772  0.0023  0.2677  0.0445  0.0004  0.0018  0.1826  0.0326  0.0002 </r>
       </set>
       <set comment="band 10">
        <r>  0.0121  0.0085  0.0248  0.2659  0.0061  0.0000  0.0009  0.0523  0.0726 </r>
       </set>
       <set comment="band 11">
        <r>  0.0300  0.0521  0.0023  0.0019  0.2812  0.0190  0.0253  0.0413  0.0701 </r>
       </set>
       <set comment="band 12">
        <r>  0.0629  0.0319  0.0539  0.1343  0.0344  0.0016  0.1833  0.0543  0.0909 </r>
       </set>
      </set>
      <set comment="kpoint 46">
       <set comment="band 1">
        <r>  0.2804  0.0000  0.1082  0.0486  0.0000  0.0000  0.0617  0.1270  0.0073 </r>
       </set>
       <set comment="band 2">
        <r>  0.0000  0.0270  0.0000  0.0000  0.7078  0.1742  0.0000  0.0000  0.0000 </r>
       </set>
       <set comment="band 3">
        <r>  0.0028  0.0000  0.0000  0.0063  0.0000  0.0000  0.4403  0.3196  0.1603 </r>
       </set>
       <set comment="band 4">
        <r>  0.0029  0.0000  0.0097  0.0013  0.0000  0.0000  0.3255  0.0134  0.6050 </r>
       </set>
       <set comment="band 5">
        <r>  0.0000  0.0023  0.0000  0.0000  0.2038  0.7680  0.0000  0.0000  0.0000 </r>
       </set>
       <set comment="band 6">
        <r>  0.0613  0.0000  0.0315  0.0150  0.0000  0.0000  0.1203  0.5101  0.1937 </r>
       </set>
       <set comment="band 7">
        <r>  0.0000  0.3821  0.0000  0.0000  0.1770  0.1126  0.0000  0.0000  0.0000 </r>
       </set>
       <set comment="band 8">
        <r>  0.2372  0.0000  0.0610  0.1689  0.0000  0.0000  0.0319  0.0679  0.0477 </r>
       </set>
       <set comment="band 9">
        <r>  0.0647  0.0000  0.2679  0.0149  0.0000  0.0000  0.2228  0.0164  0.0002 </r>
       </set>
       <set comment="band 10">
        <r>  0.0003  0.0000  0.0446  0.3323  0.0000  0.0000  0.0026  0.0085  0.0743 </r>
       </set>
       <set comment="band 11">
        <r>  0.0000  0.1042  0.0000  0.0000  0.3192  0.0243  0.0000  0.0000  0.0000 </r>
       </set>
       <set comment="band 12">
        <r>  0.1035  0.0000  0.0894  0.0638  0.0000  0.0000  0.1742  0.0903  0.1680 </r>
       </set>
      </set>
      <set comment="kpoint 47">
       <set comment="band 1">
        <r>  0.1410  0.0762  0.0000  0.0107  0.0175  0.0000  0.1400  0.0000  0.3447 </r>
       </set>
       <set comment="band 2">
        <r>  0.0000  0.0000  0.0085  0.0000  0.0000  0.0107  0.0000  0.8877  0.0000 </r>
       </set>
       <set comment="band 3">
        <r>  0.0451  0.0734  0.0000  0.0009  0.5048  0.0000  0.1611  0.0000  0.0958 </r>
       </set>
       <set comment="band 4">
        <r>  0.0051  0.0138  0.0000  0.0018  0.0003  0.0000  0.5258  0.0000  0.4236 </r>
       </set>
       <set comment="band 5">
        <r>  0.0000  0.0000  0.0047  0.0000  0.0000  0.9632  0.0000  0.0144  0.0000 </r>
       </set>
       <set comment="band 6">
        <r>  0.0861  0.1132  0.0000  0.0079  0.4562  0.0000  0.1337  0.0000  0.0653 </r>
       </set>
       <set comment="band 7">
        <r>  0.0000  0.0000  0.4324  0.0000  0.0000  0.0469  0.0000  0.1593  0.0000 </r>
       </set>
       <set comment="band 8">
        <r>  0.0869  0.1839  0.0000  0.0474  0.0170  0.0000  0.0852  0.0000  0.1942 </r>
       </set>
       <set comment="band 9">
        <r>  0.2118  0.0518  0.0000  0.3155  0.0316  0.0000  0.0179  0.0000  0.0006 </r>
       </set>
       <set comment="band 10">
        <r>  0.0000  0.0000  0.0958  0.0000  0.0000  0.0099  0.0000  0.4892  0.0000 </r>
       </set>
       <set comment="band 11">
        <r>  0.2303  0.0619  0.0000  0.1730  0.0088  0.0000  0.0191  0.0000  0.1065 </r>
       </set>
       <set comment="band 12">
        <r>  0.0291  0.0020  0.0000  0.0551  0.0923  0.0000  0.0529  0.0000  0.1735 </r>
       </set>
      </set>
      <set comment="kpoint 48">
       <set comment="band 1">
        <r>  0.0556  0.0289  0.0006  0.0169  0.0161  0.0028  0.2260  0.0240  0.4364 </r>
       </set>
       <set comment="band 2">
        <r>  0.0004  0.0000  0.0206  0.0044  0.0038  0.0120  0.0114  0.8266  0.0156 </r>
       </set>
       <set comment="band 3">
        <r>  0.0248  0.0755  0.0001  0.0002  0.6274  0.0385  0.0875  0.0174  0.0145 </r>
       </set>
       <set comment="band 4">
        <r>  0.0000  0.0072  0.0009  0.0025  0.0008  0.1231  0.4911  0.0019  0.3441 </r>
       </set>
       <set comment="band 5">
        <r>  0.0001  0.0001  0.0014  0.0001  0.0891  0.7767  0.0696  0.0101  0.0422 </r>
       </set>
       <set comment="band 6">
        <r>  0.1109  0.2258  0.0032  0.0146  0.2524  0.0279  0.0568  0.0004  0.0677 </r>
       </set>
       <set comment="band 7">
        <r>  0.1224  0.0018  0.2315  0.1076  0.0095  0.0165  0.0208  0.1321  0.0075 </r>
       </set>
       <set comment="band 8">
        <r>  0.2104  0.1826  0.0013  0.0210  0.0160  0.0016  0.0607  0.0007  0.1684 </r>
       </set>
       <set comment="band 9">
        <r>  0.0969  0.0050  0.2034  0.1785  0.0090  0.0087  0.0589  0.0542  0.0008 </r>
       </set>
       <set comment="band 10">
        <r>  0.0613  0.0077  0.0514  0.0656  0.0008  0.0029  0.0021  0.3413  0.0409 </r>
       </set>
       <set comment="band 11">
        <r>  0.1109  0.0188  0.0433  0.1783  0.0016  0.0020  0.0163  0.1315  0.0875 </r>
       </set>
       <set comment="band 12">
        <r>  0.0397  0.0110  0.0019  0.0335  0.1731  0.0021  0.0417  0.0013  0.1400 </r>
       </set>
      </set>
      <set comment="kpoint 49">
       <set comment="band 1">
        <r>  0.0181  0.0061  0.0009  0.0181  0.0075  0.0029  0.2974  0.0861  0.4166 </r>
       </set>
       <set comment="band 2">
        <r>  0.0095  0.0005  0.0384  0.0170  0.0154  0.0107  0.0457  0.6998  0.0315 </r>
       </set>
       <set comment="band 3">
        <r>  0.0045  0.0735  0.0011  0.0002  0.6583  0.0970  0.0137  0.0404  0.0009 </r>
       </set>
       <set comment="band 4">
        <r>  0.0020  0.0017  0.0021  0.0018  0.0004  0.0518  0.5054  0.0005  0.4025 </r>
       </set>
       <set comment="band 5">
        <r>  0.0005  0.0005  0.0001  0.0000  0.1532  0.7821  0.0273  0.0054  0.0203 </r>
       </set>
       <set comment="band 6">
        <r>  0.0351  0.3045  0.0290  0.0366  0.1549  0.0393  0.0361  0.0084  0.0465 </r>
       </set>
       <set comment="band 7">
        <r>  0.2112  0.0138  0.1657  0.0709  0.0212  0.0155  0.0237  0.1647  0.0083 </r>
       </set>
       <set comment="band 8">
        <r>  0.2782  0.1150  0.0080  0.0427  0.0201  0.0054  0.0557  0.0043  0.1456 </r>
       </set>
       <set comment="band 9">
        <r>  0.0886  0.0013  0.2376  0.1326  0.0016  0.0022  0.1042  0.0527  0.0000 </r>
       </set>
       <set comment="band 10">
        <r>  0.0660  0.0029  0.0284  0.1296  0.0001  0.0005  0.0006  0.2395  0.0724 </r>
       </set>
       <set comment="band 11">
        <r>  0.0409  0.0090  0.0496  0.1837  0.0062  0.0017  0.0265  0.2068  0.0495 </r>
       </set>
       <set comment="band 12">
        <r>  0.0381  0.0293  0.0094  0.0008  0.2641  0.0061  0.0119  0.0014  0.0888 </r>
       </set>
      </set>
      <set comment="kpoint 50">
       <set comment="band 1">
        <r>  0.0388  0.0000  0.0636  0.0438  0.0000  0.0000  0.1750  0.4075  0.0763 </r>
       </set>
       <set comment="band 2">
        <r>  0.0151  0.0000  0.0010  0.0066  0.0000  0.0000  0.2653  0.3205  0.2848 </r>
       </set>
       <set comment="band 3">
        <r>  0.0000  0.0617  0.0000  0.0000  0.6798  0.1505  0.0000  0.0000  0.0000 </r>
       </set>
       <set comment="band 4">
        <r>  0.0013  0.0000  0.0059  0.0001  0.0000  0.0000  0.4300  0.0076  0.5195 </r>
       </set>
       <set comment="band 5">
        <r>  0.0000  0.0015  0.0000  0.0000  0.1927  0.7905  0.0000  0.0000  0.0000 </r>
       </set>
       <set comment="band 6">
        <r>  0.1583  0.0000  0.1450  0.0709  0.0000  0.0000  0.0664  0.2569  0.0449 </r>
       </set>
       <set comment="band 7">
        <r>  0.0000  0.4264  0.0000  0.0000  0.1768  0.0760  0.0000  0.0000  0.0000 </r>
       </set>
       <set comment="band 8">
        <r>  0.3629  0.0000  0.0233  0.0859  0.0000  0.0000  0.0543  0.0191  0.1252 </r>
       </set>
       <set comment="band 9">
        <r>  0.0843  0.0000  0.2563  0.0873  0.0000  0.0000  0.1489  0.0455  0.0000 </r>
       </set>
       <set comment="band 10">
        <r>  0.0461  0.0000  0.0208  0.1914  0.0000  0.0000  0.0001  0.1500  0.0925 </r>
       </set>
       <set comment="band 11">
        <r>  0.0000  0.0660  0.0000  0.0000  0.3382  0.0127  0.0000  0.0000  0.0000 </r>
       </set>
       <set comment="band 12">
        <r>  0.0259  0.0000  0.0001  0.2658  0.0000  0.0000  0.1636  0.2015  0.0350 </r>
       </set>
      </set>
      <set comment="kpoint 51">
       <set comment="band 1">
        <r>  0.0450  0.0068  0.0000  0.0086  0.0011  0.0000  0.2224  0.0000  0.5383 </r>
       </set>
       <set comment="band 2">
        <r>  0.0000  0.0000  0.0090  0.0000  0.0000  0.0011  0.0000  0.8903  0.0000 </r>
       </set>
       <set comment="band 3">
        <r>  0.0070  0.0751  0.0000  0.0004  0.7776  0.0000  0.0528  0.0000  0.0005 </r>
       </set>
       <set comment="band 4">
        <r>  0.0000  0.0052  0.0000  0.0016  0.0341  0.0000  0.6423  0.0000  0.2987 </r>
       </set>
       <set comment="band 5">
        <r>  0.0000  0.0000  0.0008  0.0000  0.0000  0.9896  0.0000  0.0016  0.0000 </r>
       </set>
       <set comment="band 6">
        <r>  0.0563  0.3818  0.0000  0.0029  0.1845  0.0000  0.0191  0.0000  0.0359 </r>
       </set>
       <set comment="band 7">
        <r>  0.3182  0.0793  0.0000  0.0135  0.0044  0.0000  0.0773  0.0000  0.2175 </r>
       </set>
       <set comment="band 8">
        <r>  0.0000  0.0000  0.4665  0.0000  0.0000  0.0061  0.0000  0.1513  0.0000 </r>
       </set>
       <set comment="band 9">
        <r>  0.1424  0.0014  0.0000  0.3868  0.0053  0.0000  0.0466  0.0000  0.0069 </r>
       </set>
       <set comment="band 10">
        <r>  0.0000  0.0000  0.0848  0.0000  0.0000  0.0010  0.0000  0.5407  0.0000 </r>
       </set>
       <set comment="band 11">
        <r>  0.2656  0.0071  0.0000  0.1557  0.0009  0.0000  0.0283  0.0000  0.1546 </r>
       </set>
       <set comment="band 12">
        <r>  0.0100  0.0181  0.0000  0.0204  0.1792  0.0000  0.0224  0.0000  0.0486 </r>
       </set>
      </set>
      <set comment="kpoint 52">
       <set comment="band 1">
        <r>  0.0249  0.0000  0.0010  0.0162  0.0000  0.0000  0.2734  0.0094  0.5138 </r>
       </set>
       <set comment="band 2">
        <r>  0.0009  0.0000  0.0208  0.0034  0.0000  0.0000  0.0032  0.8619  0.0036 </r>
       </set>
       <set comment="band 3">
        <r>  0.0000  0.0863  0.0000  0.0000  0.7540  0.0570  0.0000  0.0000  0.0000 </r>
       </set>
       <set comment="band 4">
        <r>  0.0023  0.0000  0.0005  0.0027  0.0000  0.0000  0.6323  0.0002  0.3390 </r>
       </set>
       <set comment="band 5">
        <r>  0.0000  0.0004  0.0000  0.0000  0.0760  0.9163  0.0000  0.0000  0.0000 </r>
       </set>
       <set comment="band 6">
        <r>  0.0000  0.4543  0.0000  0.0000  0.1860  0.0235  0.0000  0.0000  0.0000 </r>
       </set>
       <set comment="band 7">
        <r>  0.3085  0.0000  0.0186  0.0554  0.0000  0.0000  0.0966  0.0014  0.2273 </r>
       </set>
       <set comment="band 8">
        <r>  0.1887  0.0000  0.2295  0.0901  0.0000  0.0000  0.0114  0.1369  0.0005 </r>
       </set>
       <set comment="band 9">
        <r>  0.0945  0.0000  0.2055  0.1908  0.0000  0.0000  0.0669  0.0514  0.0012 </r>
       </set>
       <set comment="band 10">
        <r>  0.0649  0.0000  0.0498  0.0586  0.0000  0.0000  0.0026  0.3640  0.0487 </r>
       </set>
       <set comment="band 11">
        <r>  0.1303  0.0000  0.0417  0.1713  0.0000  0.0000  0.0184  0.1288  0.1151 </r>
       </set>
       <set comment="band 12">
        <r>  0.0000  0.0377  0.0000  0.0000  0.2747  0.0029  0.0000  0.0000  0.0000 </r>
       </set>
      </set>
      <set comment="kpoint 53">
       <set comment="band 1">
        <r>  0.0928  0.0712  0.0000  0.0352  0.0987  0.0000  0.2054  0.0000  0.2539 </r>
       </set>
       <set comment="band 2">
        <r>  0.0000  0.0000  0.0315  0.0000  0.0000  0.0499  0.0000  0.8183  0.0000 </r>
       </set>
       <set comment="band 3">
        <r>  0.0276  0.0315  0.0000  0.0014  0.5202  0.0000  0.2493  0.0000  0.0680 </r>
       </set>
       <set comment="band 4">
        <r>  0.0002  0.0129  0.0000  0.0024  0.0092  0.0000  0.3630  0.0000  0.5753 </r>
       </set>
       <set comment="band 5">
        <r>  0.0000  0.0000  0.0035  0.0000  0.0000  0.9138  0.0000  0.0657  0.0000 </r>
       </set>
       <set comment="band 6">
        <r>  0.1286  0.1341  0.0000  0.0256  0.3567  0.0000  0.1209  0.0000  0.0469 </r>
       </set>
       <set comment="band 7">
        <r>  0.0000  0.0000  0.4189  0.0000  0.0000  0.0543  0.0000  0.1947  0.0000 </r>
       </set>
       <set comment="band 8">
        <r>  0.2692  0.0193  0.0000  0.1960  0.0308  0.0000  0.1079  0.0000  0.0045 </r>
       </set>
       <set comment="band 9">
        <r>  0.1413  0.2386  0.0000  0.0275  0.0264  0.0000  0.0502  0.0000  0.1501 </r>
       </set>
       <set comment="band 10">
        <r>  0.0000  0.0000  0.0943  0.0000  0.0000  0.0119  0.0000  0.4081  0.0000 </r>
       </set>
       <set comment="band 11">
        <r>  0.0320  0.0515  0.0000  0.3582  0.0059  0.0000  0.0288  0.0000  0.0188 </r>
       </set>
       <set comment="band 12">
        <r>  0.1265  0.0008  0.0000  0.0015  0.1717  0.0000  0.0352  0.0000  0.2963 </r>
       </set>
      </set>
      <set comment="kpoint 54">
       <set comment="band 1">
        <r>  0.0158  0.0252  0.0000  0.0363  0.0472  0.0040  0.4236  0.0266  0.2523 </r>
       </set>
       <set comment="band 2">
        <r>  0.0178  0.0096  0.0333  0.0035  0.1977  0.0417  0.0881  0.4782  0.0094 </r>
       </set>
       <set comment="band 3">
        <r>  0.0087  0.0367  0.0165  0.0012  0.4936  0.0005  0.0390  0.2954  0.0009 </r>
       </set>
       <set comment="band 4">
        <r>  0.0030  0.0058  0.0008  0.0005  0.0085  0.0435  0.2813  0.0002  0.6200 </r>
       </set>
       <set comment="band 5">
        <r>  0.0007  0.0000  0.0013  0.0000  0.0264  0.8730  0.0121  0.0496  0.0251 </r>
       </set>
       <set comment="band 6">
        <r>  0.1171  0.2123  0.0107  0.0491  0.2172  0.0064  0.0693  0.0014  0.0394 </r>
       </set>
       <set comment="band 7">
        <r>  0.1552  0.0000  0.2632  0.0343  0.0116  0.0290  0.0317  0.1649  0.0014 </r>
       </set>
       <set comment="band 8">
        <r>  0.1885  0.0061  0.1559  0.1016  0.0072  0.0069  0.1276  0.0463  0.0014 </r>
       </set>
       <set comment="band 9">
        <r>  0.1674  0.2083  0.0025  0.0571  0.0403  0.0021  0.0452  0.0007  0.1197 </r>
       </set>
       <set comment="band 10">
        <r>  0.0029  0.0218  0.0333  0.2183  0.0292  0.0010  0.0146  0.1295  0.0088 </r>
       </set>
       <set comment="band 11">
        <r>  0.0216  0.0164  0.0269  0.0441  0.1242  0.0062  0.0393  0.2050  0.0419 </r>
       </set>
       <set comment="band 12">
        <r>  0.0822  0.0000  0.0195  0.1455  0.1231  0.0000  0.0000  0.0626  0.2035 </r>
       </set>
      </set>
      <set comment="kpoint 55">
       <set comment="band 1">
        <r>  0.0161  0.0057  0.0000  0.0285  0.0038  0.0000  0.3712  0.0000  0.4123 </r>
       </set>
       <set comment="band 2">
        <r>  0.0000  0.0000  0.0336  0.0000  0.0000  0.0049  0.0000  0.8562  0.0000 </r>
       </set>
       <set comment="band 3">
        <r>  0.0085  0.0749  0.0000  0.0000  0.7770  0.0000  0.0281  0.0000  0.0000 </r>
       </set>
       <set comment="band 4">
        <r>  0.0050  0.0030  0.0000  0.0021  0.0124  0.0000  0.4799  0.0000  0.4666 </r>
       </set>
       <set comment="band 5">
        <r>  0.0000  0.0000  0.0007  0.0000  0.0000  0.9845  0.0000  0.0072  0.0000 </r>
       </set>
       <set comment="band 6">
        <r>  0.0760  0.3349  0.0000  0.0146  0.2153  0.0000  0.0264  0.0000  0.0315 </r>
       </set>
       <set comment="band 7">
        <r>  0.0000  0.0000  0.4430  0.0000  0.0000  0.0073  0.0000  0.2087  0.0000 </r>
       </set>
       <set comment="band 8">
        <r>  0.2521  0.1051  0.0000  0.0587  0.0203  0.0000  0.0754  0.0000  0.1636 </r>
       </set>
       <set comment="band 9">
        <r>  0.3046  0.0030  0.0000  0.2022  0.0033  0.0000  0.1211  0.0000  0.0032 </r>
       </set>
       <set comment="band 10">
        <r>  0.0000  0.0000  0.0905  0.0000  0.0000  0.0016  0.0000  0.4454  0.0000 </r>
       </set>
       <set comment="band 11">
        <r>  0.1048  0.0086  0.0000  0.3291  0.0004  0.0000  0.0170  0.0000  0.1301 </r>
       </set>
       <set comment="band 12">
        <r>  0.0342  0.0341  0.0000  0.0041  0.2820  0.0000  0.0167  0.0000  0.0748 </r>
       </set>
      </set>
      <set comment="kpoint 56">
       <set comment="band 1">
        <r>  0.0010  0.0000  0.0022  0.0357  0.0000  0.0000  0.5218  0.0000  0.2866 </r>
       </set>
       <set comment="band 2">
        <r>  0.0063  0.0000  0.0490  0.0012  0.0000  0.0000  0.0002  0.8266  0.0037 </r>
       </set>
       <set comment="band 3">
        <r>  0.0000  0.0652  0.0000  0.0000  0.8091  0.0157  0.0000  0.0000  0.0000 </r>
       </set>
       <set comment="band 4">
        <r>  0.0106  0.0000  0.0011  0.0003  0.0000  0.0000  0.3377  0.0038  0.6105 </r>
       </set>
       <set comment="band 5">
        <r>  0.0000  0.0006  0.0000  0.0000  0.0224  0.9695  0.0000  0.0000  0.0000 </r>
       </set>
       <set comment="band 6">
        <r>  0.0924  0.0000  0.2902  0.0519  0.0000  0.0000  0.0519  0.1825  0.0088 </r>
       </set>
       <set comment="band 7">
        <r>  0.0000  0.4440  0.0000  0.0000  0.2158  0.0116  0.0000  0.0000  0.0000 </r>
       </set>
       <set comment="band 8">
        <r>  0.3622  0.0000  0.0004  0.0951  0.0000  0.0000  0.0728  0.0043  0.1478 </r>
       </set>
       <set comment="band 9">
        <r>  0.2053  0.0000  0.1518  0.1047  0.0000  0.0000  0.1388  0.0444  0.0011 </r>
       </set>
       <set comment="band 10">
        <r>  0.0177  0.0000  0.0519  0.1280  0.0000  0.0000  0.0016  0.2665  0.0436 </r>
       </set>
       <set comment="band 11">
        <r>  0.0000  0.0660  0.0000  0.0000  0.3706  0.0015  0.0000  0.0000  0.0000 </r>
       </set>
       <set comment="band 12">
        <r>  0.0108  0.0000  0.0220  0.3152  0.0000  0.0000  0.0420  0.1482  0.0409 </r>
       </set>
      </set>
     </set>
    </set>
   </array>
  </projected>
 </calculation>
 <structure name="finalpos" >
  <crystal>
   <varray name="basis" >
    <v>       1.90000000       1.90000000       0.00000000 </v>
    <v>       0.00000000       1.90000000       1.90000000 </v>
    <v>       1.90000000       0.00000000       1.90000000 </v>
   </varray>
   <i name="volume">     13.71800000 </i>
   <varray name="rec_basis" >
    <v>       0.26315789       0.26315789      -0.26315789 </v>
    <v>      -0.26315789       0.26315789       0.26315789 </v>
    <v>       0.26315789      -0.26315789       0.26315789 </v>
   </varray>
  </crystal>
  <varray name="positions" >
   <v>       0.00000000       0.00000000       0.00000000 </v>
  </varray>
 </structure>
</modeling>
