diamond Si                              
   5.50000000000000     
     0.000000    0.500000    0.500000
     0.500000    0.000000    0.500000
     0.500000    0.500000    0.000000
   Si
     2
Direct
  0.875000  0.875000  0.875000
  0.125000  0.125000  0.130000
 
   32   32   32
  22.331      22.255      22.051      21.603      20.723      19.362      17.785      16.488      15.959      16.423    
  17.716      19.368      20.863      21.884      22.430      22.689      22.788      22.772      22.591      22.108    
  21.112      19.584      17.842      16.430      15.860      16.341      17.665      19.324      20.779      21.719    
  22.161      22.319      22.255      22.539      22.531      21.909      20.476      18.435      16.375      15.044    
  14.975      16.214      18.289      20.458      22.077      22.870      22.978      22.735      22.326      21.820    
  21.192      20.372      19.291      18.015      16.821      16.075      16.030      16.687      17.795      18.993    
  20.007      20.772      21.360      21.843      22.051      22.531      22.320      21.041      18.735      15.968    
  13.662      12.696      13.466      15.683      18.517      21.015      22.525      22.919      22.526      21.795    
  20.938      20.035      19.086      18.074      17.024      16.032      15.289      14.986      15.204      15.863    
  16.775      17.752      18.701      19.595      20.458      21.299      21.603      21.909      21.041      18.817    
  15.638      12.451      10.387      10.247      12.100      15.245      18.562      21.036      22.159      22.026    
  21.151      20.021      18.836      17.678      16.566      15.512      14.567      13.826      13.400      13.361    
  13.709      14.374      15.246      16.232      17.281      18.387      19.539      20.669      20.723      20.476    
  18.735      15.638      11.972      8.9395      7.6576      8.6300      11.493      15.195      18.503      20.529    
  21.021      20.323      19.068      17.675      16.310      15.048      13.917      12.941      12.163      11.646    
  11.443      11.576      12.024      12.733      13.642      14.708      15.911      17.232      18.606      19.889    
  19.362      18.435      15.968      12.451      8.9395      6.6665      6.4938      8.4963      11.924      15.563    
  18.289      19.497      19.240      18.056      16.566      15.053      13.647      12.410      11.368      10.539    
  9.9505      9.6318      9.6015      9.8594      10.386      11.153      12.133      13.310      14.665      16.146    
  17.639      18.902      17.785      16.375      13.662      10.387      7.6576      6.4938      7.3515      9.9031    
  13.195      16.095      17.768      17.968      17.011      15.520      13.931      12.421      11.084      9.9628    
  9.0714      8.4174      8.0095      7.8554      7.9577      8.3126      8.9117      9.7464      10.811      12.095    
  13.565      15.138      16.658      17.749      16.488      15.044      12.696      10.247      8.6300      8.4963    
  9.9031      12.287      14.732      16.382      16.790      16.032      14.588      12.968      11.392      9.9770    
  8.7820      7.8266      7.1107      6.6296      6.3794      6.3577      6.5638      6.9984      7.6650      8.5690    
  9.7130      11.084      12.631      14.250      15.752      16.670      15.959      14.975      13.466      12.100    
  11.493      11.924      13.195      14.732      15.850      16.072      15.310      13.867      12.208      10.580    
  9.1020      7.8427      6.8275      6.0551      5.5124      5.1860      5.0664      5.1498      5.4382      5.9398    
  6.6677      7.6362      8.8505      10.292      11.901      13.569      15.086      16.000      16.423      16.214    
  15.683      15.245      15.195      15.563      16.095      16.382      16.072      15.042      13.468      11.714    
  10.011      8.4661      7.1438      6.0714      5.2462      4.6505      4.2627      4.0660      4.0512      4.2173    
  4.5720      5.1309      5.9153      6.9453      8.2276      9.7425      11.431      13.196      14.838      15.988    
  17.716      18.289      18.517      18.562      18.503      18.289      17.768      16.790      15.310      13.468    
  11.542      9.7170      8.0784      6.6805      5.5448      4.6656      4.0201      3.5802      3.3219      3.2296    
  3.2975      3.5296      3.9400      4.5517      5.3932      6.4895      7.8511      9.4618      11.273      13.203    
  15.093      16.654      19.368      20.458      21.015      21.036      20.529      19.497      17.968      16.032    
  13.867      11.714      9.7170      7.9480      6.4494      5.2347      4.2922      3.5936      3.1045      2.7937    
  2.6390      2.6292      2.7632      3.0509      3.5130      4.1799      5.0866      6.2641      7.7278      9.4687    
  11.448      13.596      15.786      17.777      20.863      22.077      22.525      22.159      21.021      19.240    
  17.011      14.588      12.208      10.011      8.0784      6.4494      5.1323      4.1098      3.3476      2.8050    
  2.4441      2.2359      2.1631      2.2194      2.4096      2.7495      3.2666      3.9984      4.9865      6.2674    
  7.8616      9.7649      11.940      14.312      16.747      19.018      21.884      22.870      22.919      22.026    
  20.323      18.056      15.520      12.968      10.580      8.4661      6.6805      5.2347      4.1098      3.2673    
  2.6606      2.2453      1.9857      1.8584      1.8516      1.9647      2.2079      2.6034      3.1857      3.9988    
  5.0901      6.5001      8.2509      10.335      12.702      15.247      17.797      20.108      22.430      22.978    
  22.526      21.151      19.068      16.566      13.931      11.392      9.1020      7.1438      5.5448      4.2922    
  3.3476      2.6606      2.1809      1.8661      1.6864      1.6246      1.6748      1.8416      2.1411      2.6019    
  3.2652      4.1812      5.4009      6.9650      8.8897      11.152      13.674      16.310      18.836      20.973    
  22.689      22.735      21.795      20.021      17.675      15.053      12.421      9.9770      7.8427      6.0714    
  4.6656      3.5936      2.8050      2.2453      1.8661      1.6308      1.5162      1.5113      1.6155      1.8389    
  2.2036      2.7448      3.5103      4.5544      5.9286      7.6671      9.7711      12.192      14.814      17.447    
  19.830      21.667      22.788      22.326      20.938      18.836      16.310      13.647      11.084      8.7820    
  6.8275      5.2462      4.0201      3.1045      2.4441      1.9857      1.6864      1.5162      1.4585      1.5076    
  1.6683      1.9564      2.4007      3.0430      3.9362      5.1356      6.6874      8.6124      10.889      13.436    
  16.098      18.646      20.792      22.247      22.772      21.820      20.035      17.678      15.048      12.410    
  9.9628      7.8266      6.0551      4.6505      3.5802      2.7937      2.2359      1.8584      1.6246      1.5113    
  1.5076      1.6131      1.8382      2.2050      2.7491      3.5182      4.5670      5.9468      7.6917      9.8025    
  12.230      14.860      17.499      19.884      21.720      22.736      22.591      21.192      19.086      16.566    
  13.917      11.368      9.0714      7.1107      5.5124      4.2627      3.3219      2.6390      2.1631      1.8516    
  1.6748      1.6155      1.6683      1.8382      2.1416      2.6074      3.2773      4.2016      5.4316      7.0074    
  8.9447      11.220      13.756      16.404      18.939      21.079      22.530      23.063      22.108      20.372    
  18.074      15.512      12.941      10.539      8.4174      6.6296      5.1860      4.0660      3.2296      2.6292    
  2.2194      1.9647      1.8416      1.8389      1.9564      2.2050      2.6074      3.1986      4.0232      5.1283    
  6.5541      8.3220      10.424      12.809      15.372      17.937      20.256      22.030      23.004      23.031    
  21.112      19.291      17.024      14.567      12.163      9.9505      8.0095      6.3794      5.0664      4.0512    
  3.2975      2.7632      2.4096      2.2079      2.1411      2.2036      2.4007      2.7491      3.2773      4.0232    
  5.0283      6.3282      7.9427      9.8664      12.062      14.453      16.905      19.181      21.026      22.233    
  22.668      22.281      19.584      18.015      16.032      13.826      11.646      9.6318      7.8554      6.3577    
  5.1498      4.2173      3.5296      3.0509      2.7495      2.6034      2.6019      2.7448      3.0430      3.5182    
  4.2016      5.1283      6.3282      7.8151      9.5781      11.577      13.743      15.939      17.920      19.500    
  20.584      21.140      21.161      20.642      17.842      16.821      15.289      13.400      11.443      9.6015    
  7.9577      6.5638      5.4382      4.5720      3.9400      3.5130      3.2666      3.1857      3.2652      3.5103    
  3.9362      4.5670      5.4316      6.5541      7.9427      9.5781      11.408      13.351      15.227      16.750    
  17.771      18.320      18.550      18.617      18.583      18.379      16.430      16.075      14.986      13.361    
  11.576      9.8594      8.3126      6.9984      5.9398      5.1309      4.5517      4.1799      3.9984      3.9988    
  4.1812      4.5544      5.1356      5.9468      7.0074      8.3220      9.8664      11.577      13.351      14.963    
  16.038      16.383      16.103      15.550      15.141      15.155      15.586      16.151      15.860      16.030    
  15.204      13.709      12.024      10.386      8.9117      7.6650      6.6677      5.9153      5.3932      5.0866    
  4.9865      5.0901      5.4009      5.9286      6.6874      7.6917      8.9447      10.424      12.062      13.743    
  15.227      16.038      15.851      14.727      13.135      11.770      11.242      11.788      13.162      14.750    
  16.341      16.687      15.863      14.374      12.733      11.153      9.7464      8.5690      7.6362      6.9453    
  6.4895      6.2641      6.2674      6.5001      6.9650      7.6671      8.6124      9.8025      11.220      12.809    
  14.453      15.939      16.750      16.383      14.727      12.209      9.6905      8.1233      8.1277      9.6987    
  12.210      14.709      17.665      17.795      16.775      15.246      13.642      12.133      10.811      9.7130    
  8.8505      8.2276      7.8511      7.7278      7.8616      8.2509      8.8897      9.7711      10.889      12.230    
  13.756      15.372      16.905      17.920      17.771      16.103      13.135      9.6905      6.9329      5.8788    
  6.9279      9.6716      13.091      16.027      19.324      18.993      17.752      16.232      14.708      13.310    
  12.095      11.084      10.292      9.7425      9.4618      9.4687      9.7649      10.335      11.152      12.192    
  13.436      14.860      16.404      17.937      19.181      19.500      18.320      15.550      11.770      8.1233    
  5.8788      5.8693      8.0903      11.704      15.441      18.172      20.779      20.007      18.701      17.281    
  15.911      14.665      13.565      12.631      11.901      11.431      11.273      11.448      11.940      12.702    
  13.674      14.814      16.098      17.499      18.939      20.256      21.026      20.584      18.550      15.141    
  11.242      8.1277      6.9279      8.0903      11.160      15.008      18.365      20.359      21.719      20.772    
  19.595      18.387      17.232      16.146      15.138      14.250      13.569      13.196      13.203      13.596    
  14.312      15.247      16.310      17.447      18.646      19.884      21.079      22.030      22.233      21.140    
  18.617      15.155      11.788      9.6987      9.6716      11.704      15.008      18.407      20.877      21.936    
  22.161      21.360      20.458      19.539      18.606      17.639      16.658      15.752      15.086      14.838    
  15.093      15.786      16.747      17.797      18.836      19.830      20.792      21.720      22.530      23.004    
  22.668      21.161      18.583      15.586      13.162      12.210      13.091      15.441      18.365      20.877    
  22.336      22.644      22.319      21.843      21.299      20.669      19.889      18.902      17.749      16.670    
  16.000      15.988      16.654      17.777      19.018      20.108      20.973      21.667      22.247      22.736    
  23.063      23.031      22.281      20.642      18.379      16.151      14.750      14.709      16.027      18.172    
  20.359      21.936      22.644      22.652      22.299      22.588      22.584      21.957      20.513      18.455    
  16.380      15.038      14.969      16.217      18.308      20.494      22.125      22.923      23.029      22.780    
  22.365      21.853      21.219      20.395      19.309      18.029      16.832      16.084      16.039      16.698    
  17.809      19.010      20.028      20.798      21.392      21.880      22.588      23.075      22.812      21.411    
  18.925      15.961      13.497      12.465      13.286      15.652      18.684      21.370      23.015      23.473    
  23.080      22.324      21.438      20.507      19.529      18.483      17.391      16.354      15.574      15.256    
  15.486      16.179      17.134      18.151      19.131      20.053      20.943      21.811      22.584      22.812    
  21.714      19.110      15.467      11.845      9.5088      9.3491      11.442      15.009      18.800      21.678    
  23.059      23.026      22.129      20.940      19.691      18.472      17.299      16.182      15.175      14.382    
  13.923      13.881      14.258      14.970      15.899      16.944      18.051      19.215      20.428      21.616    
  21.957      21.411      19.110      15.255      10.790      7.1320      5.5915      6.7569      10.202      14.697    
  18.789      21.418      22.254      21.652      20.332      18.842      17.379      16.024      14.806      13.749    
  12.901      12.335      12.113      12.259      12.750      13.523      14.507      15.656      16.946      18.361    
  19.830      21.187      20.513      18.925      15.467      10.790      6.2233      3.2967      3.0742      5.6480    
  10.091      14.901      18.667      20.598      20.695      19.556      17.961      16.322      14.793      13.443    
  12.300      11.386      10.733      10.378      10.345      10.632      11.216      12.061      13.135      14.419    
  15.891      17.495      19.096      20.351      18.455      15.961      11.845      7.1320      3.2967      1.6774    
  2.8709      6.4480      11.157      15.494      18.322      19.238      18.559      17.032      15.317      13.666    
  12.195      10.955      9.9640      9.2329      8.7746      8.6008      8.7157      9.1139      9.7831      10.710    
  11.886      13.298      14.905      16.604      18.186      19.059      16.380      13.497      9.5088      5.5915    
  3.0742      2.8709      5.0614      8.8531      12.945      16.094      17.583      17.399      16.085      14.377    
  12.667      11.109      9.7826      8.7154      7.9114      7.3684      7.0847      7.0596      7.2923      7.7820    
  8.5297      9.5385      10.808      12.316      13.997      15.713      17.136      17.561      15.038      12.465    
  9.3491      6.7569      5.6480      6.4480      8.8531      11.969      14.710      16.254      16.326      15.215    
  13.548      11.817      10.206      8.8116      7.6774      6.8085      6.1950      5.8243      5.6878      5.7819    
  6.1082      6.6741      7.4917      8.5728      9.9165      11.490      13.206      14.905      16.160      16.326    
  14.969      13.286      11.442      10.202      10.091      11.157      12.945      14.710      15.744      15.673    
  14.579      12.912      11.153      9.4983      8.0501      6.8585      5.9330      5.2606      4.8209      4.5970    
  4.5794      4.7672      5.1679      5.7974      6.6760      7.8198      9.2250      10.851      12.604      14.319    
  15.554      15.824      16.217      15.652      15.009      14.697      14.901      15.494      16.094      16.254    
  15.673      14.344      12.563      10.725      9.0074      7.5010      6.2536      5.2756      4.5516      4.0556    
  3.7632      3.6580      3.7340      3.9953      4.4565      5.1411      6.0760      7.2800      8.7491      10.443    
  12.278      14.104      15.545      16.267      18.308      18.684      18.800      18.789      18.667      18.322    
  17.583      16.326      14.579      12.563      10.576      8.7547      7.1684      5.8550      4.8206      4.0460    
  3.5003      3.1521      2.9781      2.9663      3.1156      3.4363      3.9503      4.6881      5.6823      6.9556    
  8.5075      10.306      12.285      14.328      16.149      17.497      20.494      21.370      21.678      21.418    
  20.598      19.238      17.399      15.215      12.912      10.725      8.7547      7.0569      5.6571      4.5537    
  3.7223      3.1264      2.7283      2.4979      2.4168      2.4782      2.6872      3.0604      3.6265      4.4231    
  5.4882      6.8495      8.5133      10.457      12.630      14.940      17.168      19.070      22.125      23.015    
  23.059      22.254      20.695      18.559      16.085      13.548      11.153      9.0074      7.1684      5.6571    
  4.4659      3.5646      2.9113      2.4623      2.1809      2.0424      2.0344      2.1560      2.4181      2.8438    
  3.4687      4.3363      5.4904      6.9638      8.7680      10.885      13.261      15.797      18.299      20.491    
  22.923      23.473      23.026      21.652      19.556      17.032      14.377      11.817      9.4983      7.5010    
  5.8550      4.5537      3.5646      2.8412      2.3342      2.0009      1.8104      1.7444      1.7967      1.9723    
  2.2876      2.7723      3.4683      4.4248      5.6897      7.2982      9.2607      11.551      14.094      16.751    
  19.304      21.461      23.029      23.080      22.129      20.332      17.961      15.317      12.667      10.206    
  8.0501      6.2536      4.8206      3.7223      2.9113      2.3342      1.9426      1.6994      1.5806      1.5749    
  1.6816      1.9110      2.2855      2.8411      3.6255      4.6920      6.0899      7.8505      9.9733      12.410    
  15.050      17.706      20.118      21.984      22.780      22.324      20.940      18.842      16.322      13.666    
  11.109      8.8116      6.8585      5.2756      4.0460      3.1264      2.4623      2.0009      1.6994      1.5277    
  1.4691      1.5178      1.6785      1.9669      2.4118      3.0550      3.9489      5.1481      6.6979      8.6183    
  10.888      13.427      16.082      18.627      20.774      22.234      22.365      21.438      19.691      17.379    
  14.793      12.195      9.7826      7.6774      5.9330      4.5516      3.5003      2.7283      2.1809      1.8104    
  1.5806      1.4691      1.4648      1.5675      1.7871      2.1451      2.6764      3.4282      4.4549      5.8081    
  7.5224      9.5995      11.990      14.579      17.175      19.521      21.324      22.325      21.853      20.507    
  18.472      16.024      13.443      10.955      8.7154      6.8085      5.2606      4.0556      3.1521      2.4979    
  2.0424      1.7444      1.5749      1.5178      1.5675      1.7289      2.0174      2.4609      3.0998      3.9841    
  5.1662      6.6885      8.5692      10.786      13.260      15.841      18.307      20.381      21.785      22.304    
  21.219      19.529      17.299      14.806      12.300      9.9640      7.9114      6.1950      4.8209      3.7632    
  2.9781      2.4168      2.0344      1.7967      1.6816      1.6785      1.7871      2.0174      2.3910      2.9412    
  3.7119      4.7520      6.1054      7.7992      9.8300      12.149      14.647      17.146      19.401      21.133    
  22.091      22.121      20.395      18.483      16.182      13.749      11.386      9.2329      7.3684      5.8243    
  4.5970      3.6580      2.9663      2.4782      2.1560      1.9723      1.9110      1.9669      2.1451      2.4609    
  2.9412      3.6230      4.5492      5.7610      7.2868      9.1320      11.267      13.618      16.048      18.361    
  20.300      21.603      22.078      21.655      19.309      17.391      15.175      12.901      10.733      8.7746    
  7.0847      5.6878      4.5794      3.7340      3.1156      2.6872      2.4181      2.2876      2.2855      2.4118    
  2.6764      3.0998      3.7119      4.5492      5.6471      7.0305      8.7049      10.647      12.801      15.066    
  17.283      19.216      20.646      21.414      21.437      20.709      18.029      16.354      14.382      12.335    
  10.378      8.6008      7.0596      5.7819      4.7672      3.9953      3.4363      3.0604      2.8438      2.7723    
  2.8411      3.0550      3.4282      3.9841      4.7520      5.7610      7.0305      8.5608      10.325      12.268    
  14.303      16.269      17.947      19.198      19.964      20.232      20.001      19.263      16.832      15.574    
  13.923      12.113      10.345      8.7157      7.2923      6.1082      5.1679      4.4565      3.9503      3.6265    
  3.4687      3.4683      3.6255      3.9489      4.4549      5.1662      6.1054      7.2868      8.7049      10.325    
  12.082      13.879      15.520      16.772      17.558      17.954      18.106      18.121      17.994      17.614    
  16.084      15.256      13.881      12.259      10.632      9.1139      7.7820      6.6741      5.7974      5.1411    
  4.6881      4.4231      4.3363      4.4248      4.6920      5.1481      5.8081      6.6885      7.7992      9.1320    
  10.647      12.268      13.879      15.241      16.056      16.242      15.977      15.603      15.442      15.623    
  16.009      16.277      16.039      15.486      14.258      12.750      11.216      9.7831      8.5297      7.4917    
  6.6760      6.0760      5.6823      5.4882      5.4904      5.6897      6.0899      6.6979      7.5224      8.5692    
  9.8300      11.267      12.801      14.303      15.520      16.056      15.737      14.745      13.573      12.798    
  12.804      13.586      14.757      15.737      16.698      16.179      14.970      13.523      12.061      10.710    
  9.5385      8.5728      7.8198      7.2800      6.9556      6.8495      6.9638      7.2982      7.8505      8.6183    
  9.5995      10.786      12.149      13.618      15.066      16.269      16.772      16.242      14.745      12.792    
  11.153      10.516      11.152      12.783      14.718      16.191      17.809      17.134      15.899      14.507    
  13.135      11.886      10.808      9.9165      9.2250      8.7491      8.5075      8.5133      8.7680      9.2607    
  9.9733      10.888      11.990      13.260      14.647      16.048      17.283      17.947      17.558      15.977    
  13.573      11.153      9.6363      9.6293      11.129      13.522      15.893      17.443      19.010      18.151    
  16.944      15.656      14.419      13.298      12.316      11.490      10.851      10.443      10.306      10.457    
  10.885      11.551      12.410      13.427      14.579      15.841      17.146      18.361      19.216      19.198    
  17.954      15.603      12.798      10.516      9.6293      10.485      12.730      15.492      17.801      19.011    
  20.028      19.131      18.051      16.946      15.891      14.905      13.997      13.206      12.604      12.278    
  12.285      12.630      13.261      14.094      15.050      16.082      17.175      18.307      19.401      20.300    
  20.646      19.964      18.106      15.442      12.804      11.152      11.129      12.730      15.314      17.923    
  19.735      20.386      20.798      20.053      19.215      18.361      17.495      16.604      15.713      14.905    
  14.319      14.104      14.328      14.940      15.797      16.751      17.706      18.627      19.521      20.381    
  21.133      21.603      21.414      20.232      18.121      15.623      13.586      12.783      13.522      15.492    
  17.923      19.976      21.113      21.276      21.392      20.943      20.428      19.830      19.096      18.186    
  17.136      16.160      15.554      15.545      16.149      17.168      18.299      19.304      20.118      20.774    
  21.324      21.785      22.091      22.078      21.437      20.001      17.994      16.009      14.757      14.718    
  15.893      17.801      19.735      21.113      21.714      21.704      21.880      21.811      21.616      21.187    
  20.351      19.059      17.561      16.326      15.824      16.267      17.497      19.070      20.491      21.461    
  21.984      22.234      22.325      22.304      22.121      21.655      20.709      19.263      17.614      16.277    
  15.737      16.191      17.443      19.011      20.386      21.276      21.704      21.863      22.146      22.634    
  22.415      21.109      18.762      15.948      13.605      12.622      13.404      15.657      18.538      21.079    
  22.618      23.023      22.624      21.880      21.009      20.094      19.134      18.111      17.053      16.055    
  15.308      15.003      15.222      15.885      16.803      17.788      18.746      19.651      20.526      21.380    
  22.634      22.858      21.745      19.115      15.439      11.787      9.4311      9.2700      11.380      14.976    
  18.800      21.706      23.104      23.077      22.176      20.979      19.724      18.498      17.319      16.198    
  15.187      14.392      13.931      13.890      14.267      14.982      15.915      16.963      18.076      19.246    
  20.465      21.661      22.415      21.745      19.216      15.055      10.269      6.3595      4.7150      5.9577    
  9.6371      14.451      18.859      21.733      22.710      22.151      20.807      19.277      17.773      16.382    
  15.130      14.041      13.167      12.582      12.352      12.504      13.011      13.808      14.822      16.002    
  17.328      18.780      20.288      21.674      21.109      19.115      15.055      9.6806      4.4811      1.1628    
 0.91039      3.8261      8.8786      14.392      18.786      21.161      21.485      20.389      18.734      17.021    
  15.422      14.008      12.809      11.846      11.158      10.782      10.747      11.050      11.667      12.556    
  13.684      15.027      16.567      18.242      19.906      21.140      18.762      15.439      10.269      4.4811    
 -.17882     -2.1373     -.69383      3.6472      9.4137      14.830      18.537      20.013      19.576      18.049    
  16.246      14.498      12.935      11.614      10.556      9.7721      9.2795      9.0922      9.2157      9.6435    
  10.360      11.351      12.603      14.102      15.802      17.590      19.194      19.871      15.948      11.787    
  6.3595      1.1628     -2.1373     -2.4009     0.47077      5.4882      11.023      15.498      17.969      18.340    
  17.203      15.441      13.629      11.962      10.534      9.3817      8.5104      7.9200      7.6107      7.5830    
  7.8361      8.3678      9.1775      10.266      11.631      13.245      15.028      16.810      18.105      18.040    
  13.605      9.4311      4.7150     0.91039     -.69383     0.47077      3.9963      8.6812      13.053      15.956    
  16.930      16.245      14.635      12.828      11.109      9.6047      8.3721      7.4236      6.7514      6.3440    
  6.1935      6.2963      6.6540      7.2731      8.1648      9.3389      10.789      12.468      14.265      15.942    
  16.839      16.183      12.622      9.2700      5.9577      3.8261      3.6472      5.4882      8.6812      12.115    
  14.702      15.795      15.367      13.915      12.133      10.394      8.8396      7.5448      6.5318      5.7921    
  5.3068      5.0589      5.0389      5.2456      5.6868      6.3782      7.3391      8.5814      10.090      11.803    
  13.591      15.146      15.795      14.979      13.404      11.380      9.6371      8.8786      9.4137      11.023    
  13.053      14.702      15.358      14.834      13.400      11.607      9.8429      8.2483      6.9028      5.8354    
  5.0395      4.4919      4.1680      4.0509      4.1343      4.4225      4.9304      5.6818      6.7015      8.0006    
  9.5582      11.305      13.115      14.657      15.370      14.918      15.657      14.976      14.451      14.392    
  14.830      15.498      15.956      15.795      14.834      13.212      11.321      9.4916      7.8426      6.4444    
  5.3255      4.4793      3.8795      3.4954      3.3029      3.2891      3.4530      3.8055      4.3689      5.1738    
  6.2488      7.6054      9.2226      11.037      12.943      14.652      15.749      16.042      18.538      18.800    
  18.859      18.786      18.537      17.969      16.930      15.367      13.400      11.321      9.3705      7.6355    
  6.1691      4.9919      4.0941      3.4457      3.0106      2.7581      2.6687      2.7352      2.9629      3.3692    
  3.9836      4.8426      5.9786      7.4063      9.1108      11.044      13.126      15.146      16.796      17.917    
  21.079      21.706      21.733      21.161      20.013      18.340      16.245      13.915      11.607      9.4916    
  7.6355      6.0772      4.8271      3.8693      3.1691      2.6857      2.3819      2.2319      2.2225      2.3529    
  2.6344      3.0912      3.7590      4.6798      5.8903      7.4108      9.2351      11.328      13.626      15.981    
  18.130      19.868      22.618      23.104      22.710      21.485      19.576      17.203      14.635      12.133    
  9.8429      7.8426      6.1691      4.8271      3.7954      3.0348      2.4992      2.1462      1.9440      1.8735    