diamond Si                              
   5.50000000000000     
     0.000000    0.500000    0.500000
     0.500000    0.000000    0.500000
     0.500000    0.500000    0.000000
   Si
     2
Direct
  0.875008  0.875008  0.877494
  0.124992  0.124992  0.127506
 
   32   32   32
 0.22792372678E+02 0.22708472131E+02 0.22478297654E+02 0.21977654349E+02 0.21005112823E+02
 0.19528107191E+02 0.17839927546E+02 0.16464705658E+02 0.15906869717E+02 0.16384763899E+02
 0.17710949733E+02 0.19394980993E+02 0.20903610173E+02 0.21918935000E+02 0.22449137116E+02
 0.22694877075E+02 0.22787474705E+02 0.22775906704E+02 0.22607639783E+02 0.22140330258E+02
 0.21149178035E+02 0.19607141228E+02 0.17831647106E+02 0.16381713532E+02 0.15793061046E+02
 0.16297199327E+02 0.17695378563E+02 0.19467050690E+02 0.21044107990E+02 0.22083305429E+02
 0.22585135727E+02 0.22771272443E+02 0.22708472131E+02 0.22979616297E+02 0.22926605705E+02
 0.22205629780E+02 0.20634928038E+02 0.18448433432E+02 0.16277280092E+02 0.14893999840E+02
 0.14836779825E+02 0.16128481768E+02 0.18264438966E+02 0.20476780655E+02 0.22110980352E+02
 0.22897432918E+02 0.22989739239E+02 0.22735477795E+02 0.22325326514E+02 0.21827399618E+02
 0.21213320095E+02 0.20409153543E+02 0.19334778587E+02 0.18051255105E+02 0.16841944196E+02
 0.16085825811E+02 0.16054678877E+02 0.16760120023E+02 0.17947056200E+02 0.19237631754E+02
 0.20334594664E+02 0.21158313570E+02 0.21785210327E+02 0.22290459565E+02 0.22478297654E+02
 0.22926605705E+02 0.22622032905E+02 0.21194259102E+02 0.18716460488E+02 0.15801521399E+02
 0.13413245725E+02 0.12444033015E+02 0.13274877670E+02 0.15578438787E+02 0.18488632529E+02
 0.21030098834E+02 0.22551293805E+02 0.22936054127E+02 0.22528343591E+02 0.21789918540E+02
 0.20935160533E+02 0.20042916001E+02 0.19109457339E+02 0.18111689718E+02 0.17071181746E+02
 0.16082693823E+02 0.15341443227E+02 0.15050396817E+02 0.15299593188E+02 0.16011661505E+02
 0.16988718899E+02 0.18030303240E+02 0.19033476047E+02 0.19971853164E+02 0.20866573381E+02
 0.21725605475E+02 0.21977654349E+02 0.22205629780E+02 0.21194259102E+02 0.18785999455E+02
 0.15431892019E+02 0.12127383892E+02 0.10034433906E+02 0.99482917582E+01 0.11902367305E+02
 0.15151329190E+02 0.18542885222E+02 0.21051208944E+02 0.22175245740E+02 0.22028902698E+02
 0.21142274312E+02 0.20010398056E+02 0.18831413176E+02 0.17685599683E+02 0.16588346752E+02
 0.15548332645E+02 0.14614707132E+02 0.13885285403E+02 0.13472525572E+02 0.13456054273E+02
 0.13839420215E+02 0.14547814612E+02 0.15469603660E+02 0.16504012467E+02 0.17597572224E+02
 0.18739647024E+02 0.19917603362E+02 0.21058201956E+02 0.21005112823E+02 0.20634928038E+02
 0.18716460488E+02 0.15431892019E+02 0.11621406728E+02 0.85286183390E+01 0.72794621768E+01
 0.83504088977E+01 0.11332091887E+02 0.15132903822E+02 0.18497602461E+02 0.20540256242E+02
 0.21025109023E+02 0.20312340336E+02 0.19050089239E+02 0.17659147133E+02 0.16302686032E+02
 0.15053818631E+02 0.13937163829E+02 0.12974186345E+02 0.12209366134E+02 0.11706072892E+02
 0.11521299343E+02 0.11679074132E+02 0.12158939361E+02 0.12905659299E+02 0.13855136142E+02
 0.14960739494E+02 0.16199755092E+02 0.17549399438E+02 0.18942099843E+02 0.20224151721E+02
 0.19528107191E+02 0.18448433432E+02 0.15801521399E+02 0.12127383892E+02 0.85286183390E+01
 0.62588136666E+01 0.61655771596E+01 0.82844317921E+01 0.11821461898E+02 0.15535074444E+02
 0.18292222906E+02 0.19500110157E+02 0.19229183112E+02 0.18033943653E+02 0.16542073979E+02
 0.15033734909E+02 0.13638286696E+02 0.12414556471E+02 0.11385535693E+02 0.10569787837E+02
 0.99946459693E+01 0.96908134468E+01 0.96790390398E+01 0.99602596738E+01 0.10515093316E+02
 0.11313026774E+02 0.12325986370E+02 0.13534945779E+02 0.14918292560E+02 0.16421355839E+02
 0.17921239276E+02 0.19159332340E+02 0.17839927546E+02 0.16277280092E+02 0.13413245725E+02
 0.10034433906E+02 0.72794621768E+01 0.61655771596E+01 0.71204615550E+01 0.97768760621E+01
 0.13149343518E+02 0.16090008612E+02 0.17771222929E+02 0.17959169471E+02 0.16987925598E+02
 0.15490707118E+02 0.13903759809E+02 0.12400544852E+02 0.11074757565E+02 0.99658885002E+01
 0.90869567972E+01 0.84452972617E+01 0.80501200114E+01 0.79102983104E+01 0.80296885901E+01
 0.84049735303E+01 0.90275088788E+01 0.98879559976E+01 0.10978964390E+02 0.12288562295E+02
 0.13780296658E+02 0.15365637709E+02 0.16880023005E+02 0.17917398201E+02 0.16464705658E+02
 0.14893999840E+02 0.12444033015E+02 0.99482917582E+01 0.83504088977E+01 0.82844317921E+01
 0.97768760621E+01 0.12234092245E+02 0.14721991723E+02 0.16384072373E+02 0.16782107563E+02
 0.16008956067E+02 0.14555369978E+02 0.12934922073E+02 0.11363673824E+02 0.99572086147E+01
 0.87729492439E+01 0.78287997841E+01 0.71240978331E+01 0.66539506184E+01 0.64150197135E+01
 0.64059837443E+01 0.66267369049E+01 0.70784355794E+01 0.77643372657E+01 0.86894263613E+01
 0.98550548518E+01 0.11245365708E+02 0.12806818080E+02 0.14428971303E+02 0.15910650183E+02
 0.16759488340E+02 0.15906869717E+02 0.14836779825E+02 0.13274877670E+02 0.11902367305E+02
 0.11332091887E+02 0.11821461898E+02 0.13149343518E+02 0.14721991723E+02 0.15851896148E+02
 0.16065302293E+02 0.15288199084E+02 0.13833076135E+02 0.12171452145E+02 0.10546026370E+02
 0.90746856320E+01 0.78244179281E+01 0.68192782486E+01 0.60567283665E+01 0.55235237161E+01
 0.52062785478E+01 0.50961860796E+01 0.51901158658E+01 0.54906722127E+01 0.60062619708E+01
 0.67501109620E+01 0.77357847204E+01 0.89670921597E+01 0.10422653728E+02 0.12039433976E+02
 0.13703711648E+02 0.15191828369E+02 0.16038579630E+02 0.16384763899E+02 0.16128481768E+02
 0.15578438787E+02 0.15151329190E+02 0.15132903822E+02 0.15535074444E+02 0.16090008612E+02
 0.16384072373E+02 0.16065302293E+02 0.15020722501E+02 0.13434133978E+02 0.11675653063E+02
 0.99742300390E+01 0.84339210464E+01 0.71192346969E+01 0.60555267156E+01 0.52391833661E+01
 0.46516101202E+01 0.42714262768E+01 0.40820777122E+01 0.40748876196E+01 0.42495483063E+01
 0.46141009560E+01 0.51845242586E+01 0.59819949286E+01 0.70257051974E+01 0.83209786645E+01
 0.98452455480E+01 0.11537279452E+02 0.13296342718E+02 0.14910851609E+02 0.16008770036E+02
 0.17710949733E+02 0.18264438966E+02 0.18488632529E+02 0.18542885222E+02 0.18497602461E+02
 0.18292222906E+02 0.17771222929E+02 0.16782107563E+02 0.15288199084E+02 0.13434133978E+02
 0.11503024761E+02 0.96783487510E+01 0.80435891358E+01 0.66519929106E+01 0.55240036507E+01
 0.46526069540E+01 0.40143064380E+01 0.35809085788E+01 0.33284527452E+01 0.32417768022E+01
 0.33156148809E+01 0.35545051201E+01 0.39728291540E+01 0.45939071776E+01 0.54458410439E+01
 0.65529482302E+01 0.79240435685E+01 0.95411382314E+01 0.11353466996E+02 0.13280051990E+02
 0.15151050642E+02 0.16681043657E+02 0.19394980993E+02 0.20476780655E+02 0.21030098834E+02
 0.21051208944E+02 0.20540256242E+02 0.19500110157E+02 0.17959169471E+02 0.16008956067E+02
 0.13833076135E+02 0.11675653063E+02 0.96783487510E+01 0.79122964399E+01 0.64190843338E+01
 0.52110817865E+01 0.42755417847E+01 0.35833670120E+01 0.30998326847E+01 0.27938584214E+01
 0.26435578487E+01 0.26379144889E+01 0.27765137296E+01 0.30695043611E+01 0.35379092188E+01
 0.42122193181E+01 0.51272095415E+01 0.63128804041E+01 0.77836438506E+01 0.95292208268E+01
 0.11510224252E+02 0.13657929202E+02 0.15840806469E+02 0.17816873896E+02 0.20903610173E+02
 0.22110980352E+02 0.22551293805E+02 0.22175245740E+02 0.21025109023E+02 0.19229183112E+02
 0.16987925598E+02 0.14555369978E+02 0.12171452145E+02 0.99742300390E+01 0.80435891358E+01
 0.64190843338E+01 0.51078026515E+01 0.40913808412E+01 0.33349087349E+01 0.27972452040E+01
 0.24403759220E+01 0.22356065314E+01 0.21658577602E+01 0.22253349559E+01 0.24189540830E+01
 0.27628368835E+01 0.32847764599E+01 0.40222615696E+01 0.50165715040E+01 0.63035156314E+01
 0.79030418084E+01 0.98102311743E+01 0.11988338625E+02 0.14361207757E+02 0.16797346513E+02
 0.19063835810E+02 0.21918935000E+02 0.22897432918E+02 0.22936054127E+02 0.22028902698E+02
 0.20312340336E+02 0.18033943653E+02 0.15490707118E+02 0.12934922073E+02 0.10546026370E+02
 0.84339210464E+01 0.66519929106E+01 0.52110817865E+01 0.40913808412E+01 0.32537975560E+01
 0.26513952103E+01 0.22395124452E+01 0.19826916711E+01 0.18576116700E+01 0.18529263264E+01
 0.19681958629E+01 0.22138437383E+01 0.26122137078E+01 0.31978798356E+01 0.40149858221E+01
 0.51106090287E+01 0.65248486376E+01 0.82794524174E+01 0.10366459115E+02 0.12736391869E+02
 0.15284422527E+02 0.17836938270E+02 0.20147308351E+02 0.22449137116E+02 0.22989739239E+02
 0.22528343591E+02 0.21142274312E+02 0.19050089239E+02 0.16542073979E+02 0.13903759809E+02
 0.11363673824E+02 0.90746856320E+01 0.71192346969E+01 0.55240036507E+01 0.42755417847E+01
 0.33349087349E+01 0.26513952103E+01 0.21743900351E+01 0.18617433195E+01 0.16837301980E+01
 0.16233168918E+01 0.16747845164E+01 0.18429455695E+01 0.21439071132E+01 0.26064319167E+01
 0.32717703777E+01 0.41900160325E+01 0.54121952597E+01 0.69787199724E+01 0.89057066776E+01
 0.11170261622E+02 0.13694880738E+02 0.16332621857E+02 0.18860774937E+02 0.20997077399E+02
 0.22694877075E+02 0.22735477795E+02 0.21789918540E+02 0.20010398056E+02 0.17659147133E+02
 0.15033734909E+02 0.12400544852E+02 0.99572086147E+01 0.78244179281E+01 0.60555267156E+01
 0.46526069540E+01 0.35833670120E+01 0.27972452040E+01 0.22395124452E+01 0.18617433195E+01
 0.16275307847E+01 0.15137979254E+01 0.15095239967E+01 0.16142696333E+01 0.18381557871E+01
 0.22032929605E+01 0.27450671890E+01 0.35110400646E+01 0.45556754507E+01 0.59303388768E+01
 0.76694378568E+01 0.97743204513E+01 0.12196295545E+02 0.14820439276E+02 0.17455275646E+02
 0.19839112877E+02 0.21674925266E+02 0.22787474705E+02 0.22325326514E+02 0.20935160533E+02
 0.18831413176E+02 0.16302686032E+02 0.13638286696E+02 0.11074757565E+02 0.87729492439E+01
 0.68192782486E+01 0.52391833661E+01 0.40143064380E+01 0.30998326847E+01 0.24403759220E+01
 0.19826916711E+01 0.16837301980E+01 0.15137979254E+01 0.14561382979E+01 0.15051948541E+01
 0.16656871231E+01 0.19534136177E+01 0.23969880674E+01 0.30384457655E+01 0.39304373433E+01
 0.51285900018E+01 0.66791265460E+01 0.86031571674E+01 0.10879391222E+02 0.13426864031E+02
 0.16090957948E+02 0.18640739589E+02 0.20789555053E+02 0.22246164940E+02 0.22775906704E+02
 0.21827399618E+02 0.20042916001E+02 0.17685599683E+02 0.15053818631E+02 0.12414556471E+02
 0.99658885002E+01 0.78287997841E+01 0.60567283665E+01 0.46516101202E+01 0.35809085788E+01
 0.27938584214E+01 0.22356065314E+01 0.18576116700E+01 0.16233168918E+01 0.15095239967E+01
 0.15051948541E+01 0.16099450389E+01 0.18339269132E+01 0.21992446926E+01 0.27413447681E+01
 0.35079970899E+01 0.45539551617E+01 0.59308067904E+01 0.76730553585E+01 0.97820953046E+01
 0.12209288521E+02 0.14839658495E+02 0.17481338222E+02 0.19871778255E+02 0.21712793174E+02
 0.22735501747E+02 0.22607639783E+02 0.21213320095E+02 0.19109457339E+02 0.16588346752E+02
 0.13937163829E+02 0.11385535693E+02 0.90869567972E+01 0.71240978331E+01 0.55235237161E+01
 0.42714262768E+01 0.33284527452E+01 0.26435578487E+01 0.21658577602E+01 0.18529263264E+01
 0.16747845164E+01 0.16142696333E+01 0.16656871231E+01 0.18339269132E+01 0.21351416986E+01
 0.25981779325E+01 0.32645529450E+01 0.41848221509E+01 0.54104926502E+01 0.69822975222E+01
 0.89165164162E+01 0.11190370358E+02 0.13726384552E+02 0.16377247995E+02 0.18919105656E+02
 0.21067719266E+02 0.22528376517E+02 0.23072051447E+02 0.22140330258E+02 0.20409153543E+02
 0.18111689718E+02 0.15548332645E+02 0.12974186345E+02 0.10569787837E+02 0.84452972617E+01
 0.66539506184E+01 0.52062785478E+01 0.40820777122E+01 0.32417768022E+01 0.26379144889E+01
 0.22253349559E+01 0.19681958629E+01 0.18429455695E+01 0.18381557871E+01 0.19534136177E+01
 0.21992446926E+01 0.25981779325E+01 0.31850986425E+01 0.40046141515E+01 0.51043695188E+01
 0.65250186528E+01 0.82887480884E+01 0.10387891735E+02 0.12773108366E+02 0.15339357625E+02
 0.17912044861E+02 0.20241938015E+02 0.22028928181E+02 0.23016149787E+02 0.23055270461E+02
 0.21149178035E+02 0.19334778587E+02 0.17071181746E+02 0.14614707132E+02 0.12209366134E+02
 0.99946459693E+01 0.80501200114E+01 0.64150197135E+01 0.50961860796E+01 0.40748876196E+01
 0.33156148809E+01 0.27765137296E+01 0.24189540830E+01 0.22138437383E+01 0.21439071132E+01
 0.22032929605E+01 0.23969880674E+01 0.27413447681E+01 0.32645529450E+01 0.40046141515E+01
 0.50033730564E+01 0.62972221106E+01 0.79066874961E+01 0.98273775510E+01 0.12022937858E+02
 0.14417286822E+02 0.16877483887E+02 0.19166464974E+02 0.21025117728E+02 0.22245595701E+02
 0.22691161204E+02 0.22311409495E+02 0.19607141228E+02 0.18051255105E+02 0.16082693823E+02
 0.13885285403E+02 0.11706072892E+02 0.96908134468E+01 0.79102983104E+01 0.64059837443E+01
 0.51901158658E+01 0.42495483063E+01 0.35545051201E+01 0.30695043611E+01 0.27628368835E+01
 0.26122137078E+01 0.26064319167E+01 0.27450671890E+01 0.30384457655E+01 0.35079970899E+01
 0.41848221509E+01 0.51043695188E+01 0.62972221106E+01 0.77782479065E+01 0.95375863419E+01
 0.11536315181E+02 0.13706118107E+02 0.15911529654E+02 0.17906688000E+02 0.19500102003E+02
 0.20593167961E+02 0.21152904832E+02 0.21174597410E+02 0.20658121245E+02 0.17831647106E+02
 0.16841944196E+02 0.15341443227E+02 0.13472525572E+02 0.11521299343E+02 0.96790390398E+01
 0.80296885901E+01 0.66267369049E+01 0.54906722127E+01 0.46141009560E+01 0.39728291540E+01
 0.35379092188E+01 0.32847764599E+01 0.31978798356E+01 0.32717703777E+01 0.35110400646E+01
 0.39304373433E+01 0.45539551617E+01 0.54104926502E+01 0.65250186528E+01 0.79066874961E+01
 0.95375863419E+01 0.11366986267E+02 0.13313882536E+02 0.15201236511E+02 0.16739516932E+02
 0.17771207674E+02 0.18323146604E+02 0.18545308986E+02 0.18598635985E+02 0.18554020070E+02
 0.18350624740E+02 0.16381713532E+02 0.16085825811E+02 0.15050396817E+02 0.13456054273E+02
 0.11679074132E+02 0.99602596738E+01 0.84049735303E+01 0.70784355794E+01 0.60062619708E+01
 0.51845242586E+01 0.45939071776E+01 0.42122193181E+01 0.40222615696E+01 0.40149858221E+01
 0.41900160325E+01 0.45556754507E+01 0.51285900018E+01 0.59308067904E+01 0.69822975222E+01
 0.82887480884E+01 0.98273775510E+01 0.11536315181E+02 0.13313882536E+02 0.14937778034E+02
 0.16028816329E+02 0.16384055072E+02 0.16100360669E+02 0.15525176940E+02 0.15082775122E+02
 0.15063319639E+02 0.15479240788E+02 0.16059061384E+02 0.15793061046E+02 0.16054678877E+02
 0.15299593188E+02 0.13839420215E+02 0.12158939361E+02 0.10515093316E+02 0.90275088788E+01
 0.77643372657E+01 0.67501109620E+01 0.59819949286E+01 0.54458410439E+01 0.51272095415E+01
 0.50165715040E+01 0.51106090287E+01 0.54121952597E+01 0.59303388768E+01 0.66791265460E+01
 0.76730553585E+01 0.89165164162E+01 0.10387891735E+02 0.12022937858E+02 0.13706118107E+02
 0.15201236511E+02 0.16028816329E+02 0.15851877028E+02 0.14719847903E+02 0.13094933226E+02
 0.11675129690E+02 0.11086102603E+02 0.11590534086E+02 0.12963507060E+02 0.14599207319E+02
 0.16297199327E+02 0.16760120023E+02 0.16011661505E+02 0.14547814612E+02 0.12905659299E+02
 0.11313026774E+02 0.98879559976E+01 0.86894263613E+01 0.77357847204E+01 0.70257051974E+01
 0.65529482302E+01 0.63128804041E+01 0.63035156314E+01 0.65248486376E+01 0.69787199724E+01
 0.76694378568E+01 0.86031571674E+01 0.97820953046E+01 0.11190370358E+02 0.12773108366E+02
 0.14417286822E+02 0.15911529654E+02 0.16739516932E+02 0.16384055072E+02 0.14719847903E+02
 0.12162896913E+02 0.95729777786E+01 0.79187123259E+01 0.78497324684E+01 0.93935991403E+01
 0.11942693532E+02 0.14538403565E+02 0.17695378563E+02 0.17947056200E+02 0.16988718899E+02
 0.15469603660E+02 0.13855136142E+02 0.12325986370E+02 0.10978964390E+02 0.98550548518E+01
 0.89670921597E+01 0.83209786645E+01 0.79240435685E+01 0.77836438506E+01 0.79030418084E+01
 0.82794524174E+01 0.89057066776E+01 0.97743204513E+01 0.10879391222E+02 0.12209288521E+02
 0.13726384552E+02 0.15339357625E+02 0.16877483887E+02 0.17906688000E+02 0.17771207674E+02
 0.16100360669E+02 0.13094933226E+02 0.95729777786E+01 0.67099917326E+01 0.55532881101E+01
 0.65430212519E+01 0.93020917635E+01 0.12816372025E+02 0.15900946897E+02 0.19467050690E+02
 0.19237631754E+02 0.18030303240E+02 0.16504012467E+02 0.14960739494E+02 0.13534945779E+02
 0.12288562295E+02 0.11245365708E+02 0.10422653728E+02 0.98452455480E+01 0.95411382314E+01
 0.95292208268E+01 0.98102311743E+01 0.10366459115E+02 0.11170261622E+02 0.12196295545E+02
 0.13426864031E+02 0.14839658495E+02 0.16377247995E+02 0.17912044861E+02 0.19166464974E+02
 0.19500102003E+02 0.18323146604E+02 0.15525176940E+02 0.11675129690E+02 0.79187123259E+01
 0.55532881101E+01 0.54549190100E+01 0.76609130427E+01 0.11351555348E+02 0.15242095807E+02
 0.18155186565E+02 0.21044107990E+02 0.20334594664E+02 0.19033476047E+02 0.17597572224E+02
 0.16199755092E+02 0.14918292560E+02 0.13780296658E+02 0.12806818080E+02 0.12039433976E+02
 0.11537279452E+02 0.11353466996E+02 0.11510224252E+02 0.11988338625E+02 0.12736391869E+02
 0.13694880738E+02 0.14820439276E+02 0.16090957948E+02 0.17481338222E+02 0.18919105656E+02
 0.20241938015E+02 0.21025117728E+02 0.20593167961E+02 0.18545308986E+02 0.15082775122E+02
 0.11086102603E+02 0.78497324684E+01 0.65430212519E+01 0.76609130427E+01 0.10779431422E+02
 0.14765352490E+02 0.18311878894E+02 0.20490523125E+02 0.22083305429E+02 0.21158313570E+02
 0.19971853164E+02 0.18739647024E+02 0.17549399438E+02 0.16421355839E+02 0.15365637709E+02
 0.14428971303E+02 0.13703711648E+02 0.13296342718E+02 0.13280051990E+02 0.13657929202E+02
 0.14361207757E+02 0.15284422527E+02 0.16332621857E+02 0.17455275646E+02 0.18640739589E+02
 0.19871778255E+02 0.21067719266E+02 0.22028928181E+02 0.22245595701E+02 0.21152904832E+02
 0.18598635985E+02 0.15063319639E+02 0.11590534086E+02 0.93935991403E+01 0.93020917635E+01
 0.11351555348E+02 0.14765352490E+02 0.18340152390E+02 0.21000140969E+02 0.22212316239E+02
 0.22585135727E+02 0.21785210327E+02 0.20866573381E+02 0.19917603362E+02 0.18942099843E+02
 0.17921239276E+02 0.16880023005E+02 0.15910650183E+02 0.15191828369E+02 0.14910851609E+02
 0.15151050642E+02 0.15840806469E+02 0.16797346513E+02 0.17836938270E+02 0.18860774937E+02
 0.19839112877E+02 0.20789555053E+02 0.21712793174E+02 0.22528376517E+02 0.23016149787E+02
 0.22691161204E+02 0.21174597410E+02 0.18554020070E+02 0.15479240788E+02 0.12963507060E+02
 0.11942693532E+02 0.12816372025E+02 0.15242095807E+02 0.18311878894E+02 0.21000140969E+02
 0.22616313085E+02 0.23027743748E+02 0.22771272443E+02 0.22290459565E+02 0.21725605475E+02
 0.21058201956E+02 0.20224151721E+02 0.19159332340E+02 0.17917398201E+02 0.16759488340E+02
 0.16038579630E+02 0.16008770036E+02 0.16681043657E+02 0.17816873896E+02 0.19063835810E+02
 0.20147308351E+02 0.20997077399E+02 0.21674925266E+02 0.22246164940E+02 0.22735501747E+02
 0.23072051447E+02 0.23055270461E+02 0.22311409495E+02 0.20658121245E+02 0.18350624740E+02
 0.16059061384E+02 0.14599207319E+02 0.14538403565E+02 0.15900946897E+02 0.18155186565E+02
 0.20490523125E+02 0.22212316239E+02 0.23027743748E+02 0.23089006458E+02 0.22748971244E+02
 0.23020709849E+02 0.22966767452E+02 0.22241230331E+02 0.20662165379E+02 0.18464970722E+02
 0.16283668537E+02 0.14894076280E+02 0.14836610089E+02 0.16134220238E+02 0.18280147140E+02
 0.20503267106E+02 0.22146091136E+02 0.22937417109E+02 0.23030884030E+02 0.22776051872E+02
 0.22365036494E+02 0.21866160195E+02 0.21250857753E+02 0.20444631727E+02 0.19366346561E+02
 0.18077559787E+02 0.16863107544E+02 0.16103739874E+02 0.16072458582E+02 0.16780933400E+02
 0.17972926332E+02 0.19268823211E+02 0.20369844298E+02 0.21195746698E+02 0.21823902237E+02
 0.22330102139E+02 0.23020709849E+02 0.23468635688E+02 0.23106408611E+02 0.21552759366E+02
 0.18894408105E+02 0.15784486788E+02 0.13243114062E+02 0.12212944188E+02 0.13096132978E+02
 0.15547093950E+02 0.18651052883E+02 0.21375986328E+02 0.23028292281E+02 0.23476036539E+02
 0.23072211818E+02 0.22313760264E+02 0.21436139031E+02 0.20520713368E+02 0.19561798753E+02
 0.18533276053E+02 0.17452128586E+02 0.16416875574E+02 0.15637459110E+02 0.15330929756E+02
 0.15593386550E+02 0.16342243188E+02 0.17365947945E+02 0.18449102104E+02 0.19483626797E+02
 0.20447842029E+02 0.21365800707E+02 0.22247645632E+02 0.22966767452E+02 0.23106408611E+02
 0.21852625450E+02 0.19054909569E+02 0.15231310805E+02 0.11494953404E+02 0.91372773471E+01
 0.90403750655E+01 0.11241253269E+02 0.14913237413E+02 0.18776019356E+02 0.21683491612E+02
 0.23062806861E+02 0.23016239143E+02 0.22110589014E+02 0.20923551880E+02 0.19686534918E+02
 0.18484104155E+02 0.17329595409E+02 0.16229520519E+02 0.15235895004E+02 0.14454265954E+02
 0.14008729603E+02 0.13990929266E+02 0.14404918790E+02 0.15164512332E+02 0.16145983856E+02
 0.17240687378E+02 0.18391726969E+02 0.19590297212E+02 0.20826042753E+02 0.22022243405E+02
 0.22241230331E+02 0.21552759366E+02 0.19054909569E+02 0.14997710332E+02 0.10383824760E+02
 0.66728466118E+01 0.51796021575E+01 0.64595770271E+01 0.10035519961E+02 0.14633008176E+02
 0.18779824129E+02 0.21421220332E+02 0.22245615483E+02 0.21628851312E+02 0.20305033024E+02
 0.18821542202E+02 0.17371740300E+02 0.16034552927E+02 0.14834132192E+02 0.13792397639E+02
 0.12959346102E+02 0.12408116430E+02 0.12205127113E+02 0.12378482533E+02 0.12904242344E+02
 0.13718016721E+02 0.14745746937E+02 0.15934795022E+02 0.17261622105E+02 0.18704090049E+02
 0.20189696575E+02 0.21539457622E+02 0.20662165379E+02 0.18894408105E+02 0.15231310805E+02
 0.10383824760E+02 0.57318849924E+01 0.28247810587E+01 0.27056560916E+01 0.54181984249E+01
 0.99855297053E+01 0.14873995147E+02 0.18667860210E+02 0.20593132635E+02 0.20672120432E+02
 0.19521082313E+02 0.17926981316E+02 0.16297504201E+02 0.14783381027E+02 0.13450758920E+02
 0.12324467620E+02 0.11425811170E+02 0.10788158883E+02 0.10449735419E+02 0.10436567507E+02
 0.10749844890E+02 0.11365267695E+02 0.12244812264E+02 0.13354065944E+02 0.14670967494E+02
 0.16172208564E+02 0.17796616698E+02 0.19402007649E+02 0.20615425124E+02 0.18464970722E+02
 0.15784486788E+02 0.11494953404E+02 0.66728466118E+01 0.28247810587E+01 0.12825340824E+01
 0.26041278947E+01 0.63106208814E+01 0.11112376992E+02 0.15492361469E+02 0.18323071748E+02
 0.19219913042E+02 0.18522130410E+02 0.16988984834E+02 0.15279769937E+02 0.13640290123E+02
 0.12184593277E+02 0.10960632659E+02 0.99849787396E+01 0.92684430910E+01 0.88248741069E+01
 0.86674342466E+01 0.88018262403E+01 0.92231815306E+01 0.99186943287E+01 0.10874297498E+02
 0.12079022619E+02 0.13517495725E+02 0.15145502063E+02 0.16855398891E+02 0.18420215688E+02
 0.19214787112E+02 0.16283668537E+02 0.13243114062E+02 0.91372773471E+01 0.51796021575E+01
 0.27056560916E+01 0.26041278947E+01 0.49122576298E+01 0.87984667877E+01 0.12942081297E+02
 0.16100272311E+02 0.17572336076E+02 0.17364731678E+02 0.16038306898E+02 0.14331372314E+02
 0.12629660578E+02 0.11084542013E+02 0.97723500572E+01 0.87195366276E+01 0.79292861366E+01
 0.73994286471E+01 0.71291734082E+01 0.71189156698E+01 0.73686378652E+01 0.78779037547E+01
 0.86474358312E+01 0.96794774131E+01 0.10971711708E+02 0.12500337584E+02 0.14193974871E+02
 0.15908480080E+02 0.17290802242E+02 0.17613006363E+02 0.14894076280E+02 0.12212944188E+02
 0.90403750655E+01 0.64595770271E+01 0.54181984249E+01 0.63106208814E+01 0.87984667877E+01
 0.11964761257E+02 0.14719705862E+02 0.16249508011E+02 0.16296652423E+02 0.15167200701E+02
 0.13496993772E+02 0.11771813072E+02 0.10170304927E+02 0.87889527373E+01 0.76678577889E+01
 0.68116605081E+01 0.62099171672E+01 0.58505427215E+01 0.57255685242E+01 0.58322114727E+01
 0.61727805686E+01 0.67548786796E+01 0.75904790006E+01 0.86905289217E+01 0.10052147756E+02
 0.11638801904E+02 0.13359154304E+02 0.15045480328E+02 0.16243246200E+02 0.16307265709E+02
 0.14836610089E+02 0.13096132978E+02 0.11241253269E+02 0.10035519961E+02 0.99855297053E+01
 0.11112376992E+02 0.12942081297E+02 0.14719705862E+02 0.15741803859E+02 0.15647131163E+02
 0.14533304319E+02 0.12858743046E+02 0.11102882216E+02 0.94560537613E+01 0.80185529651E+01
 0.68386880946E+01 0.59247758923E+01 0.52629127018E+01 0.48328742158E+01 0.46181596354E+01
 0.46100271828E+01 0.48081470835E+01 0.52206063409E+01 0.58633801768E+01 0.67566709147E+01
 0.79153772959E+01 0.93335915483E+01 0.10966765477E+02 0.12718901850E+02 0.14413688932E+02
 0.15592210582E+02 0.15777370386E+02 0.16134220238E+02 0.15547093950E+02 0.14913237413E+02
 0.14633008176E+02 0.14873995147E+02 0.15492361469E+02 0.16100272311E+02 0.16249508011E+02
 0.15647131163E+02 0.14299187782E+02 0.12509081464E+02 0.10672106804E+02 0.89609527442E+01
 0.74636101308E+01 0.62267477556E+01 0.52592107771E+01 0.45447830396E+01 0.40572463704E+01
 0.37723857551E+01 0.36744460870E+01 0.37579069770E+01 0.40275006772E+01 0.44981932346E+01
 0.51936658799E+01 0.61403388030E+01 0.73557811763E+01 0.88337037868E+01 0.10530709038E+02
 0.12361794726E+02 0.14168086097E+02 0.15565256981E+02 0.16231222201E+02 0.18280147140E+02
 0.18651052883E+02 0.18776019356E+02 0.18779824129E+02 0.18667860210E+02 0.18323071748E+02
 0.17572336076E+02 0.16296652423E+02 0.14533304319E+02 0.12509081464E+02 0.10522800397E+02
 0.87063618825E+01 0.71277798070E+01 0.58237830473E+01 0.47988303103E+01 0.40330489499E+01
 0.34948560958E+01 0.31530781218E+01 0.29848579497E+01 0.29785250439E+01 0.31336382235E+01
 0.34609648642E+01 0.39825246532E+01 0.47290491849E+01 0.57325082542E+01 0.70142254566E+01
 0.85720593766E+01 0.10371825783E+02 0.12347564432E+02 0.14377999614E+02 0.16172239247E+02
 0.17490396154E+02 0.20503267106E+02 0.21375986328E+02 0.21683491612E+02 0.21421220332E+02
 0.20593132635E+02 0.19219913042E+02 0.17364731678E+02 0.15167200701E+02 0.12858743046E+02
 0.10672106804E+02 0.87063618825E+01 0.70152507781E+01 0.56237970760E+01 0.45289864360E+01
 0.37055760376E+01 0.31164657276E+01 0.27239713824E+01 0.24982938914E+01 0.24213413761E+01
 0.24869461124E+01 0.27003557184E+01 0.30786739185E+01 0.36508305463E+01 0.44541626196E+01
 0.55262835616E+01 0.68938319453E+01 0.85617886133E+01 0.10507253660E+02 0.12678651438E+02
 0.14983793949E+02 0.17199512283E+02 0.19088335652E+02 0.22146091136E+02 0.23028292281E+02
 0.23062806861E+02 0.22245615483E+02 0.20672120432E+02 0.18522130410E+02 0.16038306898E+02
 0.13496993772E+02 0.11102882216E+02 0.89609527442E+01 0.71277798070E+01 0.56237970760E+01
 0.44401514829E+01 0.35460931659E+01 0.28989448705E+01 0.24548771930E+01 0.21774938212E+01
 0.20422826052E+01 0.20372213442E+01 0.21618566533E+01 0.24272386693E+01 0.28568463556E+01
 0.34862399230E+01 0.43589728470E+01 0.55182435117E+01 0.69961205977E+01 0.88034129747E+01
 0.10922176542E+02 0.13299082840E+02 0.15834139852E+02 0.18332748947E+02 0.20519004267E+02
 0.22937417109E+02 0.23476036539E+02 0.23016239143E+02 0.21628851312E+02 0.19521082313E+02
 0.16988984834E+02 0.14331372314E+02 0.11771813072E+02 0.94560537613E+01 0.74636101308E+01
 0.58237830473E+01 0.45289864360E+01 0.35460931659E+01 0.28280461667E+01 0.23253822684E+01
 0.19954460148E+01 0.18074880024E+01 0.17436938482E+01 0.17980668975E+01 0.19756604883E+01
 0.22933156926E+01 0.27808030842E+01 0.34799602085E+01 0.44399325004E+01 0.57083306967E+01
 0.73198672084E+01 0.92846483900E+01 0.11576766741E+02 0.14121214903E+02 0.16778037182E+02
 0.19330166905E+02 0.21483337034E+02 0.23030884030E+02 0.23072211818E+02 0.22110589014E+02
 0.20305033024E+02 0.17926981316E+02 0.15279769937E+02 0.12629660578E+02 0.10170304927E+02
 0.80185529651E+01 0.62267477556E+01 0.47988303103E+01 0.37055760376E+01 0.28989448705E+01
 0.23253822684E+01 0.19364654272E+01 0.16952454021E+01 0.15781030841E+01 0.15737152042E+01
 0.16816212154E+01 0.19122198401E+01 0.22881716465E+01 0.28454335847E+01 0.36316095190E+01
 0.47000649358E+01 0.60997392266E+01 0.78620005515E+01 0.99861897358E+01 0.12424344266E+02
 0.15065170455E+02 0.17721286158E+02 0.20131581411E+02 0.21993759093E+02 0.22776051872E+02
 0.22313760264E+02 0.20923551880E+02 0.18821542202E+02 0.16297504201E+02 0.13640290123E+02
 0.11084542013E+02 0.87889527373E+01 0.68386880946E+01 0.52592107771E+01 0.40330489499E+01
 0.31164657276E+01 0.24548771930E+01 0.19954460148E+01 0.16952454021E+01 0.15245836903E+01
 0.14666845781E+01 0.15159758776E+01 0.16771736392E+01 0.19661024277E+01 0.24114090009E+01
 0.30550433245E+01 0.39492593822E+01 0.51488654318E+01 0.66989883034E+01 0.86198310580E+01
 0.10890012462E+02 0.13429694712E+02 0.16086330881E+02 0.18630976931E+02 0.20777700730E+02
 0.22234327285E+02 0.22365036494E+02 0.21436139031E+02 0.19686534918E+02 0.17371740300E+02
 0.14783381027E+02 0.12184593277E+02 0.97723500572E+01 0.76678577889E+01 0.59247758923E+01
 0.45447830396E+01 0.34948560958E+01 0.27239713824E+01 0.21774938212E+01 0.18074880024E+01
 0.15781030841E+01 0.14666845781E+01 0.14624645992E+01 0.15650569366E+01 0.17843535848E+01
 0.21419519981E+01 0.26726341938E+01 0.34235635815E+01 0.44492092142E+01 0.58013296964E+01
 0.75148885775E+01 0.95915906586E+01 0.11982627397E+02 0.14572738241E+02 0.17170971254E+02
 0.19518431097E+02 0.21323611153E+02 0.22325371757E+02 0.21866160195E+02 0.20520713368E+02
 0.18484104155E+02 0.16034552927E+02 0.13450758920E+02 0.10960632659E+02 0.87195366276E+01
 0.68116605081E+01 0.52629127018E+01 0.40572463704E+01 0.31530781218E+01 0.24982938914E+01
 0.20422826052E+01 0.17436938482E+01 0.15737152042E+01 0.15159758776E+01 0.15650569366E+01
 0.17256069078E+01 0.20130268600E+01 0.24550223356E+01 0.30920086833E+01 0.39741748228E+01
 0.51539746729E+01 0.66743053537E+01 0.85537499726E+01 0.10770366486E+02 0.13245300250E+02
 0.15829257620E+02 0.18299650781E+02 0.20380146586E+02 0.21789845320E+02 0.22313512447E+02
 0.21250857753E+02 0.19561798753E+02 0.17329595409E+02 0.14834132192E+02 0.12324467620E+02
 0.99849787396E+01 0.79292861366E+01 0.62099171672E+01 0.48328742158E+01 0.37723857551E+01
 0.29848579497E+01 0.24213413761E+01 0.20372213442E+01 0.17980668975E+01 0.16816212154E+01
 0.16771736392E+01 0.17843535848E+01 0.20130268600E+01 0.23844276040E+01 0.29319797247E+01
 0.36996586280E+01 0.47364555560E+01 0.60868749126E+01 0.77785840662E+01 0.98085976822E+01
 0.12128664363E+02 0.14630594533E+02 0.17135788621E+02 0.19399478539E+02 0.21142132103E+02