   2   2   0   0
  0.2079688E+02  0.3889087E-09  0.3889087E-09  0.3889087E-09  0.5000000E-15
  1.000000000000000E-004
  CAR 
 diamond Si                              
     15.92884326     -7.30888787  301      5.79134760      1.00000000
     -7.309  0.0000E+00  0.0000E+00
     -7.231  0.0000E+00  0.0000E+00
     -7.154  0.0000E+00  0.0000E+00
     -7.077  0.0000E+00  0.0000E+00
     -6.999  0.0000E+00  0.0000E+00
     -6.922  0.0000E+00  0.0000E+00
     -6.844  0.1077E-18  0.8341E-20
     -6.767  0.3493E-15  0.2707E-16
     -6.689  0.6445E-12  0.4995E-13
     -6.612  0.3681E-09  0.2856E-10
     -6.534  0.6590E-07  0.5133E-08
     -6.457  0.3797E-05  0.2993E-06
     -6.379  0.7612E-04  0.6196E-05
     -6.302  0.6616E-03  0.5745E-04
     -6.224  0.3355E-02  0.3173E-03
     -6.147  0.9363E-02  0.1043E-02
     -6.070  0.1259E-01  0.2018E-02
     -5.992  0.1386E-01  0.3091E-02
     -5.915  0.2231E-01  0.4820E-02
     -5.837  0.2932E-01  0.7091E-02
     -5.760  0.2085E-01  0.8706E-02
     -5.682  0.1611E-01  0.9954E-02
     -5.605  0.3145E-01  0.1239E-01
     -5.527  0.4184E-01  0.1563E-01
     -5.450  0.3514E-01  0.1835E-01
     -5.372  0.3521E-01  0.2108E-01
     -5.295  0.3466E-01  0.2376E-01
     -5.217  0.2442E-01  0.2566E-01
     -5.140  0.3008E-01  0.2799E-01
     -5.063  0.5903E-01  0.3256E-01
     -4.985  0.6184E-01  0.3735E-01
     -4.908  0.4277E-01  0.4066E-01
     -4.830  0.4742E-01  0.4433E-01
     -4.753  0.4743E-01  0.4801E-01
     -4.675  0.3221E-01  0.5050E-01
     -4.598  0.3417E-01  0.5315E-01
     -4.520  0.6446E-01  0.5814E-01
     -4.443  0.8558E-01  0.6477E-01
     -4.365  0.8088E-01  0.7104E-01
     -4.288  0.6681E-01  0.7621E-01
     -4.211  0.5787E-01  0.8069E-01
     -4.133  0.5230E-01  0.8474E-01
     -4.056  0.4912E-01  0.8855E-01
     -3.978  0.6953E-01  0.9393E-01
     -3.901  0.1260E+00  0.1037E+00
     -3.823  0.1336E+00  0.1140E+00
     -3.746  0.7928E-01  0.1202E+00
     -3.668  0.7132E-01  0.1257E+00
     -3.591  0.7597E-01  0.1316E+00
     -3.513  0.4561E-01  0.1351E+00
     -3.436  0.5278E-01  0.1392E+00
     -3.358  0.9408E-01  0.1465E+00
     -3.281  0.1118E+00  0.1552E+00
     -3.204  0.7548E-01  0.1610E+00
     -3.126  0.3836E-01  0.1640E+00
     -3.049  0.4036E-01  0.1671E+00
     -2.971  0.4042E-01  0.1702E+00
     -2.894  0.5358E-01  0.1744E+00
     -2.816  0.8466E-01  0.1809E+00
     -2.739  0.6710E-01  0.1861E+00
     -2.661  0.3588E-01  0.1889E+00
     -2.584  0.2212E-01  0.1906E+00
     -2.506  0.1829E-01  0.1921E+00
     -2.429  0.2613E-01  0.1941E+00
     -2.352  0.3132E-01  0.1965E+00
     -2.274  0.2935E-01  0.1988E+00
     -2.197  0.2042E-01  0.2004E+00
     -2.119  0.1368E-01  0.2014E+00
     -2.042  0.1228E-01  0.2024E+00
     -1.964  0.1899E-01  0.2038E+00
     -1.887  0.1658E-01  0.2051E+00
     -1.809  0.1234E-01  0.2061E+00
     -1.732  0.2045E-01  0.2077E+00
     -1.654  0.2937E-01  0.2099E+00
     -1.577  0.5909E-01  0.2145E+00
     -1.499  0.8968E-01  0.2215E+00
     -1.422  0.7351E-01  0.2272E+00
     -1.345  0.4551E-01  0.2307E+00
     -1.267  0.7260E-01  0.2363E+00
     -1.190  0.1342E+00  0.2467E+00
     -1.112  0.1502E+00  0.2583E+00
     -1.035  0.1274E+00  0.2682E+00
     -0.957  0.9966E-01  0.2759E+00
     -0.880  0.9799E-01  0.2835E+00
     -0.802  0.9712E-01  0.2910E+00
     -0.725  0.5215E-01  0.2951E+00
     -0.647  0.2580E-01  0.2971E+00
     -0.570  0.6375E-01  0.3020E+00
     -0.492  0.9755E-01  0.3096E+00
     -0.415  0.6809E-01  0.3148E+00
     -0.338  0.3887E-01  0.3178E+00
     -0.260  0.2895E-01  0.3201E+00
     -0.183  0.4761E-01  0.3238E+00
     -0.105  0.6270E-01  0.3286E+00
     -0.028  0.3750E-01  0.3315E+00
      0.050  0.2332E-01  0.3333E+00
      0.127  0.3990E-01  0.3364E+00
      0.205  0.4903E-01  0.3402E+00
      0.282  0.4795E-01  0.3440E+00
      0.360  0.3596E-01  0.3467E+00
      0.437  0.2562E-01  0.3487E+00
      0.514  0.2101E-01  0.3503E+00
      0.592  0.2685E-01  0.3524E+00
      0.669  0.4417E-01  0.3558E+00
      0.747  0.4315E-01  0.3592E+00
      0.824  0.2024E-01  0.3608E+00
      0.902  0.3908E-02  0.3611E+00
      0.979  0.9787E-03  0.3611E+00
      1.057  0.9402E-02  0.3619E+00
      1.134  0.4252E-01  0.3652E+00
      1.212  0.7099E-01  0.3707E+00
      1.289  0.6081E-01  0.3754E+00
      1.367  0.6507E-01  0.3804E+00
      1.444  0.9657E-01  0.3879E+00
      1.521  0.1071E+00  0.3962E+00
      1.599  0.8496E-01  0.4028E+00
      1.676  0.8119E-01  0.4091E+00
      1.754  0.1300E+00  0.4191E+00
      1.831  0.1611E+00  0.4316E+00
      1.909  0.1352E+00  0.4421E+00
      1.986  0.9343E-01  0.4493E+00
      2.064  0.8179E-01  0.4557E+00
      2.141  0.8704E-01  0.4624E+00
      2.219  0.9978E-01  0.4701E+00
      2.296  0.1069E+00  0.4784E+00
      2.374  0.1208E+00  0.4878E+00
      2.451  0.1573E+00  0.5000E+00
      2.528  0.1511E+00  0.5117E+00
      2.606  0.1030E+00  0.5196E+00
      2.683  0.9396E-01  0.5269E+00
      2.761  0.1403E+00  0.5378E+00
      2.838  0.1908E+00  0.5526E+00
      2.916  0.2063E+00  0.5685E+00
      2.993  0.1641E+00  0.5812E+00
      3.071  0.9769E-01  0.5888E+00
      3.148  0.1055E+00  0.5970E+00
      3.226  0.1640E+00  0.6097E+00
      3.303  0.1836E+00  0.6239E+00
      3.380  0.1425E+00  0.6349E+00
      3.458  0.8789E-01  0.6417E+00
      3.535  0.9395E-01  0.6490E+00
      3.613  0.1553E+00  0.6611E+00
      3.690  0.1869E+00  0.6755E+00
      3.768  0.1647E+00  0.6883E+00
      3.845  0.1228E+00  0.6978E+00
      3.923  0.9609E-01  0.7052E+00
      4.000  0.1279E+00  0.7151E+00
      4.078  0.1458E+00  0.7264E+00
      4.155  0.9957E-01  0.7342E+00
      4.233  0.6497E-01  0.7392E+00
      4.310  0.8593E-01  0.7458E+00
      4.387  0.1265E+00  0.7556E+00
      4.465  0.1042E+00  0.7637E+00
      4.542  0.5907E-01  0.7683E+00
      4.620  0.6231E-01  0.7731E+00
      4.697  0.7903E-01  0.7792E+00
      4.775  0.6434E-01  0.7842E+00
      4.852  0.3545E-01  0.7870E+00
      4.930  0.2296E-01  0.7887E+00
      5.007  0.3434E-01  0.7914E+00
      5.085  0.3369E-01  0.7940E+00
      5.162  0.1566E-01  0.7952E+00
      5.239  0.1080E-01  0.7961E+00
      5.317  0.2120E-01  0.7977E+00
      5.394  0.1897E-01  0.7992E+00
      5.472  0.7598E-02  0.7998E+00
      5.549  0.2442E-02  0.8000E+00
      5.627  0.5584E-03  0.8000E+00
      5.704  0.5095E-04  0.8000E+00
      5.782  0.1553E-05  0.8000E+00
      5.859  0.6714E-06  0.8000E+00
      5.937  0.3649E-04  0.8000E+00
      6.014  0.6732E-03  0.8001E+00
      6.092  0.4241E-02  0.8004E+00
      6.169  0.9720E-02  0.8011E+00
      6.246  0.1205E-01  0.8021E+00
      6.324  0.2080E-01  0.8037E+00
      6.401  0.3109E-01  0.8061E+00
      6.479  0.3133E-01  0.8085E+00
      6.556  0.3532E-01  0.8113E+00
      6.634  0.3552E-01  0.8140E+00
      6.711  0.2667E-01  0.8161E+00
      6.789  0.3624E-01  0.8189E+00
      6.866  0.7422E-01  0.8246E+00
      6.944  0.8304E-01  0.8311E+00
      7.021  0.6300E-01  0.8359E+00
      7.099  0.7212E-01  0.8415E+00
      7.176  0.1087E+00  0.8499E+00
      7.253  0.1288E+00  0.8599E+00
      7.331  0.1126E+00  0.8686E+00
      7.408  0.1046E+00  0.8767E+00
      7.486  0.1318E+00  0.8869E+00
      7.563  0.1311E+00  0.8971E+00
      7.641  0.1284E+00  0.9071E+00
      7.718  0.1593E+00  0.9194E+00
      7.796  0.1792E+00  0.9333E+00
      7.873  0.1294E+00  0.9433E+00
      7.951  0.9946E-01  0.9510E+00
      8.028  0.1471E+00  0.9624E+00
      8.105  0.1788E+00  0.9762E+00
      8.183  0.1176E+00  0.9853E+00
      8.260  0.9088E-01  0.9924E+00
      8.338  0.1190E+00  0.1002E+01
      8.415  0.9997E-01  0.1009E+01
      8.493  0.8371E-01  0.1016E+01
      8.570  0.1142E+00  0.1025E+01
      8.648  0.1766E+00  0.1038E+01
      8.725  0.2360E+00  0.1057E+01
      8.803  0.2435E+00  0.1075E+01
      8.880  0.2124E+00  0.1092E+01
      8.958  0.1964E+00  0.1107E+01
      9.035  0.1673E+00  0.1120E+01
      9.112  0.1487E+00  0.1132E+01
      9.190  0.1979E+00  0.1147E+01
      9.267  0.2035E+00  0.1163E+01
      9.345  0.1241E+00  0.1172E+01
      9.422  0.8648E-01  0.1179E+01
      9.500  0.8903E-01  0.1186E+01
      9.577  0.8729E-01  0.1193E+01
      9.655  0.1224E+00  0.1202E+01
      9.732  0.1544E+00  0.1214E+01
      9.810  0.1171E+00  0.1223E+01
      9.887  0.6585E-01  0.1228E+01
      9.964  0.6342E-01  0.1233E+01
     10.042  0.1402E+00  0.1244E+01
     10.119  0.2505E+00  0.1263E+01
     10.197  0.2607E+00  0.1284E+01
     10.274  0.1837E+00  0.1298E+01
     10.352  0.1254E+00  0.1308E+01
     10.429  0.1246E+00  0.1317E+01
     10.507  0.1411E+00  0.1328E+01
     10.584  0.1120E+00  0.1337E+01
     10.662  0.8227E-01  0.1343E+01
     10.739  0.8642E-01  0.1350E+01
     10.817  0.7590E-01  0.1356E+01
     10.894  0.6829E-01  0.1361E+01
     10.971  0.8956E-01  0.1368E+01
     11.049  0.1064E+00  0.1376E+01
     11.126  0.1355E+00  0.1387E+01
     11.204  0.1417E+00  0.1398E+01
     11.281  0.9117E-01  0.1405E+01
     11.359  0.7201E-01  0.1410E+01
     11.436  0.8866E-01  0.1417E+01
     11.514  0.1016E+00  0.1425E+01
     11.591  0.1460E+00  0.1436E+01
     11.669  0.1647E+00  0.1449E+01
     11.746  0.1574E+00  0.1461E+01
     11.824  0.1271E+00  0.1471E+01
     11.901  0.7028E-01  0.1477E+01
     11.978  0.5292E-01  0.1481E+01
     12.056  0.7556E-01  0.1487E+01
     12.133  0.8465E-01  0.1493E+01
     12.211  0.7219E-01  0.1499E+01
     12.288  0.6856E-01  0.1504E+01
     12.366  0.5648E-01  0.1508E+01
     12.443  0.3483E-01  0.1511E+01
     12.521  0.5304E-01  0.1515E+01
     12.598  0.8856E-01  0.1522E+01
     12.676  0.8734E-01  0.1529E+01
     12.753  0.6322E-01  0.1534E+01
     12.830  0.4093E-01  0.1537E+01
     12.908  0.2397E-01  0.1539E+01
     12.985  0.4937E-01  0.1543E+01
     13.063  0.9573E-01  0.1550E+01
     13.140  0.1076E+00  0.1558E+01
     13.218  0.9098E-01  0.1565E+01
     13.295  0.6682E-01  0.1571E+01
     13.373  0.6068E-01  0.1575E+01
     13.450  0.9338E-01  0.1583E+01
     13.528  0.8069E-01  0.1589E+01
     13.605  0.2537E-01  0.1591E+01
     13.683  0.2733E-02  0.1591E+01
     13.760  0.9864E-04  0.1591E+01
     13.837  0.1171E-05  0.1591E+01
     13.915  0.4500E-08  0.1591E+01
     13.992  0.5527E-11  0.1591E+01
     14.070  0.3904E-12  0.1591E+01
     14.147  0.4024E-09  0.1591E+01
     14.225  0.1296E-06  0.1591E+01
     14.302  0.1311E-04  0.1591E+01
     14.380  0.4233E-03  0.1591E+01
     14.457  0.4460E-02  0.1591E+01
     14.535  0.1595E-01  0.1593E+01
     14.612  0.2209E-01  0.1594E+01
     14.689  0.1925E-01  0.1596E+01
     14.767  0.1854E-01  0.1597E+01
     14.844  0.1708E-01  0.1599E+01
     14.922  0.1261E-01  0.1600E+01
     14.999  0.5122E-02  0.1600E+01
     15.077  0.8163E-03  0.1600E+01
     15.154  0.4446E-04  0.1600E+01
     15.232  0.7864E-06  0.1600E+01
     15.309  0.4410E-08  0.1600E+01
     15.387  0.7727E-11  0.1600E+01
     15.464  0.4189E-14  0.1600E+01
     15.542  0.0000E+00  0.1600E+01
     15.619  0.0000E+00  0.1600E+01
     15.696  0.0000E+00  0.1600E+01
     15.774  0.0000E+00  0.1600E+01
     15.851  0.0000E+00  0.1600E+01
     15.929  0.0000E+00  0.1600E+01
