    2    2   10    1
  0.2079688E+02  0.3889087E-09  0.3889087E-09  0.3889087E-09  0.5000000E-15
  1.000000000000000E-004
  CAR 
 diamond Si                              
      8    366      8
 
  0.0000000E+00  0.0000000E+00  0.0000000E+00  0.7513148E-03
      1         -6.252627   1.000000
      2          5.458981   0.999999
      3          5.459495   0.999999
      4          5.459960   0.999999
      5          8.010936   0.000000
      6          8.011196   0.000000
      7          8.011473   0.000000
      8          8.387899   0.000000
 
  0.9090909E-01  0.6938894E-17  0.3232894E-17  0.3005259E-02
      1         -6.147788   1.000000
      2          4.471683   1.000000
      3          5.298154   1.000000
      4          5.298769   1.000000
      5          7.959122   0.000000
      6          8.249785   0.000000
      7          8.250138   0.000000
      8          9.259256   0.000000
 
  0.9540979E-17  0.2602085E-17  0.9090909E-01  0.1502630E-02
      1         -6.147785   1.000000
      2          4.471272   1.000000
      3          5.298361   1.000000
      4          5.299039   1.000000
      5          7.959362   0.000000
      6          8.249673   0.000000
      7          8.250057   0.000000
      8          9.259166   0.000000
 
  0.9090909E-01  0.9090909E-01  0.9090909E-01  0.1502630E-02
      1         -6.147784   1.000000
      2          4.471151   1.000000
      3          5.298511   1.000000
      4          5.299032   1.000000
      5          7.959415   0.000000
      6          8.249687   0.000000
      7          8.249998   0.000000
      8          9.259140   0.000000
 
  0.1818182E+00 -0.1734723E-17  0.2996341E-17  0.3005259E-02
      1         -5.837814   1.000000
      2          2.822217   1.000000
      3          4.965500   1.000000
      4          4.966060   1.000000
      5          7.624820   0.000000
      6          8.713330   0.000000
      7          8.713740   0.000000
      8         10.865606   0.000000
 
  0.1734723E-17  0.1734723E-17  0.1818182E+00  0.1502630E-02
      1         -5.837800   1.000000
      2          2.821889   1.000000
      3          4.965649   1.000000
      4          4.966267   1.000000
      5          7.625011   0.000000
      6          8.713337   0.000000
      7          8.713782   0.000000
      8         10.865456   0.000000
 
  0.1818182E+00  0.1818182E+00  0.1818182E+00  0.1502630E-02
      1         -5.837796   1.000000
      2          2.821794   1.000000
      3          4.965776   1.000000
      4          4.966250   1.000000
      5          7.625054   0.000000
      6          8.713386   0.000000
      7          8.713747   0.000000
      8         10.865409   0.000000
 
  0.2727273E+00  0.5204170E-17 -0.3311745E-17  0.3005259E-02
      1         -5.339172   1.000000
      2          1.203768   1.000000
      3          4.648108   1.000000
      4          4.648643   1.000000
      5          7.279206   0.000000
      6          8.974007   0.000000
      7          8.974522   0.000000
      8         12.444313   0.000000
 
 -0.5204170E-17 -0.5204170E-17  0.2727273E+00  0.1502630E-02
      1         -5.339134   1.000000
      2          1.203458   1.000000
      3          4.648218   1.000000
      4          4.648809   1.000000
      5          7.279368   0.000000
      6          8.974108   0.000000
      7          8.974667   0.000000
      8         12.444188   0.000000
 
  0.2727273E+00  0.2727273E+00  0.2727273E+00  0.1502630E-02
      1         -5.339124   1.000000
      2          1.203369   1.000000
      3          4.648329   1.000000
      4          4.648782   1.000000
      5          7.279406   0.000000
      6          8.974184   0.000000
      7          8.974641   0.000000
      8         12.444147   0.000000
 
  0.3636364E+00 -0.6938894E-17  0.9462128E-17  0.3005259E-02
      1         -4.703622   1.000000
      2         -0.210313   1.000000
      3          4.420267   1.000000
      4          4.420796   1.000000
      5          7.019669   0.000000
      6          8.937764   0.000000
      7          8.938327   0.000000
      8         13.251413   0.000000
 
  0.6938894E-17  0.6938894E-17  0.3636364E+00  0.1502630E-02
      1         -4.703532   1.000000
      2         -0.210654   1.000000
      3          4.420356   1.000000
      4          4.420939   1.000000
      5          7.019813   0.000000
      6          8.937892   0.000000
      7          8.938502   0.000000
      8         13.251531   0.000000
 
  0.3636364E+00  0.3636364E+00  0.3636364E+00  0.1502630E-02
      1         -4.703509   1.000000
      2         -0.210750   1.000000
      3          4.420460   1.000000
      4          4.420906   1.000000
      5          7.019848   0.000000
      6          8.937975   0.000000
      7          8.938476   0.000000
      8         13.251556   0.000000
 
  0.4545455E+00  0.3469447E-17 -0.3154043E-18  0.3005259E-02
      1         -4.121560   1.000000
      2         -1.187944   1.000000
      3          4.303801   1.000000
      4          4.304329   1.000000
      5          6.883515   0.000000
      6          8.843178   0.000000
      7          8.843751   0.000000
      8         13.158655   0.000000
 
 -0.3469447E-17 -0.3469447E-17  0.4545455E+00  0.1502630E-02
      1         -4.121377   1.000000
      2         -1.188369   1.000000
      3          4.303880   1.000000
      4          4.304462   1.000000
      5          6.883651   0.000000
      6          8.843306   0.000000
      7          8.843927   0.000000
      8         13.158818   0.000000
 
  0.4545455E+00  0.4545455E+00  0.4545455E+00  0.1502630E-02
      1         -4.121328   1.000000
      2         -1.188487   1.000000
      3          4.303980   1.000000
      4          4.304426   1.000000
      5          6.883687   0.000000
      6          8.843388   0.000000
      7          8.843899   0.000000
      8         13.158857   0.000000
 
  0.9090909E-01  0.9090909E-01 -0.1129172E-17  0.1502630E-02
      1         -6.112655   1.000000
      2          4.622815   1.000000
      3          4.985517   1.000000
      4          4.986243   1.000000
      5          7.701505   0.000000
      6          8.658777   0.000000
      7          8.659072   0.000000
      8          9.160352   0.000000
 
  0.1261617E-17  0.9090909E-01  0.9090909E-01  0.3005259E-02
      1         -6.112655   1.000000
      2          4.622815   1.000000
      3          4.985833   1.000000
      4          4.985928   1.000000
      5          7.701505   0.000000
      6          8.658911   0.000000
      7          8.658939   0.000000
      8          9.160352   0.000000
 
  0.1818182E+00  0.9090909E-01  0.1025064E-17  0.3005259E-02
      1         -5.870298   1.000000
      2          3.296966   1.000000
      3          4.599395   1.000000
      4          4.763575   1.000000
      5          7.731182   0.000000
      6          8.637930   0.000000
      7          9.236344   0.000000
      8         10.233448   0.000000
 
  0.8673617E-18  0.1818182E+00  0.9090909E-01  0.3005259E-02
      1         -5.870301   1.000000
      2          3.297084   1.000000
      3          4.599678   1.000000
      4          4.763124   1.000000
      5          7.731213   0.000000
      6          8.638048   0.000000
      7          9.236181   0.000000
      8         10.233433   0.000000
 
  0.9090909E-01 -0.7806256E-17  0.1818182E+00  0.3005259E-02
      1         -5.870291   1.000000
      2          3.296678   1.000000
      3          4.599647   1.000000
      4          4.763645   1.000000
      5          7.731224   0.000000
      6          8.638011   0.000000
      7          9.236321   0.000000
      8         10.233396   0.000000
 
  0.9090909E-01  0.9090909E-01 -0.9090909E-01  0.1502630E-02
      1         -5.870295   1.000000
      2          3.296831   1.000000
      3          4.600017   1.000000
      4          4.763062   1.000000
      5          7.731257   0.000000
      6          8.638155   0.000000
      7          9.236123   0.000000
      8         10.233384   0.000000
 
  0.1818182E+00  0.9090909E-01  0.1818182E+00  0.3005259E-02
      1         -5.870289   1.000000
      2          3.296594   1.000000
      3          4.599725   1.000000
      4          4.763662   1.000000
      5          7.731233   0.000000
      6          8.638032   0.000000
      7          9.236323   0.000000
      8         10.233375   0.000000
 
  0.9090909E-01 -0.9090909E-01 -0.9090909E-01  0.3005259E-02
      1         -5.870302   1.000000
      2          3.297118   1.000000
      3          4.599765   1.000000
      4          4.762992   1.000000
      5          7.731214   0.000000
      6          8.638074   0.000000
      7          9.236146   0.000000
      8         10.233436   0.000000
 
  0.1818182E+00  0.1818182E+00  0.9090909E-01  0.1502630E-02
      1         -5.870293   1.000000
      2          3.296712   1.000000
      3          4.600008   1.000000
      4          4.763211   1.000000
      5          7.731265   0.000000
      6          8.638150   0.000000
      7          9.236160   0.000000
      8         10.233361   0.000000
 
  0.2727273E+00  0.9090909E-01  0.4257958E-17  0.3005259E-02
      1         -5.431913   1.000000
      2          1.718325   1.000000
      3          4.287189   1.000000
      4          4.396965   1.000000
      5          7.813502   0.000000
      6          8.667917   0.000000
      7          9.594950   0.000000
      8         10.781059   0.000000
 
 -0.1734723E-17  0.2727273E+00  0.9090909E-01  0.3005259E-02
      1         -5.431920   1.000000
      2          1.718401   1.000000
      3          4.287462   1.000000
      4          4.396578   1.000000
      5          7.813503   0.000000
      6          8.668178   0.000000
      7          9.594704   0.000000
      8         10.780884   0.000000
 
  0.9090909E-01  0.1734723E-17  0.2727273E+00  0.3005259E-02
      1         -5.431889   1.000000
      2          1.718039   1.000000
      3          4.287405   1.000000
      4          4.397028   1.000000
      5          7.813662   0.000000
      6          8.668006   0.000000
      7          9.595007   0.000000
      8         10.780918   0.000000
 
  0.9090909E-01  0.9090909E-01 -0.1818182E+00  0.1502630E-02
      1         -5.431897   1.000000
      2          1.718136   1.000000
      3          4.287764   1.000000
      4          4.396526   1.000000
      5          7.813648   0.000000
      6          8.668333   0.000000
      7          9.594709   0.000000
      8         10.780714   0.000000
 
  0.2727273E+00  0.1818182E+00  0.2727273E+00  0.3005259E-02
      1         -5.431882   1.000000
      2          1.717955   1.000000
      3          4.287473   1.000000
      4          4.397044   1.000000
      5          7.813698   0.000000
      6          8.668026   0.000000
      7          9.595023   0.000000
      8         10.780890   0.000000
 
  0.1818182E+00 -0.9090909E-01 -0.9090909E-01  0.3005259E-02
      1         -5.431921   1.000000
      2          1.718422   1.000000
      3          4.287547   1.000000
      4          4.396464   1.000000
      5          7.813488   0.000000
      6          8.668244   0.000000
      7          9.594652   0.000000
      8         10.780856   0.000000
 
  0.2727273E+00  0.2727273E+00  0.1818182E+00  0.1502630E-02
      1         -5.431889   1.000000
      2          1.718031   1.000000
      3          4.287746   1.000000
      4          4.396656   1.000000
      5          7.813699   0.000000
      6          8.668288   0.000000
      7          9.594777   0.000000
      8         10.780715   0.000000
 
  0.3636364E+00  0.9090909E-01 -0.2050128E-17  0.3005259E-02
      1         -4.832148   1.000000
      2          0.253542   1.000000
      3          4.023253   1.000000
      4          4.102604   1.000000
      5          7.634447   0.000000
      6          8.754867   0.000000
      7          9.549728   0.000000
      8         11.541075   0.000000
 
 -0.1387779E-16  0.3636364E+00  0.9090909E-01  0.3005259E-02
      1         -4.832157   1.000000
      2          0.253591   1.000000
      3          4.022912   1.000000
      4          4.102882   1.000000
      5          7.634459   0.000000
      6          8.755170   0.000000
      7          9.549423   0.000000
      8         11.540843   0.000000
 
  0.9090909E-01 -0.5204170E-17  0.3636364E+00  0.3005259E-02
      1         -4.832084   1.000000
      2          0.253232   1.000000
      3          4.023293   1.000000
      4          4.102807   1.000000
      5          7.634602   0.000000
      6          8.755061   0.000000
      7          9.549796   0.000000
      8         11.540854   0.000000
 
  0.9090909E-01  0.9090909E-01 -0.2727273E+00  0.1502630E-02
      1         -4.832095   1.000000
      2          0.253293   1.000000
      3          4.022853   1.000000
      4          4.103169   1.000000
      5          7.634602   0.000000
      6          8.755438   0.000000
      7          9.549429   0.000000
      8         11.540596   0.000000
 
  0.3636364E+00  0.2727273E+00  0.3636364E+00  0.3005259E-02
      1         -4.832068   1.000000
      2          0.253143   1.000000
      3          4.023303   1.000000
      4          4.102869   1.000000
      5          7.634638   0.000000
      6          8.755100   0.000000
      7          9.549808   0.000000
      8         11.540834   0.000000
 
  0.2727273E+00 -0.9090909E-01 -0.9090909E-01  0.3005259E-02
      1         -4.832159   1.000000
      2          0.253604   1.000000
      3          4.022811   1.000000
      4          4.102968   1.000000
      5          7.634446   0.000000
      6          8.755244   0.000000
      7          9.549361   0.000000
      8         11.540817   0.000000
 
  0.3636364E+00  0.3636364E+00  0.2727273E+00  0.1502630E-02
      1         -4.832076   1.000000
      2          0.253192   1.000000
      3          4.022963   1.000000
      4          4.103145   1.000000
      5          7.634650   0.000000
      6          8.755403   0.000000
      7          9.549503   0.000000
      8         11.540602   0.000000
 
  0.4545455E+00  0.9090909E-01  0.7254298E-17  0.3005259E-02
      1         -4.190571   1.000000
      2         -0.898687   1.000000
      3          3.733338   1.000000
      4          4.060810   1.000000
      5          7.486177   0.000000
      6          8.739097   0.000000
      7          9.333309   0.000000
      8         12.747872   0.000000
 
 -0.3469447E-17  0.4545455E+00  0.9090909E-01  0.3005259E-02
      1         -4.190578   1.000000
      2         -0.898661   1.000000
      3          3.733033   1.000000
      4          4.061099   1.000000
      5          7.486200   0.000000
      6          8.739379   0.000000
      7          9.332976   0.000000
      8         12.747671   0.000000
 
  0.9090909E-01  0.3469447E-17  0.4545455E+00  0.3005259E-02
      1         -4.190425   1.000000
      2         -0.899075   1.000000
      3          3.733367   1.000000
      4          4.061010   1.000000
      5          7.486320   0.000000
      6          8.739319   0.000000
      7          9.333357   0.000000
      8         12.747733   0.000000
 
  0.9090909E-01  0.9090909E-01 -0.3636364E+00  0.1502630E-02
      1         -4.190434   1.000000
      2         -0.899042   1.000000
      3          3.732973   1.000000
      4          4.061389   1.000000
      5          7.486336   0.000000
      6          8.739667   0.000000
      7          9.332952   0.000000
      8         12.747523   0.000000
 
  0.4545455E+00  0.3636364E+00  0.4545455E+00  0.3005259E-02
      1         -4.190387   1.000000
      2         -0.899183   1.000000
      3          3.733374   1.000000
      4          4.061072   1.000000
      5          7.486354   0.000000
      6          8.739363   0.000000
      7          9.333361   0.000000
      8         12.747741   0.000000
 
  0.3636364E+00 -0.9090909E-01 -0.9090909E-01  0.3005259E-02
      1         -4.190580   1.000000
      2         -0.898655   1.000000
      3          3.732943   1.000000
      4          4.061189   1.000000
      5          7.486193   0.000000
      6          8.739445   0.000000
      7          9.332905   0.000000
      8         12.747662   0.000000
 
  0.4545455E+00  0.4545455E+00  0.3636364E+00  0.1502630E-02
      1         -4.190394   1.000000
      2         -0.899158   1.000000
      3          3.733070   1.000000
      4          4.061360   1.000000
      5          7.486378   0.000000
      6          8.739645   0.000000
      7          9.333027   0.000000
      8         12.747540   0.000000
 
 -0.4545455E+00  0.9090909E-01  0.7885107E-17  0.3005259E-02
      1         -3.935172   1.000000
      2         -1.282496   1.000000
      3          3.562216   1.000000
      4          4.156587   1.000000
      5          7.451028   0.000000
      6          8.803079   0.000000
      7          9.154397   0.000000
      8         13.443136   0.000000
 
 -0.1040834E-16 -0.4545455E+00  0.9090909E-01  0.3005259E-02
      1         -3.935166   1.000000
      2         -1.282504   1.000000
      3          3.561943   1.000000
      4          4.156893   1.000000
      5          7.451054   0.000000
      6          8.803345   0.000000
      7          9.154040   0.000000
      8         13.443134   0.000000
 
  0.9090909E-01 -0.4510281E-16 -0.4545455E+00  0.3005259E-02
      1         -3.934964   1.000000
      2         -1.282950   1.000000
      3          3.562245   1.000000
      4          4.156798   1.000000
      5          7.451166   0.000000
      6          8.803312   0.000000
      7          9.154423   0.000000
      8         13.443306   0.000000
 
  0.9090909E-01  0.9090909E-01 -0.4545455E+00  0.1502630E-02
      1         -3.934955   1.000000
      2         -1.282960   1.000000
      3          3.561890   1.000000
      4          4.157198   1.000000
      5          7.451187   0.000000
      6          8.803638   0.000000
      7          9.153991   0.000000
      8         13.443307   0.000000
 
 -0.4545455E+00  0.4545455E+00 -0.4545455E+00  0.3005259E-02
      1         -3.934908   1.000000
      2         -1.283077   1.000000
      3          3.562252   1.000000
      4          4.156863   1.000000
      5          7.451201   0.000000
      6          8.803358   0.000000
      7          9.154422   0.000000
      8         13.443353   0.000000
 
  0.4545455E+00 -0.9090909E-01 -0.9090909E-01  0.3005259E-02
      1         -3.935164   1.000000
      2         -1.282506   1.000000
      3          3.561861   1.000000
      4          4.156988   1.000000
      5          7.451049   0.000000
      6          8.803405   0.000000
      7          9.153965   0.000000
      8         13.443137   0.000000
 
 -0.4545455E+00 -0.4545455E+00  0.4545455E+00  0.1502630E-02
      1         -3.934902   1.000000
      2         -1.283084   1.000000
      3          3.561979   1.000000
      4          4.157168   1.000000
      5          7.451226   0.000000
      6          8.803624   0.000000
      7          9.154065   0.000000
      8         13.443350   0.000000
 
 -0.3636364E+00  0.9090909E-01 -0.1892426E-17  0.3005259E-02
      1         -4.394604   1.000000
      2         -0.564302   1.000000
      3          3.531086   1.000000
      4          4.376335   1.000000
      5          7.546987   0.000000
      6          8.988353   0.000000
      7          9.071010   0.000000
      8         13.103768   0.000000
 
  0.0000000E+00 -0.3636364E+00  0.9090909E-01  0.3005259E-02
      1         -4.394589   1.000000
      2         -0.564339   1.000000
      3          3.530845   1.000000
      4          4.376662   1.000000
      5          7.547008   0.000000
      6          8.988615   0.000000
      7          9.070634   0.000000
      8         13.103866   0.000000
 
  0.9090909E-01  0.0000000E+00 -0.3636364E+00  0.3005259E-02
      1         -4.394484   1.000000
      2         -0.564681   1.000000
      3          3.531125   1.000000
      4          4.376568   1.000000
      5          7.547125   0.000000
      6          8.988600   0.000000
      7          9.071012   0.000000
      8         13.103808   0.000000
 
  0.9090909E-01  0.9090909E-01  0.4545455E+00  0.1502630E-02
      1         -4.394465   1.000000
      2         -0.564728   1.000000
      3          3.530810   1.000000
      4          4.376995   1.000000
      5          7.547143   0.000000
      6          8.988923   0.000000
      7          9.070553   0.000000
      8         13.103922   0.000000
 
 -0.3636364E+00 -0.4545455E+00 -0.3636364E+00  0.3005259E-02
      1         -4.394452   1.000000
      2         -0.564787   1.000000
      3          3.531134   1.000000
      4          4.376640   1.000000
      5          7.547159   0.000000
      6          8.988650   0.000000
      7          9.071005   0.000000
      8         13.103825   0.000000
 
 -0.4545455E+00 -0.9090909E-01 -0.9090909E-01  0.3005259E-02
      1         -4.394585   1.000000
      2         -0.564349   1.000000
      3          3.530770   1.000000
      4          4.376762   1.000000
      5          7.547004   0.000000
      6          8.988675   0.000000
      7          9.070552   0.000000
      8         13.103881   0.000000
 
 -0.3636364E+00 -0.3636364E+00 -0.4545455E+00  0.1502630E-02
      1         -4.394437   1.000000
      2         -0.564824   1.000000
      3          3.530893   1.000000
      4          4.376966   1.000000
      5          7.547179   0.000000
      6          8.988913   0.000000
      7          9.070627   0.000000
      8         13.103923   0.000000
 
 -0.2727273E+00  0.9090909E-01 -0.8200511E-17  0.3005259E-02
      1         -5.047399   1.000000
      2          0.722018   1.000000
      3          3.654300   1.000000
      4          4.691446   1.000000
      5          7.759066   0.000000
      6          8.987527   0.000000
      7          9.181966   0.000000
      8         12.035614   0.000000
 
  0.6938894E-17 -0.2727273E+00  0.9090909E-01  0.3005259E-02
      1         -5.047386   1.000000
      2          0.721950   1.000000
      3          3.654096   1.000000
      4          4.691796   1.000000
      5          7.759080   0.000000
      6          8.987153   0.000000
      7          9.182227   0.000000
      8         12.035696   0.000000
 
  0.9090909E-01 -0.6938894E-17 -0.2727273E+00  0.3005259E-02
      1         -5.047345   1.000000
      2          0.721679   1.000000
      3          3.654361   1.000000
      4          4.691718   1.000000
      5          7.759213   0.000000
      6          8.987481   0.000000
      7          9.182216   0.000000
      8         12.035513   0.000000
 
  0.9090909E-01  0.9090909E-01  0.3636364E+00  0.1502630E-02
      1         -5.047328   1.000000
      2          0.721594   1.000000
      3          3.654094   1.000000
      4          4.692174   1.000000
      5          7.759225   0.000000
      6          8.987024   0.000000
      7          9.182535   0.000000
      8         12.035605   0.000000
 
 -0.2727273E+00 -0.3636364E+00 -0.2727273E+00  0.3005259E-02
      1         -5.047331   1.000000
      2          0.721582   1.000000
      3          3.654377   1.000000
      4          4.691800   1.000000
      5          7.759247   0.000000
      6          8.987466   0.000000
      7          9.182268   0.000000
      8         12.035491   0.000000
 
 -0.3636364E+00 -0.9090909E-01 -0.9090909E-01  0.3005259E-02
      1         -5.047382   1.000000
      2          0.721932   1.000000
      3          3.654032   1.000000
      4          4.691903   1.000000
      5          7.759078   0.000000
      6          8.987069   0.000000
      7          9.182285   0.000000
      8         12.035706   0.000000
 
 -0.2727273E+00 -0.2727273E+00 -0.3636364E+00  0.1502630E-02
      1         -5.047318   1.000000
      2          0.721515   1.000000
      3          3.654174   1.000000
      4          4.692150   1.000000
      5          7.759262   0.000000
      6          8.987092   0.000000
      7          9.182528   0.000000
      8         12.035571   0.000000
 
 -0.1818182E+00  0.9090909E-01  0.4573362E-17  0.3005259E-02
      1         -5.599657   1.000000
      2          2.228236   1.000000
      3          3.949921   1.000000
      4          5.046560   1.000000
      5          8.052451   0.000000
      6          8.695047   0.000000
      7          9.033745   0.000000
      8         11.118138   0.000000
 
 -0.5204170E-17 -0.1818182E+00  0.9090909E-01  0.3005259E-02
      1         -5.599647   1.000000
      2          2.228104   1.000000
      3          3.949783   1.000000
      4          5.046937   1.000000
      5          8.052462   0.000000
      6          8.694739   0.000000
      7          9.033977   0.000000
      8         11.118217   0.000000
 
  0.9090909E-01 -0.2255141E-16 -0.1818182E+00  0.3005259E-02
      1         -5.599635   1.000000
      2          2.227882   1.000000
      3          3.950017   1.000000
      4          5.046891   1.000000
      5          8.052615   0.000000
      6          8.694906   0.000000
      7          9.033905   0.000000
      8         11.118088   0.000000
 
  0.9090909E-01  0.9090909E-01  0.2727273E+00  0.1502630E-02
      1         -5.599622   1.000000
      2          2.227714   1.000000
      3          3.949834   1.000000
      4          5.047381   1.000000
      5          8.052627   0.000000
      6          8.694525   0.000000
      7          9.034194   0.000000
      8         11.118170   0.000000
 
 -0.1818182E+00 -0.2727273E+00 -0.1818182E+00  0.3005259E-02
      1         -5.599629   1.000000
      2          2.227780   1.000000
      3          3.950042   1.000000
      4          5.046991   1.000000
      5          8.052653   0.000000
      6          8.694872   0.000000
      7          9.033947   0.000000
      8         11.118059   0.000000
 
 -0.2727273E+00 -0.9090909E-01 -0.9090909E-01  0.3005259E-02
      1         -5.599644   1.000000
      2          2.228067   1.000000
      3          3.949737   1.000000
      4          5.047051   1.000000
      5          8.052463   0.000000
      6          8.694666   0.000000
      7          9.034033   0.000000
      8         11.118221   0.000000
 
 -0.1818182E+00 -0.1818182E+00 -0.2727273E+00  0.1502630E-02
      1         -5.599619   1.000000
      2          2.227648   1.000000
      3          3.949904   1.000000
      4          5.047368   1.000000
      5          8.052665   0.000000
      6          8.694564   0.000000
      7          9.034179   0.000000
      8         11.118138   0.000000
 
 -0.9090909E-01  0.9090909E-01 -0.5204170E-17  0.1502630E-02
      1         -5.974366   1.000000
      2          3.665757   1.000000
      3          4.504765   1.000000
      4          5.316028   1.000000
      5          8.280077   0.000000
      6          8.301132   0.000000
      7          8.456774   0.000000
      8         10.175033   0.000000
 
  0.5204170E-17 -0.9090909E-01  0.9090909E-01  0.3005259E-02
      1         -5.974360   1.000000
      2          3.665430   1.000000
      3          4.504810   1.000000
      4          5.316425   1.000000
      5          8.280148   0.000000
      6          8.300897   0.000000
      7          8.456938   0.000000
      8         10.174995   0.000000
 
  0.9090909E-01  0.9090909E-01  0.1818182E+00  0.1502630E-02
      1         -5.974351   1.000000
      2          3.665008   1.000000
      3          4.504864   1.000000
      4          5.316940   1.000000
      5          8.280236   0.000000
      6          8.300603   0.000000
      7          8.457147   0.000000
      8         10.174937   0.000000
 
 -0.9090909E-01 -0.1818182E+00 -0.9090909E-01  0.3005259E-02
      1         -5.974358   1.000000
      2          3.665336   1.000000
      3          4.504819   1.000000
      4          5.316544   1.000000
      5          8.280162   0.000000
      6          8.300840   0.000000
      7          8.456983   0.000000
      8         10.174975   0.000000
 
  0.1818182E+00  0.1818182E+00 -0.2258344E-17  0.1502630E-02
      1         -5.695711   1.000000
      2          3.122127   1.000000
      3          4.178504   1.000000
      4          4.179028   1.000000
      5          7.073488   0.000000
      6          9.477475   0.000000
      7          9.971772   0.000000
      8          9.971865   0.000000
 
  0.2523234E-17  0.1818182E+00  0.1818182E+00  0.3005259E-02
      1         -5.695711   1.000000
      2          3.122126   1.000000
      3          4.178731   1.000000
      4          4.178802   1.000000
      5          7.073488   0.000000
      6          9.477475   0.000000
      7          9.971817   0.000000
      8          9.971820   0.000000
 
  0.2727273E+00  0.1818182E+00  0.3154043E-17  0.3005259E-02
      1         -5.321076   1.000000
      2          1.998474   1.000000
      3          3.764624   1.000000
      4          3.844122   1.000000
      5          7.124849   0.000000
      6          9.117632   0.000000
      7         10.259210   0.000000
      8         10.548964   0.000000
 
  0.0000000E+00  0.2727273E+00  0.1818182E+00  0.3005259E-02
      1         -5.321083   1.000000
      2          1.998607   1.000000
      3          3.764238   1.000000
      4          3.844340   1.000000
      5          7.124928   0.000000
      6          9.117648   0.000000
      7         10.259132   0.000000
      8         10.548827   0.000000
 
  0.1818182E+00 -0.1387779E-16  0.2727273E+00  0.3005259E-02
      1         -5.321064   1.000000
      2          1.998272   1.000000
      3          3.764649   1.000000
      4          3.844317   1.000000
      5          7.124886   0.000000
      6          9.117537   0.000000
      7         10.259327   0.000000
      8         10.549027   0.000000
 