 vasp.6.3.0 20Jan22 (build Feb 01 2022 16:52:37) complex                        
  
 executed on           TETRA_NSC1 date 2022.02.23  11:23:34
 running    4 mpi-ranks, with    1 threads/rank
 distrk:  each k-point on    4 cores,    1 groups
 distr:  one band on NCORE=   1 cores,    4 groups


--------------------------------------------------------------------------------------------------------


 INCAR:
   SYSTEM = diamond Si
   ISTART = 0
   ICHARG = 2
   ENCUT = 240
   ISMEAR = 0
   SIGMA = 0.1
   NSW = 10
   IBRION = 2
   ISIF = 2
   EDIFFG = -0.0001

 POTCAR:    PAW_PBE Si 05Jan2001                  
 POTCAR:    PAW_PBE Si 05Jan2001                  
   VRHFIN =Si: s2p2                                                                                 
   LEXCH  = PE                                                                                      
   EATOM  =   103.0669 eV,    7.5752 Ry                                                             
                                                                                                    
   TITEL  = PAW_PBE Si 05Jan2001                                                                    
   LULTRA =        F    use ultrasoft PP ?                                                          
   IUNSCR =        1    unscreen: 0-lin 1-nonlin 2-no                                               
   RPACOR =    1.500    partial core radius                                                         
   POMASS =   28.085; ZVAL   =    4.000    mass and valenz                                          
   RCORE  =    1.900    outmost cutoff radius                                                       
   RWIGS  =    2.480; RWIGS  =    1.312    wigner-seitz radius (au A)                               
   ENMAX  =  245.345; ENMIN  =  184.009 eV                                                          
   ICORE  =        2    local potential                                                             
   LCOR   =        T    correct aug charges                                                         
   LPAW   =        T    paw PP                                                                      
   EAUG   =  322.069                                                                                
   DEXC   =    0.000                                                                                
   RMAX   =    1.950    core radius for proj-oper                                                   
   RAUG   =    1.300    factor for augmentation sphere                                              
   RDEP   =    1.993    radius for radial grids                                                     
   RDEPT  =    1.837    core radius for aug-charge                                                  
                                                                                                    
   Atomic configuration                                                                             
    6 entries                                                                                       
     n  l   j            E        occ.                                                              
     1  0  0.50     -1785.8828   2.0000                                                             
     2  0  0.50      -139.4969   2.0000                                                             
     2  1  1.50       -95.5546   6.0000                                                             
     3  0  0.50       -10.8127   2.0000                                                             
     3  1  0.50        -4.0811   2.0000                                                             
     3  2  1.50        -4.0817   0.0000                                                             
   Description                                                                                      
     l       E           TYP  RCUT    TYP  RCUT                                                     
     0    -10.8127223     23  1.900                                                                 
     0     -7.6451159     23  1.900                                                                 
     1     -4.0811372     23  1.900                                                                 
     1      2.4879257     23  1.900                                                                 
     2     -4.0817478      7  1.900                                                                 
  local pseudopotential read in
  partial core-charges read in
  partial kinetic energy density read in
  atomic valenz-charges read in
  non local Contribution for L=           0  read in
    real space projection operators read in
  non local Contribution for L=           0  read in
    real space projection operators read in
  non local Contribution for L=           1  read in
    real space projection operators read in
  non local Contribution for L=           1  read in
    real space projection operators read in
    PAW grid and wavefunctions read in
 
   number of l-projection  operators is LMAX  =           4
   number of lm-projection operators is LMMAX =           8
 
  PAW_PBE Si 05Jan2001                  :
 energy of atom  1       EATOM= -103.0669
 kinetic energy error for atom=    0.0061 (will be added to EATOM!!)
 
 
 POSCAR: cubic diamond Si
  positions in direct lattice
  No initial velocities read in
 exchange correlation table for  LEXCH =        8
   RHO(1)=    0.500       N(1)  =     2000
   RHO(2)=  100.500       N(2)  =     4000
 


--------------------------------------------------------------------------------------------------------


 ion  position               nearest neighbor table
   1  0.875  0.875  0.875-   2 2.37   2 2.38   2 2.38   2 2.40
   2  0.125  0.125  0.130-   1 2.37   1 2.38   1 2.38   1 2.40
 
  LATTYP: Found a face centered cubic cell.
 ALAT       =     5.5000000000
  
  Lattice vectors:
  
 A1 = (   0.0000000000,   2.7500000000,   2.7500000000)
 A2 = (   2.7500000000,   0.0000000000,   2.7500000000)
 A3 = (   2.7500000000,   2.7500000000,   0.0000000000)


Analysis of symmetry for initial positions (statically):
=====================================================================
 Subroutine PRICEL returns:
 Original cell was already a primitive cell.
 

 Routine SETGRP: Setting up the symmetry group for a 
 face centered cubic supercell.


 Subroutine GETGRP returns: Found  4 space group operations
 (whereof  2 operations were pure point group operations)
 out of a pool of 48 trial point group operations.


The static configuration has the point symmetry C_1h.
 The point group associated with its full space group is C_2h.


Analysis of symmetry for dynamics (positions and initial velocities):
=====================================================================
 Subroutine PRICEL returns:
 Original cell was already a primitive cell.
 

 Routine SETGRP: Setting up the symmetry group for a 
 face centered cubic supercell.


 Subroutine GETGRP returns: Found  4 space group operations
 (whereof  2 operations were pure point group operations)
 out of a pool of 48 trial point group operations.


The dynamic configuration has the point symmetry C_1h.
 The point group associated with its full space group is C_2h.


 Subroutine INISYM returns: Found  4 space group operations
 (whereof  2 operations are pure point group operations),
 and found     1 'primitive' translations


----------------------------------------------------------------------------------------

                                     Primitive cell                                     

  volume of cell :      41.5938

  direct lattice vectors                    reciprocal lattice vectors
     0.000000000  2.750000000  2.750000000    -0.181818182  0.181818182  0.181818182
     2.750000000  0.000000000  2.750000000     0.181818182 -0.181818182  0.181818182
     2.750000000  2.750000000  0.000000000     0.181818182  0.181818182 -0.181818182

  length of vectors
     3.889087297  3.889087297  3.889087297     0.314918329  0.314918329  0.314918329

  position of ions in fractional coordinates (direct lattice)
     0.875000000  0.875000000  0.875000000
     0.125000000  0.125000000  0.130000000

  ion indices of the primitive-cell ions
   primitive index   ion index
                 1           1
                 2           2

----------------------------------------------------------------------------------------

 
 
 KPOINTS: k-points                                

Automatic generation of k-mesh.
 Grid dimensions read from file:
 generate k-points for:   11   11   11

 Generating k-lattice:

  Cartesian coordinates                     Fractional coordinates (reciprocal lattice)
    -0.016528926  0.016528926  0.016528926     0.090909091  0.000000000  0.000000000
     0.016528926 -0.016528926  0.016528926     0.000000000  0.090909091  0.000000000
     0.016528926  0.016528926 -0.016528926     0.000000000  0.000000000  0.090909091

  Length of vectors
     0.028628939  0.028628939  0.028628939

  Shift w.r.t. Gamma in fractional coordinates (k-lattice)
     0.000000000  0.000000000  0.000000000

 
 Subroutine IBZKPT returns following result:
 ===========================================
 
 Found    366 irreducible k-points:
 
 Following reciprocal coordinates:
            Coordinates               Weight
  0.000000  0.000000  0.000000      1.000000
  0.090909  0.000000  0.000000      4.000000
  0.000000  0.000000  0.090909      2.000000
  0.090909  0.090909  0.090909      2.000000
  0.181818 -0.000000  0.000000      4.000000
  0.000000  0.000000  0.181818      2.000000
  0.181818  0.181818  0.181818      2.000000
  0.272727  0.000000 -0.000000      4.000000
 -0.000000 -0.000000  0.272727      2.000000
  0.272727  0.272727  0.272727      2.000000
  0.363636 -0.000000  0.000000      4.000000
  0.000000  0.000000  0.363636      2.000000
  0.363636  0.363636  0.363636      2.000000
  0.454545  0.000000 -0.000000      4.000000
 -0.000000 -0.000000  0.454545      2.000000
  0.454545  0.454545  0.454545      2.000000
  0.090909  0.090909 -0.000000      2.000000
  0.000000  0.090909  0.090909      4.000000
  0.181818  0.090909  0.000000      4.000000
  0.000000  0.181818  0.090909      4.000000
  0.090909 -0.000000  0.181818      4.000000
  0.090909  0.090909 -0.090909      2.000000
  0.181818  0.090909  0.181818      4.000000
  0.090909 -0.090909 -0.090909      4.000000
  0.181818  0.181818  0.090909      2.000000
  0.272727  0.090909  0.000000      4.000000
 -0.000000  0.272727  0.090909      4.000000
  0.090909  0.000000  0.272727      4.000000
  0.090909  0.090909 -0.181818      2.000000
  0.272727  0.181818  0.272727      4.000000
  0.181818 -0.090909 -0.090909      4.000000
  0.272727  0.272727  0.181818      2.000000
  0.363636  0.090909 -0.000000      4.000000
 -0.000000  0.363636  0.090909      4.000000
  0.090909 -0.000000  0.363636      4.000000
  0.090909  0.090909 -0.272727      2.000000
  0.363636  0.272727  0.363636      4.000000
  0.272727 -0.090909 -0.090909      4.000000
  0.363636  0.363636  0.272727      2.000000
  0.454545  0.090909  0.000000      4.000000
 -0.000000  0.454545  0.090909      4.000000
  0.090909  0.000000  0.454545      4.000000
  0.090909  0.090909 -0.363636      2.000000
  0.454545  0.363636  0.454545      4.000000
  0.363636 -0.090909 -0.090909      4.000000
  0.454545  0.454545  0.363636      2.000000
 -0.454545  0.090909  0.000000      4.000000
 -0.000000 -0.454545  0.090909      4.000000
  0.090909 -0.000000 -0.454545      4.000000
  0.090909  0.090909 -0.454545      2.000000
 -0.454545  0.454545 -0.454545      4.000000
  0.454545 -0.090909 -0.090909      4.000000
 -0.454545 -0.454545  0.454545      2.000000
 -0.363636  0.090909 -0.000000      4.000000
  0.000000 -0.363636  0.090909      4.000000
  0.090909  0.000000 -0.363636      4.000000
  0.090909  0.090909  0.454545      2.000000
 -0.363636 -0.454545 -0.363636      4.000000
 -0.454545 -0.090909 -0.090909      4.000000
 -0.363636 -0.363636 -0.454545      2.000000
 -0.272727  0.090909 -0.000000      4.000000
  0.000000 -0.272727  0.090909      4.000000
  0.090909 -0.000000 -0.272727      4.000000
  0.090909  0.090909  0.363636      2.000000
 -0.272727 -0.363636 -0.272727      4.000000
 -0.363636 -0.090909 -0.090909      4.000000
 -0.272727 -0.272727 -0.363636      2.000000
 -0.181818  0.090909  0.000000      4.000000
 -0.000000 -0.181818  0.090909      4.000000
  0.090909 -0.000000 -0.181818      4.000000
  0.090909  0.090909  0.272727      2.000000
 -0.181818 -0.272727 -0.181818      4.000000
 -0.272727 -0.090909 -0.090909      4.000000
 -0.181818 -0.181818 -0.272727      2.000000
 -0.090909  0.090909 -0.000000      2.000000
  0.000000 -0.090909  0.090909      4.000000
  0.090909  0.090909  0.181818      2.000000
 -0.090909 -0.181818 -0.090909      4.000000
  0.181818  0.181818 -0.000000      2.000000
  0.000000  0.181818  0.181818      4.000000
  0.272727  0.181818  0.000000      4.000000
  0.000000  0.272727  0.181818      4.000000
  0.181818 -0.000000  0.272727      4.000000
  0.181818  0.181818 -0.090909      2.000000
  0.272727  0.090909  0.272727      4.000000
  0.090909 -0.181818 -0.181818      4.000000
  0.272727  0.272727  0.090909      2.000000
  0.363636  0.181818  0.000000      4.000000
  0.000000  0.363636  0.181818      4.000000
  0.181818  0.000000  0.363636      4.000000
  0.181818  0.181818 -0.181818      2.000000
  0.363636  0.181818  0.363636      4.000000
  0.181818 -0.181818 -0.181818      4.000000
  0.363636  0.363636  0.181818      2.000000
  0.454545  0.181818  0.000000      4.000000
 -0.000000  0.454545  0.181818      4.000000
  0.181818  0.000000  0.454545      4.000000
  0.181818  0.181818 -0.272727      2.000000
  0.454545  0.272727  0.454545      4.000000
  0.272727 -0.181818 -0.181818      4.000000
  0.454545  0.454545  0.272727      2.000000
 -0.454545  0.181818  0.000000      4.000000
 -0.000000 -0.454545  0.181818      4.000000
  0.181818  0.000000 -0.454545      4.000000
  0.181818  0.181818 -0.363636      2.000000
 -0.454545  0.363636 -0.454545      4.000000
  0.363636 -0.181818 -0.181818      4.000000
 -0.454545 -0.454545  0.363636      2.000000
 -0.363636  0.181818  0.000000      4.000000
 -0.000000 -0.363636  0.181818      4.000000
  0.181818  0.000000 -0.363636      4.000000
  0.181818  0.181818 -0.454545      2.000000
 -0.363636  0.454545 -0.363636      4.000000
  0.454545 -0.181818 -0.181818      4.000000
 -0.363636 -0.363636  0.454545      2.000000
 -0.272727  0.181818  0.000000      4.000000
 -0.000000 -0.272727  0.181818      4.000000
  0.181818  0.000000 -0.272727      4.000000
  0.181818  0.181818  0.454545      2.000000
 -0.272727 -0.454545 -0.272727      4.000000
 -0.454545 -0.181818 -0.181818      4.000000
 -0.272727 -0.272727 -0.454545      2.000000
 -0.181818  0.181818 -0.000000      2.000000
  0.000000 -0.181818  0.181818      4.000000
  0.181818  0.181818  0.363636      2.000000
 -0.181818 -0.363636 -0.181818      4.000000
  0.272727  0.272727 -0.000000      2.000000
  0.000000  0.272727  0.272727      4.000000
  0.363636  0.272727  0.000000      4.000000
  0.000000  0.363636  0.272727      4.000000
  0.272727  0.000000  0.363636      4.000000
  0.272727  0.272727 -0.090909      2.000000
  0.363636  0.090909  0.363636      4.000000
  0.090909 -0.272727 -0.272727      4.000000
  0.363636  0.363636  0.090909      2.000000
  0.454545  0.272727 -0.000000      4.000000
  0.000000  0.454545  0.272727      4.000000
  0.272727  0.000000  0.454545      4.000000
  0.272727  0.272727 -0.181818      2.000000
  0.454545  0.181818  0.454545      4.000000
  0.181818 -0.272727 -0.272727      4.000000
  0.454545  0.454545  0.181818      2.000000
 -0.454545  0.272727  0.000000      4.000000
 -0.000000 -0.454545  0.272727      4.000000
  0.272727 -0.000000 -0.454545      4.000000
  0.272727  0.272727 -0.272727      2.000000
 -0.454545  0.272727 -0.454545      4.000000
  0.272727 -0.272727 -0.272727      4.000000
 -0.454545 -0.454545  0.272727      2.000000
 -0.363636  0.272727  0.000000      4.000000
  0.000000 -0.363636  0.272727      4.000000
  0.272727  0.000000 -0.363636      4.000000
  0.272727  0.272727 -0.363636      2.000000
 -0.363636  0.363636 -0.363636      4.000000
  0.363636 -0.272727 -0.272727      4.000000
 -0.363636 -0.363636  0.363636      2.000000
 -0.272727  0.272727  0.000000      2.000000
 -0.000000 -0.272727  0.272727      4.000000
  0.272727  0.272727 -0.454545      2.000000
 -0.272727  0.454545 -0.272727      4.000000
  0.363636  0.363636 -0.000000      2.000000
  0.000000  0.363636  0.363636      4.000000
  0.454545  0.363636 -0.000000      4.000000
  0.000000  0.454545  0.363636      4.000000
  0.363636  0.000000  0.454545      4.000000
  0.363636  0.363636 -0.090909      2.000000
  0.454545  0.090909  0.454545      4.000000
  0.090909 -0.363636 -0.363636      4.000000
  0.454545  0.454545  0.090909      2.000000
 -0.454545  0.363636 -0.000000      4.000000
  0.000000 -0.454545  0.363636      4.000000
  0.363636 -0.000000 -0.454545      4.000000
  0.363636  0.363636 -0.181818      2.000000
 -0.454545  0.181818 -0.454545      4.000000
  0.181818 -0.363636 -0.363636      4.000000
 -0.454545 -0.454545  0.181818      2.000000
 -0.363636  0.363636 -0.000000      2.000000
  0.000000 -0.363636  0.363636      4.000000
  0.363636  0.363636 -0.272727      2.000000
 -0.363636  0.272727 -0.363636      4.000000
  0.454545  0.454545 -0.000000      2.000000
  0.000000  0.454545  0.454545      4.000000
 -0.454545  0.454545  0.000000      2.000000
 -0.000000 -0.454545  0.454545      4.000000
  0.454545  0.454545 -0.090909      2.000000
 -0.454545  0.090909 -0.454545      4.000000
  0.272727  0.181818  0.090909      4.000000
  0.090909  0.272727  0.181818      4.000000
  0.181818  0.090909  0.272727      4.000000
  0.181818  0.090909 -0.090909      4.000000
  0.090909 -0.181818 -0.090909      4.000000
  0.090909 -0.090909 -0.181818      4.000000
  0.363636  0.181818  0.090909      4.000000
  0.090909  0.363636  0.181818      4.000000
  0.181818  0.090909  0.363636      4.000000
  0.181818  0.090909 -0.181818      4.000000
  0.363636  0.181818  0.272727      4.000000
  0.090909 -0.272727 -0.090909      4.000000
  0.090909  0.272727 -0.090909      4.000000
  0.181818 -0.090909 -0.181818      4.000000
 -0.272727 -0.181818 -0.363636      4.000000
  0.272727  0.363636  0.181818      4.000000
 -0.090909  0.090909 -0.272727      4.000000
 -0.181818  0.181818  0.090909      4.000000
  0.454545  0.181818  0.090909      4.000000
  0.090909  0.454545  0.181818      4.000000
  0.181818  0.090909  0.454545      4.000000
  0.181818  0.090909 -0.272727      4.000000
  0.454545  0.272727  0.363636      4.000000
  0.090909 -0.363636 -0.090909      4.000000
  0.090909  0.363636 -0.090909      4.000000
  0.272727 -0.090909 -0.181818      4.000000
 -0.363636 -0.272727 -0.454545      4.000000
  0.363636  0.454545  0.272727      4.000000
 -0.090909  0.090909 -0.363636      4.000000
 -0.272727  0.181818  0.090909      4.000000
 -0.454545  0.181818  0.090909      4.000000
  0.090909 -0.454545  0.181818      4.000000
  0.181818  0.090909 -0.454545      4.000000
  0.181818  0.090909 -0.363636      4.000000
 -0.454545  0.363636  0.454545      4.000000
  0.090909 -0.454545 -0.090909      4.000000
  0.090909  0.454545 -0.090909      4.000000
  0.363636 -0.090909 -0.181818      4.000000
 -0.454545 -0.363636  0.454545      4.000000
  0.454545 -0.454545  0.363636      4.000000
 -0.090909  0.090909 -0.454545      4.000000
 -0.363636  0.181818  0.090909      4.000000
  0.363636  0.272727  0.090909      4.000000
  0.090909  0.363636  0.272727      4.000000
  0.272727  0.090909  0.363636      4.000000
  0.272727  0.181818 -0.090909      4.000000
  0.090909 -0.272727 -0.181818      4.000000
  0.090909 -0.181818 -0.272727      4.000000
  0.454545  0.272727  0.090909      4.000000
  0.090909  0.454545  0.272727      4.000000
  0.272727  0.090909  0.454545      4.000000
  0.272727  0.181818 -0.181818      4.000000
  0.454545  0.181818  0.363636      4.000000
  0.090909 -0.363636 -0.181818      4.000000
  0.181818  0.363636 -0.090909      4.000000
  0.181818 -0.181818 -0.272727      4.000000
 -0.363636 -0.181818 -0.454545      4.000000
  0.363636  0.454545  0.181818      4.000000
 -0.181818  0.090909 -0.363636      4.000000
 -0.181818  0.272727  0.181818      4.000000
 -0.454545  0.272727  0.090909      4.000000
  0.090909 -0.454545  0.272727      4.000000
  0.272727  0.090909 -0.454545      4.000000
  0.272727  0.181818 -0.272727      4.000000
 -0.454545  0.272727  0.454545      4.000000
  0.090909 -0.454545 -0.181818      4.000000
  0.181818  0.454545 -0.090909      4.000000
  0.272727 -0.181818 -0.272727      4.000000
 -0.454545 -0.272727  0.454545      4.000000
  0.454545 -0.454545  0.272727      4.000000
 -0.181818  0.090909 -0.454545      4.000000
 -0.272727  0.272727  0.181818      4.000000
 -0.363636  0.272727  0.090909      4.000000
  0.090909 -0.363636  0.272727      4.000000
  0.272727  0.090909 -0.363636      4.000000
  0.272727  0.181818 -0.363636      4.000000
 -0.363636  0.363636 -0.454545      4.000000
  0.090909  0.454545 -0.181818      4.000000
  0.181818 -0.454545 -0.090909      4.000000
  0.363636 -0.181818 -0.272727      4.000000
  0.454545 -0.363636  0.363636      4.000000
 -0.454545 -0.363636  0.363636      4.000000
 -0.181818  0.090909  0.454545      4.000000
 -0.363636  0.272727  0.181818      4.000000
 -0.272727  0.272727  0.090909      4.000000
  0.090909 -0.272727  0.272727      4.000000
  0.272727  0.090909 -0.272727      4.000000
  0.272727  0.181818 -0.454545      4.000000
 -0.272727  0.454545 -0.363636      4.000000
  0.090909  0.363636 -0.181818      4.000000
  0.181818 -0.363636 -0.090909      4.000000
  0.454545 -0.181818 -0.272727      4.000000
  0.363636 -0.454545  0.272727      4.000000
 -0.363636 -0.272727  0.454545      4.000000
 -0.181818  0.090909  0.363636      4.000000
 -0.454545  0.272727  0.181818      4.000000
 -0.181818  0.272727  0.090909      4.000000
  0.090909 -0.181818  0.272727      4.000000
  0.272727  0.090909 -0.181818      4.000000
  0.272727  0.181818  0.454545      4.000000
 -0.181818 -0.454545 -0.272727      4.000000
  0.272727  0.454545  0.181818      4.000000
  0.454545  0.363636  0.090909      4.000000
  0.090909  0.454545  0.363636      4.000000
  0.363636  0.090909  0.454545      4.000000
  0.363636  0.272727 -0.090909      4.000000
  0.090909 -0.363636 -0.272727      4.000000
  0.090909 -0.272727 -0.363636      4.000000
 -0.454545  0.363636  0.090909      4.000000
  0.090909 -0.454545  0.363636      4.000000
  0.363636  0.090909 -0.454545      4.000000
  0.363636  0.272727 -0.181818      4.000000
 -0.454545  0.181818  0.454545      4.000000
  0.090909 -0.454545 -0.272727      4.000000
  0.272727  0.454545 -0.090909      4.000000
  0.181818 -0.272727 -0.363636      4.000000
 -0.454545 -0.181818  0.454545      4.000000
  0.454545 -0.454545  0.181818      4.000000
 -0.272727  0.090909 -0.454545      4.000000
 -0.181818  0.363636  0.272727      4.000000
 -0.363636  0.363636  0.090909      4.000000
  0.090909 -0.363636  0.363636      4.000000
  0.363636  0.090909 -0.363636      4.000000
  0.363636  0.272727 -0.272727      4.000000
 -0.363636  0.272727 -0.454545      4.000000
  0.090909  0.454545 -0.272727      4.000000
  0.272727 -0.454545 -0.090909      4.000000
  0.272727 -0.272727 -0.363636      4.000000
  0.454545 -0.272727  0.363636      4.000000
 -0.454545 -0.363636  0.272727      4.000000
 -0.272727  0.090909  0.454545      4.000000
 -0.272727  0.363636  0.272727      4.000000
 -0.272727  0.363636  0.090909      4.000000
  0.090909 -0.272727  0.363636      4.000000
  0.363636  0.090909 -0.272727      4.000000
  0.363636  0.272727 -0.363636      4.000000
 -0.272727  0.363636 -0.363636      4.000000
  0.363636 -0.363636  0.272727      4.000000
 -0.454545  0.454545  0.090909      4.000000
  0.090909 -0.454545  0.454545      4.000000
  0.454545  0.090909 -0.454545      4.000000
  0.454545  0.363636 -0.090909      4.000000
  0.090909 -0.454545 -0.363636      4.000000
  0.090909 -0.363636 -0.454545      4.000000
 -0.363636  0.454545  0.090909      4.000000
  0.090909 -0.363636  0.454545      4.000000
  0.454545  0.090909 -0.363636      4.000000
  0.454545  0.363636 -0.181818      4.000000
 -0.363636  0.181818 -0.454545      4.000000
  0.454545 -0.181818  0.363636      4.000000
 -0.454545  0.363636  0.181818      4.000000
  0.181818 -0.454545  0.363636      4.000000
  0.363636  0.181818 -0.454545      4.000000
  0.363636  0.181818 -0.181818      4.000000
  0.181818 -0.363636 -0.181818      4.000000
  0.181818 -0.181818 -0.363636      4.000000
 -0.363636  0.363636  0.181818      4.000000
  0.181818 -0.363636  0.363636      4.000000
  0.363636  0.181818 -0.363636      4.000000
  0.363636  0.181818 -0.272727      4.000000
 -0.363636  0.272727  0.454545      4.000000
  0.181818 -0.454545 -0.181818      4.000000
  0.181818  0.454545 -0.181818      4.000000
  0.272727 -0.181818 -0.363636      4.000000
 -0.454545 -0.272727  0.363636      4.000000
  0.454545 -0.363636  0.272727      4.000000
 -0.181818  0.181818 -0.454545      4.000000
 -0.272727  0.363636  0.181818      4.000000
 -0.363636  0.454545  0.181818      4.000000
  0.181818 -0.363636  0.454545      4.000000
  0.454545  0.181818 -0.363636      4.000000
  0.454545  0.272727 -0.181818      4.000000
  0.181818 -0.454545 -0.272727      4.000000
  0.181818 -0.272727 -0.454545      4.000000
 -0.272727  0.454545  0.181818      4.000000
  0.181818 -0.272727  0.454545      4.000000
  0.454545  0.181818 -0.272727      4.000000
  0.454545  0.272727 -0.272727      4.000000
 -0.272727  0.272727 -0.454545      4.000000
  0.454545 -0.272727  0.272727      4.000000
 
 Following cartesian coordinates:
            Coordinates               Weight
  0.000000  0.000000  0.000000      1.000000
 -0.090909  0.090909  0.090909      4.000000
  0.090909  0.090909 -0.090909      2.000000
  0.090909  0.090909  0.090909      2.000000
 -0.181818  0.181818  0.181818      4.000000
  0.181818  0.181818 -0.181818      2.000000
  0.181818  0.181818  0.181818      2.000000
 -0.272727  0.272727  0.272727      4.000000
  0.272727  0.272727 -0.272727      2.000000
  0.272727  0.272727  0.272727      2.000000
 -0.363636  0.363636  0.363636      4.000000
  0.363636  0.363636 -0.363636      2.000000
  0.363636  0.363636  0.363636      2.000000
 -0.454545  0.454545  0.454545      4.000000
  0.454545  0.454545 -0.454545      2.000000
  0.454545  0.454545  0.454545      2.000000
 -0.000000  0.000000  0.181818      2.000000
  0.181818  0.000000 -0.000000      4.000000
 -0.090909  0.090909  0.272727      4.000000
  0.272727 -0.090909  0.090909      4.000000
  0.090909  0.272727 -0.090909      4.000000
 -0.090909 -0.090909  0.272727      2.000000
  0.090909  0.272727  0.090909      4.000000
 -0.272727  0.090909  0.090909      4.000000
  0.090909  0.090909  0.272727      2.000000
 -0.181818  0.181818  0.363636      4.000000
  0.363636 -0.181818  0.181818      4.000000
  0.181818  0.363636 -0.181818      4.000000
 -0.181818 -0.181818  0.363636      2.000000
  0.181818  0.363636  0.181818      4.000000
 -0.363636  0.181818  0.181818      4.000000
  0.181818  0.181818  0.363636      2.000000
 -0.272727  0.272727  0.454545      4.000000
  0.454545 -0.272727  0.272727      4.000000
  0.272727  0.454545 -0.272727      4.000000
 -0.272727 -0.272727  0.454545      2.000000
  0.272727  0.454545  0.272727      4.000000
 -0.454545  0.272727  0.272727      4.000000
  0.272727  0.272727  0.454545      2.000000
 -0.363636  0.363636  0.545455      4.000000
  0.545455 -0.363636  0.363636      4.000000
  0.363636  0.545455 -0.363636      4.000000
 -0.363636 -0.363636  0.545455      2.000000
  0.363636  0.545455  0.363636      4.000000
 -0.545455  0.363636  0.363636      4.000000
  0.363636  0.363636  0.545455      2.000000
  0.545455 -0.545455 -0.363636      4.000000
 -0.363636  0.545455 -0.545455      4.000000
 -0.545455 -0.363636  0.545455      4.000000
 -0.454545 -0.454545  0.636364      2.000000
  0.454545 -1.363636  0.454545      4.000000
 -0.636364  0.454545  0.454545      4.000000
  0.454545  0.454545 -1.363636      2.000000
  0.454545 -0.454545 -0.272727      4.000000
 -0.272727  0.454545 -0.454545      4.000000
 -0.454545 -0.272727  0.454545      4.000000
  0.454545  0.454545 -0.272727      2.000000
 -0.454545 -0.272727 -0.454545      4.000000
  0.272727 -0.454545 -0.454545      4.000000
 -0.454545 -0.454545 -0.272727      2.000000
  0.363636 -0.363636 -0.181818      4.000000
 -0.181818  0.363636 -0.363636      4.000000
 -0.363636 -0.181818  0.363636      4.000000
  0.363636  0.363636 -0.181818      2.000000
 -0.363636 -0.181818 -0.363636      4.000000
  0.181818 -0.363636 -0.363636      4.000000
 -0.363636 -0.363636 -0.181818      2.000000
  0.272727 -0.272727 -0.090909      4.000000
 -0.090909  0.272727 -0.272727      4.000000
 -0.272727 -0.090909  0.272727      4.000000
  0.272727  0.272727 -0.090909      2.000000
 -0.272727 -0.090909 -0.272727      4.000000
  0.090909 -0.272727 -0.272727      4.000000
 -0.272727 -0.272727 -0.090909      2.000000
  0.181818 -0.181818 -0.000000      2.000000
  0.000000  0.181818 -0.181818      4.000000
  0.181818  0.181818 -0.000000      2.000000
 -0.181818 -0.000000 -0.181818      4.000000
 -0.000000  0.000000  0.363636      2.000000
  0.363636  0.000000 -0.000000      4.000000
 -0.090909  0.090909  0.454545      4.000000
  0.454545 -0.090909  0.090909      4.000000
  0.090909  0.454545 -0.090909      4.000000
 -0.090909 -0.090909  0.454545      2.000000
  0.090909  0.454545  0.090909      4.000000
 -0.454545  0.090909  0.090909      4.000000
  0.090909  0.090909  0.454545      2.000000
 -0.181818  0.181818  0.545455      4.000000
  0.545455 -0.181818  0.181818      4.000000
  0.181818  0.545455 -0.181818      4.000000
 -0.181818 -0.181818  0.545455      2.000000
  0.181818  0.545455  0.181818      4.000000
 -0.545455  0.181818  0.181818      4.000000
  0.181818  0.181818  0.545455      2.000000
 -0.272727  0.272727  0.636364      4.000000
  0.636364 -0.272727  0.272727      4.000000
  0.272727  0.636364 -0.272727      4.000000
 -0.272727 -0.272727  0.636364      2.000000
  0.272727  0.636364  0.272727      4.000000
 -0.636364  0.272727  0.272727      4.000000
  0.272727  0.272727  0.636364      2.000000
  0.636364 -0.636364 -0.272727      4.000000
 -0.272727  0.636364 -0.636364      4.000000
 -0.636364 -0.272727  0.636364      4.000000
 -0.363636 -0.363636  0.727273      2.000000
  0.363636 -1.272727  0.363636      4.000000
 -0.727273  0.363636  0.363636      4.000000
  0.363636  0.363636 -1.272727      2.000000
  0.545455 -0.545455 -0.181818      4.000000
 -0.181818  0.545455 -0.545455      4.000000
 -0.545455 -0.181818  0.545455      4.000000
 -0.454545 -0.454545  0.818182      2.000000
  0.454545 -1.181818  0.454545      4.000000
 -0.818182  0.454545  0.454545      4.000000
  0.454545  0.454545 -1.181818      2.000000
  0.454545 -0.454545 -0.090909      4.000000
 -0.090909  0.454545 -0.454545      4.000000
 -0.454545 -0.090909  0.454545      4.000000
  0.454545  0.454545 -0.090909      2.000000
 -0.454545 -0.090909 -0.454545      4.000000
  0.090909 -0.454545 -0.454545      4.000000
 -0.454545 -0.454545 -0.090909      2.000000
  0.363636 -0.363636 -0.000000      2.000000
  0.000000  0.363636 -0.363636      4.000000
  0.363636  0.363636 -0.000000      2.000000
 -0.363636 -0.000000 -0.363636      4.000000
 -0.000000 -0.000000  0.545455      2.000000
  0.545455 -0.000000  0.000000      4.000000
 -0.090909  0.090909  0.636364      4.000000
  0.636364 -0.090909  0.090909      4.000000
  0.090909  0.636364 -0.090909      4.000000
 -0.090909 -0.090909  0.636364      2.000000
  0.090909  0.636364  0.090909      4.000000
 -0.636364  0.090909  0.090909      4.000000
  0.090909  0.090909  0.636364      2.000000
 -0.181818  0.181818  0.727273      4.000000
  0.727273 -0.181818  0.181818      4.000000
  0.181818  0.727273 -0.181818      4.000000
 -0.181818 -0.181818  0.727273      2.000000
  0.181818  0.727273  0.181818      4.000000
 -0.727273  0.181818  0.181818      4.000000
  0.181818  0.181818  0.727273      2.000000
  0.727273 -0.727273 -0.181818      4.000000
 -0.181818  0.727273 -0.727273      4.000000
 -0.727273 -0.181818  0.727273      4.000000
 -0.272727 -0.272727  0.818182      2.000000
  0.272727 -1.181818  0.272727      4.000000
 -0.818182  0.272727  0.272727      4.000000
  0.272727  0.272727 -1.181818      2.000000
  0.636364 -0.636364 -0.090909      4.000000
 -0.090909  0.636364 -0.636364      4.000000
 -0.636364 -0.090909  0.636364      4.000000
 -0.363636 -0.363636  0.909091      2.000000
  0.363636 -1.090909  0.363636      4.000000
 -0.909091  0.363636  0.363636      4.000000
  0.363636  0.363636 -1.090909      2.000000
  0.545455 -0.545455 -0.000000      2.000000
 -0.000000  0.545455 -0.545455      4.000000
 -0.454545 -0.454545  1.000000      2.000000
  0.454545 -1.000000  0.454545      4.000000
 -0.000000  0.000000  0.727273      2.000000
  0.727273  0.000000 -0.000000      4.000000
 -0.090909  0.090909  0.818182      4.000000
  0.818182 -0.090909  0.090909      4.000000
  0.090909  0.818182 -0.090909      4.000000
 -0.090909 -0.090909  0.818182      2.000000
  0.090909  0.818182  0.090909      4.000000
 -0.818182  0.090909  0.090909      4.000000
  0.090909  0.090909  0.818182      2.000000
  0.818182 -0.818182 -0.090909      4.000000
 -0.090909  0.818182 -0.818182      4.000000
 -0.818182 -0.090909  0.818182      4.000000
 -0.181818 -0.181818  0.909091      2.000000
  0.181818 -1.090909  0.181818      4.000000
 -0.909091  0.181818  0.181818      4.000000
  0.181818  0.181818 -1.090909      2.000000
  0.727273 -0.727273 -0.000000      2.000000
  0.000000  0.727273 -0.727273      4.000000
 -0.272727 -0.272727  1.000000      2.000000
  0.272727 -1.000000  0.272727      4.000000
 -0.000000  0.000000  0.909091      2.000000
  0.909091  0.000000 -0.000000      4.000000
  0.909091 -0.909091 -0.000000      2.000000
  0.000000  0.909091 -0.909091      4.000000
 -0.090909 -0.090909  1.000000      2.000000
  0.090909 -1.000000  0.090909      4.000000
  0.000000  0.181818  0.363636      4.000000
  0.363636  0.000000  0.181818      4.000000
  0.181818  0.363636  0.000000      4.000000
 -0.181818 -0.000000  0.363636      4.000000
 -0.363636  0.181818  0.000000      4.000000
 -0.363636 -0.000000  0.181818      4.000000
 -0.090909  0.272727  0.454545      4.000000
  0.454545 -0.090909  0.272727      4.000000
  0.272727  0.454545 -0.090909      4.000000
 -0.272727 -0.090909  0.454545      4.000000
  0.090909  0.454545  0.272727      4.000000
 -0.454545  0.272727 -0.090909      4.000000
  0.090909 -0.272727  0.454545      4.000000
 -0.454545  0.090909  0.272727      4.000000
 -0.272727 -0.454545 -0.090909      4.000000
  0.272727  0.090909  0.454545      4.000000
 -0.090909 -0.454545  0.272727      4.000000
  0.454545 -0.272727 -0.090909      4.000000
 -0.181818  0.363636  0.545455      4.000000
  0.545455 -0.181818  0.363636      4.000000
  0.363636  0.545455 -0.181818      4.000000
 -0.363636 -0.181818  0.545455      4.000000
  0.181818  0.545455  0.363636      4.000000
 -0.545455  0.363636 -0.181818      4.000000
  0.181818 -0.363636  0.545455      4.000000
 -0.545455  0.181818  0.363636      4.000000
 -0.363636 -0.545455 -0.181818      4.000000
  0.363636  0.181818  0.545455      4.000000
 -0.181818 -0.545455  0.363636      4.000000
  0.545455 -0.363636 -0.181818      4.000000
  0.727273 -0.545455 -0.363636      4.000000
 -0.363636  0.727273 -0.545455      4.000000
 -0.545455 -0.363636  0.727273      4.000000
 -0.454545 -0.272727  0.636364      4.000000
  1.272727 -0.363636 -0.545455      4.000000
 -0.636364  0.454545 -0.272727      4.000000
  0.272727 -0.454545  0.636364      4.000000
 -0.636364  0.272727  0.454545      4.000000
  0.545455  0.363636 -1.272727      4.000000
 -0.545455  1.272727 -0.363636      4.000000
 -0.272727 -0.636364  0.454545      4.000000
  0.636364 -0.454545 -0.272727      4.000000
  0.000000  0.181818  0.545455      4.000000
  0.545455  0.000000  0.181818      4.000000
  0.181818  0.545455 -0.000000      4.000000
 -0.181818 -0.000000  0.545455      4.000000
 -0.545455  0.181818 -0.000000      4.000000
 -0.545455  0.000000  0.181818      4.000000
 -0.090909  0.272727  0.636364      4.000000
  0.636364 -0.090909  0.272727      4.000000
  0.272727  0.636364 -0.090909      4.000000
 -0.272727 -0.090909  0.636364      4.000000
  0.090909  0.636364  0.272727      4.000000
 -0.636364  0.272727 -0.090909      4.000000
  0.090909 -0.272727  0.636364      4.000000
 -0.636364  0.090909  0.272727      4.000000
 -0.272727 -0.636364 -0.090909      4.000000
  0.272727  0.090909  0.636364      4.000000
 -0.090909 -0.636364  0.272727      4.000000
  0.636364 -0.272727 -0.090909      4.000000
  0.818182 -0.636364 -0.272727      4.000000
 -0.272727  0.818182 -0.636364      4.000000
 -0.636364 -0.272727  0.818182      4.000000
 -0.363636 -0.181818  0.727273      4.000000
  1.181818 -0.272727 -0.636364      4.000000
 -0.727273  0.363636 -0.181818      4.000000
  0.181818 -0.363636  0.727273      4.000000
 -0.727273  0.181818  0.363636      4.000000
  0.636364  0.272727 -1.181818      4.000000
 -0.636364  1.181818 -0.272727      4.000000
 -0.181818 -0.727273  0.363636      4.000000
  0.727273 -0.363636 -0.181818      4.000000
  0.727273 -0.545455 -0.181818      4.000000
 -0.181818  0.727273 -0.545455      4.000000
 -0.545455 -0.181818  0.727273      4.000000
 -0.454545 -0.272727  0.818182      4.000000
  0.272727 -1.181818  0.454545      4.000000
  0.181818 -0.545455  0.727273      4.000000
 -0.727273  0.545455 -0.181818      4.000000
 -0.818182  0.272727  0.454545      4.000000
 -0.454545  1.181818 -0.272727      4.000000
  0.454545  0.272727 -1.181818      4.000000
  0.727273  0.181818 -0.545455      4.000000
  0.818182 -0.454545 -0.272727      4.000000
  0.636364 -0.454545 -0.090909      4.000000
 -0.090909  0.636364 -0.454545      4.000000
 -0.454545 -0.090909  0.636364      4.000000
 -0.545455 -0.363636  0.909091      4.000000
  0.363636 -1.090909  0.545455      4.000000
  0.090909 -0.454545  0.636364      4.000000
 -0.636364  0.454545 -0.090909      4.000000
 -0.909091  0.363636  0.545455      4.000000
 -0.545455  1.090909 -0.363636      4.000000
  0.545455  0.363636 -1.090909      4.000000
  0.636364  0.090909 -0.454545      4.000000
  0.909091 -0.545455 -0.363636      4.000000
  0.545455 -0.363636  0.000000      4.000000
 -0.000000  0.545455 -0.363636      4.000000
 -0.363636 -0.000000  0.545455      4.000000
  0.363636  0.545455 -0.000000      4.000000
 -0.545455  0.000000 -0.363636      4.000000
  0.363636  0.000000  0.545455      4.000000
  0.000000  0.181818  0.727273      4.000000
  0.727273  0.000000  0.181818      4.000000
  0.181818  0.727273  0.000000      4.000000
 -0.181818  0.000000  0.727273      4.000000
 -0.727273  0.181818  0.000000      4.000000
 -0.727273 -0.000000  0.181818      4.000000
  0.909091 -0.727273 -0.181818      4.000000
 -0.181818  0.909091 -0.727273      4.000000
 -0.727273 -0.181818  0.909091      4.000000
 -0.272727 -0.090909  0.818182      4.000000
  1.090909 -0.181818 -0.727273      4.000000
 -0.818182  0.272727 -0.090909      4.000000
  0.090909 -0.272727  0.818182      4.000000
 -0.818182  0.090909  0.272727      4.000000
  0.727273  0.181818 -1.090909      4.000000
 -0.727273  1.090909 -0.181818      4.000000
 -0.090909 -0.818182  0.272727      4.000000
  0.818182 -0.272727 -0.090909      4.000000
  0.818182 -0.636364 -0.090909      4.000000
 -0.090909  0.818182 -0.636364      4.000000
 -0.636364 -0.090909  0.818182      4.000000
 -0.363636 -0.181818  0.909091      4.000000
  0.181818 -1.090909  0.363636      4.000000
  0.090909 -0.636364  0.818182      4.000000
 -0.818182  0.636364 -0.090909      4.000000
 -0.909091  0.181818  0.363636      4.000000
 -0.363636  1.090909 -0.181818      4.000000
  0.363636  0.181818 -1.090909      4.000000
  0.818182  0.090909 -0.636364      4.000000
  0.909091 -0.363636 -0.181818      4.000000
  0.727273 -0.545455 -0.000000      4.000000
  0.000000  0.727273 -0.545455      4.000000
 -0.545455  0.000000  0.727273      4.000000
 -0.454545 -0.272727  1.000000      4.000000
  0.272727 -1.000000  0.454545      4.000000
 -0.454545  1.000000 -0.272727      4.000000
  1.000000 -0.818182 -0.090909      4.000000
 -0.090909  1.000000 -0.818182      4.000000
 -0.818182 -0.090909  1.000000      4.000000
 -0.181818 -0.000000  0.909091      4.000000
 -0.909091  0.181818  0.000000      4.000000
 -0.909091 -0.000000  0.181818      4.000000
  0.909091 -0.727273 -0.000000      4.000000
 -0.000000  0.909091 -0.727273      4.000000
 -0.727273 -0.000000  0.909091      4.000000
 -0.272727 -0.090909  1.000000      4.000000
  0.090909 -1.000000  0.272727      4.000000
 -0.272727  1.000000 -0.090909      4.000000
  1.000000 -0.636364 -0.272727      4.000000
 -0.272727  1.000000 -0.636364      4.000000
 -0.636364 -0.272727  1.000000      4.000000
 -0.363636  0.000000  0.727273      4.000000
 -0.727273  0.363636  0.000000      4.000000
 -0.727273 -0.000000  0.363636      4.000000
  0.909091 -0.545455 -0.181818      4.000000
 -0.181818  0.909091 -0.545455      4.000000
 -0.545455 -0.181818  0.909091      4.000000
 -0.454545 -0.090909  0.818182      4.000000
  1.090909 -0.181818 -0.545455      4.000000
 -0.818182  0.454545 -0.090909      4.000000
  0.090909 -0.454545  0.818182      4.000000
 -0.818182  0.090909  0.454545      4.000000
  0.545455  0.181818 -1.090909      4.000000
 -0.545455  1.090909 -0.181818      4.000000
 -0.090909 -0.818182  0.454545      4.000000
  0.818182 -0.454545 -0.090909      4.000000
  1.000000 -0.636364 -0.090909      4.000000
 -0.090909  1.000000 -0.636364      4.000000
 -0.636364 -0.090909  1.000000      4.000000
 -0.363636 -0.000000  0.909091      4.000000
 -0.909091  0.363636  0.000000      4.000000
 -0.909091 -0.000000  0.363636      4.000000
  0.909091 -0.545455 -0.000000      4.000000
  0.000000  0.909091 -0.545455      4.000000
 -0.545455  0.000000  0.909091      4.000000
 -0.454545 -0.090909  1.000000      4.000000
  0.090909 -1.000000  0.454545      4.000000
 -0.454545  1.000000 -0.090909      4.000000
 


--------------------------------------------------------------------------------------------------------




 Dimension of arrays:
   k-points           NKPTS =    366   k-points in BZ     NKDIM =    366   number of bands    NBANDS=      8
   number of dos      NEDOS =    301   number of ions     NIONS =      2
   non local maximal  LDIM  =      4   non local SUM 2l+1 LMDIM =      8
   total plane-waves  NPLWV =   4096
   max r-space proj   IRMAX =      1   max aug-charges    IRDMAX=   3492
   dimension x,y,z NGX =    16 NGY =   16 NGZ =   16
   dimension x,y,z NGXF=    32 NGYF=   32 NGZF=   32
   support grid    NGXF=    32 NGYF=   32 NGZF=   32
   ions per type =               2
   NGX,Y,Z   is equivalent  to a cutoff of   6.84,  6.84,  6.84 a.u.
   NGXF,Y,Z  is equivalent  to a cutoff of  13.68, 13.68, 13.68 a.u.

 SYSTEM =  diamond Si                              
 POSCAR =  cubic diamond Si                        

 Startparameter for this run:
   NWRITE =      2    write-flag & timer
   PREC   = normal    normal or accurate (medium, high low for compatibility)
   ISTART =      0    job   : 0-new  1-cont  2-samecut
   ICHARG =      2    charge: 1-file 2-atom 10-const
   ISPIN  =      1    spin polarized calculation?
   LNONCOLLINEAR =      F non collinear calculations
   LSORBIT =      F    spin-orbit coupling
   INIWAV =      1    electr: 0-lowe 1-rand  2-diag
   LASPH  =      F    aspherical Exc in radial PAW
 Electronic Relaxation 1
   ENCUT  =  240.0 eV  17.64 Ry    4.20 a.u.   4.91  4.91  4.91*2*pi/ulx,y,z
   ENINI  =  240.0     initial cutoff
   ENAUG  =  322.1 eV  augmentation charge cutoff
   NELM   =     60;   NELMIN=  2; NELMDL= -5     # of ELM steps 
   EDIFF  = 0.1E-03   stopping-criterion for ELM
   LREAL  =      F    real-space projection
   NLSPLINE    = F    spline interpolate recip. space projectors
   LCOMPAT=      F    compatible to vasp.4.4
   GGA_COMPAT  = T    GGA compatible to vasp.4.4-vasp.4.6
   LMAXPAW     = -100 max onsite density
   LMAXMIX     =    2 max onsite mixed and CHGCAR
   VOSKOWN=      0    Vosko Wilk Nusair interpolation
   ROPT   =    0.00000
 Ionic relaxation
   EDIFFG = -.1E-03   stopping-criterion for IOM
   NSW    =     10    number of steps for IOM
   NBLOCK =      1;   KBLOCK =     10    inner block; outer block 
   IBRION =      2    ionic relax: 0-MD 1-quasi-New 2-CG
   NFREE  =      1    steps in history (QN), initial steepest desc. (CG)
   ISIF   =      2    stress and relaxation
   IWAVPR =     11    prediction:  0-non 1-charg 2-wave 3-comb
   ISYM   =      2    0-nonsym 1-usesym 2-fastsym
   LCORR  =      T    Harris-Foulkes like correction to forces

   POTIM  = 0.5000    time-step for ionic-motion
   TEIN   =    0.0    initial temperature
   TEBEG  =    0.0;   TEEND  =   0.0 temperature during run
   SMASS  =  -3.00    Nose mass-parameter (am)
   estimated Nose-frequenzy (Omega)   =  0.10E-29 period in steps = 0.13E+47 mass=  -0.346E-27a.u.
   SCALEE = 1.0000    scale energy and forces
   NPACO  =    256;   APACO  = 10.0  distance and # of slots for P.C.
   PSTRESS=    0.0 pullay stress

  Mass of Ions in am
   POMASS =  28.09
  Ionic Valenz
   ZVAL   =   4.00
  Atomic Wigner-Seitz radii
   RWIGS  =  -1.00
  virtual crystal weights 
   VCA    =   1.00
   NELECT =       8.0000    total number of electrons
   NUPDOWN=      -1.0000    fix difference up-down

 DOS related values:
   EMIN   =  10.00;   EMAX   =-10.00  energy-range for DOS
   EFERMI =   0.00
   ISMEAR =     0;   SIGMA  =   0.10  broadening in eV -4-tet -1-fermi 0-gaus

 Electronic relaxation 2 (details)
   IALGO  =     38    algorithm
   LDIAG  =      T    sub-space diagonalisation (order eigenvalues)
   LSUBROT=      F    optimize rotation matrix (better conditioning)
   TURBO    =      0    0=normal 1=particle mesh
   IRESTART =      0    0=no restart 2=restart with 2 vectors
   NREBOOT  =      0    no. of reboots
   NMIN     =      0    reboot dimension
   EREF     =   0.00    reference energy to select bands
   IMIX   =      4    mixing-type and parameters
     AMIX     =   0.40;   BMIX     =  1.00
     AMIX_MAG =   1.60;   BMIX_MAG =  1.00
     AMIN     =   0.10
     WC   =   100.;   INIMIX=   1;  MIXPRE=   1;  MAXMIX= -45

 Intra band minimization:
   WEIMIN = 0.0010     energy-eigenvalue tresh-hold
   EBREAK =  0.31E-06  absolut break condition
   DEPER  =   0.30     relativ break condition  

   TIME   =   0.40     timestep for ELM

  volume/ion in A,a.u.               =      20.80       140.34
  Fermi-wavevector in a.u.,A,eV,Ry     =   0.944993  1.785779 12.150174  0.893013
  Thomas-Fermi vector in A             =   2.072852
 
 Write flags
   LWAVE        =      T    write WAVECAR
   LDOWNSAMPLE  =      F    k-point downsampling of WAVECAR
   LCHARG       =      T    write CHGCAR
   LVTOT        =      F    write LOCPOT, total local potential
   LVHAR        =      F    write LOCPOT, Hartree potential only
   LELF         =      F    write electronic localiz. function (ELF)
   LORBIT       =      0    0 simple, 1 ext, 2 COOP (PROOUT), +10 PAW based schemes


 Dipole corrections
   LMONO  =      F    monopole corrections only (constant potential shift)
   LDIPOL =      F    correct potential (dipole corrections)
   IDIPOL =      0    1-x, 2-y, 3-z, 4-all directions 
   EPSILON=  1.0000000 bulk dielectric constant

 Exchange correlation treatment:
   GGA     =    --    GGA type
   LEXCH   =     8    internal setting for exchange type
   LIBXC   =     F    Libxc                    
   VOSKOWN =     0    Vosko Wilk Nusair interpolation
   LHFCALC =     F    Hartree Fock is set to
   LHFONE  =     F    Hartree Fock one center treatment
   AEXX    =    0.0000 exact exchange contribution

 Linear response parameters
   LEPSILON=     F    determine dielectric tensor
   LRPA    =     F    only Hartree local field effects (RPA)
   LNABLA  =     F    use nabla operator in PAW spheres
   LVEL    =     F    velocity operator in full k-point grid
   CSHIFT  =0.1000    complex shift for real part using Kramers Kronig
   OMEGAMAX=  -1.0    maximum frequency
   DEG_THRESHOLD= 0.2000000E-02 threshold for treating states as degnerate
   RTIME   =   -0.100 relaxation time in fs
  (WPLASMAI=    0.000 imaginary part of plasma frequency in eV, 0.658/RTIME)
   DFIELD  = 0.0000000 0.0000000 0.0000000 field for delta impulse in time
 
  Optional k-point grid parameters
   LKPOINTS_OPT  =     F    use optional k-point grid
   KPOINTS_OPT_MODE=     1    mode for optional k-point grid
 
 Orbital magnetization related:
   ORBITALMAG=     F  switch on orbital magnetization
   LCHIMAG   =     F  perturbation theory with respect to B field
   DQ        =  0.001000  dq finite difference perturbation B field
   LLRAUG    =     F  two centre corrections for induced B field



--------------------------------------------------------------------------------------------------------


 conjugate gradient relaxation of ions
 charge density and potential will be updated during run
 non-spin polarized calculation
 Variant of blocked Davidson
 Davidson routine will perform the subspace rotation
 perform sub-space diagonalisation
    after iterative eigenvector-optimisation
 modified Broyden-mixing scheme, WC =      100.0
 initial mixing is a Kerker type mixing with AMIX =  0.4000 and BMIX =      1.0000
 Hartree-type preconditioning will be used
 using additional bands            4
 reciprocal scheme for non local part
 use partial core corrections
 calculate Harris-corrections to forces 
   (improved forces if not selfconsistent)
 use gradient corrections 
 use of overlap-Matrix (Vanderbilt PP)
 Gauss-broadening in eV      SIGMA  =   0.10


--------------------------------------------------------------------------------------------------------


  energy-cutoff  :      240.00
  volume of cell :       41.59
      direct lattice vectors                 reciprocal lattice vectors
     0.000000000  2.750000000  2.750000000    -0.181818182  0.181818182  0.181818182
     2.750000000  0.000000000  2.750000000     0.181818182 -0.181818182  0.181818182
     2.750000000  2.750000000  0.000000000     0.181818182  0.181818182 -0.181818182

  length of vectors
     3.889087297  3.889087297  3.889087297     0.314918329  0.314918329  0.314918329


 
 k-points in units of 2pi/SCALE and weight: k-points                                
   0.00000000  0.00000000  0.00000000       0.001
  -0.09090909  0.09090909  0.09090909       0.003
   0.09090909  0.09090909 -0.09090909       0.002
   0.09090909  0.09090909  0.09090909       0.002
  -0.18181818  0.18181818  0.18181818       0.003
   0.18181818  0.18181818 -0.18181818       0.002
   0.18181818  0.18181818  0.18181818       0.002
  -0.27272727  0.27272727  0.27272727       0.003
   0.27272727  0.27272727 -0.27272727       0.002
   0.27272727  0.27272727  0.27272727       0.002
  -0.36363636  0.36363636  0.36363636       0.003
   0.36363636  0.36363636 -0.36363636       0.002
   0.36363636  0.36363636  0.36363636       0.002
  -0.45454545  0.45454545  0.45454545       0.003
   0.45454545  0.45454545 -0.45454545       0.002
   0.45454545  0.45454545  0.45454545       0.002
  -0.00000000  0.00000000  0.18181818       0.002
   0.18181818  0.00000000 -0.00000000       0.003
  -0.09090909  0.09090909  0.27272727       0.003
   0.27272727 -0.09090909  0.09090909       0.003
   0.09090909  0.27272727 -0.09090909       0.003
  -0.09090909 -0.09090909  0.27272727       0.002
   0.09090909  0.27272727  0.09090909       0.003
  -0.27272727  0.09090909  0.09090909       0.003
   0.09090909  0.09090909  0.27272727       0.002
  -0.18181818  0.18181818  0.36363636       0.003
   0.36363636 -0.18181818  0.18181818       0.003
   0.18181818  0.36363636 -0.18181818       0.003
  -0.18181818 -0.18181818  0.36363636       0.002
   0.18181818  0.36363636  0.18181818       0.003
  -0.36363636  0.18181818  0.18181818       0.003
   0.18181818  0.18181818  0.36363636       0.002
  -0.27272727  0.27272727  0.45454545       0.003
   0.45454545 -0.27272727  0.27272727       0.003
   0.27272727  0.45454545 -0.27272727       0.003
  -0.27272727 -0.27272727  0.45454545       0.002
   0.27272727  0.45454545  0.27272727       0.003
  -0.45454545  0.27272727  0.27272727       0.003
   0.27272727  0.27272727  0.45454545       0.002
  -0.36363636  0.36363636  0.54545455       0.003
   0.54545455 -0.36363636  0.36363636       0.003
   0.36363636  0.54545455 -0.36363636       0.003
  -0.36363636 -0.36363636  0.54545455       0.002
   0.36363636  0.54545455  0.36363636       0.003
  -0.54545455  0.36363636  0.36363636       0.003
   0.36363636  0.36363636  0.54545455       0.002
   0.54545455 -0.54545455 -0.36363636       0.003
  -0.36363636  0.54545455 -0.54545455       0.003
  -0.54545455 -0.36363636  0.54545455       0.003
  -0.45454545 -0.45454545  0.63636364       0.002
   0.45454545 -1.36363636  0.45454545       0.003
  -0.63636364  0.45454545  0.45454545       0.003
   0.45454545  0.45454545 -1.36363636       0.002
   0.45454545 -0.45454545 -0.27272727       0.003
  -0.27272727  0.45454545 -0.45454545       0.003
  -0.45454545 -0.27272727  0.45454545       0.003
   0.45454545  0.45454545 -0.27272727       0.002
  -0.45454545 -0.27272727 -0.45454545       0.003
   0.27272727 -0.45454545 -0.45454545       0.003
  -0.45454545 -0.45454545 -0.27272727       0.002
   0.36363636 -0.36363636 -0.18181818       0.003
  -0.18181818  0.36363636 -0.36363636       0.003
  -0.36363636 -0.18181818  0.36363636       0.003
   0.36363636  0.36363636 -0.18181818       0.002
  -0.36363636 -0.18181818 -0.36363636       0.003
   0.18181818 -0.36363636 -0.36363636       0.003
  -0.36363636 -0.36363636 -0.18181818       0.002
   0.27272727 -0.27272727 -0.09090909       0.003
  -0.09090909  0.27272727 -0.27272727       0.003
  -0.27272727 -0.09090909  0.27272727       0.003
   0.27272727  0.27272727 -0.09090909       0.002
  -0.27272727 -0.09090909 -0.27272727       0.003
   0.09090909 -0.27272727 -0.27272727       0.003
  -0.27272727 -0.27272727 -0.09090909       0.002
   0.18181818 -0.18181818 -0.00000000       0.002
   0.00000000  0.18181818 -0.18181818       0.003
   0.18181818  0.18181818 -0.00000000       0.002
  -0.18181818 -0.00000000 -0.18181818       0.003
  -0.00000000  0.00000000  0.36363636       0.002
   0.36363636  0.00000000 -0.00000000       0.003
  -0.09090909  0.09090909  0.45454545       0.003
   0.45454545 -0.09090909  0.09090909       0.003
   0.09090909  0.45454545 -0.09090909       0.003
  -0.09090909 -0.09090909  0.45454545       0.002
   0.09090909  0.45454545  0.09090909       0.003
  -0.45454545  0.09090909  0.09090909       0.003
   0.09090909  0.09090909  0.45454545       0.002
  -0.18181818  0.18181818  0.54545455       0.003
   0.54545455 -0.18181818  0.18181818       0.003
   0.18181818  0.54545455 -0.18181818       0.003
  -0.18181818 -0.18181818  0.54545455       0.002
   0.18181818  0.54545455  0.18181818       0.003
  -0.54545455  0.18181818  0.18181818       0.003
   0.18181818  0.18181818  0.54545455       0.002
  -0.27272727  0.27272727  0.63636364       0.003
   0.63636364 -0.27272727  0.27272727       0.003
   0.27272727  0.63636364 -0.27272727       0.003
  -0.27272727 -0.27272727  0.63636364       0.002
   0.27272727  0.63636364  0.27272727       0.003
  -0.63636364  0.27272727  0.27272727       0.003
   0.27272727  0.27272727  0.63636364       0.002
   0.63636364 -0.63636364 -0.27272727       0.003
  -0.27272727  0.63636364 -0.63636364       0.003
  -0.63636364 -0.27272727  0.63636364       0.003
  -0.36363636 -0.36363636  0.72727273       0.002
   0.36363636 -1.27272727  0.36363636       0.003
  -0.72727273  0.36363636  0.36363636       0.003
   0.36363636  0.36363636 -1.27272727       0.002
   0.54545455 -0.54545455 -0.18181818       0.003
  -0.18181818  0.54545455 -0.54545455       0.003
  -0.54545455 -0.18181818  0.54545455       0.003
  -0.45454545 -0.45454545  0.81818182       0.002
   0.45454545 -1.18181818  0.45454545       0.003
  -0.81818182  0.45454545  0.45454545       0.003
   0.45454545  0.45454545 -1.18181818       0.002
   0.45454545 -0.45454545 -0.09090909       0.003
  -0.09090909  0.45454545 -0.45454545       0.003
  -0.45454545 -0.09090909  0.45454545       0.003
   0.45454545  0.45454545 -0.09090909       0.002
  -0.45454545 -0.09090909 -0.45454545       0.003
   0.09090909 -0.45454545 -0.45454545       0.003
  -0.45454545 -0.45454545 -0.09090909       0.002
   0.36363636 -0.36363636 -0.00000000       0.002
   0.00000000  0.36363636 -0.36363636       0.003
   0.36363636  0.36363636 -0.00000000       0.002
  -0.36363636 -0.00000000 -0.36363636       0.003
  -0.00000000 -0.00000000  0.54545455       0.002
   0.54545455 -0.00000000  0.00000000       0.003
  -0.09090909  0.09090909  0.63636364       0.003
   0.63636364 -0.09090909  0.09090909       0.003
   0.09090909  0.63636364 -0.09090909       0.003
  -0.09090909 -0.09090909  0.63636364       0.002
   0.09090909  0.63636364  0.09090909       0.003
  -0.63636364  0.09090909  0.09090909       0.003
   0.09090909  0.09090909  0.63636364       0.002
  -0.18181818  0.18181818  0.72727273       0.003
   0.72727273 -0.18181818  0.18181818       0.003
   0.18181818  0.72727273 -0.18181818       0.003
  -0.18181818 -0.18181818  0.72727273       0.002
   0.18181818  0.72727273  0.18181818       0.003
  -0.72727273  0.18181818  0.18181818       0.003
   0.18181818  0.18181818  0.72727273       0.002
   0.72727273 -0.72727273 -0.18181818       0.003
  -0.18181818  0.72727273 -0.72727273       0.003
  -0.72727273 -0.18181818  0.72727273       0.003
  -0.27272727 -0.27272727  0.81818182       0.002
   0.27272727 -1.18181818  0.27272727       0.003
  -0.81818182  0.27272727  0.27272727       0.003
   0.27272727  0.27272727 -1.18181818       0.002
   0.63636364 -0.63636364 -0.09090909       0.003
  -0.09090909  0.63636364 -0.63636364       0.003
  -0.63636364 -0.09090909  0.63636364       0.003
  -0.36363636 -0.36363636  0.90909091       0.002
   0.36363636 -1.09090909  0.36363636       0.003
  -0.90909091  0.36363636  0.36363636       0.003
   0.36363636  0.36363636 -1.09090909       0.002
   0.54545455 -0.54545455 -0.00000000       0.002
  -0.00000000  0.54545455 -0.54545455       0.003
  -0.45454545 -0.45454545  1.00000000       0.002
   0.45454545 -1.00000000  0.45454545       0.003
  -0.00000000  0.00000000  0.72727273       0.002
   0.72727273  0.00000000 -0.00000000       0.003
  -0.09090909  0.09090909  0.81818182       0.003
   0.81818182 -0.09090909  0.09090909       0.003
   0.09090909  0.81818182 -0.09090909       0.003
  -0.09090909 -0.09090909  0.81818182       0.002
   0.09090909  0.81818182  0.09090909       0.003
  -0.81818182  0.09090909  0.09090909       0.003
   0.09090909  0.09090909  0.81818182       0.002
   0.81818182 -0.81818182 -0.09090909       0.003
  -0.09090909  0.81818182 -0.81818182       0.003
  -0.81818182 -0.09090909  0.81818182       0.003
  -0.18181818 -0.18181818  0.90909091       0.002
   0.18181818 -1.09090909  0.18181818       0.003
  -0.90909091  0.18181818  0.18181818       0.003
   0.18181818  0.18181818 -1.09090909       0.002
   0.72727273 -0.72727273 -0.00000000       0.002
   0.00000000  0.72727273 -0.72727273       0.003
  -0.27272727 -0.27272727  1.00000000       0.002
   0.27272727 -1.00000000  0.27272727       0.003
  -0.00000000  0.00000000  0.90909091       0.002
   0.90909091  0.00000000 -0.00000000       0.003
   0.90909091 -0.90909091 -0.00000000       0.002
   0.00000000  0.90909091 -0.90909091       0.003
  -0.09090909 -0.09090909  1.00000000       0.002
   0.09090909 -1.00000000  0.09090909       0.003
   0.00000000  0.18181818  0.36363636       0.003
   0.36363636  0.00000000  0.18181818       0.003
   0.18181818  0.36363636  0.00000000       0.003
  -0.18181818 -0.00000000  0.36363636       0.003
  -0.36363636  0.18181818  0.00000000       0.003
  -0.36363636 -0.00000000  0.18181818       0.003
  -0.09090909  0.27272727  0.45454545       0.003
   0.45454545 -0.09090909  0.27272727       0.003
   0.27272727  0.45454545 -0.09090909       0.003
  -0.27272727 -0.09090909  0.45454545       0.003
   0.09090909  0.45454545  0.27272727       0.003
  -0.45454545  0.27272727 -0.09090909       0.003
   0.09090909 -0.27272727  0.45454545       0.003
  -0.45454545  0.09090909  0.27272727       0.003
  -0.27272727 -0.45454545 -0.09090909       0.003
   0.27272727  0.09090909  0.45454545       0.003
  -0.09090909 -0.45454545  0.27272727       0.003
   0.45454545 -0.27272727 -0.09090909       0.003
  -0.18181818  0.36363636  0.54545455       0.003
   0.54545455 -0.18181818  0.36363636       0.003
   0.36363636  0.54545455 -0.18181818       0.003
  -0.36363636 -0.18181818  0.54545455       0.003
   0.18181818  0.54545455  0.36363636       0.003
  -0.54545455  0.36363636 -0.18181818       0.003
   0.18181818 -0.36363636  0.54545455       0.003
  -0.54545455  0.18181818  0.36363636       0.003
  -0.36363636 -0.54545455 -0.18181818       0.003
   0.36363636  0.18181818  0.54545455       0.003
  -0.18181818 -0.54545455  0.36363636       0.003
   0.54545455 -0.36363636 -0.18181818       0.003
   0.72727273 -0.54545455 -0.36363636       0.003
  -0.36363636  0.72727273 -0.54545455       0.003
  -0.54545455 -0.36363636  0.72727273       0.003
  -0.45454545 -0.27272727  0.63636364       0.003
   1.27272727 -0.36363636 -0.54545455       0.003
  -0.63636364  0.45454545 -0.27272727       0.003
   0.27272727 -0.45454545  0.63636364       0.003
  -0.63636364  0.27272727  0.45454545       0.003
   0.54545455  0.36363636 -1.27272727       0.003
  -0.54545455  1.27272727 -0.36363636       0.003
  -0.27272727 -0.63636364  0.45454545       0.003
   0.63636364 -0.45454545 -0.27272727       0.003
   0.00000000  0.18181818  0.54545455       0.003
   0.54545455  0.00000000  0.18181818       0.003
   0.18181818  0.54545455 -0.00000000       0.003
  -0.18181818 -0.00000000  0.54545455       0.003
  -0.54545455  0.18181818 -0.00000000       0.003
  -0.54545455  0.00000000  0.18181818       0.003
  -0.09090909  0.27272727  0.63636364       0.003
   0.63636364 -0.09090909  0.27272727       0.003
   0.27272727  0.63636364 -0.09090909       0.003
  -0.27272727 -0.09090909  0.63636364       0.003
   0.09090909  0.63636364  0.27272727       0.003
  -0.63636364  0.27272727 -0.09090909       0.003
   0.09090909 -0.27272727  0.63636364       0.003
  -0.63636364  0.09090909  0.27272727       0.003
  -0.27272727 -0.63636364 -0.09090909       0.003
   0.27272727  0.09090909  0.63636364       0.003
  -0.09090909 -0.63636364  0.27272727       0.003
   0.63636364 -0.27272727 -0.09090909       0.003
   0.81818182 -0.63636364 -0.27272727       0.003
  -0.27272727  0.81818182 -0.63636364       0.003
  -0.63636364 -0.27272727  0.81818182       0.003
  -0.36363636 -0.18181818  0.72727273       0.003
   1.18181818 -0.27272727 -0.63636364       0.003
  -0.72727273  0.36363636 -0.18181818       0.003
   0.18181818 -0.36363636  0.72727273       0.003
  -0.72727273  0.18181818  0.36363636       0.003
   0.63636364  0.27272727 -1.18181818       0.003
  -0.63636364  1.18181818 -0.27272727       0.003
  -0.18181818 -0.72727273  0.36363636       0.003
   0.72727273 -0.36363636 -0.18181818       0.003
   0.72727273 -0.54545455 -0.18181818       0.003
  -0.18181818  0.72727273 -0.54545455       0.003
  -0.54545455 -0.18181818  0.72727273       0.003
  -0.45454545 -0.27272727  0.81818182       0.003
   0.27272727 -1.18181818  0.45454545       0.003
   0.18181818 -0.54545455  0.72727273       0.003
  -0.72727273  0.54545455 -0.18181818       0.003
  -0.81818182  0.27272727  0.45454545       0.003
  -0.45454545  1.18181818 -0.27272727       0.003
   0.45454545  0.27272727 -1.18181818       0.003
   0.72727273  0.18181818 -0.54545455       0.003
   0.81818182 -0.45454545 -0.27272727       0.003
   0.63636364 -0.45454545 -0.09090909       0.003
  -0.09090909  0.63636364 -0.45454545       0.003
  -0.45454545 -0.09090909  0.63636364       0.003
  -0.54545455 -0.36363636  0.90909091       0.003
   0.36363636 -1.09090909  0.54545455       0.003
   0.09090909 -0.45454545  0.63636364       0.003
  -0.63636364  0.45454545 -0.09090909       0.003
  -0.90909091  0.36363636  0.54545455       0.003
  -0.54545455  1.09090909 -0.36363636       0.003
   0.54545455  0.36363636 -1.09090909       0.003
   0.63636364  0.09090909 -0.45454545       0.003
   0.90909091 -0.54545455 -0.36363636       0.003
   0.54545455 -0.36363636  0.00000000       0.003
  -0.00000000  0.54545455 -0.36363636       0.003
  -0.36363636 -0.00000000  0.54545455       0.003
   0.36363636  0.54545455 -0.00000000       0.003
  -0.54545455  0.00000000 -0.36363636       0.003
   0.36363636  0.00000000  0.54545455       0.003
   0.00000000  0.18181818  0.72727273       0.003
   0.72727273  0.00000000  0.18181818       0.003
   0.18181818  0.72727273  0.00000000       0.003
  -0.18181818  0.00000000  0.72727273       0.003
  -0.72727273  0.18181818  0.00000000       0.003
  -0.72727273 -0.00000000  0.18181818       0.003
   0.90909091 -0.72727273 -0.18181818       0.003
  -0.18181818  0.90909091 -0.72727273       0.003
  -0.72727273 -0.18181818  0.90909091       0.003
  -0.27272727 -0.09090909  0.81818182       0.003
   1.09090909 -0.18181818 -0.72727273       0.003
  -0.81818182  0.27272727 -0.09090909       0.003
   0.09090909 -0.27272727  0.81818182       0.003
  -0.81818182  0.09090909  0.27272727       0.003
   0.72727273  0.18181818 -1.09090909       0.003
  -0.72727273  1.09090909 -0.18181818       0.003
  -0.09090909 -0.81818182  0.27272727       0.003
   0.81818182 -0.27272727 -0.09090909       0.003
   0.81818182 -0.63636364 -0.09090909       0.003
  -0.09090909  0.81818182 -0.63636364       0.003
  -0.63636364 -0.09090909  0.81818182       0.003
  -0.36363636 -0.18181818  0.90909091       0.003
   0.18181818 -1.09090909  0.36363636       0.003
   0.09090909 -0.63636364  0.81818182       0.003
  -0.81818182  0.63636364 -0.09090909       0.003
  -0.90909091  0.18181818  0.36363636       0.003
  -0.36363636  1.09090909 -0.18181818       0.003
   0.36363636  0.18181818 -1.09090909       0.003
   0.81818182  0.09090909 -0.63636364       0.003
   0.90909091 -0.36363636 -0.18181818       0.003
   0.72727273 -0.54545455 -0.00000000       0.003
   0.00000000  0.72727273 -0.54545455       0.003
  -0.54545455  0.00000000  0.72727273       0.003
  -0.45454545 -0.27272727  1.00000000       0.003
   0.27272727 -1.00000000  0.45454545       0.003
  -0.45454545  1.00000000 -0.27272727       0.003
   1.00000000 -0.81818182 -0.09090909       0.003
  -0.09090909  1.00000000 -0.81818182       0.003
  -0.81818182 -0.09090909  1.00000000       0.003
  -0.18181818 -0.00000000  0.90909091       0.003
  -0.90909091  0.18181818  0.00000000       0.003
  -0.90909091 -0.00000000  0.18181818       0.003
   0.90909091 -0.72727273 -0.00000000       0.003
  -0.00000000  0.90909091 -0.72727273       0.003
  -0.72727273 -0.00000000  0.90909091       0.003
  -0.27272727 -0.09090909  1.00000000       0.003
   0.09090909 -1.00000000  0.27272727       0.003
  -0.27272727  1.00000000 -0.09090909       0.003
   1.00000000 -0.63636364 -0.27272727       0.003
  -0.27272727  1.00000000 -0.63636364       0.003
  -0.63636364 -0.27272727  1.00000000       0.003
  -0.36363636  0.00000000  0.72727273       0.003
  -0.72727273  0.36363636  0.00000000       0.003
  -0.72727273 -0.00000000  0.36363636       0.003
   0.90909091 -0.54545455 -0.18181818       0.003
  -0.18181818  0.90909091 -0.54545455       0.003
  -0.54545455 -0.18181818  0.90909091       0.003
  -0.45454545 -0.09090909  0.81818182       0.003
   1.09090909 -0.18181818 -0.54545455       0.003
  -0.81818182  0.45454545 -0.09090909       0.003
   0.09090909 -0.45454545  0.81818182       0.003
  -0.81818182  0.09090909  0.45454545       0.003
   0.54545455  0.18181818 -1.09090909       0.003
  -0.54545455  1.09090909 -0.18181818       0.003
  -0.09090909 -0.81818182  0.45454545       0.003
   0.81818182 -0.45454545 -0.09090909       0.003
   1.00000000 -0.63636364 -0.09090909       0.003
  -0.09090909  1.00000000 -0.63636364       0.003
  -0.63636364 -0.09090909  1.00000000       0.003
  -0.36363636 -0.00000000  0.90909091       0.003
  -0.90909091  0.36363636  0.00000000       0.003
  -0.90909091 -0.00000000  0.36363636       0.003
   0.90909091 -0.54545455 -0.00000000       0.003
   0.00000000  0.90909091 -0.54545455       0.003
  -0.54545455  0.00000000  0.90909091       0.003
  -0.45454545 -0.09090909  1.00000000       0.003
   0.09090909 -1.00000000  0.45454545       0.003
  -0.45454545  1.00000000 -0.09090909       0.003
 
 k-points in reciprocal lattice and weights: k-points                                
   0.00000000  0.00000000  0.00000000       0.001
   0.09090909  0.00000000  0.00000000       0.003
   0.00000000  0.00000000  0.09090909       0.002
   0.09090909  0.09090909  0.09090909       0.002
   0.18181818 -0.00000000  0.00000000       0.003
   0.00000000  0.00000000  0.18181818       0.002
   0.18181818  0.18181818  0.18181818       0.002
   0.27272727  0.00000000 -0.00000000       0.003
  -0.00000000 -0.00000000  0.27272727       0.002
   0.27272727  0.27272727  0.27272727       0.002
   0.36363636 -0.00000000  0.00000000       0.003
   0.00000000  0.00000000  0.36363636       0.002
   0.36363636  0.36363636  0.36363636       0.002
   0.45454545  0.00000000 -0.00000000       0.003
  -0.00000000 -0.00000000  0.45454545       0.002
   0.45454545  0.45454545  0.45454545       0.002
   0.09090909  0.09090909 -0.00000000       0.002
   0.00000000  0.09090909  0.09090909       0.003
   0.18181818  0.09090909  0.00000000       0.003
   0.00000000  0.18181818  0.09090909       0.003
   0.09090909 -0.00000000  0.18181818       0.003
   0.09090909  0.09090909 -0.09090909       0.002
   0.18181818  0.09090909  0.18181818       0.003
   0.09090909 -0.09090909 -0.09090909       0.003
   0.18181818  0.18181818  0.09090909       0.002
   0.27272727  0.09090909  0.00000000       0.003
  -0.00000000  0.27272727  0.09090909       0.003
   0.09090909  0.00000000  0.27272727       0.003
   0.09090909  0.09090909 -0.18181818       0.002
   0.27272727  0.18181818  0.27272727       0.003
   0.18181818 -0.09090909 -0.09090909       0.003
   0.27272727  0.27272727  0.18181818       0.002
   0.36363636  0.09090909 -0.00000000       0.003
  -0.00000000  0.36363636  0.09090909       0.003
   0.09090909 -0.00000000  0.36363636       0.003
   0.09090909  0.09090909 -0.27272727       0.002
   0.36363636  0.27272727  0.36363636       0.003
   0.27272727 -0.09090909 -0.09090909       0.003
   0.36363636  0.36363636  0.27272727       0.002
   0.45454545  0.09090909  0.00000000       0.003
  -0.00000000  0.45454545  0.09090909       0.003
   0.09090909  0.00000000  0.45454545       0.003
   0.09090909  0.09090909 -0.36363636       0.002
   0.45454545  0.36363636  0.45454545       0.003
   0.36363636 -0.09090909 -0.09090909       0.003
   0.45454545  0.45454545  0.36363636       0.002
  -0.45454545  0.09090909  0.00000000       0.003
  -0.00000000 -0.45454545  0.09090909       0.003
   0.09090909 -0.00000000 -0.45454545       0.003
   0.09090909  0.09090909 -0.45454545       0.002
  -0.45454545  0.45454545 -0.45454545       0.003
   0.45454545 -0.09090909 -0.09090909       0.003
  -0.45454545 -0.45454545  0.45454545       0.002
  -0.36363636  0.09090909 -0.00000000       0.003
   0.00000000 -0.36363636  0.09090909       0.003
   0.09090909  0.00000000 -0.36363636       0.003
   0.09090909  0.09090909  0.45454545       0.002
  -0.36363636 -0.45454545 -0.36363636       0.003
  -0.45454545 -0.09090909 -0.09090909       0.003
  -0.36363636 -0.36363636 -0.45454545       0.002
  -0.27272727  0.09090909 -0.00000000       0.003
   0.00000000 -0.27272727  0.09090909       0.003
   0.09090909 -0.00000000 -0.27272727       0.003
   0.09090909  0.09090909  0.36363636       0.002
  -0.27272727 -0.36363636 -0.27272727       0.003
  -0.36363636 -0.09090909 -0.09090909       0.003
  -0.27272727 -0.27272727 -0.36363636       0.002
  -0.18181818  0.09090909  0.00000000       0.003
  -0.00000000 -0.18181818  0.09090909       0.003
   0.09090909 -0.00000000 -0.18181818       0.003
   0.09090909  0.09090909  0.27272727       0.002
  -0.18181818 -0.27272727 -0.18181818       0.003
  -0.27272727 -0.09090909 -0.09090909       0.003
  -0.18181818 -0.18181818 -0.27272727       0.002
  -0.09090909  0.09090909 -0.00000000       0.002
   0.00000000 -0.09090909  0.09090909       0.003
   0.09090909  0.09090909  0.18181818       0.002
  -0.09090909 -0.18181818 -0.09090909       0.003
   0.18181818  0.18181818 -0.00000000       0.002
   0.00000000  0.18181818  0.18181818       0.003
   0.27272727  0.18181818  0.00000000       0.003
   0.00000000  0.27272727  0.18181818       0.003
   0.18181818 -0.00000000  0.27272727       0.003
   0.18181818  0.18181818 -0.09090909       0.002
   0.27272727  0.09090909  0.27272727       0.003
   0.09090909 -0.18181818 -0.18181818       0.003
   0.27272727  0.27272727  0.09090909       0.002
   0.36363636  0.18181818  0.00000000       0.003
   0.00000000  0.36363636  0.18181818       0.003
   0.18181818  0.00000000  0.36363636       0.003
   0.18181818  0.18181818 -0.18181818       0.002
   0.36363636  0.18181818  0.36363636       0.003
   0.18181818 -0.18181818 -0.18181818       0.003
   0.36363636  0.36363636  0.18181818       0.002
   0.45454545  0.18181818  0.00000000       0.003
  -0.00000000  0.45454545  0.18181818       0.003
   0.18181818  0.00000000  0.45454545       0.003
   0.18181818  0.18181818 -0.27272727       0.002
   0.45454545  0.27272727  0.45454545       0.003
   0.27272727 -0.18181818 -0.18181818       0.003
   0.45454545  0.45454545  0.27272727       0.002
  -0.45454545  0.18181818  0.00000000       0.003
  -0.00000000 -0.45454545  0.18181818       0.003
   0.18181818  0.00000000 -0.45454545       0.003
   0.18181818  0.18181818 -0.36363636       0.002
  -0.45454545  0.36363636 -0.45454545       0.003
   0.36363636 -0.18181818 -0.18181818       0.003
  -0.45454545 -0.45454545  0.36363636       0.002
  -0.36363636  0.18181818  0.00000000       0.003
  -0.00000000 -0.36363636  0.18181818       0.003
   0.18181818  0.00000000 -0.36363636       0.003
   0.18181818  0.18181818 -0.45454545       0.002
  -0.36363636  0.45454545 -0.36363636       0.003
   0.45454545 -0.18181818 -0.18181818       0.003
  -0.36363636 -0.36363636  0.45454545       0.002
  -0.27272727  0.18181818  0.00000000       0.003
  -0.00000000 -0.27272727  0.18181818       0.003
   0.18181818  0.00000000 -0.27272727       0.003
   0.18181818  0.18181818  0.45454545       0.002
  -0.27272727 -0.45454545 -0.27272727       0.003
  -0.45454545 -0.18181818 -0.18181818       0.003
  -0.27272727 -0.27272727 -0.45454545       0.002
  -0.18181818  0.18181818 -0.00000000       0.002
   0.00000000 -0.18181818  0.18181818       0.003
   0.18181818  0.18181818  0.36363636       0.002
  -0.18181818 -0.36363636 -0.18181818       0.003
   0.27272727  0.27272727 -0.00000000       0.002
   0.00000000  0.27272727  0.27272727       0.003
   0.36363636  0.27272727  0.00000000       0.003
   0.00000000  0.36363636  0.27272727       0.003
   0.27272727  0.00000000  0.36363636       0.003
   0.27272727  0.27272727 -0.09090909       0.002
   0.36363636  0.09090909  0.36363636       0.003
   0.09090909 -0.27272727 -0.27272727       0.003
   0.36363636  0.36363636  0.09090909       0.002
   0.45454545  0.27272727 -0.00000000       0.003
   0.00000000  0.45454545  0.27272727       0.003
   0.27272727  0.00000000  0.45454545       0.003
   0.27272727  0.27272727 -0.18181818       0.002
   0.45454545  0.18181818  0.45454545       0.003
   0.18181818 -0.27272727 -0.27272727       0.003
   0.45454545  0.45454545  0.18181818       0.002
  -0.45454545  0.27272727  0.00000000       0.003
  -0.00000000 -0.45454545  0.27272727       0.003
   0.27272727 -0.00000000 -0.45454545       0.003
   0.27272727  0.27272727 -0.27272727       0.002
  -0.45454545  0.27272727 -0.45454545       0.003
   0.27272727 -0.27272727 -0.27272727       0.003
  -0.45454545 -0.45454545  0.27272727       0.002
  -0.36363636  0.27272727  0.00000000       0.003
   0.00000000 -0.36363636  0.27272727       0.003
   0.27272727  0.00000000 -0.36363636       0.003
   0.27272727  0.27272727 -0.36363636       0.002
  -0.36363636  0.36363636 -0.36363636       0.003
   0.36363636 -0.27272727 -0.27272727       0.003
  -0.36363636 -0.36363636  0.36363636       0.002
  -0.27272727  0.27272727  0.00000000       0.002
  -0.00000000 -0.27272727  0.27272727       0.003
   0.27272727  0.27272727 -0.45454545       0.002
  -0.27272727  0.45454545 -0.27272727       0.003
   0.36363636  0.36363636 -0.00000000       0.002
   0.00000000  0.36363636  0.36363636       0.003
   0.45454545  0.36363636 -0.00000000       0.003
   0.00000000  0.45454545  0.36363636       0.003
   0.36363636  0.00000000  0.45454545       0.003
   0.36363636  0.36363636 -0.09090909       0.002
   0.45454545  0.09090909  0.45454545       0.003
   0.09090909 -0.36363636 -0.36363636       0.003
   0.45454545  0.45454545  0.09090909       0.002
  -0.45454545  0.36363636 -0.00000000       0.003
   0.00000000 -0.45454545  0.36363636       0.003
   0.36363636 -0.00000000 -0.45454545       0.003
   0.36363636  0.36363636 -0.18181818       0.002
  -0.45454545  0.18181818 -0.45454545       0.003
   0.18181818 -0.36363636 -0.36363636       0.003
  -0.45454545 -0.45454545  0.18181818       0.002
  -0.36363636  0.36363636 -0.00000000       0.002
   0.00000000 -0.36363636  0.36363636       0.003
   0.36363636  0.36363636 -0.27272727       0.002
  -0.36363636  0.27272727 -0.36363636       0.003
   0.45454545  0.45454545 -0.00000000       0.002
   0.00000000  0.45454545  0.45454545       0.003
  -0.45454545  0.45454545  0.00000000       0.002
  -0.00000000 -0.45454545  0.45454545       0.003
   0.45454545  0.45454545 -0.09090909       0.002
  -0.45454545  0.09090909 -0.45454545       0.003
   0.27272727  0.18181818  0.09090909       0.003
   0.09090909  0.27272727  0.18181818       0.003
   0.18181818  0.09090909  0.27272727       0.003
   0.18181818  0.09090909 -0.09090909       0.003
   0.09090909 -0.18181818 -0.09090909       0.003
   0.09090909 -0.09090909 -0.18181818       0.003
   0.36363636  0.18181818  0.09090909       0.003
   0.09090909  0.36363636  0.18181818       0.003
   0.18181818  0.09090909  0.36363636       0.003
   0.18181818  0.09090909 -0.18181818       0.003
   0.36363636  0.18181818  0.27272727       0.003
   0.09090909 -0.27272727 -0.09090909       0.003
   0.09090909  0.27272727 -0.09090909       0.003
   0.18181818 -0.09090909 -0.18181818       0.003
  -0.27272727 -0.18181818 -0.36363636       0.003
   0.27272727  0.36363636  0.18181818       0.003
  -0.09090909  0.09090909 -0.27272727       0.003
  -0.18181818  0.18181818  0.09090909       0.003
   0.45454545  0.18181818  0.09090909       0.003
   0.09090909  0.45454545  0.18181818       0.003
   0.18181818  0.09090909  0.45454545       0.003
   0.18181818  0.09090909 -0.27272727       0.003
   0.45454545  0.27272727  0.36363636       0.003
   0.09090909 -0.36363636 -0.09090909       0.003
   0.09090909  0.36363636 -0.09090909       0.003
   0.27272727 -0.09090909 -0.18181818       0.003
  -0.36363636 -0.27272727 -0.45454545       0.003
   0.36363636  0.45454545  0.27272727       0.003
  -0.09090909  0.09090909 -0.36363636       0.003
  -0.27272727  0.18181818  0.09090909       0.003
[...]

 k-point   333 :       0.4545    0.0909   -0.3636
  band No.  band energies     occupation 
      1      -2.3511      2.00000
      2      -1.9757      2.00000
      3       1.7212      2.00000
      4       2.5379      2.00000
      5       7.1258      0.00000
      6       8.3450      0.00000
      7      12.7720      0.00000
      8      12.9967      0.00000

 k-point   334 :       0.4545    0.3636   -0.1818
  band No.  band energies     occupation 
      1      -2.3508      2.00000
      2      -1.9760      2.00000
      3       1.7210      2.00000
      4       2.5381      2.00000
      5       7.1261      0.00000
      6       8.3448      0.00000
      7      12.7719      0.00000
      8      12.9967      0.00000

 k-point   335 :      -0.3636    0.1818   -0.4545
  band No.  band energies     occupation 
      1      -2.3510      2.00000
      2      -1.9757      2.00000
      3       1.7211      2.00000
      4       2.5379      2.00000
      5       7.1259      0.00000
      6       8.3450      0.00000
      7      12.7720      0.00000
      8      12.9967      0.00000

 k-point   336 :       0.4545   -0.1818    0.3636
  band No.  band energies     occupation 
      1      -2.3510      2.00000
      2      -1.9757      2.00000
      3       1.7211      2.00000
      4       2.5379      2.00000
      5       7.1259      0.00000
      6       8.3450      0.00000
      7      12.7720      0.00000
      8      12.9967      0.00000

 k-point   337 :      -0.4545    0.3636    0.1818
  band No.  band energies     occupation 
      1      -3.6686      2.00000
      2      -0.5592      2.00000
      3       1.8076      2.00000
      4       2.9402      2.00000
      5       8.5248      0.00000
      6       9.1953      0.00000
      7       9.6694      0.00000
      8      13.0033      0.00000

 k-point   338 :       0.1818   -0.4545    0.3636
  band No.  band energies     occupation 
      1      -3.6686      2.00000
      2      -0.5592      2.00000
      3       1.8076      2.00000
      4       2.9402      2.00000
      5       8.5248      0.00000
      6       9.1953      0.00000
      7       9.6694      0.00000
      8      13.0033      0.00000

 k-point   339 :       0.3636    0.1818   -0.4545
  band No.  band energies     occupation 
      1      -3.6685      2.00000
      2      -0.5595      2.00000
      3       1.8076      2.00000
      4       2.9404      2.00000
      5       8.5248      0.00000
      6       9.1954      0.00000
      7       9.6696      0.00000
      8      13.0033      0.00000

 k-point   340 :       0.3636    0.1818   -0.1818
  band No.  band energies     occupation 
      1      -3.6686      2.00000
      2      -0.5592      2.00000
      3       1.8077      2.00000
      4       2.9402      2.00000
      5       8.5249      0.00000
      6       9.1953      0.00000
      7       9.6694      0.00000
      8      13.0033      0.00000

 k-point   341 :       0.1818   -0.3636   -0.1818
  band No.  band energies     occupation 
      1      -3.6687      2.00000
      2      -0.5589      2.00000
      3       1.8077      2.00000
      4       2.9400      2.00000
      5       8.5249      0.00000
      6       9.1952      0.00000
      7       9.6692      0.00000
      8      13.0034      0.00000

 k-point   342 :       0.1818   -0.1818   -0.3636
  band No.  band energies     occupation 
      1      -3.6686      2.00000
      2      -0.5592      2.00000
      3       1.8077      2.00000
      4       2.9402      2.00000
      5       8.5249      0.00000
      6       9.1953      0.00000
      7       9.6694      0.00000
      8      13.0033      0.00000

 k-point   343 :      -0.3636    0.3636    0.1818
  band No.  band energies     occupation 
      1      -3.0592      2.00000
      2      -1.2374      2.00000
      3       1.5364      2.00000
      4       2.6330      2.00000
      5       8.9074      0.00000
      6       9.2288      0.00000
      7      10.4747      0.00000
      8      12.3005      0.00000

 k-point   344 :       0.1818   -0.3636    0.3636
  band No.  band energies     occupation 
      1      -3.0592      2.00000
      2      -1.2375      2.00000
      3       1.5362      2.00000
      4       2.6332      2.00000
      5       8.9077      0.00000
      6       9.2286      0.00000
      7      10.4746      0.00000
      8      12.3005      0.00000

 k-point   345 :       0.3636    0.1818   -0.3636
  band No.  band energies     occupation 
      1      -3.0590      2.00000
      2      -1.2378      2.00000
      3       1.5363      2.00000
      4       2.6333      2.00000
      5       8.9077      0.00000
      6       9.2289      0.00000
      7      10.4745      0.00000
      8      12.3004      0.00000

 k-point   346 :       0.3636    0.1818   -0.2727
  band No.  band energies     occupation 
      1      -3.0591      2.00000
      2      -1.2377      2.00000
      3       1.5363      2.00000
      4       2.6332      2.00000
      5       8.9079      0.00000
      6       9.2286      0.00000
      7      10.4743      0.00000
      8      12.3005      0.00000

 k-point   347 :      -0.3636    0.2727    0.4545
  band No.  band energies     occupation 
      1      -3.0591      2.00000
      2      -1.2377      2.00000
      3       1.5365      2.00000
      4       2.6330      2.00000
      5       8.9076      0.00000
      6       9.2288      0.00000
      7      10.4744      0.00000
      8      12.3005      0.00000

 k-point   348 :       0.1818   -0.4545   -0.1818
  band No.  band energies     occupation 
      1      -3.0593      2.00000
      2      -1.2373      2.00000
      3       1.5365      2.00000
      4       2.6329      2.00000
      5       8.9077      0.00000
      6       9.2285      0.00000
      7      10.4745      0.00000
      8      12.3007      0.00000

 k-point   349 :       0.1818    0.4545   -0.1818
  band No.  band energies     occupation 
      1      -3.0593      2.00000
      2      -1.2374      2.00000
      3       1.5364      2.00000
      4       2.6329      2.00000
      5       8.9074      0.00000
      6       9.2288      0.00000
      7      10.4747      0.00000
      8      12.3005      0.00000

 k-point   350 :       0.2727   -0.1818   -0.3636
  band No.  band energies     occupation 
      1      -3.0592      2.00000
      2      -1.2374      2.00000
      3       1.5362      2.00000
      4       2.6331      2.00000
      5       8.9078      0.00000
      6       9.2285      0.00000
      7      10.4746      0.00000
      8      12.3005      0.00000

 k-point   351 :      -0.4545   -0.2727    0.3636
  band No.  band energies     occupation 
      1      -3.0590      2.00000
      2      -1.2379      2.00000
      3       1.5364      2.00000
      4       2.6333      2.00000
      5       8.9077      0.00000
      6       9.2289      0.00000
      7      10.4744      0.00000
      8      12.3004      0.00000

 k-point   352 :       0.4545   -0.3636    0.2727
  band No.  band energies     occupation 
      1      -3.0591      2.00000
      2      -1.2378      2.00000
      3       1.5364      2.00000
      4       2.6332      2.00000
      5       8.9079      0.00000
      6       9.2286      0.00000
      7      10.4743      0.00000
      8      12.3005      0.00000

 k-point   353 :      -0.1818    0.1818   -0.4545
  band No.  band energies     occupation 
      1      -3.0592      2.00000
      2      -1.2376      2.00000
      3       1.5365      2.00000
      4       2.6330      2.00000
      5       8.9076      0.00000
      6       9.2288      0.00000
      7      10.4744      0.00000
      8      12.3005      0.00000

 k-point   354 :      -0.2727    0.3636    0.1818
  band No.  band energies     occupation 
      1      -3.0593      2.00000
      2      -1.2373      2.00000
      3       1.5364      2.00000
      4       2.6329      2.00000
      5       8.9077      0.00000
      6       9.2285      0.00000
      7      10.4745      0.00000
      8      12.3007      0.00000

 k-point   355 :      -0.3636    0.4545    0.1818
  band No.  band energies     occupation 
      1      -2.6585      2.00000
      2      -1.5899      2.00000
      3       1.7631      2.00000
      4       2.1343      2.00000
      5       8.4514      0.00000
      6       8.6648      0.00000
      7      10.9705      0.00000
      8      12.5322      0.00000

 k-point   356 :       0.1818   -0.3636    0.4545
  band No.  band energies     occupation 
      1      -2.6585      2.00000
      2      -1.5899      2.00000
      3       1.7631      2.00000
      4       2.1343      2.00000
      5       8.4514      0.00000
      6       8.6648      0.00000
      7      10.9705      0.00000
      8      12.5322      0.00000

 k-point   357 :       0.4545    0.1818   -0.3636
  band No.  band energies     occupation 
      1      -2.6583      2.00000
      2      -1.5900      2.00000
      3       1.7630      2.00000
      4       2.1344      2.00000
      5       8.4514      0.00000
      6       8.6648      0.00000
      7      10.9707      0.00000
      8      12.5321      0.00000

 k-point   358 :       0.4545    0.2727   -0.1818
  band No.  band energies     occupation 
      1      -2.6585      2.00000
      2      -1.5898      2.00000
      3       1.7631      2.00000
      4       2.1343      2.00000
      5       8.4515      0.00000
      6       8.6648      0.00000
      7      10.9705      0.00000
      8      12.5322      0.00000

 k-point   359 :       0.1818   -0.4545   -0.2727
  band No.  band energies     occupation 
      1      -2.6586      2.00000
      2      -1.5896      2.00000
      3       1.7632      2.00000
      4       2.1341      2.00000
      5       8.4515      0.00000
      6       8.6647      0.00000
      7      10.9703      0.00000
      8      12.5324      0.00000

 k-point   360 :       0.1818   -0.2727   -0.4545
  band No.  band energies     occupation 
      1      -2.6585      2.00000
      2      -1.5898      2.00000
      3       1.7631      2.00000
      4       2.1343      2.00000
      5       8.4515      0.00000
      6       8.6648      0.00000
      7      10.9705      0.00000
      8      12.5322      0.00000

 k-point   361 :      -0.2727    0.4545    0.1818
  band No.  band energies     occupation 
      1      -2.4691      2.00000
      2      -1.7480      2.00000
      3       1.4972      2.00000
      4       2.1690      2.00000
      5       8.7989      0.00000
      6      10.0835      0.00000
      7      10.7206      0.00000
      8      10.7516      0.00000

 k-point   362 :       0.1818   -0.2727    0.4545
  band No.  band energies     occupation 
      1      -2.4689      2.00000
      2      -1.7482      2.00000
      3       1.4971      2.00000
      4       2.1692      2.00000
      5       8.7991      0.00000
      6      10.0833      0.00000
      7      10.7206      0.00000
      8      10.7516      0.00000

 k-point   363 :       0.4545    0.1818   -0.2727
  band No.  band energies     occupation 
      1      -2.4689      2.00000
      2      -1.7482      2.00000
      3       1.4971      2.00000
      4       2.1692      2.00000
      5       8.7991      0.00000
      6      10.0833      0.00000
      7      10.7206      0.00000
      8      10.7516      0.00000

 k-point   364 :       0.4545    0.2727   -0.2727
  band No.  band energies     occupation 
      1      -2.4687      2.00000
      2      -1.7486      2.00000
      3       1.4969      2.00000
      4       2.1694      2.00000
      5       8.7994      0.00000
      6      10.0830      0.00000
      7      10.7206      0.00000
      8      10.7517      0.00000

 k-point   365 :      -0.2727    0.2727   -0.4545
  band No.  band energies     occupation 
      1      -2.4689      2.00000
      2      -1.7483      2.00000
      3       1.4970      2.00000
      4       2.1692      2.00000
      5       8.7991      0.00000
      6      10.0832      0.00000
      7      10.7206      0.00000
      8      10.7516      0.00000

 k-point   366 :       0.4545   -0.2727    0.2727
  band No.  band energies     occupation 
      1      -2.4689      2.00000
      2      -1.7483      2.00000
      3       1.4970      2.00000
      4       2.1692      2.00000
      5       8.7991      0.00000
      6      10.0832      0.00000
      7      10.7206      0.00000
      8      10.7516      0.00000


--------------------------------------------------------------------------------------------------------


 soft charge-density along one line, spin component           1
         0         1         2         3         4         5         6         7         8         9
 total charge-density along one line
 
 pseudopotential strength for first ion, spin component:           1
 18.459  25.753   0.000   0.000   0.000   0.000   0.000   0.000
 25.753  35.935   0.000   0.000   0.000   0.000   0.000   0.000
  0.000   0.000   4.183  -0.000   0.000   7.796  -0.000   0.000
  0.000   0.000  -0.000   4.183  -0.000  -0.000   7.796  -0.000
  0.000   0.000   0.000  -0.000   4.183   0.000  -0.000   7.796
  0.000   0.000   7.796  -0.000   0.000  14.538  -0.000   0.000
  0.000   0.000  -0.000   7.796  -0.000  -0.000  14.538  -0.000
  0.000   0.000   0.000  -0.000   7.796   0.000  -0.000  14.538
 total augmentation occupancy for first ion, spin component:           1
  5.840  -2.223  -0.000   0.001  -0.000   0.000  -0.000   0.000
 -2.223   0.956   0.000  -0.000   0.000  -0.000   0.000  -0.000
 -0.000   0.000   3.280  -0.000   0.000  -0.799   0.000  -0.000
  0.001  -0.000  -0.000   3.280  -0.000   0.000  -0.799   0.000
 -0.000   0.000   0.000  -0.000   3.280  -0.000   0.000  -0.799
  0.000  -0.000  -0.799   0.000  -0.000   0.202  -0.000   0.000
 -0.000   0.000   0.000  -0.799   0.000  -0.000   0.202  -0.000
  0.000  -0.000  -0.000   0.000  -0.799   0.000  -0.000   0.202


------------------------ aborting loop because EDIFF is reached ----------------------------------------


    CHARGE:  cpu time      0.0079: real time      0.0079
    FORLOC:  cpu time      0.0001: real time      0.0001
    FORNL :  cpu time      0.0190: real time      0.0191
    STRESS:  cpu time      0.3375: real time      0.3384
    FORCOR:  cpu time      0.0023: real time      0.0023
    FORHAR:  cpu time      0.0005: real time      0.0005
    MIXING:  cpu time      0.0001: real time      0.0001
    OFIELD:  cpu time      0.0000: real time      0.0000

  FORCE on cell =-STRESS in cart. coord.  units (eV):
  Direction    XX          YY          ZZ          XY          YZ          ZX
  --------------------------------------------------------------------------------------
  Alpha Z     3.23733     3.23733     3.23733
  Ewald     -75.21821   -75.21821   -75.21821     0.00643     0.00089     0.00089
  Hartree     5.12262     5.12262     5.12262     0.00084     0.00011     0.00011
  E(xc)     -25.17010   -25.17010   -25.17010    -0.00004     0.00000     0.00000
  Local     -29.89049   -29.89049   -29.89049    -0.00712    -0.00094    -0.00094
  n-local    77.21017    77.43037    77.32026     0.00130    -0.06261     0.06300
  augment   -11.60587   -11.60587   -11.60585    -0.00014    -0.00006    -0.00006
  Kinetic    55.54945    56.00757    55.77851    -0.00102    -0.05424     0.05400
  Fock        0.00000     0.00000     0.00000     0.00000     0.00000     0.00000
  -------------------------------------------------------------------------------------
  Total      -0.42596    -0.42596    -0.42595     0.00026     0.00008     0.00008
  in kB     -16.40767   -16.40767   -16.40727     0.01009     0.00295     0.00295
  external pressure =      -16.41 kB  Pullay stress =        0.00 kB


 VOLUME and BASIS-vectors are now :
 -----------------------------------------------------------------------------
  energy-cutoff  :      240.00
  volume of cell :       41.59
      direct lattice vectors                 reciprocal lattice vectors
     0.000000000  2.750000000  2.750000000    -0.181818182  0.181818182  0.181818182
     2.750000000  0.000000000  2.750000000     0.181818182 -0.181818182  0.181818182
     2.750000000  2.750000000  0.000000000     0.181818182  0.181818182 -0.181818182

  length of vectors
     3.889087297  3.889087297  3.889087297     0.314918329  0.314918329  0.314918329


 FORCES acting on ions
    electron-ion (+dipol)            ewald-force                    non-local-force                 convergence-correction
 -----------------------------------------------------------------------------------------------
   0.322E-03 0.322E-03 0.212E-02   -.270E-03 -.270E-03 -.195E-02   -.184E-03 -.184E-03 -.982E-03   -.101E-04 -.101E-04 -.289E-03
   -.320E-03 -.320E-03 -.212E-02   0.270E-03 0.270E-03 0.195E-02   0.184E-03 0.184E-03 0.982E-03   0.101E-04 0.101E-04 0.289E-03
 -----------------------------------------------------------------------------------------------
   0.127E-05 0.127E-05 -.269E-05   0.228E-15 -.605E-15 -.347E-15   -.190E-18 -.190E-18 -.867E-18   0.233E-08 0.233E-08 0.150E-09
 
 
 POSITION                                       TOTAL-FORCE (eV/Angst)
 -----------------------------------------------------------------------------------
      4.81938      4.81938      4.81254        -0.000143     -0.000143     -0.001100
      0.69437      0.69437      0.68746         0.000143      0.000143      0.001100
 -----------------------------------------------------------------------------------
    total drift:                                0.000001      0.000001     -0.000003


--------------------------------------------------------------------------------------------------------



  FREE ENERGIE OF THE ION-ELECTRON SYSTEM (eV)
  ---------------------------------------------------
  free  energy   TOTEN  =       -10.82308384 eV

  energy  without entropy=      -10.82308383  energy(sigma->0) =      -10.82308384
 
 d Force = 0.1375336E-05[-0.621E-06, 0.337E-05]  d Energy = 0.1378151E-05-0.281E-08
 d Force = 0.2539810E-05[-0.110E-05, 0.618E-05]  d Ewald  = 0.2539819E-05-0.853E-11


--------------------------------------------------------------------------------------------------------


    POTLOK:  cpu time      0.0032: real time      0.0032


--------------------------------------------------------------------------------------------------------


 Conjugate gradient step on ions:
 trial-energy change:   -0.000001  1 .order   -0.000001   -0.000003    0.000001
  (g-gl).g = 0.348E-05      g.g   = 0.350E-05  gl.gl    = 0.583E-02
 g(Force)  = 0.350E-05   g(Stress)= 0.000E+00 ortho     = 0.128E-07
 gamma     =   0.00060
 trial     =   0.96397
 opt step  =   0.81406  (harmonic =   0.81406) maximal distance =0.00023624
 next E    =   -10.823084   (d E  =  -0.00000)


--------------------------------------------------------------------------------------------------------


 writing wavefunctions
     LOOP+:  cpu time      0.8971: real time      1.0108
    4ORBIT:  cpu time      0.0000: real time      0.0000

 total amount of memory used by VASP MPI-rank0    43732. kBytes
=======================================================================

   base      :      30000. kBytes
   nonl-proj :       8444. kBytes
   fftplans  :        302. kBytes
   grid      :        577. kBytes
   one-center:          6. kBytes
   wavefun   :       4403. kBytes
 
  
  
 General timing and accounting informations for this job:
 ========================================================
  
                  Total CPU time used (sec):       14.247
                            User time (sec):       13.906
                          System time (sec):        0.341
                         Elapsed time (sec):       28.348
  
                   Maximum memory used (kb):       46916.
                   Average memory used (kb):          N/A
  
                          Minor page faults:        26511
                          Major page faults:           13
                 Voluntary context switches:         2798
