<?xml version="1.0" encoding="ISO-8859-1"?>
<modeling>
 <generator>
  <i name="program" type="string">vasp </i>
  <i name="version" type="string">6.3.0  </i>
  <i name="subversion" type="string">20Jan22 (build Feb 01 2022 16:52:37) complex                          parallel </i>
  <i name="platform" type="string">TETRA_NSC1 </i>
  <i name="date" type="string">2022 02 23 </i>
  <i name="time" type="string">11:23:34 </i>
 </generator>
 <incar>
  <i type="string" name="SYSTEM">diamond Si</i>
  <i type="int" name="ISTART">     0</i>
  <i type="int" name="ICHARG">     2</i>
  <i type="int" name="IBRION">     2</i>
  <i name="EDIFFG">     -0.00010000</i>
  <i type="int" name="NSW">    10</i>
  <i type="int" name="ISIF">     2</i>
  <i name="ENCUT">    240.00000000</i>
  <i type="int" name="ISMEAR">     0</i>
  <i name="SIGMA">      0.10000000</i>
 </incar>
 <primitive_cell>
  <structure name="primitive_cell" >
   <crystal>
    <varray name="basis" >
     <v>       0.00000000       2.75000000       2.75000000 </v>
     <v>       2.75000000       0.00000000       2.75000000 </v>
     <v>       2.75000000       2.75000000       0.00000000 </v>
    </varray>
    <i name="volume">     41.59375000 </i>
    <varray name="rec_basis" >
     <v>      -0.18181818       0.18181818       0.18181818 </v>
     <v>       0.18181818      -0.18181818       0.18181818 </v>
     <v>       0.18181818       0.18181818      -0.18181818 </v>
    </varray>
   </crystal>
   <varray name="positions" >
    <v>       0.87500000       0.87500000       0.87500000 </v>
    <v>       0.12500000       0.12500000       0.13000000 </v>
   </varray>
  </structure>
  <varray name="primitive_index" >
   <v type="int" >        1 </v>
   <v type="int" >        2 </v>
  </varray>
 </primitive_cell>
 <kpoints>
  <generation param="Monkhorst-Pack">
   <v type="int" name="divisions">      11       11       11 </v>
   <v name="usershift">      0.00000000       0.00000000       0.00000000 </v>
   <v name="genvec1">      0.09090909       0.00000000       0.00000000 </v>
   <v name="genvec2">      0.00000000       0.09090909       0.00000000 </v>
   <v name="genvec3">      0.00000000       0.00000000       0.09090909 </v>
   <v name="shift">      0.00000000       0.00000000       0.00000000 </v>
  </generation>
  <varray name="kpointlist" >
   <v>       0.00000000       0.00000000       0.00000000 </v>
   <v>       0.09090909       0.00000000       0.00000000 </v>
   <v>       0.00000000       0.00000000       0.09090909 </v>
   <v>       0.09090909       0.09090909       0.09090909 </v>
   <v>       0.18181818      -0.00000000       0.00000000 </v>
   <v>       0.00000000       0.00000000       0.18181818 </v>
   <v>       0.18181818       0.18181818       0.18181818 </v>
   <v>       0.27272727       0.00000000      -0.00000000 </v>
   <v>      -0.00000000      -0.00000000       0.27272727 </v>
   <v>       0.27272727       0.27272727       0.27272727 </v>
   <v>       0.36363636      -0.00000000       0.00000000 </v>
   <v>       0.00000000       0.00000000       0.36363636 </v>
   <v>       0.36363636       0.36363636       0.36363636 </v>
   <v>       0.45454545       0.00000000      -0.00000000 </v>
   <v>      -0.00000000      -0.00000000       0.45454545 </v>
   <v>       0.45454545       0.45454545       0.45454545 </v>
   <v>       0.09090909       0.09090909      -0.00000000 </v>
   <v>       0.00000000       0.09090909       0.09090909 </v>
   <v>       0.18181818       0.09090909       0.00000000 </v>
   <v>       0.00000000       0.18181818       0.09090909 </v>
   <v>       0.09090909      -0.00000000       0.18181818 </v>
   <v>       0.09090909       0.09090909      -0.09090909 </v>
   <v>       0.18181818       0.09090909       0.18181818 </v>
   <v>       0.09090909      -0.09090909      -0.09090909 </v>
   <v>       0.18181818       0.18181818       0.09090909 </v>
   <v>       0.27272727       0.09090909       0.00000000 </v>
   <v>      -0.00000000       0.27272727       0.09090909 </v>
   <v>       0.09090909       0.00000000       0.27272727 </v>
   <v>       0.09090909       0.09090909      -0.18181818 </v>
   <v>       0.27272727       0.18181818       0.27272727 </v>
   <v>       0.18181818      -0.09090909      -0.09090909 </v>
   <v>       0.27272727       0.27272727       0.18181818 </v>
   <v>       0.36363636       0.09090909      -0.00000000 </v>
   <v>      -0.00000000       0.36363636       0.09090909 </v>
   <v>       0.09090909      -0.00000000       0.36363636 </v>
   <v>       0.09090909       0.09090909      -0.27272727 </v>
   <v>       0.36363636       0.27272727       0.36363636 </v>
   <v>       0.27272727      -0.09090909      -0.09090909 </v>
   <v>       0.36363636       0.36363636       0.27272727 </v>
   <v>       0.45454545       0.09090909       0.00000000 </v>
   <v>      -0.00000000       0.45454545       0.09090909 </v>
   <v>       0.09090909       0.00000000       0.45454545 </v>
   <v>       0.09090909       0.09090909      -0.36363636 </v>
   <v>       0.45454545       0.36363636       0.45454545 </v>
   <v>       0.36363636      -0.09090909      -0.09090909 </v>
   <v>       0.45454545       0.45454545       0.36363636 </v>
   <v>      -0.45454545       0.09090909       0.00000000 </v>
   <v>      -0.00000000      -0.45454545       0.09090909 </v>
   <v>       0.09090909      -0.00000000      -0.45454545 </v>
   <v>       0.09090909       0.09090909      -0.45454545 </v>
   <v>      -0.45454545       0.45454545      -0.45454545 </v>
   <v>       0.45454545      -0.09090909      -0.09090909 </v>
   <v>      -0.45454545      -0.45454545       0.45454545 </v>
   <v>      -0.36363636       0.09090909      -0.00000000 </v>
   <v>       0.00000000      -0.36363636       0.09090909 </v>
   <v>       0.09090909       0.00000000      -0.36363636 </v>
   <v>       0.09090909       0.09090909       0.45454545 </v>
   <v>      -0.36363636      -0.45454545      -0.36363636 </v>
   <v>      -0.45454545      -0.09090909      -0.09090909 </v>
   <v>      -0.36363636      -0.36363636      -0.45454545 </v>
   <v>      -0.27272727       0.09090909      -0.00000000 </v>
   <v>       0.00000000      -0.27272727       0.09090909 </v>
   <v>       0.09090909      -0.00000000      -0.27272727 </v>
   <v>       0.09090909       0.09090909       0.36363636 </v>
   <v>      -0.27272727      -0.36363636      -0.27272727 </v>
   <v>      -0.36363636      -0.09090909      -0.09090909 </v>
   <v>      -0.27272727      -0.27272727      -0.36363636 </v>
   <v>      -0.18181818       0.09090909       0.00000000 </v>
   <v>      -0.00000000      -0.18181818       0.09090909 </v>
   <v>       0.09090909      -0.00000000      -0.18181818 </v>
   <v>       0.09090909       0.09090909       0.27272727 </v>
   <v>      -0.18181818      -0.27272727      -0.18181818 </v>
   <v>      -0.27272727      -0.09090909      -0.09090909 </v>
   <v>      -0.18181818      -0.18181818      -0.27272727 </v>
   <v>      -0.09090909       0.09090909      -0.00000000 </v>
   <v>       0.00000000      -0.09090909       0.09090909 </v>
   <v>       0.09090909       0.09090909       0.18181818 </v>
   <v>      -0.09090909      -0.18181818      -0.09090909 </v>
   <v>       0.18181818       0.18181818      -0.00000000 </v>
   <v>       0.00000000       0.18181818       0.18181818 </v>
   <v>       0.27272727       0.18181818       0.00000000 </v>
   <v>       0.00000000       0.27272727       0.18181818 </v>
   <v>       0.18181818      -0.00000000       0.27272727 </v>
   <v>       0.18181818       0.18181818      -0.09090909 </v>
   <v>       0.27272727       0.09090909       0.27272727 </v>
   <v>       0.09090909      -0.18181818      -0.18181818 </v>
   <v>       0.27272727       0.27272727       0.09090909 </v>
   <v>       0.36363636       0.18181818       0.00000000 </v>
   <v>       0.00000000       0.36363636       0.18181818 </v>
   <v>       0.18181818       0.00000000       0.36363636 </v>
   <v>       0.18181818       0.18181818      -0.18181818 </v>
   <v>       0.36363636       0.18181818       0.36363636 </v>
   <v>       0.18181818      -0.18181818      -0.18181818 </v>
   <v>       0.36363636       0.36363636       0.18181818 </v>
   <v>       0.45454545       0.18181818       0.00000000 </v>
   <v>      -0.00000000       0.45454545       0.18181818 </v>
   <v>       0.18181818       0.00000000       0.45454545 </v>
   <v>       0.18181818       0.18181818      -0.27272727 </v>
   <v>       0.45454545       0.27272727       0.45454545 </v>
   <v>       0.27272727      -0.18181818      -0.18181818 </v>
   <v>       0.45454545       0.45454545       0.27272727 </v>
   <v>      -0.45454545       0.18181818       0.00000000 </v>
   <v>      -0.00000000      -0.45454545       0.18181818 </v>
   <v>       0.18181818       0.00000000      -0.45454545 </v>
   <v>       0.18181818       0.18181818      -0.36363636 </v>
   <v>      -0.45454545       0.36363636      -0.45454545 </v>
   <v>       0.36363636      -0.18181818      -0.18181818 </v>
   <v>      -0.45454545      -0.45454545       0.36363636 </v>
   <v>      -0.36363636       0.18181818       0.00000000 </v>
   <v>      -0.00000000      -0.36363636       0.18181818 </v>
   <v>       0.18181818       0.00000000      -0.36363636 </v>
   <v>       0.18181818       0.18181818      -0.45454545 </v>
   <v>      -0.36363636       0.45454545      -0.36363636 </v>
   <v>       0.45454545      -0.18181818      -0.18181818 </v>
   <v>      -0.36363636      -0.36363636       0.45454545 </v>
   <v>      -0.27272727       0.18181818       0.00000000 </v>
   <v>      -0.00000000      -0.27272727       0.18181818 </v>
   <v>       0.18181818       0.00000000      -0.27272727 </v>
   <v>       0.18181818       0.18181818       0.45454545 </v>
   <v>      -0.27272727      -0.45454545      -0.27272727 </v>
   <v>      -0.45454545      -0.18181818      -0.18181818 </v>
   <v>      -0.27272727      -0.27272727      -0.45454545 </v>
   <v>      -0.18181818       0.18181818      -0.00000000 </v>
   <v>       0.00000000      -0.18181818       0.18181818 </v>
   <v>       0.18181818       0.18181818       0.36363636 </v>
   <v>      -0.18181818      -0.36363636      -0.18181818 </v>
   <v>       0.27272727       0.27272727      -0.00000000 </v>
   <v>       0.00000000       0.27272727       0.27272727 </v>
   <v>       0.36363636       0.27272727       0.00000000 </v>
   <v>       0.00000000       0.36363636       0.27272727 </v>
   <v>       0.27272727       0.00000000       0.36363636 </v>
   <v>       0.27272727       0.27272727      -0.09090909 </v>
   <v>       0.36363636       0.09090909       0.36363636 </v>
   <v>       0.09090909      -0.27272727      -0.27272727 </v>
   <v>       0.36363636       0.36363636       0.09090909 </v>
   <v>       0.45454545       0.27272727      -0.00000000 </v>
   <v>       0.00000000       0.45454545       0.27272727 </v>
   <v>       0.27272727       0.00000000       0.45454545 </v>
   <v>       0.27272727       0.27272727      -0.18181818 </v>
   <v>       0.45454545       0.18181818       0.45454545 </v>
   <v>       0.18181818      -0.27272727      -0.27272727 </v>
   <v>       0.45454545       0.45454545       0.18181818 </v>
   <v>      -0.45454545       0.27272727       0.00000000 </v>
   <v>      -0.00000000      -0.45454545       0.27272727 </v>
   <v>       0.27272727      -0.00000000      -0.45454545 </v>
   <v>       0.27272727       0.27272727      -0.27272727 </v>
   <v>      -0.45454545       0.27272727      -0.45454545 </v>
   <v>       0.27272727      -0.27272727      -0.27272727 </v>
   <v>      -0.45454545      -0.45454545       0.27272727 </v>
   <v>      -0.36363636       0.27272727       0.00000000 </v>
   <v>       0.00000000      -0.36363636       0.27272727 </v>
   <v>       0.27272727       0.00000000      -0.36363636 </v>
   <v>       0.27272727       0.27272727      -0.36363636 </v>
   <v>      -0.36363636       0.36363636      -0.36363636 </v>
   <v>       0.36363636      -0.27272727      -0.27272727 </v>
   <v>      -0.36363636      -0.36363636       0.36363636 </v>
   <v>      -0.27272727       0.27272727       0.00000000 </v>
   <v>      -0.00000000      -0.27272727       0.27272727 </v>
   <v>       0.27272727       0.27272727      -0.45454545 </v>
   <v>      -0.27272727       0.45454545      -0.27272727 </v>
   <v>       0.36363636       0.36363636      -0.00000000 </v>
   <v>       0.00000000       0.36363636       0.36363636 </v>
   <v>       0.45454545       0.36363636      -0.00000000 </v>
   <v>       0.00000000       0.45454545       0.36363636 </v>
   <v>       0.36363636       0.00000000       0.45454545 </v>
   <v>       0.36363636       0.36363636      -0.09090909 </v>
   <v>       0.45454545       0.09090909       0.45454545 </v>
   <v>       0.09090909      -0.36363636      -0.36363636 </v>
   <v>       0.45454545       0.45454545       0.09090909 </v>
   <v>      -0.45454545       0.36363636      -0.00000000 </v>
   <v>       0.00000000      -0.45454545       0.36363636 </v>
   <v>       0.36363636      -0.00000000      -0.45454545 </v>
   <v>       0.36363636       0.36363636      -0.18181818 </v>
   <v>      -0.45454545       0.18181818      -0.45454545 </v>
   <v>       0.18181818      -0.36363636      -0.36363636 </v>
   <v>      -0.45454545      -0.45454545       0.18181818 </v>
   <v>      -0.36363636       0.36363636      -0.00000000 </v>
   <v>       0.00000000      -0.36363636       0.36363636 </v>
   <v>       0.36363636       0.36363636      -0.27272727 </v>
   <v>      -0.36363636       0.27272727      -0.36363636 </v>
   <v>       0.45454545       0.45454545      -0.00000000 </v>
   <v>       0.00000000       0.45454545       0.45454545 </v>
   <v>      -0.45454545       0.45454545       0.00000000 </v>
   <v>      -0.00000000      -0.45454545       0.45454545 </v>
   <v>       0.45454545       0.45454545      -0.09090909 </v>
   <v>      -0.45454545       0.09090909      -0.45454545 </v>
   <v>       0.27272727       0.18181818       0.09090909 </v>
   <v>       0.09090909       0.27272727       0.18181818 </v>
   <v>       0.18181818       0.09090909       0.27272727 </v>
   <v>       0.18181818       0.09090909      -0.09090909 </v>
   <v>       0.09090909      -0.18181818      -0.09090909 </v>
   <v>       0.09090909      -0.09090909      -0.18181818 </v>
   <v>       0.36363636       0.18181818       0.09090909 </v>
   <v>       0.09090909       0.36363636       0.18181818 </v>
   <v>       0.18181818       0.09090909       0.36363636 </v>
   <v>       0.18181818       0.09090909      -0.18181818 </v>
   <v>       0.36363636       0.18181818       0.27272727 </v>
   <v>       0.09090909      -0.27272727      -0.09090909 </v>
   <v>       0.09090909       0.27272727      -0.09090909 </v>
   <v>       0.18181818      -0.09090909      -0.18181818 </v>
   <v>      -0.27272727      -0.18181818      -0.36363636 </v>
   <v>       0.27272727       0.36363636       0.18181818 </v>
   <v>      -0.09090909       0.09090909      -0.27272727 </v>
   <v>      -0.18181818       0.18181818       0.09090909 </v>
   <v>       0.45454545       0.18181818       0.09090909 </v>
   <v>       0.09090909       0.45454545       0.18181818 </v>
   <v>       0.18181818       0.09090909       0.45454545 </v>
   <v>       0.18181818       0.09090909      -0.27272727 </v>
   <v>       0.45454545       0.27272727       0.36363636 </v>
   <v>       0.09090909      -0.36363636      -0.09090909 </v>
   <v>       0.09090909       0.36363636      -0.09090909 </v>
   <v>       0.27272727      -0.09090909      -0.18181818 </v>
   <v>      -0.36363636      -0.27272727      -0.45454545 </v>
   <v>       0.36363636       0.45454545       0.27272727 </v>
   <v>      -0.09090909       0.09090909      -0.36363636 </v>
   <v>      -0.27272727       0.18181818       0.09090909 </v>
   <v>      -0.45454545       0.18181818       0.09090909 </v>
   <v>       0.09090909      -0.45454545       0.18181818 </v>
   <v>       0.18181818       0.09090909      -0.45454545 </v>
   <v>       0.18181818       0.09090909      -0.36363636 </v>
   <v>      -0.45454545       0.36363636       0.45454545 </v>
   <v>       0.09090909      -0.45454545      -0.09090909 </v>
   <v>       0.09090909       0.45454545      -0.09090909 </v>
   <v>       0.36363636      -0.09090909      -0.18181818 </v>
   <v>      -0.45454545      -0.36363636       0.45454545 </v>
   <v>       0.45454545      -0.45454545       0.36363636 </v>
   <v>      -0.09090909       0.09090909      -0.45454545 </v>
   <v>      -0.36363636       0.18181818       0.09090909 </v>
   <v>       0.36363636       0.27272727       0.09090909 </v>
   <v>       0.09090909       0.36363636       0.27272727 </v>
   <v>       0.27272727       0.09090909       0.36363636 </v>
   <v>       0.27272727       0.18181818      -0.09090909 </v>
   <v>       0.09090909      -0.27272727      -0.18181818 </v>
   <v>       0.09090909      -0.18181818      -0.27272727 </v>
   <v>       0.45454545       0.27272727       0.09090909 </v>
   <v>       0.09090909       0.45454545       0.27272727 </v>
   <v>       0.27272727       0.09090909       0.45454545 </v>
   <v>       0.27272727       0.18181818      -0.18181818 </v>
   <v>       0.45454545       0.18181818       0.36363636 </v>
   <v>       0.09090909      -0.36363636      -0.18181818 </v>
   <v>       0.18181818       0.36363636      -0.09090909 </v>
   <v>       0.18181818      -0.18181818      -0.27272727 </v>
   <v>      -0.36363636      -0.18181818      -0.45454545 </v>
   <v>       0.36363636       0.45454545       0.18181818 </v>
   <v>      -0.18181818       0.09090909      -0.36363636 </v>
   <v>      -0.18181818       0.27272727       0.18181818 </v>
   <v>      -0.45454545       0.27272727       0.09090909 </v>
   <v>       0.09090909      -0.45454545       0.27272727 </v>
   <v>       0.27272727       0.09090909      -0.45454545 </v>
   <v>       0.27272727       0.18181818      -0.27272727 </v>
   <v>      -0.45454545       0.27272727       0.45454545 </v>
   <v>       0.09090909      -0.45454545      -0.18181818 </v>
   <v>       0.18181818       0.45454545      -0.09090909 </v>
   <v>       0.27272727      -0.18181818      -0.27272727 </v>
   <v>      -0.45454545      -0.27272727       0.45454545 </v>
   <v>       0.45454545      -0.45454545       0.27272727 </v>
   <v>      -0.18181818       0.09090909      -0.45454545 </v>
   <v>      -0.27272727       0.27272727       0.18181818 </v>
   <v>      -0.36363636       0.27272727       0.09090909 </v>
   <v>       0.09090909      -0.36363636       0.27272727 </v>
   <v>       0.27272727       0.09090909      -0.36363636 </v>
   <v>       0.27272727       0.18181818      -0.36363636 </v>
   <v>      -0.36363636       0.36363636      -0.45454545 </v>
   <v>       0.09090909       0.45454545      -0.18181818 </v>
   <v>       0.18181818      -0.45454545      -0.09090909 </v>
   <v>       0.36363636      -0.18181818      -0.27272727 </v>
   <v>       0.45454545      -0.36363636       0.36363636 </v>
   <v>      -0.45454545      -0.36363636       0.36363636 </v>
   <v>      -0.18181818       0.09090909       0.45454545 </v>
   <v>      -0.36363636       0.27272727       0.18181818 </v>
   <v>      -0.27272727       0.27272727       0.09090909 </v>
   <v>       0.09090909      -0.27272727       0.27272727 </v>
   <v>       0.27272727       0.09090909      -0.27272727 </v>
   <v>       0.27272727       0.18181818      -0.45454545 </v>
   <v>      -0.27272727       0.45454545      -0.36363636 </v>
   <v>       0.09090909       0.36363636      -0.18181818 </v>
   <v>       0.18181818      -0.36363636      -0.09090909 </v>
   <v>       0.45454545      -0.18181818      -0.27272727 </v>
   <v>       0.36363636      -0.45454545       0.27272727 </v>
   <v>      -0.36363636      -0.27272727       0.45454545 </v>
   <v>      -0.18181818       0.09090909       0.36363636 </v>
   <v>      -0.45454545       0.27272727       0.18181818 </v>
   <v>      -0.18181818       0.27272727       0.09090909 </v>
   <v>       0.09090909      -0.18181818       0.27272727 </v>
   <v>       0.27272727       0.09090909      -0.18181818 </v>
   <v>       0.27272727       0.18181818       0.45454545 </v>
   <v>      -0.18181818      -0.45454545      -0.27272727 </v>
   <v>       0.27272727       0.45454545       0.18181818 </v>
   <v>       0.45454545       0.36363636       0.09090909 </v>
   <v>       0.09090909       0.45454545       0.36363636 </v>
   <v>       0.36363636       0.09090909       0.45454545 </v>
   <v>       0.36363636       0.27272727      -0.09090909 </v>
   <v>       0.09090909      -0.36363636      -0.27272727 </v>
   <v>       0.09090909      -0.27272727      -0.36363636 </v>
   <v>      -0.45454545       0.36363636       0.09090909 </v>
   <v>       0.09090909      -0.45454545       0.36363636 </v>
   <v>       0.36363636       0.09090909      -0.45454545 </v>
   <v>       0.36363636       0.27272727      -0.18181818 </v>
   <v>      -0.45454545       0.18181818       0.45454545 </v>
   <v>       0.09090909      -0.45454545      -0.27272727 </v>
   <v>       0.27272727       0.45454545      -0.09090909 </v>
   <v>       0.18181818      -0.27272727      -0.36363636 </v>
   <v>      -0.45454545      -0.18181818       0.45454545 </v>
   <v>       0.45454545      -0.45454545       0.18181818 </v>
   <v>      -0.27272727       0.09090909      -0.45454545 </v>
   <v>      -0.18181818       0.36363636       0.27272727 </v>
   <v>      -0.36363636       0.36363636       0.09090909 </v>
   <v>       0.09090909      -0.36363636       0.36363636 </v>
   <v>       0.36363636       0.09090909      -0.36363636 </v>
   <v>       0.36363636       0.27272727      -0.27272727 </v>
   <v>      -0.36363636       0.27272727      -0.45454545 </v>
   <v>       0.09090909       0.45454545      -0.27272727 </v>
   <v>       0.27272727      -0.45454545      -0.09090909 </v>
   <v>       0.27272727      -0.27272727      -0.36363636 </v>
   <v>       0.45454545      -0.27272727       0.36363636 </v>
   <v>      -0.45454545      -0.36363636       0.27272727 </v>
   <v>      -0.27272727       0.09090909       0.45454545 </v>
   <v>      -0.27272727       0.36363636       0.27272727 </v>
   <v>      -0.27272727       0.36363636       0.09090909 </v>
   <v>       0.09090909      -0.27272727       0.36363636 </v>
   <v>       0.36363636       0.09090909      -0.27272727 </v>
   <v>       0.36363636       0.27272727      -0.36363636 </v>
   <v>      -0.27272727       0.36363636      -0.36363636 </v>
   <v>       0.36363636      -0.36363636       0.27272727 </v>
   <v>      -0.45454545       0.45454545       0.09090909 </v>
   <v>       0.09090909      -0.45454545       0.45454545 </v>
   <v>       0.45454545       0.09090909      -0.45454545 </v>
   <v>       0.45454545       0.36363636      -0.09090909 </v>
   <v>       0.09090909      -0.45454545      -0.36363636 </v>
   <v>       0.09090909      -0.36363636      -0.45454545 </v>
   <v>      -0.36363636       0.45454545       0.09090909 </v>
   <v>       0.09090909      -0.36363636       0.45454545 </v>
   <v>       0.45454545       0.09090909      -0.36363636 </v>
   <v>       0.45454545       0.36363636      -0.18181818 </v>
   <v>      -0.36363636       0.18181818      -0.45454545 </v>
   <v>       0.45454545      -0.18181818       0.36363636 </v>
   <v>      -0.45454545       0.36363636       0.18181818 </v>
   <v>       0.18181818      -0.45454545       0.36363636 </v>
   <v>       0.36363636       0.18181818      -0.45454545 </v>
   <v>       0.36363636       0.18181818      -0.18181818 </v>
   <v>       0.18181818      -0.36363636      -0.18181818 </v>
   <v>       0.18181818      -0.18181818      -0.36363636 </v>
   <v>      -0.36363636       0.36363636       0.18181818 </v>
   <v>       0.18181818      -0.36363636       0.36363636 </v>
   <v>       0.36363636       0.18181818      -0.36363636 </v>
   <v>       0.36363636       0.18181818      -0.27272727 </v>
   <v>      -0.36363636       0.27272727       0.45454545 </v>
   <v>       0.18181818      -0.45454545      -0.18181818 </v>
   <v>       0.18181818       0.45454545      -0.18181818 </v>
   <v>       0.27272727      -0.18181818      -0.36363636 </v>
   <v>      -0.45454545      -0.27272727       0.36363636 </v>
   <v>       0.45454545      -0.36363636       0.27272727 </v>
   <v>      -0.18181818       0.18181818      -0.45454545 </v>
   <v>      -0.27272727       0.36363636       0.18181818 </v>
   <v>      -0.36363636       0.45454545       0.18181818 </v>
   <v>       0.18181818      -0.36363636       0.45454545 </v>
   <v>       0.45454545       0.18181818      -0.36363636 </v>
   <v>       0.45454545       0.27272727      -0.18181818 </v>
   <v>       0.18181818      -0.45454545      -0.27272727 </v>
   <v>       0.18181818      -0.27272727      -0.45454545 </v>
   <v>      -0.27272727       0.45454545       0.18181818 </v>
   <v>       0.18181818      -0.27272727       0.45454545 </v>
   <v>       0.45454545       0.18181818      -0.27272727 </v>
   <v>       0.45454545       0.27272727      -0.27272727 </v>
   <v>      -0.27272727       0.27272727      -0.45454545 </v>
   <v>       0.45454545      -0.27272727       0.27272727 </v>
  </varray>
  <varray name="weights" >
   <v>       0.00075131 </v>
   <v>       0.00300526 </v>
   <v>       0.00150263 </v>
   <v>       0.00150263 </v>
   <v>       0.00300526 </v>
   <v>       0.00150263 </v>
   <v>       0.00150263 </v>
   <v>       0.00300526 </v>
   <v>       0.00150263 </v>
   <v>       0.00150263 </v>
   <v>       0.00300526 </v>
   <v>       0.00150263 </v>
   <v>       0.00150263 </v>
   <v>       0.00300526 </v>
   <v>       0.00150263 </v>
   <v>       0.00150263 </v>
   <v>       0.00150263 </v>
   <v>       0.00300526 </v>
   <v>       0.00300526 </v>
   <v>       0.00300526 </v>
   <v>       0.00300526 </v>
   <v>       0.00150263 </v>
   <v>       0.00300526 </v>
   <v>       0.00300526 </v>
   <v>       0.00150263 </v>
   <v>       0.00300526 </v>
   <v>       0.00300526 </v>
   <v>       0.00300526 </v>
   <v>       0.00150263 </v>
   <v>       0.00300526 </v>
   <v>       0.00300526 </v>
   <v>       0.00150263 </v>
   <v>       0.00300526 </v>
   <v>       0.00300526 </v>
   <v>       0.00300526 </v>
   <v>       0.00150263 </v>
   <v>       0.00300526 </v>
   <v>       0.00300526 </v>
   <v>       0.00150263 </v>
   <v>       0.00300526 </v>
   <v>       0.00300526 </v>
   <v>       0.00300526 </v>
   <v>       0.00150263 </v>
   <v>       0.00300526 </v>
   <v>       0.00300526 </v>
   <v>       0.00150263 </v>
   <v>       0.00300526 </v>
   <v>       0.00300526 </v>
   <v>       0.00300526 </v>
   <v>       0.00150263 </v>
   <v>       0.00300526 </v>
   <v>       0.00300526 </v>
   <v>       0.00150263 </v>
   <v>       0.00300526 </v>
   <v>       0.00300526 </v>
   <v>       0.00300526 </v>
   <v>       0.00150263 </v>
   <v>       0.00300526 </v>
   <v>       0.00300526 </v>
   <v>       0.00150263 </v>
   <v>       0.00300526 </v>
   <v>       0.00300526 </v>
   <v>       0.00300526 </v>
   <v>       0.00150263 </v>
   <v>       0.00300526 </v>
   <v>       0.00300526 </v>
   <v>       0.00150263 </v>
   <v>       0.00300526 </v>
   <v>       0.00300526 </v>
   <v>       0.00300526 </v>
   <v>       0.00150263 </v>
   <v>       0.00300526 </v>
   <v>       0.00300526 </v>
   <v>       0.00150263 </v>
   <v>       0.00150263 </v>
   <v>       0.00300526 </v>
   <v>       0.00150263 </v>
   <v>       0.00300526 </v>
   <v>       0.00150263 </v>
   <v>       0.00300526 </v>
   <v>       0.00300526 </v>
   <v>       0.00300526 </v>
   <v>       0.00300526 </v>
   <v>       0.00150263 </v>
   <v>       0.00300526 </v>
   <v>       0.00300526 </v>
   <v>       0.00150263 </v>
   <v>       0.00300526 </v>
   <v>       0.00300526 </v>
   <v>       0.00300526 </v>
   <v>       0.00150263 </v>
   <v>       0.00300526 </v>
   <v>       0.00300526 </v>
   <v>       0.00150263 </v>
   <v>       0.00300526 </v>
   <v>       0.00300526 </v>
   <v>       0.00300526 </v>
   <v>       0.00150263 </v>
   <v>       0.00300526 </v>
   <v>       0.00300526 </v>
   <v>       0.00150263 </v>
   <v>       0.00300526 </v>
   <v>       0.00300526 </v>
   <v>       0.00300526 </v>
   <v>       0.00150263 </v>
   <v>       0.00300526 </v>
   <v>       0.00300526 </v>
   <v>       0.00150263 </v>
   <v>       0.00300526 </v>
   <v>       0.00300526 </v>
   <v>       0.00300526 </v>
   <v>       0.00150263 </v>
   <v>       0.00300526 </v>
   <v>       0.00300526 </v>
   <v>       0.00150263 </v>
   <v>       0.00300526 </v>
   <v>       0.00300526 </v>
   <v>       0.00300526 </v>
   <v>       0.00150263 </v>
   <v>       0.00300526 </v>
   <v>       0.00300526 </v>
   <v>       0.00150263 </v>
   <v>       0.00150263 </v>
   <v>       0.00300526 </v>
   <v>       0.00150263 </v>
   <v>       0.00300526 </v>
   <v>       0.00150263 </v>
   <v>       0.00300526 </v>
   <v>       0.00300526 </v>
   <v>       0.00300526 </v>
   <v>       0.00300526 </v>
   <v>       0.00150263 </v>
   <v>       0.00300526 </v>
   <v>       0.00300526 </v>
   <v>       0.00150263 </v>
   <v>       0.00300526 </v>
   <v>       0.00300526 </v>
   <v>       0.00300526 </v>
   <v>       0.00150263 </v>
   <v>       0.00300526 </v>
   <v>       0.00300526 </v>
   <v>       0.00150263 </v>
   <v>       0.00300526 </v>
   <v>       0.00300526 </v>
   <v>       0.00300526 </v>
   <v>       0.00150263 </v>
   <v>       0.00300526 </v>
   <v>       0.00300526 </v>
   <v>       0.00150263 </v>
   <v>       0.00300526 </v>
   <v>       0.00300526 </v>
   <v>       0.00300526 </v>
   <v>       0.00150263 </v>
   <v>       0.00300526 </v>
   <v>       0.00300526 </v>
   <v>       0.00150263 </v>
   <v>       0.00150263 </v>
   <v>       0.00300526 </v>
   <v>       0.00150263 </v>
   <v>       0.00300526 </v>
   <v>       0.00150263 </v>
   <v>       0.00300526 </v>
   <v>       0.00300526 </v>
   <v>       0.00300526 </v>
   <v>       0.00300526 </v>
   <v>       0.00150263 </v>
   <v>       0.00300526 </v>
   <v>       0.00300526 </v>
   <v>       0.00150263 </v>
   <v>       0.00300526 </v>
   <v>       0.00300526 </v>
   <v>       0.00300526 </v>
   <v>       0.00150263 </v>
   <v>       0.00300526 </v>
   <v>       0.00300526 </v>
   <v>       0.00150263 </v>
   <v>       0.00150263 </v>
   <v>       0.00300526 </v>
   <v>       0.00150263 </v>
   <v>       0.00300526 </v>
   <v>       0.00150263 </v>
   <v>       0.00300526 </v>
   <v>       0.00150263 </v>
   <v>       0.00300526 </v>
   <v>       0.00150263 </v>
   <v>       0.00300526 </v>
   <v>       0.00300526 </v>
   <v>       0.00300526 </v>
   <v>       0.00300526 </v>
   <v>       0.00300526 </v>
   <v>       0.00300526 </v>
   <v>       0.00300526 </v>
   <v>       0.00300526 </v>
   <v>       0.00300526 </v>
   <v>       0.00300526 </v>
   <v>       0.00300526 </v>
   <v>       0.00300526 </v>
   <v>       0.00300526 </v>
   <v>       0.00300526 </v>
   <v>       0.00300526 </v>
   <v>       0.00300526 </v>
   <v>       0.00300526 </v>
   <v>       0.00300526 </v>
   <v>       0.00300526 </v>
   <v>       0.00300526 </v>
   <v>       0.00300526 </v>
   <v>       0.00300526 </v>
   <v>       0.00300526 </v>
   <v>       0.00300526 </v>
   <v>       0.00300526 </v>
   <v>       0.00300526 </v>
   <v>       0.00300526 </v>
   <v>       0.00300526 </v>
   <v>       0.00300526 </v>
   <v>       0.00300526 </v>
   <v>       0.00300526 </v>
   <v>       0.00300526 </v>
   <v>       0.00300526 </v>
   <v>       0.00300526 </v>
   <v>       0.00300526 </v>
   <v>       0.00300526 </v>
   <v>       0.00300526 </v>
   <v>       0.00300526 </v>
   <v>       0.00300526 </v>
   <v>       0.00300526 </v>
   <v>       0.00300526 </v>
   <v>       0.00300526 </v>
   <v>       0.00300526 </v>
   <v>       0.00300526 </v>
   <v>       0.00300526 </v>
   <v>       0.00300526 </v>
   <v>       0.00300526 </v>
   <v>       0.00300526 </v>
   <v>       0.00300526 </v>
   <v>       0.00300526 </v>
   <v>       0.00300526 </v>
   <v>       0.00300526 </v>
   <v>       0.00300526 </v>
   <v>       0.00300526 </v>
   <v>       0.00300526 </v>
   <v>       0.00300526 </v>
   <v>       0.00300526 </v>
   <v>       0.00300526 </v>
   <v>       0.00300526 </v>
   <v>       0.00300526 </v>
   <v>       0.00300526 </v>
   <v>       0.00300526 </v>
   <v>       0.00300526 </v>
   <v>       0.00300526 </v>
   <v>       0.00300526 </v>
   <v>       0.00300526 </v>
   <v>       0.00300526 </v>
   <v>       0.00300526 </v>
   <v>       0.00300526 </v>
   <v>       0.00300526 </v>
   <v>       0.00300526 </v>
   <v>       0.00300526 </v>
   <v>       0.00300526 </v>
   <v>       0.00300526 </v>
   <v>       0.00300526 </v>
   <v>       0.00300526 </v>
   <v>       0.00300526 </v>
   <v>       0.00300526 </v>
   <v>       0.00300526 </v>
   <v>       0.00300526 </v>
   <v>       0.00300526 </v>
   <v>       0.00300526 </v>
   <v>       0.00300526 </v>
   <v>       0.00300526 </v>
   <v>       0.00300526 </v>
   <v>       0.00300526 </v>
   <v>       0.00300526 </v>
   <v>       0.00300526 </v>
   <v>       0.00300526 </v>
   <v>       0.00300526 </v>
   <v>       0.00300526 </v>
   <v>       0.00300526 </v>
   <v>       0.00300526 </v>
   <v>       0.00300526 </v>
   <v>       0.00300526 </v>
   <v>       0.00300526 </v>
   <v>       0.00300526 </v>
   <v>       0.00300526 </v>
   <v>       0.00300526 </v>
   <v>       0.00300526 </v>
   <v>       0.00300526 </v>
   <v>       0.00300526 </v>
   <v>       0.00300526 </v>
   <v>       0.00300526 </v>
   <v>       0.00300526 </v>
   <v>       0.00300526 </v>
   <v>       0.00300526 </v>
   <v>       0.00300526 </v>
   <v>       0.00300526 </v>
   <v>       0.00300526 </v>
   <v>       0.00300526 </v>
   <v>       0.00300526 </v>
   <v>       0.00300526 </v>
   <v>       0.00300526 </v>
   <v>       0.00300526 </v>
   <v>       0.00300526 </v>
   <v>       0.00300526 </v>
   <v>       0.00300526 </v>
   <v>       0.00300526 </v>
   <v>       0.00300526 </v>
   <v>       0.00300526 </v>
   <v>       0.00300526 </v>
   <v>       0.00300526 </v>
   <v>       0.00300526 </v>
   <v>       0.00300526 </v>
   <v>       0.00300526 </v>
   <v>       0.00300526 </v>
   <v>       0.00300526 </v>
   <v>       0.00300526 </v>
   <v>       0.00300526 </v>
   <v>       0.00300526 </v>
   <v>       0.00300526 </v>
   <v>       0.00300526 </v>
   <v>       0.00300526 </v>
   <v>       0.00300526 </v>
   <v>       0.00300526 </v>
   <v>       0.00300526 </v>
   <v>       0.00300526 </v>
   <v>       0.00300526 </v>
   <v>       0.00300526 </v>
   <v>       0.00300526 </v>
   <v>       0.00300526 </v>
   <v>       0.00300526 </v>
   <v>       0.00300526 </v>
   <v>       0.00300526 </v>
   <v>       0.00300526 </v>
   <v>       0.00300526 </v>
   <v>       0.00300526 </v>
   <v>       0.00300526 </v>
   <v>       0.00300526 </v>
   <v>       0.00300526 </v>
   <v>       0.00300526 </v>
   <v>       0.00300526 </v>
   <v>       0.00300526 </v>
   <v>       0.00300526 </v>
   <v>       0.00300526 </v>
   <v>       0.00300526 </v>
   <v>       0.00300526 </v>
   <v>       0.00300526 </v>
   <v>       0.00300526 </v>
   <v>       0.00300526 </v>
   <v>       0.00300526 </v>
   <v>       0.00300526 </v>
   <v>       0.00300526 </v>
   <v>       0.00300526 </v>
   <v>       0.00300526 </v>
   <v>       0.00300526 </v>
   <v>       0.00300526 </v>
   <v>       0.00300526 </v>
   <v>       0.00300526 </v>
   <v>       0.00300526 </v>
   <v>       0.00300526 </v>
   <v>       0.00300526 </v>
   <v>       0.00300526 </v>
   <v>       0.00300526 </v>
   <v>       0.00300526 </v>
   <v>       0.00300526 </v>
   <v>       0.00300526 </v>
   <v>       0.00300526 </v>
   <v>       0.00300526 </v>
   <v>       0.00300526 </v>
  </varray>
 </kpoints>
 <parameters>
  <separator name="general" >
   <i type="string" name="SYSTEM">diamond Si</i>
   <i type="logical" name="LCOMPAT"> F  </i>
  </separator>
  <separator name="electronic" >
   <i type="string" name="PREC">normal</i>
   <i name="ENMAX">    240.00000000</i>
   <i name="ENAUG">    322.06900000</i>
   <i name="EDIFF">      0.00010000</i>
   <i type="int" name="IALGO">    38</i>
   <i type="int" name="IWAVPR">    11</i>
   <i type="int" name="NBANDS">     8</i>
   <i type="int" name="NBANDSLOW">    -1</i>
   <i type="int" name="NBANDSHIGH">    -1</i>
   <i name="NELECT">      8.00000000</i>
   <i type="int" name="TURBO">     0</i>
   <i type="int" name="IRESTART">     0</i>
   <i type="int" name="NREBOOT">     0</i>
   <i type="int" name="NMIN">     0</i>
   <i name="EREF">      0.00000000</i>
   <separator name="electronic smearing" >
    <i type="int" name="ISMEAR">     0</i>
    <i name="SIGMA">      0.10000000</i>
    <i name="KSPACING">      0.50000000</i>
    <i type="logical" name="KGAMMA"> T  </i>
    <i type="logical" name="KBLOWUP"> T  </i>
   </separator>
   <separator name="electronic projectors" >
    <i type="logical" name="LREAL"> F  </i>
    <v name="ROPT">      0.00000000</v>
    <i type="int" name="LMAXPAW">  -100</i>
    <i type="int" name="LMAXMIX">     2</i>
    <i type="logical" name="NLSPLINE"> F  </i>
   </separator>
   <separator name="electronic startup" >
    <i type="int" name="ISTART">     0</i>
    <i type="int" name="ICHARG">     2</i>
    <i type="int" name="INIWAV">     1</i>
   </separator>
   <separator name="electronic spin" >
    <i type="int" name="ISPIN">     1</i>
    <i type="logical" name="LNONCOLLINEAR"> F  </i>
    <v name="MAGMOM">      1.00000000      1.00000000</v>
    <i name="NUPDOWN">     -1.00000000</i>
    <i type="logical" name="LSORBIT"> F  </i>
    <v name="SAXIS">      0.00000000      0.00000000      1.00000000</v>
    <i type="logical" name="LSPIRAL"> F  </i>
    <v name="QSPIRAL">      0.00000000      0.00000000      0.00000000</v>
    <i type="logical" name="LZEROZ"> F  </i>
   </separator>
   <separator name="electronic exchange-correlation" >
    <i type="logical" name="LASPH"> F  </i>
    <i type="logical" name="LMETAGGA"> F  </i>
   </separator>
   <separator name="electronic convergence" >
    <i type="int" name="NELM">    60</i>
    <i type="int" name="NELMDL">    -5</i>
    <i type="int" name="NELMIN">     2</i>
    <i name="ENINI">    240.00000000</i>
    <separator name="electronic convergence detail" >
     <i type="logical" name="LDIAG"> T  </i>
     <i type="logical" name="LSUBROT"> F  </i>
     <i name="WEIMIN">      0.00100000</i>
     <i name="EBREAK">      0.00000031</i>
     <i name="DEPER">      0.30000000</i>
     <i type="int" name="NRMM">     4</i>
     <i name="TIME">      0.40000000</i>
    </separator>
   </separator>
   <separator name="electronic mixer" >
    <i name="AMIX">      0.40000000</i>
    <i name="BMIX">      1.00000000</i>
    <i name="AMIN">      0.10000000</i>
    <i name="AMIX_MAG">      1.60000000</i>
    <i name="BMIX_MAG">      1.00000000</i>
    <separator name="electronic mixer details" >
     <i type="int" name="IMIX">     4</i>
     <i type="logical" name="MIXFIRST"> F  </i>
     <i type="int" name="MAXMIX">   -45</i>
     <i name="WC">    100.00000000</i>
     <i type="int" name="INIMIX">     1</i>
     <i type="int" name="MIXPRE">     1</i>
     <i type="int" name="MREMOVE">     5</i>
    </separator>
   </separator>
   <separator name="electronic dipolcorrection" >
    <i type="logical" name="LDIPOL"> F  </i>
    <i type="logical" name="LMONO"> F  </i>
    <i type="int" name="IDIPOL">     0</i>
    <i name="EPSILON">      1.00000000</i>
    <v name="DIPOL">   -100.00000000   -100.00000000   -100.00000000</v>
    <i name="EFIELD">      0.00000000</i>
   </separator>
  </separator>
  <separator name="grids" >
   <i type="int" name="NGX">    16</i>
   <i type="int" name="NGY">    16</i>
   <i type="int" name="NGZ">    16</i>
   <i type="int" name="NGXF">    32</i>
   <i type="int" name="NGYF">    32</i>
   <i type="int" name="NGZF">    32</i>
   <i type="logical" name="ADDGRID"> F  </i>
  </separator>
  <separator name="ionic" >
   <i type="int" name="NSW">    10</i>
   <i type="int" name="IBRION">     2</i>
   <i type="int" name="MDALGO">     0</i>
   <i type="int" name="ISIF">     2</i>
   <i name="PSTRESS">      0.00000000</i>
   <i name="EDIFFG">     -0.00010000</i>
   <i type="int" name="NFREE">     1</i>
   <i name="POTIM">      0.50000000</i>
   <i name="SMASS">     -3.00000000</i>
   <i name="SCALEE">      1.00000000</i>
  </separator>
  <separator name="ionic md" >
   <i name="TEBEG">      0.00010000</i>
   <i name="TEEND">      0.00010000</i>
   <i type="int" name="NBLOCK">     1</i>
   <i type="int" name="KBLOCK">    10</i>
   <i type="int" name="NPACO">   256</i>
   <i name="APACO">     10.00000000</i>
  </separator>
  <separator name="symmetry" >
   <i type="int" name="ISYM">     2</i>
   <i name="SYMPREC">      0.00001000</i>
  </separator>
  <separator name="dos" >
   <i type="int" name="LORBIT">     0</i>
   <v name="RWIGS">     -1.00000000</v>
   <i type="int" name="NEDOS">   301</i>
   <i name="EMIN">     10.00000000</i>
   <i name="EMAX">    -10.00000000</i>
   <i name="EFERMI">      0.00000000</i>
  </separator>
  <separator name="writing" >
   <i type="int" name="NWRITE">     2</i>
   <i type="logical" name="LWAVE"> T  </i>
   <i type="logical" name="LDOWNSAMPLE"> F  </i>
   <i type="logical" name="LCHARG"> T  </i>
   <i type="logical" name="LPARD"> F  </i>
   <i type="logical" name="LVTOT"> F  </i>
   <i type="logical" name="LVHAR"> F  </i>
   <i type="logical" name="LELF"> F  </i>
   <i type="logical" name="LOPTICS"> F  </i>
   <v name="STM">      0.00000000      0.00000000      0.00000000      0.00000000      0.00000000      0.00000000      0.00000000</v>
  </separator>
  <separator name="performance" >
   <i type="int" name="NPAR">     4</i>
   <i type="int" name="NSIM">     4</i>
   <i type="int" name="NBLK">    -1</i>
   <i type="logical" name="LPLANE"> T  </i>
   <i type="logical" name="LSCALAPACK"> T  </i>
   <i type="logical" name="LSCAAWARE"> F  </i>
   <i type="logical" name="LSCALU"> F  </i>
   <i type="logical" name="LASYNC"> F  </i>
   <i type="logical" name="LORBITALREAL"> F  </i>
  </separator>
  <separator name="miscellaneous" >
   <i type="int" name="IDIOT">     3</i>
   <i type="int" name="PHON_NSTRUCT">    -1</i>
   <i type="logical" name="LMUSIC"> F  </i>
   <v name="POMASS">     28.08500000</v>
   <v name="DARWINR">      0.00000000</v>
   <v name="DARWINV">      1.00000000</v>
   <i type="logical" name="LCORR"> T  </i>
  </separator>
  <i type="logical" name="GGA_COMPAT"> T  </i>
  <i type="logical" name="LBERRY"> F  </i>
  <i type="int" name="ICORELEVEL">     0</i>
  <i type="logical" name="LDAU"> F  </i>
  <i type="int" name="I_CONSTRAINED_M">     0</i>
  <separator name="electronic exchange-correlation" >
   <i type="string" name="GGA">--</i>
   <i type="int" name="VOSKOWN">     0</i>
   <i type="logical" name="LHFCALC"> F  </i>
   <i type="string" name="PRECFOCK"></i>
   <i type="logical" name="LSYMGRAD"> F  </i>
   <i type="logical" name="LHFONE"> F  </i>
   <i type="logical" name="LRHFCALC"> F  </i>
   <i type="logical" name="LTHOMAS"> F  </i>
   <i type="logical" name="LMODELHF"> F  </i>
   <i type="logical" name="LFOCKACE"> F  </i>
   <i name="ENCUT4O">     -1.00000000</i>
   <i type="int" name="EXXOEP">     0</i>
   <i type="int" name="FOURORBIT">     0</i>
   <i name="AEXX">      0.00000000</i>
   <i name="HFALPHA">      0.00000000</i>
   <i name="MCALPHA">      0.00000000</i>
   <i name="ALDAX">      1.00000000</i>
   <i name="AGGAX">      1.00000000</i>
   <i name="ALDAC">      1.00000000</i>
   <i name="AGGAC">      1.00000000</i>
   <i type="int" name="NKREDX">     1</i>
   <i type="int" name="NKREDY">     1</i>
   <i type="int" name="NKREDZ">     1</i>
   <i type="logical" name="SHIFTRED"> F  </i>
   <i type="logical" name="ODDONLY"> F  </i>
   <i type="logical" name="EVENONLY"> F  </i>
   <i type="int" name="LMAXFOCK">     0</i>
   <i type="int" name="NMAXFOCKAE">     0</i>
   <i type="logical" name="LFOCKAEDFT"> F  </i>
   <i name="HFSCREEN">      0.00000000</i>
   <i name="HFSCREENC">      0.00000000</i>
   <i type="int" name="NBANDSGWLOW">     0</i>
  </separator>
  <separator name="vdW DFT" >
   <i type="logical" name="LUSE_VDW"> F  </i>
   <i name="Zab_VDW">     -0.84910000</i>
   <i name="PARAM1">      0.12340000</i>
   <i name="PARAM2">      1.00000000</i>
   <i name="PARAM3">      0.00000000</i>
  </separator>
  <separator name="model GW" >
   <i type="int" name="MODEL_GW">     0</i>
   <i name="MODEL_EPS0">     12.47812500</i>
   <i name="MODEL_ALPHA">      1.00000000</i>
  </separator>
  <separator name="linear response parameters" >
   <i type="logical" name="LEPSILON"> F  </i>
   <i type="logical" name="LRPA"> F  </i>
   <i type="logical" name="LNABLA"> F  </i>
   <i type="logical" name="LVEL"> F  </i>
   <i name="CSHIFT">      0.10000000</i>
   <i name="OMEGAMAX">     -1.00000000</i>
   <i name="DEG_THRESHOLD">      0.00200000</i>
   <i name="RTIME">     -0.10000000</i>
   <i name="WPLASMAI">      0.00000000</i>
   <v name="DFIELD">      0.00000000      0.00000000      0.00000000</v>
   <v name="WPLASMA">      0.00000000      0.00000000      0.00000000      0.00000000      0.00000000      0.00000000      0.00000000      0.00000000      0.00000000</v>
  </separator>
  <separator name="orbital magnetization" >
   <i type="logical" name="NUCIND"> F  </i>
   <v name="MAGPOS">      0.00000000      0.00000000      0.00000000</v>
   <i type="logical" name="LNICSALL"> T  </i>
   <i type="logical" name="ORBITALMAG"> F  </i>
   <i type="logical" name="LMAGBLOCH"> F  </i>
   <i type="logical" name="LCHIMAG"> F  </i>
   <i type="logical" name="LGAUGE"> T  </i>
   <i type="int" name="MAGATOM">     0</i>
   <v name="MAGDIPOL">      0.00000000      0.00000000      0.00000000</v>
   <v name="AVECCONST">      0.00000000      0.00000000      0.00000000</v>
  </separator>
  <separator name="response functions" >
   <i type="logical" name="LFINITE_TEMPERATURE"> F  </i>
   <i type="logical" name="LADDER"> F  </i>
   <i type="logical" name="LRPAFORCE"> F  </i>
   <i type="logical" name="LFXC"> F  </i>
   <i type="logical" name="LHARTREE"> T  </i>
   <i type="int" name="IBSE">     0</i>
   <v type="int" name="KPOINT">    -1     0     0     0</v>
   <i type="logical" name="LTCTC"> F  </i>
   <i type="logical" name="LTCTE"> F  </i>
   <i type="logical" name="LTETE"> F  </i>
   <i type="logical" name="LTRIPLET"> F  </i>
   <i type="logical" name="LFXCEPS"> F  </i>
   <i type="logical" name="LFXHEG"> F  </i>
   <i type="int" name="NATURALO">     2</i>
   <i type="logical" name="LHOLEGF"> F  </i>
   <i type="logical" name="L2ORDER"> F  </i>
   <i type="logical" name="LDMP1"> F  </i>
   <i type="logical" name="LMP2LT"> F  </i>
   <i type="logical" name="LSMP2LT"> F  </i>
   <i type="logical" name="LGWLF"> F  </i>
   <i name="ENCUTGW">     -2.00000000</i>
   <i name="ENCUTGWSOFT">     -2.00000000</i>
   <i name="ENCUTLF">     -1.00000000</i>
   <i type="logical" name="LESF_SPLINES"> F  </i>
   <i type="int" name="LMAXMP2">    -1</i>
   <i name="SCISSOR">      0.00000000</i>
   <i type="int" name="NOMEGA">     0</i>
   <i type="int" name="NOMEGAR">     0</i>
   <i type="int" name="NBANDSGW">    -1</i>
   <i type="int" name="NBANDSO">    -1</i>
   <i type="int" name="NBANDSV">    -1</i>
   <i type="int" name="NELMGW">     1</i>
   <i type="int" name="NELMHF">     1</i>
   <i type="int" name="DIM">     3</i>
   <i type="int" name="IESPILON">     4</i>
   <i type="int" name="ANTIRES">     0</i>
   <i name="OMEGAMAX">    -30.00000000</i>
   <i name="OMEGAMIN">    -30.00000000</i>
   <i name="OMEGATL">   -200.00000000</i>
   <i type="int" name="OMEGAGRID">     0</i>
   <i name="CSHIFT">     -0.10000000</i>
   <i type="logical" name="LSELFENERGY"> F  </i>
   <i type="logical" name="LSPECTRAL"> F  </i>
   <i type="logical" name="LSPECTRALGW"> F  </i>
   <i type="logical" name="LSINGLES"> F  </i>
   <i type="logical" name="LFERMIGW"> F  </i>
   <i type="logical" name="ODDONLYGW"> F  </i>
   <i type="logical" name="EVENONLYGW"> F  </i>
   <i type="int" name="NKREDLFX">     1</i>
   <i type="int" name="NKREDLFY">     1</i>
   <i type="int" name="NKREDLFZ">     1</i>
   <i type="int" name="MAXMEM">  2800</i>
   <i type="int" name="TELESCOPE">     0</i>
   <i type="int" name="NTAUPAR">    -1</i>
   <i type="int" name="NOMEGAPAR">    -1</i>
   <i name="DAMP_NEWTON">      0.80000001</i>
   <i name="LAMBDA">      1.00000000</i>
  </separator>
  <separator name="External order field" >
   <i name="OFIELD_KAPPA">      0.00000000</i>
   <v name="OFIELD_K">      0.00000000      0.00000000      0.00000000</v>
   <i name="OFIELD_Q6_NEAR">      0.00000000</i>
   <i name="OFIELD_Q6_FAR">      0.00000000</i>
   <i name="OFIELD_A">      0.00000000</i>
  </separator>
  <separator name="optional k-points parameters" >
   <i type="int" name="KPOINTS_OPT_MODE">     1</i>
   <i type="logical" name="LKPOINTS_OPT"> F  </i>
  </separator>
 </parameters>
 <atominfo>
  <atoms>       2 </atoms>
  <types>       1 </types>
  <array name="atoms" >
   <dimension dim="1">ion</dimension>
   <field type="string">element</field>
   <field type="int">atomtype</field>
   <set>
    <rc><c>Si</c><c>   1</c></rc>
    <rc><c>Si</c><c>   1</c></rc>
   </set>
  </array>
  <array name="atomtypes" >
   <dimension dim="1">type</dimension>
   <field type="int">atomspertype</field>
   <field type="string">element</field>
   <field>mass</field>
   <field>valence</field>
   <field type="string">pseudopotential</field>
   <set>
    <rc><c>   2</c><c>Si</c><c>     28.08500000</c><c>      4.00000000</c><c>  PAW_PBE Si 05Jan2001                  </c></rc>
   </set>
  </array>
 </atominfo>
 <structure name="initialpos" >
  <crystal>
   <varray name="basis" >
    <v>       0.00000000       2.75000000       2.75000000 </v>
    <v>       2.75000000       0.00000000       2.75000000 </v>
    <v>       2.75000000       2.75000000       0.00000000 </v>
   </varray>
   <i name="volume">     41.59375000 </i>
   <varray name="rec_basis" >
    <v>      -0.18181818       0.18181818       0.18181818 </v>
    <v>       0.18181818      -0.18181818       0.18181818 </v>
    <v>       0.18181818       0.18181818      -0.18181818 </v>
   </varray>
  </crystal>
  <varray name="positions" >
   <v>       0.87500000       0.87500000       0.87500000 </v>
   <v>       0.12500000       0.12500000       0.13000000 </v>
  </varray>
 </structure>
 <calculation>
  <scstep>
   <time name="dav">    0.35    0.35</time>
   <time name="total">    0.37    4.00</time>
   <energy>
    <i name="alphaZ">      3.23732588 </i>
    <i name="ewald">   -225.65014771 </i>
    <i name="hartreedc">    -11.58626602 </i>
    <i name="XCdc">    -18.75111362 </i>
    <i name="pawpsdc">    176.24759923 </i>
    <i name="pawaedc">   -141.06103558 </i>
    <i name="eentropy">     -0.00233018 </i>
    <i name="bandstr">      9.44706990 </i>
    <i name="atom">    206.12155316 </i>
    <i name="e_fr_energy">     -1.99734494 </i>
    <i name="e_wo_entrp">     -1.99501476 </i>
    <i name="e_0_energy">     -1.99617985 </i>
   </energy>
  </scstep>
  <scstep>
   <time name="dav">    0.48    0.48</time>
   <time name="total">    0.48    0.48</time>
   <energy>
    <i name="e_fr_energy">    -10.89056267 </i>
    <i name="e_wo_entrp">    -10.89056267 </i>
    <i name="e_0_energy">    -10.89056267 </i>
   </energy>
  </scstep>
  <scstep>
   <time name="dav">    0.37    0.37</time>
   <time name="total">    0.37    0.37</time>
   <energy>
    <i name="e_fr_energy">    -10.97816449 </i>
    <i name="e_wo_entrp">    -10.97816449 </i>
    <i name="e_0_energy">    -10.97816449 </i>
   </energy>
  </scstep>
  <scstep>
   <time name="dav">    0.47    0.47</time>
   <time name="total">    0.47    0.47</time>
   <energy>
    <i name="e_fr_energy">    -10.97843389 </i>
    <i name="e_wo_entrp">    -10.97843389 </i>
    <i name="e_0_energy">    -10.97843389 </i>
   </energy>
  </scstep>
  <scstep>
   <time name="dav">    0.42    0.42</time>
   <time name="total">    0.43    0.43</time>
   <energy>
    <i name="e_fr_energy">    -10.97843409 </i>
    <i name="e_wo_entrp">    -10.97843409 </i>
    <i name="e_0_energy">    -10.97843409 </i>
   </energy>
  </scstep>
  <scstep>
   <time name="dav">    0.40    0.40</time>
   <time name="total">    0.42    0.42</time>
   <energy>
    <i name="e_fr_energy">    -10.87000621 </i>
    <i name="e_wo_entrp">    -10.87000620 </i>
    <i name="e_0_energy">    -10.87000620 </i>
   </energy>
  </scstep>
  <scstep>
   <time name="dav">    0.38    0.38</time>
   <time name="total">    0.40    0.40</time>
   <energy>
    <i name="e_fr_energy">    -10.81941873 </i>
    <i name="e_wo_entrp">    -10.81941862 </i>
    <i name="e_0_energy">    -10.81941867 </i>
   </energy>
  </scstep>
  <scstep>
   <time name="dav">    0.33    0.33</time>
   <time name="total">    0.35    0.35</time>
   <energy>
    <i name="e_fr_energy">    -10.82045704 </i>
    <i name="e_wo_entrp">    -10.82045698 </i>
    <i name="e_0_energy">    -10.82045701 </i>
   </energy>
  </scstep>
  <scstep>
   <time name="dav">    0.48    0.48</time>
   <time name="total">    0.50    0.50</time>
   <energy>
    <i name="e_fr_energy">    -10.82067154 </i>
    <i name="e_wo_entrp">    -10.82067149 </i>
    <i name="e_0_energy">    -10.82067152 </i>
   </energy>
  </scstep>
  <scstep>
   <time name="dav">    0.41    0.41</time>
   <time name="total">    0.42    0.42</time>
   <energy>
    <i name="alphaZ">      3.23732588 </i>
    <i name="ewald">   -225.65014771 </i>
    <i name="hartreedc">    -15.36772027 </i>
    <i name="XCdc">    -18.12796284 </i>
    <i name="pawpsdc">    964.92065752 </i>
    <i name="pawaedc">   -929.93306319 </i>
    <i name="eentropy">     -0.00000005 </i>
    <i name="bandstr">      3.97866231 </i>
    <i name="atom">    206.12155316 </i>
    <i name="e_fr_energy">    -10.82069521 </i>
    <i name="e_wo_entrp">    -10.82069516 </i>
    <i name="e_0_energy">    -10.82069518 </i>
   </energy>
  </scstep>
  <structure>
   <crystal>
    <varray name="basis" >
     <v>       0.00000000       2.75000000       2.75000000 </v>
     <v>       2.75000000       0.00000000       2.75000000 </v>
     <v>       2.75000000       2.75000000       0.00000000 </v>
    </varray>
    <i name="volume">     41.59375000 </i>
    <varray name="rec_basis" >
     <v>      -0.18181818       0.18181818       0.18181818 </v>
     <v>       0.18181818      -0.18181818       0.18181818 </v>
     <v>       0.18181818       0.18181818      -0.18181818 </v>
    </varray>
   </crystal>
   <varray name="positions" >
    <v>       0.87500000       0.87500000       0.87500000 </v>
    <v>       0.12500000       0.12500000       0.13000000 </v>
   </varray>
  </structure>
  <varray name="forces" >
   <v>       0.17372540       0.17372540      -0.00601146 </v>
   <v>      -0.17372540      -0.17372540       0.00601146 </v>
  </varray>
  <varray name="stress" >
   <v>     -16.34451472       0.13864213      -4.45575114 </v>
   <v>       0.13864213     -16.34451472      -4.45575114 </v>
   <v>      -4.45575116      -4.45575116     -16.23906267 </v>
  </varray>
  <energy>
   <i name="e_fr_energy">    -10.82069521 </i>
   <i name="e_wo_entrp">    -10.82069516 </i>
   <i name="e_0_energy">    -10.82069518 </i>
  </energy>
  <time name="totalsc">    4.72   17.38</time>
 </calculation>
 <calculation>
  <scstep>
   <time name="dav">    0.37    0.37</time>
   <time name="total">    0.38    0.39</time>
   <energy>
    <i name="alphaZ">      3.23732588 </i>
    <i name="ewald">   -225.65432062 </i>
    <i name="hartreedc">    -15.36588635 </i>
    <i name="XCdc">    -18.12800135 </i>
    <i name="pawpsdc">    966.17123185 </i>
    <i name="pawaedc">   -931.18320221 </i>
    <i name="eentropy">     -0.00000001 </i>
    <i name="bandstr">      3.97856056 </i>
    <i name="atom">    206.12155316 </i>
    <i name="e_fr_energy">    -10.82273910 </i>
    <i name="e_wo_entrp">    -10.82273909 </i>
    <i name="e_0_energy">    -10.82273910 </i>
   </energy>
  </scstep>
  <scstep>
   <time name="dav">    0.56    0.56</time>
   <time name="total">    0.58    0.58</time>
   <energy>
    <i name="e_fr_energy">    -10.82296909 </i>
    <i name="e_wo_entrp">    -10.82296909 </i>
    <i name="e_0_energy">    -10.82296909 </i>
   </energy>
  </scstep>
  <scstep>
   <time name="dav">    0.44    0.44</time>
   <time name="total">    0.45    0.45</time>
   <energy>
    <i name="alphaZ">      3.23732588 </i>
    <i name="ewald">   -225.65432062 </i>
    <i name="hartreedc">    -15.36714424 </i>
    <i name="XCdc">    -18.12797835 </i>
    <i name="pawpsdc">    965.93068766 </i>
    <i name="pawaedc">   -930.94263652 </i>
    <i name="eentropy">     -0.00000001 </i>
    <i name="bandstr">      3.97954713 </i>
    <i name="atom">    206.12155316 </i>
    <i name="e_fr_energy">    -10.82296590 </i>
    <i name="e_wo_entrp">    -10.82296589 </i>
    <i name="e_0_energy">    -10.82296590 </i>
   </energy>
  </scstep>
  <structure>
   <crystal>
    <varray name="basis" >
     <v>       0.00000000       2.75000000       2.75000000 </v>
     <v>       2.75000000       0.00000000       2.75000000 </v>
     <v>       2.75000000       2.75000000       0.00000000 </v>
    </varray>
    <i name="volume">     41.59375000 </i>
    <varray name="rec_basis" >
     <v>      -0.18181818       0.18181818       0.18181818 </v>
     <v>       0.18181818      -0.18181818       0.18181818 </v>
     <v>       0.18181818       0.18181818      -0.18181818 </v>
    </varray>
   </crystal>
   <varray name="positions" >
    <v>       0.87494727       0.87494727       0.87810036 </v>
    <v>       0.12505273       0.12505273       0.12689964 </v>
   </varray>
  </structure>
  <varray name="forces" >
   <v>      -0.03735211      -0.03735211       0.00705067 </v>
   <v>       0.03735211       0.03735211      -0.00705067 </v>
  </varray>
  <varray name="stress" >
   <v>     -16.37877922      -0.17630562       0.87620431 </v>
   <v>      -0.17630562     -16.37877922       0.87620431 </v>
   <v>       0.87620439       0.87620439     -16.37468877 </v>
  </varray>
  <energy>
   <i name="e_fr_energy">    -10.82296590 </i>
   <i name="e_wo_entrp">    -10.82296589 </i>
   <i name="e_0_energy">    -10.82296590 </i>
  </energy>
  <time name="totalsc">    1.87    1.88</time>
 </calculation>
 <calculation>
  <scstep>
   <time name="dav">    0.37    0.37</time>
   <time name="total">    0.39    0.39</time>
   <energy>
    <i name="alphaZ">      3.23732588 </i>
    <i name="ewald">   -225.65453193 </i>
    <i name="hartreedc">    -15.36776305 </i>
    <i name="XCdc">    -18.12798663 </i>
    <i name="pawpsdc">    965.81206242 </i>
    <i name="pawaedc">   -930.82401277 </i>
    <i name="eentropy">     -0.00000000 </i>
    <i name="bandstr">      3.98027786 </i>
    <i name="atom">    206.12155316 </i>
    <i name="e_fr_energy">    -10.82307508 </i>
    <i name="e_wo_entrp">    -10.82307508 </i>
    <i name="e_0_energy">    -10.82307508 </i>
   </energy>
  </scstep>
  <scstep>
   <time name="dav">    0.59    0.59</time>
   <time name="total">    0.59    0.59</time>
   <energy>
    <i name="alphaZ">      3.23732588 </i>
    <i name="ewald">   -225.65453193 </i>
    <i name="hartreedc">    -15.36779303 </i>
    <i name="XCdc">    -18.12799374 </i>
    <i name="pawpsdc">    965.85544620 </i>
    <i name="pawaedc">   -930.86738855 </i>
    <i name="eentropy">     -0.00000000 </i>
    <i name="bandstr">      3.98029901 </i>
    <i name="atom">    206.12155316 </i>
    <i name="e_fr_energy">    -10.82308301 </i>
    <i name="e_wo_entrp">    -10.82308301 </i>
    <i name="e_0_energy">    -10.82308301 </i>
   </energy>
  </scstep>
  <structure>
   <crystal>
    <varray name="basis" >
     <v>       0.00000000       2.75000000       2.75000000 </v>
     <v>       2.75000000       0.00000000       2.75000000 </v>
     <v>       2.75000000       2.75000000       0.00000000 </v>
    </varray>
    <i name="volume">     41.59375000 </i>
    <varray name="rec_basis" >
     <v>      -0.18181818       0.18181818       0.18181818 </v>
     <v>       0.18181818      -0.18181818       0.18181818 </v>
     <v>       0.18181818       0.18181818      -0.18181818 </v>
    </varray>
   </crystal>
   <varray name="positions" >
    <v>       0.87495662       0.87495662       0.87755052 </v>
    <v>       0.12504338       0.12504338       0.12744948 </v>
   </varray>
  </structure>
  <varray name="forces" >
   <v>      -0.00061999      -0.00061999       0.00604317 </v>
   <v>       0.00061999       0.00061999      -0.00604317 </v>
  </varray>
  <varray name="stress" >
   <v>     -16.40803922      -0.16057402       0.16095605 </v>
   <v>      -0.16057402     -16.40803922       0.16095605 </v>
   <v>       0.16095620       0.16095620     -16.40778468 </v>
  </varray>
  <energy>
   <i name="e_fr_energy">    -10.82308301 </i>
   <i name="e_wo_entrp">    -10.82308301 </i>
   <i name="e_0_energy">    -10.82308301 </i>
  </energy>
  <time name="totalsc">    1.44    1.46</time>
 </calculation>
 <calculation>
  <scstep>
   <time name="dav">    0.21    0.21</time>
   <time name="total">    0.23    0.23</time>
   <energy>
    <i name="alphaZ">      3.23732588 </i>
    <i name="ewald">   -225.65453198 </i>
    <i name="hartreedc">    -15.36779699 </i>
    <i name="XCdc">    -18.12799119 </i>
    <i name="pawpsdc">    965.84774702 </i>
    <i name="pawaedc">   -930.85967963 </i>
    <i name="eentropy">     -0.00000000 </i>
    <i name="bandstr">      3.98029122 </i>
    <i name="atom">    206.12155316 </i>
    <i name="e_fr_energy">    -10.82308251 </i>
    <i name="e_wo_entrp">    -10.82308250 </i>
    <i name="e_0_energy">    -10.82308251 </i>
   </energy>
  </scstep>
  <scstep>
   <time name="dav">    0.18    0.18</time>
   <time name="total">    0.18    0.18</time>
   <energy>
    <i name="alphaZ">      3.23732588 </i>
    <i name="ewald">   -225.65453198 </i>
    <i name="hartreedc">    -15.36780761 </i>
    <i name="XCdc">    -18.12798916 </i>
    <i name="pawpsdc">    965.84509703 </i>
    <i name="pawaedc">   -930.85702645 </i>
    <i name="eentropy">     -0.00000000 </i>
    <i name="bandstr">      3.98029667 </i>
    <i name="atom">    206.12155316 </i>
    <i name="e_fr_energy">    -10.82308247 </i>
    <i name="e_wo_entrp">    -10.82308246 </i>
    <i name="e_0_energy">    -10.82308247 </i>
   </energy>
  </scstep>
  <structure>
   <crystal>
    <varray name="basis" >
     <v>       0.00000000       2.75000000       2.75000000 </v>
     <v>       2.75000000       0.00000000       2.75000000 </v>
     <v>       2.75000000       2.75000000       0.00000000 </v>
    </varray>
    <i name="volume">     41.59375000 </i>
    <varray name="rec_basis" >
     <v>      -0.18181818       0.18181818       0.18181818 </v>
     <v>       0.18181818      -0.18181818       0.18181818 </v>
     <v>       0.18181818       0.18181818      -0.18181818 </v>
    </varray>
   </crystal>
   <varray name="positions" >
    <v>       0.87495680       0.87495680       0.87753993 </v>
    <v>       0.12504320       0.12504320       0.12746007 </v>
   </varray>
  </structure>
  <varray name="forces" >
   <v>       0.00017246       0.00017246       0.00601533 </v>
   <v>      -0.00017246      -0.00017246      -0.00601533 </v>
  </varray>
  <varray name="stress" >
   <v>     -16.40732335      -0.15648709       0.01490371 </v>
   <v>      -0.15648709     -16.40732335       0.01490371 </v>
   <v>       0.01490377       0.01490377     -16.40706122 </v>
  </varray>
  <energy>
   <i name="e_fr_energy">    -10.82308247 </i>
   <i name="e_wo_entrp">    -10.82308246 </i>
   <i name="e_0_energy">    -10.82308247 </i>
  </energy>
  <time name="totalsc">    0.97    0.98</time>
 </calculation>
 <calculation>
  <scstep>
   <time name="dav">    0.18    0.18</time>
   <time name="total">    0.20    0.20</time>
   <energy>
    <i name="alphaZ">      3.23732588 </i>
    <i name="ewald">   -225.65453198 </i>
    <i name="hartreedc">    -15.36782806 </i>
    <i name="XCdc">    -18.12798513 </i>
    <i name="pawpsdc">    965.84055725 </i>
    <i name="pawaedc">   -930.85248234 </i>
    <i name="eentropy">     -0.00000000 </i>
    <i name="bandstr">      3.98030878 </i>
    <i name="atom">    206.12155316 </i>
    <i name="e_fr_energy">    -10.82308246 </i>
    <i name="e_wo_entrp">    -10.82308246 </i>
    <i name="e_0_energy">    -10.82308246 </i>
   </energy>
  </scstep>
  <scstep>
   <time name="dav">    0.18    0.18</time>
   <time name="total">    0.18    0.19</time>
   <energy>
    <i name="alphaZ">      3.23732588 </i>
    <i name="ewald">   -225.65453198 </i>
    <i name="hartreedc">    -15.36783400 </i>
    <i name="XCdc">    -18.12798444 </i>
    <i name="pawpsdc">    965.84067129 </i>
    <i name="pawaedc">   -930.85259643 </i>
    <i name="eentropy">     -0.00000000 </i>
    <i name="bandstr">      3.98031407 </i>
    <i name="atom">    206.12155316 </i>
    <i name="e_fr_energy">    -10.82308246 </i>
    <i name="e_wo_entrp">    -10.82308246 </i>
    <i name="e_0_energy">    -10.82308246 </i>
   </energy>
  </scstep>
  <structure>
   <crystal>
    <varray name="basis" >
     <v>       0.00000000       2.75000000       2.75000000 </v>
     <v>       2.75000000       0.00000000       2.75000000 </v>
     <v>       2.75000000       2.75000000       0.00000000 </v>
    </varray>
    <i name="volume">     41.59375000 </i>
    <varray name="rec_basis" >
     <v>      -0.18181818       0.18181818       0.18181818 </v>
     <v>       0.18181818      -0.18181818       0.18181818 </v>
     <v>       0.18181818       0.18181818      -0.18181818 </v>
    </varray>
   </crystal>
   <varray name="positions" >
    <v>       0.87495679       0.87495679       0.87754084 </v>
    <v>       0.12504321       0.12504321       0.12745916 </v>
   </varray>
  </structure>
  <varray name="forces" >
   <v>       0.00015012       0.00015012       0.00601694 </v>
   <v>      -0.00015012      -0.00015012      -0.00601694 </v>
  </varray>
  <varray name="stress" >
   <v>     -16.40741646      -0.15608232      -0.00887703 </v>
   <v>      -0.15608232     -16.40741646      -0.00887703 </v>
   <v>      -0.00887694      -0.00887694     -16.40711844 </v>
  </varray>
  <energy>
   <i name="e_fr_energy">    -10.82308246 </i>
   <i name="e_wo_entrp">    -10.82308246 </i>
   <i name="e_0_energy">    -10.82308246 </i>
  </energy>
  <time name="totalsc">    0.84    0.85</time>
 </calculation>
 <calculation>
  <scstep>
   <time name="dav">    0.19    0.19</time>
   <time name="total">    0.20    0.20</time>
   <energy>
    <i name="alphaZ">      3.23732588 </i>
    <i name="ewald">   -225.65453198 </i>
    <i name="hartreedc">    -15.36783939 </i>
    <i name="XCdc">    -18.12798380 </i>
    <i name="pawpsdc">    965.84114031 </i>
    <i name="pawaedc">   -930.85306542 </i>
    <i name="eentropy">     -0.00000000 </i>
    <i name="bandstr">      3.98031880 </i>
    <i name="atom">    206.12155316 </i>
    <i name="e_fr_energy">    -10.82308246 </i>
    <i name="e_wo_entrp">    -10.82308246 </i>
    <i name="e_0_energy">    -10.82308246 </i>
   </energy>
  </scstep>
  <scstep>
   <time name="dav">    0.21    0.21</time>
   <time name="total">    0.22    0.22</time>
   <energy>
    <i name="alphaZ">      3.23732588 </i>
    <i name="ewald">   -225.65453198 </i>
    <i name="hartreedc">    -15.36784137 </i>
    <i name="XCdc">    -18.12798356 </i>
    <i name="pawpsdc">    965.84125914 </i>
    <i name="pawaedc">   -930.85318424 </i>
    <i name="eentropy">     -0.00000000 </i>
    <i name="bandstr">      3.98032052 </i>
    <i name="atom">    206.12155316 </i>
    <i name="e_fr_energy">    -10.82308246 </i>
    <i name="e_wo_entrp">    -10.82308246 </i>
    <i name="e_0_energy">    -10.82308246 </i>
   </energy>
  </scstep>
  <structure>
   <crystal>
    <varray name="basis" >
     <v>       0.00000000       2.75000000       2.75000000 </v>
     <v>       2.75000000       0.00000000       2.75000000 </v>
     <v>       2.75000000       2.75000000       0.00000000 </v>
    </varray>
    <i name="volume">     41.59375000 </i>
    <varray name="rec_basis" >
     <v>      -0.18181818       0.18181818       0.18181818 </v>
     <v>       0.18181818      -0.18181818       0.18181818 </v>
     <v>       0.18181818       0.18181818      -0.18181818 </v>
    </varray>
   </crystal>
   <varray name="positions" >
    <v>       0.87495676       0.87495676       0.87754261 </v>
    <v>       0.12504324       0.12504324       0.12745739 </v>
   </varray>
  </structure>
  <varray name="forces" >
   <v>       0.00003438       0.00003438       0.00602141 </v>
   <v>      -0.00003438      -0.00003438      -0.00602141 </v>
  </varray>
  <varray name="stress" >
   <v>     -16.40751746      -0.15629539      -0.00222237 </v>
   <v>      -0.15629539     -16.40751746      -0.00222237 </v>
   <v>      -0.00222249      -0.00222249     -16.40721988 </v>
  </varray>
  <energy>
   <i name="e_fr_energy">    -10.82308246 </i>
   <i name="e_wo_entrp">    -10.82308246 </i>
   <i name="e_0_energy">    -10.82308246 </i>
  </energy>
  <time name="totalsc">    0.84    0.85</time>
 </calculation>
 <calculation>
  <scstep>
   <time name="dav">    0.14    0.14</time>
   <time name="total">    0.16    0.16</time>
   <energy>
    <i name="alphaZ">      3.23732588 </i>
    <i name="ewald">   -225.65453199 </i>
    <i name="hartreedc">    -15.36784306 </i>
    <i name="XCdc">    -18.12798336 </i>
    <i name="pawpsdc">    965.84149715 </i>
    <i name="pawaedc">   -930.85342222 </i>
    <i name="eentropy">     -0.00000000 </i>
    <i name="bandstr">      3.98032199 </i>
    <i name="atom">    206.12155316 </i>
    <i name="e_fr_energy">    -10.82308246 </i>
    <i name="e_wo_entrp">    -10.82308246 </i>
    <i name="e_0_energy">    -10.82308246 </i>
   </energy>
  </scstep>
  <scstep>
   <time name="dav">    0.14    0.14</time>
   <time name="total">    0.15    0.15</time>
   <energy>
    <i name="alphaZ">      3.23732588 </i>
    <i name="ewald">   -225.65453199 </i>
    <i name="hartreedc">    -15.36784378 </i>
    <i name="XCdc">    -18.12798330 </i>
    <i name="pawpsdc">    965.84160612 </i>
    <i name="pawaedc">   -930.85353118 </i>
    <i name="eentropy">     -0.00000000 </i>
    <i name="bandstr">      3.98032264 </i>
    <i name="atom">    206.12155316 </i>
    <i name="e_fr_energy">    -10.82308246 </i>
    <i name="e_wo_entrp">    -10.82308246 </i>
    <i name="e_0_energy">    -10.82308246 </i>
   </energy>
  </scstep>
  <structure>
   <crystal>
    <varray name="basis" >
     <v>       0.00000000       2.75000000       2.75000000 </v>
     <v>       2.75000000       0.00000000       2.75000000 </v>
     <v>       2.75000000       2.75000000       0.00000000 </v>
    </varray>
    <i name="volume">     41.59375000 </i>
    <varray name="rec_basis" >
     <v>      -0.18181818       0.18181818       0.18181818 </v>
     <v>       0.18181818      -0.18181818       0.18181818 </v>
     <v>       0.18181818       0.18181818      -0.18181818 </v>
    </varray>
   </crystal>
   <varray name="positions" >
    <v>       0.87495678       0.87495678       0.87754154 </v>
    <v>       0.12504322       0.12504322       0.12745846 </v>
   </varray>
  </structure>
  <varray name="forces" >
   <v>       0.00012798       0.00012798       0.00601816 </v>
   <v>      -0.00012798      -0.00012798      -0.00601816 </v>
  </varray>
  <varray name="stress" >
   <v>     -16.40754953      -0.15623473      -0.00359587 </v>
   <v>      -0.15623473     -16.40754953      -0.00359587 </v>
   <v>      -0.00359594      -0.00359594     -16.40724748 </v>
  </varray>
  <energy>
   <i name="e_fr_energy">    -10.82308246 </i>
   <i name="e_wo_entrp">    -10.82308246 </i>
   <i name="e_0_energy">    -10.82308246 </i>
  </energy>
  <time name="totalsc">    0.72    0.72</time>
 </calculation>
 <calculation>
  <scstep>
   <time name="dav">    0.17    0.18</time>
   <time name="total">    0.19    0.19</time>
   <energy>
    <i name="alphaZ">      3.23732588 </i>
    <i name="ewald">   -225.65453199 </i>
    <i name="hartreedc">    -15.36784426 </i>
    <i name="XCdc">    -18.12798324 </i>
    <i name="pawpsdc">    965.84168445 </i>
    <i name="pawaedc">   -930.85360951 </i>
    <i name="eentropy">     -0.00000000 </i>
    <i name="bandstr">      3.98032305 </i>
    <i name="atom">    206.12155316 </i>
    <i name="e_fr_energy">    -10.82308246 </i>
    <i name="e_wo_entrp">    -10.82308246 </i>
    <i name="e_0_energy">    -10.82308246 </i>
   </energy>
  </scstep>
  <scstep>
   <time name="dav">    0.17    0.17</time>
   <time name="total">    0.18    0.18</time>
   <energy>
    <i name="alphaZ">      3.23732588 </i>
    <i name="ewald">   -225.65453199 </i>
    <i name="hartreedc">    -15.36784457 </i>
    <i name="XCdc">    -18.12798319 </i>
    <i name="pawpsdc">    965.84170404 </i>
    <i name="pawaedc">   -930.85362909 </i>
    <i name="eentropy">     -0.00000000 </i>
    <i name="bandstr">      3.98032331 </i>
    <i name="atom">    206.12155316 </i>
    <i name="e_fr_energy">    -10.82308246 </i>
    <i name="e_wo_entrp">    -10.82308246 </i>
    <i name="e_0_energy">    -10.82308246 </i>
   </energy>
  </scstep>
  <structure>
   <crystal>
    <varray name="basis" >
     <v>       0.00000000       2.75000000       2.75000000 </v>
     <v>       2.75000000       0.00000000       2.75000000 </v>
     <v>       2.75000000       2.75000000       0.00000000 </v>
    </varray>
    <i name="volume">     41.59375000 </i>
    <varray name="rec_basis" >
     <v>      -0.18181818       0.18181818       0.18181818 </v>
     <v>       0.18181818      -0.18181818       0.18181818 </v>
     <v>       0.18181818       0.18181818      -0.18181818 </v>
    </varray>
   </crystal>
   <varray name="positions" >
    <v>       0.87495677       0.87495677       0.87754211 </v>
    <v>       0.12504323       0.12504323       0.12745789 </v>
   </varray>
  </structure>
  <varray name="forces" >
   <v>       0.00007990       0.00007990       0.00601983 </v>
   <v>      -0.00007990      -0.00007990      -0.00601983 </v>
  </varray>
  <varray name="stress" >
   <v>     -16.40755791      -0.15627715      -0.00231797 </v>
   <v>      -0.15627715     -16.40755791      -0.00231797 </v>
   <v>      -0.00231813      -0.00231813     -16.40725528 </v>
  </varray>
  <energy>
   <i name="e_fr_energy">    -10.82308246 </i>
   <i name="e_wo_entrp">    -10.82308246 </i>
   <i name="e_0_energy">    -10.82308246 </i>
  </energy>
  <time name="totalsc">    0.79    0.80</time>
 </calculation>
 <calculation>
  <scstep>
   <time name="dav">    0.15    0.15</time>
   <time name="total">    0.17    0.17</time>
   <energy>
    <i name="alphaZ">      3.23732588 </i>
    <i name="ewald">   -225.65453199 </i>
    <i name="hartreedc">    -15.36784475 </i>
    <i name="XCdc">    -18.12798317 </i>
    <i name="pawpsdc">    965.84173102 </i>
    <i name="pawaedc">   -930.85365607 </i>
    <i name="eentropy">     -0.00000000 </i>
    <i name="bandstr">      3.98032346 </i>
    <i name="atom">    206.12155316 </i>
    <i name="e_fr_energy">    -10.82308246 </i>
    <i name="e_wo_entrp">    -10.82308246 </i>
    <i name="e_0_energy">    -10.82308246 </i>
   </energy>
  </scstep>
  <scstep>
   <time name="dav">    0.14    0.14</time>
   <time name="total">    0.14    0.15</time>
   <energy>
    <i name="alphaZ">      3.23732588 </i>
    <i name="ewald">   -225.65453199 </i>
    <i name="hartreedc">    -15.36784490 </i>
    <i name="XCdc">    -18.12798316 </i>
    <i name="pawpsdc">    965.84176034 </i>
    <i name="pawaedc">   -930.85368538 </i>
    <i name="eentropy">     -0.00000000 </i>
    <i name="bandstr">      3.98032360 </i>
    <i name="atom">    206.12155316 </i>
    <i name="e_fr_energy">    -10.82308246 </i>
    <i name="e_wo_entrp">    -10.82308246 </i>
    <i name="e_0_energy">    -10.82308246 </i>
   </energy>
  </scstep>
  <structure>
   <crystal>
    <varray name="basis" >
     <v>       0.00000000       2.75000000       2.75000000 </v>
     <v>       2.75000000       0.00000000       2.75000000 </v>
     <v>       2.75000000       2.75000000       0.00000000 </v>
    </varray>
    <i name="volume">     41.59375000 </i>
    <varray name="rec_basis" >
     <v>      -0.18181818       0.18181818       0.18181818 </v>
     <v>       0.18181818      -0.18181818       0.18181818 </v>
     <v>       0.18181818       0.18181818      -0.18181818 </v>
    </varray>
   </crystal>
   <varray name="positions" >
    <v>       0.87495677       0.87495677       0.87754182 </v>
    <v>       0.12504323       0.12504323       0.12745818 </v>
   </varray>
  </structure>
  <varray name="forces" >
   <v>       0.00010452       0.00010452       0.00601896 </v>
   <v>      -0.00010452      -0.00010452      -0.00601896 </v>
  </varray>
  <varray name="stress" >
   <v>     -16.40756214      -0.15625715      -0.00287487 </v>
   <v>      -0.15625715     -16.40756214      -0.00287487 </v>
   <v>      -0.00287496      -0.00287496     -16.40725894 </v>
  </varray>
  <energy>
   <i name="e_fr_energy">    -10.82308246 </i>
   <i name="e_wo_entrp">    -10.82308246 </i>
   <i name="e_0_energy">    -10.82308246 </i>
  </energy>
  <time name="totalsc">    0.72    0.73</time>
 </calculation>
 <calculation>
  <scstep>
   <time name="dav">    0.30    0.30</time>
   <time name="total">    0.31    0.31</time>
   <energy>
    <i name="alphaZ">      3.23732588 </i>
    <i name="ewald">   -225.65453453 </i>
    <i name="hartreedc">    -15.36784455 </i>
    <i name="XCdc">    -18.12798316 </i>
    <i name="pawpsdc">    965.84177736 </i>
    <i name="pawaedc">   -930.85370240 </i>
    <i name="eentropy">     -0.00000000 </i>
    <i name="bandstr">      3.98032453 </i>
    <i name="atom">    206.12155316 </i>
    <i name="e_fr_energy">    -10.82308371 </i>
    <i name="e_wo_entrp">    -10.82308371 </i>
    <i name="e_0_energy">    -10.82308371 </i>
   </energy>
  </scstep>
  <scstep>
   <time name="dav">    0.15    0.15</time>
   <time name="total">    0.15    0.15</time>
   <energy>
    <i name="alphaZ">      3.23732588 </i>
    <i name="ewald">   -225.65453453 </i>
    <i name="hartreedc">    -15.36784461 </i>
    <i name="XCdc">    -18.12798216 </i>
    <i name="pawpsdc">    965.84220515 </i>
    <i name="pawaedc">   -930.85413016 </i>
    <i name="eentropy">     -0.00000000 </i>
    <i name="bandstr">      3.98032343 </i>
    <i name="atom">    206.12155316 </i>
    <i name="e_fr_energy">    -10.82308384 </i>
    <i name="e_wo_entrp">    -10.82308383 </i>
    <i name="e_0_energy">    -10.82308384 </i>
   </energy>
  </scstep>
  <structure>
   <crystal>
    <varray name="basis" >
     <v>       0.00000000       2.75000000       2.75000000 </v>
     <v>       2.75000000       0.00000000       2.75000000 </v>
     <v>       2.75000000       2.75000000       0.00000000 </v>
    </varray>
    <i name="volume">     41.59375000 </i>
    <varray name="rec_basis" >
     <v>      -0.18181818       0.18181818       0.18181818 </v>
     <v>       0.18181818      -0.18181818       0.18181818 </v>
     <v>       0.18181818       0.18181818      -0.18181818 </v>
    </varray>
   </crystal>
   <varray name="positions" >
    <v>       0.87500763       0.87500763       0.87749449 </v>
    <v>       0.12499237       0.12499237       0.12750551 </v>
   </varray>
  </structure>
  <varray name="forces" >
   <v>      -0.00014349      -0.00014349      -0.00109980 </v>
   <v>       0.00014349       0.00014349       0.00109980 </v>
  </varray>
[...]
       <r>   -1.5899    1.0000 </r>
       <r>    1.7631    1.0000 </r>
       <r>    2.1343    1.0000 </r>
       <r>    8.4514    0.0000 </r>
       <r>    8.6648    0.0000 </r>
       <r>   10.9705    0.0000 </r>
       <r>   12.5322    0.0000 </r>
      </set>
      <set comment="kpoint 356">
       <r>   -2.6585    1.0000 </r>
       <r>   -1.5899    1.0000 </r>
       <r>    1.7631    1.0000 </r>
       <r>    2.1343    1.0000 </r>
       <r>    8.4514    0.0000 </r>
       <r>    8.6648    0.0000 </r>
       <r>   10.9705    0.0000 </r>
       <r>   12.5322    0.0000 </r>
      </set>
      <set comment="kpoint 357">
       <r>   -2.6583    1.0000 </r>
       <r>   -1.5900    1.0000 </r>
       <r>    1.7630    1.0000 </r>
       <r>    2.1344    1.0000 </r>
       <r>    8.4514    0.0000 </r>
       <r>    8.6648    0.0000 </r>
       <r>   10.9707    0.0000 </r>
       <r>   12.5321    0.0000 </r>
      </set>
      <set comment="kpoint 358">
       <r>   -2.6585    1.0000 </r>
       <r>   -1.5898    1.0000 </r>
       <r>    1.7631    1.0000 </r>
       <r>    2.1343    1.0000 </r>
       <r>    8.4515    0.0000 </r>
       <r>    8.6648    0.0000 </r>
       <r>   10.9705    0.0000 </r>
       <r>   12.5322    0.0000 </r>
      </set>
      <set comment="kpoint 359">
       <r>   -2.6586    1.0000 </r>
       <r>   -1.5896    1.0000 </r>
       <r>    1.7632    1.0000 </r>
       <r>    2.1341    1.0000 </r>
       <r>    8.4515    0.0000 </r>
       <r>    8.6647    0.0000 </r>
       <r>   10.9703    0.0000 </r>
       <r>   12.5324    0.0000 </r>
      </set>
      <set comment="kpoint 360">
       <r>   -2.6585    1.0000 </r>
       <r>   -1.5898    1.0000 </r>
       <r>    1.7631    1.0000 </r>
       <r>    2.1343    1.0000 </r>
       <r>    8.4515    0.0000 </r>
       <r>    8.6648    0.0000 </r>
       <r>   10.9705    0.0000 </r>
       <r>   12.5322    0.0000 </r>
      </set>
      <set comment="kpoint 361">
       <r>   -2.4691    1.0000 </r>
       <r>   -1.7480    1.0000 </r>
       <r>    1.4972    1.0000 </r>
       <r>    2.1690    1.0000 </r>
       <r>    8.7989    0.0000 </r>
       <r>   10.0835    0.0000 </r>
       <r>   10.7206    0.0000 </r>
       <r>   10.7516    0.0000 </r>
      </set>
      <set comment="kpoint 362">
       <r>   -2.4689    1.0000 </r>
       <r>   -1.7482    1.0000 </r>
       <r>    1.4971    1.0000 </r>
       <r>    2.1692    1.0000 </r>
       <r>    8.7991    0.0000 </r>
       <r>   10.0833    0.0000 </r>
       <r>   10.7206    0.0000 </r>
       <r>   10.7516    0.0000 </r>
      </set>
      <set comment="kpoint 363">
       <r>   -2.4689    1.0000 </r>
       <r>   -1.7482    1.0000 </r>
       <r>    1.4971    1.0000 </r>
       <r>    2.1692    1.0000 </r>
       <r>    8.7991    0.0000 </r>
       <r>   10.0833    0.0000 </r>
       <r>   10.7206    0.0000 </r>
       <r>   10.7516    0.0000 </r>
      </set>
      <set comment="kpoint 364">
       <r>   -2.4687    1.0000 </r>
       <r>   -1.7486    1.0000 </r>
       <r>    1.4969    1.0000 </r>
       <r>    2.1694    1.0000 </r>
       <r>    8.7994    0.0000 </r>
       <r>   10.0830    0.0000 </r>
       <r>   10.7206    0.0000 </r>
       <r>   10.7517    0.0000 </r>
      </set>
      <set comment="kpoint 365">
       <r>   -2.4689    1.0000 </r>
       <r>   -1.7483    1.0000 </r>
       <r>    1.4970    1.0000 </r>
       <r>    2.1692    1.0000 </r>
       <r>    8.7991    0.0000 </r>
       <r>   10.0832    0.0000 </r>
       <r>   10.7206    0.0000 </r>
       <r>   10.7516    0.0000 </r>
      </set>
      <set comment="kpoint 366">
       <r>   -2.4689    1.0000 </r>
       <r>   -1.7483    1.0000 </r>
       <r>    1.4970    1.0000 </r>
       <r>    2.1692    1.0000 </r>
       <r>    8.7991    0.0000 </r>
       <r>   10.0832    0.0000 </r>
       <r>   10.7206    0.0000 </r>
       <r>   10.7516    0.0000 </r>
      </set>
     </set>
    </set>
   </array>
  </eigenvalues>
  <separator name="orbital magnetization" >
   <v name="MAGDIPOLOUT">      0.00000000      0.00000000      0.00000000</v>
  </separator>
  <dos>
   <i name="efermi">      5.79134760 </i>
   <total>
    <array>
     <dimension dim="1">gridpoints</dimension>
     <dimension dim="2">spin</dimension>
     <field>energy</field>
     <field>total</field>
     <field>integrated</field>
     <set>
      <set comment="spin 1">
       <r>    -7.3089     0.0000     0.0000 </r>
       <r>    -7.2314     0.0000     0.0000 </r>
       <r>    -7.1540     0.0000     0.0000 </r>
       <r>    -7.0765     0.0000     0.0000 </r>
       <r>    -6.9991     0.0000     0.0000 </r>
       <r>    -6.9216     0.0000     0.0000 </r>
       <r>    -6.8441     0.0000     0.0000 </r>
       <r>    -6.7667     0.0000     0.0000 </r>
       <r>    -6.6892     0.0000     0.0000 </r>
       <r>    -6.6118     0.0000     0.0000 </r>
       <r>    -6.5343     0.0000     0.0000 </r>
       <r>    -6.4568     0.0000     0.0000 </r>
       <r>    -6.3794     0.0008     0.0001 </r>
       <r>    -6.3019     0.0066     0.0006 </r>
       <r>    -6.2245     0.0335     0.0032 </r>
       <r>    -6.1470     0.0936     0.0104 </r>
       <r>    -6.0695     0.1259     0.0202 </r>
       <r>    -5.9921     0.1386     0.0309 </r>
       <r>    -5.9146     0.2231     0.0482 </r>
       <r>    -5.8372     0.2932     0.0709 </r>
       <r>    -5.7597     0.2085     0.0871 </r>
       <r>    -5.6822     0.1611     0.0995 </r>
       <r>    -5.6048     0.3145     0.1239 </r>
       <r>    -5.5273     0.4184     0.1563 </r>
       <r>    -5.4499     0.3514     0.1835 </r>
       <r>    -5.3724     0.3521     0.2108 </r>
       <r>    -5.2950     0.3466     0.2376 </r>
       <r>    -5.2175     0.2442     0.2566 </r>
       <r>    -5.1400     0.3008     0.2799 </r>
       <r>    -5.0626     0.5903     0.3256 </r>
       <r>    -4.9851     0.6184     0.3735 </r>
       <r>    -4.9077     0.4277     0.4066 </r>
       <r>    -4.8302     0.4742     0.4433 </r>
       <r>    -4.7527     0.4743     0.4801 </r>
       <r>    -4.6753     0.3221     0.5050 </r>
       <r>    -4.5978     0.3417     0.5315 </r>
       <r>    -4.5204     0.6446     0.5814 </r>
       <r>    -4.4429     0.8558     0.6477 </r>
       <r>    -4.3654     0.8088     0.7104 </r>
       <r>    -4.2880     0.6681     0.7621 </r>
       <r>    -4.2105     0.5787     0.8069 </r>
       <r>    -4.1331     0.5230     0.8474 </r>
       <r>    -4.0556     0.4912     0.8855 </r>
       <r>    -3.9781     0.6953     0.9393 </r>
       <r>    -3.9007     1.2602     1.0370 </r>
       <r>    -3.8232     1.3359     1.1404 </r>
       <r>    -3.7458     0.7928     1.2018 </r>
       <r>    -3.6683     0.7132     1.2571 </r>
       <r>    -3.5909     0.7597     1.3159 </r>
       <r>    -3.5134     0.4561     1.3513 </r>
       <r>    -3.4359     0.5278     1.3921 </r>
       <r>    -3.3585     0.9408     1.4650 </r>
       <r>    -3.2810     1.1181     1.5516 </r>
       <r>    -3.2036     0.7548     1.6101 </r>
       <r>    -3.1261     0.3836     1.6398 </r>
       <r>    -3.0486     0.4036     1.6711 </r>
       <r>    -2.9712     0.4042     1.7024 </r>
       <r>    -2.8937     0.5358     1.7439 </r>
       <r>    -2.8163     0.8466     1.8095 </r>
       <r>    -2.7388     0.6710     1.8614 </r>
       <r>    -2.6613     0.3588     1.8892 </r>
       <r>    -2.5839     0.2212     1.9064 </r>
       <r>    -2.5064     0.1829     1.9205 </r>
       <r>    -2.4290     0.2613     1.9408 </r>
       <r>    -2.3515     0.3132     1.9650 </r>
       <r>    -2.2740     0.2935     1.9878 </r>
       <r>    -2.1966     0.2042     2.0036 </r>
       <r>    -2.1191     0.1368     2.0142 </r>
       <r>    -2.0417     0.1228     2.0237 </r>
       <r>    -1.9642     0.1899     2.0384 </r>
       <r>    -1.8868     0.1658     2.0512 </r>
       <r>    -1.8093     0.1234     2.0608 </r>
       <r>    -1.7318     0.2045     2.0766 </r>
       <r>    -1.6544     0.2937     2.0994 </r>
       <r>    -1.5769     0.5909     2.1452 </r>
       <r>    -1.4995     0.8968     2.2146 </r>
       <r>    -1.4220     0.7351     2.2716 </r>
       <r>    -1.3445     0.4551     2.3068 </r>
       <r>    -1.2671     0.7260     2.3631 </r>
       <r>    -1.1896     1.3419     2.4670 </r>
       <r>    -1.1122     1.5016     2.5833 </r>
       <r>    -1.0347     1.2740     2.6820 </r>
       <r>    -0.9572     0.9966     2.7592 </r>
       <r>    -0.8798     0.9799     2.8351 </r>
       <r>    -0.8023     0.9712     2.9103 </r>
       <r>    -0.7249     0.5215     2.9507 </r>
       <r>    -0.6474     0.2580     2.9707 </r>
       <r>    -0.5699     0.6375     3.0201 </r>
       <r>    -0.4925     0.9755     3.0956 </r>
       <r>    -0.4150     0.6809     3.1484 </r>
       <r>    -0.3376     0.3887     3.1785 </r>
       <r>    -0.2601     0.2895     3.2009 </r>
       <r>    -0.1827     0.4761     3.2378 </r>
       <r>    -0.1052     0.6270     3.2864 </r>
       <r>    -0.0277     0.3750     3.3154 </r>
       <r>     0.0497     0.2332     3.3335 </r>
       <r>     0.1272     0.3990     3.3644 </r>
       <r>     0.2046     0.4903     3.4024 </r>
       <r>     0.2821     0.4795     3.4395 </r>
       <r>     0.3596     0.3596     3.4674 </r>
       <r>     0.4370     0.2562     3.4872 </r>
       <r>     0.5145     0.2101     3.5035 </r>
       <r>     0.5919     0.2685     3.5243 </r>
       <r>     0.6694     0.4417     3.5585 </r>
       <r>     0.7469     0.4315     3.5919 </r>
       <r>     0.8243     0.2024     3.6076 </r>
       <r>     0.9018     0.0391     3.6106 </r>
       <r>     0.9792     0.0098     3.6114 </r>
       <r>     1.0567     0.0940     3.6187 </r>
       <r>     1.1342     0.4252     3.6516 </r>
       <r>     1.2116     0.7099     3.7066 </r>
       <r>     1.2891     0.6081     3.7537 </r>
       <r>     1.3665     0.6507     3.8041 </r>
       <r>     1.4440     0.9657     3.8789 </r>
       <r>     1.5214     1.0708     3.9618 </r>
       <r>     1.5989     0.8496     4.0276 </r>
       <r>     1.6764     0.8119     4.0905 </r>
       <r>     1.7538     1.3004     4.1913 </r>
       <r>     1.8313     1.6115     4.3161 </r>
       <r>     1.9087     1.3523     4.4208 </r>
       <r>     1.9862     0.9343     4.4932 </r>
       <r>     2.0637     0.8179     4.5566 </r>
       <r>     2.1411     0.8704     4.6240 </r>
       <r>     2.2186     0.9978     4.7013 </r>
       <r>     2.2960     1.0695     4.7841 </r>
       <r>     2.3735     1.2076     4.8776 </r>
       <r>     2.4510     1.5733     4.9995 </r>
       <r>     2.5284     1.5110     5.1166 </r>
       <r>     2.6059     1.0296     5.1963 </r>
       <r>     2.6833     0.9396     5.2691 </r>
       <r>     2.7608     1.4025     5.3777 </r>
       <r>     2.8383     1.9085     5.5255 </r>
       <r>     2.9157     2.0631     5.6854 </r>
       <r>     2.9932     1.6407     5.8124 </r>
       <r>     3.0706     0.9769     5.8881 </r>
       <r>     3.1481     1.0549     5.9698 </r>
       <r>     3.2256     1.6398     6.0968 </r>
       <r>     3.3030     1.8357     6.2390 </r>
       <r>     3.3805     1.4250     6.3494 </r>
       <r>     3.4579     0.8789     6.4175 </r>
       <r>     3.5354     0.9395     6.4903 </r>
       <r>     3.6128     1.5525     6.6105 </r>
       <r>     3.6903     1.8694     6.7553 </r>
       <r>     3.7678     1.6469     6.8829 </r>
       <r>     3.8452     1.2276     6.9780 </r>
       <r>     3.9227     0.9609     7.0524 </r>
       <r>     4.0001     1.2785     7.1514 </r>
       <r>     4.0776     1.4584     7.2644 </r>
       <r>     4.1551     0.9957     7.3415 </r>
       <r>     4.2325     0.6497     7.3919 </r>
       <r>     4.3100     0.8593     7.4584 </r>
       <r>     4.3874     1.2650     7.5564 </r>
       <r>     4.4649     1.0422     7.6371 </r>
       <r>     4.5424     0.5907     7.6829 </r>
       <r>     4.6198     0.6231     7.7311 </r>
       <r>     4.6973     0.7903     7.7924 </r>
       <r>     4.7747     0.6434     7.8422 </r>
       <r>     4.8522     0.3545     7.8697 </r>
       <r>     4.9297     0.2296     7.8874 </r>
       <r>     5.0071     0.3434     7.9140 </r>
       <r>     5.0846     0.3369     7.9401 </r>
       <r>     5.1620     0.1566     7.9523 </r>
       <r>     5.2395     0.1080     7.9606 </r>
       <r>     5.3169     0.2120     7.9771 </r>
       <r>     5.3944     0.1897     7.9918 </r>
       <r>     5.4719     0.0760     7.9976 </r>
       <r>     5.5493     0.0244     7.9995 </r>
       <r>     5.6268     0.0056     8.0000 </r>
       <r>     5.7042     0.0005     8.0000 </r>
       <r>     5.7817     0.0000     8.0000 </r>
       <r>     5.8592     0.0000     8.0000 </r>
       <r>     5.9366     0.0004     8.0000 </r>
       <r>     6.0141     0.0067     8.0006 </r>
       <r>     6.0915     0.0424     8.0038 </r>
       <r>     6.1690     0.0972     8.0114 </r>
       <r>     6.2465     0.1205     8.0207 </r>
       <r>     6.3239     0.2080     8.0368 </r>
       <r>     6.4014     0.3109     8.0609 </r>
       <r>     6.4788     0.3133     8.0852 </r>
       <r>     6.5563     0.3532     8.1125 </r>
       <r>     6.6338     0.3552     8.1400 </r>
       <r>     6.7112     0.2667     8.1607 </r>
       <r>     6.7887     0.3624     8.1888 </r>
       <r>     6.8661     0.7422     8.2463 </r>
       <r>     6.9436     0.8304     8.3106 </r>
       <r>     7.0210     0.6300     8.3594 </r>
       <r>     7.0985     0.7212     8.4152 </r>
       <r>     7.1760     1.0873     8.4995 </r>
       <r>     7.2534     1.2877     8.5992 </r>
       <r>     7.3309     1.1259     8.6864 </r>
       <r>     7.4083     1.0455     8.7674 </r>
       <r>     7.4858     1.3178     8.8695 </r>
       <r>     7.5633     1.3107     8.9710 </r>
       <r>     7.6407     1.2844     9.0705 </r>
       <r>     7.7182     1.5925     9.1939 </r>
       <r>     7.7956     1.7915     9.3326 </r>
       <r>     7.8731     1.2943     9.4329 </r>
       <r>     7.9506     0.9946     9.5099 </r>
       <r>     8.0280     1.4705     9.6238 </r>
       <r>     8.1055     1.7880     9.7623 </r>
       <r>     8.1829     1.1758     9.8534 </r>
       <r>     8.2604     0.9088     9.9238 </r>
       <r>     8.3379     1.1903    10.0160 </r>
       <r>     8.4153     0.9997    10.0934 </r>
       <r>     8.4928     0.8371    10.1583 </r>
       <r>     8.5702     1.1417    10.2467 </r>
       <r>     8.6477     1.7661    10.3835 </r>
       <r>     8.7251     2.3601    10.5663 </r>
       <r>     8.8026     2.4349    10.7549 </r>
       <r>     8.8801     2.1236    10.9194 </r>
       <r>     8.9575     1.9644    11.0716 </r>
       <r>     9.0350     1.6734    11.2012 </r>
       <r>     9.1124     1.4866    11.3163 </r>
       <r>     9.1899     1.9791    11.4696 </r>
       <r>     9.2674     2.0346    11.6272 </r>
       <r>     9.3448     1.2405    11.7233 </r>
       <r>     9.4223     0.8648    11.7903 </r>
       <r>     9.4997     0.8903    11.8593 </r>
       <r>     9.5772     0.8729    11.9269 </r>
       <r>     9.6547     1.2240    12.0217 </r>
       <r>     9.7321     1.5443    12.1413 </r>
       <r>     9.8096     1.1707    12.2320 </r>
       <r>     9.8870     0.6585    12.2830 </r>
       <r>     9.9645     0.6342    12.3321 </r>
       <r>    10.0420     1.4018    12.4407 </r>
       <r>    10.1194     2.5045    12.6347 </r>
       <r>    10.1969     2.6067    12.8366 </r>
       <r>    10.2743     1.8372    12.9789 </r>
       <r>    10.3518     1.2544    13.0761 </r>
       <r>    10.4292     1.2461    13.1726 </r>
       <r>    10.5067     1.4106    13.2819 </r>
       <r>    10.5842     1.1200    13.3686 </r>
       <r>    10.6616     0.8227    13.4324 </r>
       <r>    10.7391     0.8642    13.4993 </r>
       <r>    10.8165     0.7590    13.5581 </r>
       <r>    10.8940     0.6829    13.6110 </r>
       <r>    10.9715     0.8956    13.6804 </r>
       <r>    11.0489     1.0636    13.7627 </r>
       <r>    11.1264     1.3552    13.8677 </r>
       <r>    11.2038     1.4167    13.9774 </r>
       <r>    11.2813     0.9117    14.0481 </r>
       <r>    11.3588     0.7201    14.1038 </r>
       <r>    11.4362     0.8866    14.1725 </r>
       <r>    11.5137     1.0162    14.2512 </r>
       <r>    11.5911     1.4605    14.3644 </r>
       <r>    11.6686     1.6472    14.4920 </r>
       <r>    11.7461     1.5739    14.6139 </r>
       <r>    11.8235     1.2713    14.7123 </r>
       <r>    11.9010     0.7028    14.7668 </r>
       <r>    11.9784     0.5292    14.8078 </r>
       <r>    12.0559     0.7556    14.8663 </r>
       <r>    12.1333     0.8465    14.9319 </r>
       <r>    12.2108     0.7219    14.9878 </r>
       <r>    12.2883     0.6856    15.0409 </r>
       <r>    12.3657     0.5648    15.0846 </r>
       <r>    12.4432     0.3483    15.1116 </r>
       <r>    12.5206     0.5304    15.1527 </r>
       <r>    12.5981     0.8856    15.2213 </r>
       <r>    12.6756     0.8734    15.2890 </r>
       <r>    12.7530     0.6322    15.3379 </r>
       <r>    12.8305     0.4093    15.3696 </r>
       <r>    12.9079     0.2397    15.3882 </r>
       <r>    12.9854     0.4937    15.4264 </r>
       <r>    13.0629     0.9573    15.5006 </r>
       <r>    13.1403     1.0759    15.5839 </r>
       <r>    13.2178     0.9098    15.6544 </r>
       <r>    13.2952     0.6682    15.7062 </r>
       <r>    13.3727     0.6068    15.7532 </r>
       <r>    13.4502     0.9338    15.8255 </r>
       <r>    13.5276     0.8069    15.8880 </r>
       <r>    13.6051     0.2537    15.9076 </r>
       <r>    13.6825     0.0273    15.9098 </r>
       <r>    13.7600     0.0010    15.9098 </r>
       <r>    13.8374     0.0000    15.9098 </r>
       <r>    13.9149     0.0000    15.9098 </r>
       <r>    13.9924     0.0000    15.9098 </r>
       <r>    14.0698     0.0000    15.9098 </r>
       <r>    14.1473     0.0000    15.9098 </r>
       <r>    14.2247     0.0000    15.9098 </r>
       <r>    14.3022     0.0001    15.9099 </r>
       <r>    14.3797     0.0042    15.9102 </r>
       <r>    14.4571     0.0446    15.9136 </r>
       <r>    14.5346     0.1595    15.9260 </r>
       <r>    14.6120     0.2209    15.9431 </r>
       <r>    14.6895     0.1925    15.9580 </r>
       <r>    14.7670     0.1854    15.9724 </r>
       <r>    14.8444     0.1708    15.9856 </r>
       <r>    14.9219     0.1261    15.9954 </r>
       <r>    14.9993     0.0512    15.9993 </r>
       <r>    15.0768     0.0082    16.0000 </r>
       <r>    15.1543     0.0004    16.0000 </r>
       <r>    15.2317     0.0000    16.0000 </r>
       <r>    15.3092     0.0000    16.0000 </r>
       <r>    15.3866     0.0000    16.0000 </r>
       <r>    15.4641     0.0000    16.0000 </r>
       <r>    15.5415     0.0000    16.0000 </r>
       <r>    15.6190     0.0000    16.0000 </r>
       <r>    15.6965     0.0000    16.0000 </r>
       <r>    15.7739     0.0000    16.0000 </r>
       <r>    15.8514     0.0000    16.0000 </r>
       <r>    15.9288     0.0000    16.0000 </r>
      </set>
     </set>
    </array>
   </total>
  </dos>
 </calculation>
 <structure name="finalpos" >
  <crystal>
   <varray name="basis" >
    <v>       0.00000000       2.75000000       2.75000000 </v>
    <v>       2.75000000       0.00000000       2.75000000 </v>
    <v>       2.75000000       2.75000000       0.00000000 </v>
   </varray>
   <i name="volume">     41.59375000 </i>
   <varray name="rec_basis" >
    <v>      -0.18181818       0.18181818       0.18181818 </v>
    <v>       0.18181818      -0.18181818       0.18181818 </v>
    <v>       0.18181818       0.18181818      -0.18181818 </v>
   </varray>
  </crystal>
  <varray name="positions" >
   <v>       0.87500763       0.87500763       0.87749449 </v>
   <v>       0.12499237       0.12499237       0.12750551 </v>
  </varray>
 </structure>
</modeling>
