diamond Si                              
           1
     0.000000    2.750000    2.750000
     2.750000    0.000000    2.750000
     2.750000    2.750000    0.000000
   Si
     2
Direct configuration=     1
   0.87500000  0.87500000  0.87500000
   0.12500000  0.12500000  0.13000000
Direct configuration=     2
   0.87494727  0.87494727  0.87810036
   0.12505273  0.12505273  0.12689964
Direct configuration=     3
   0.87495662  0.87495662  0.87755052
   0.12504338  0.12504338  0.12744948
Direct configuration=     4
   0.87495680  0.87495680  0.87753993
   0.12504320  0.12504320  0.12746007
Direct configuration=     5
   0.87495679  0.87495679  0.87754084
   0.12504321  0.12504321  0.12745916
Direct configuration=     6
   0.87495676  0.87495676  0.87754261
   0.12504324  0.12504324  0.12745739
Direct configuration=     7
   0.87495678  0.87495678  0.87754154
   0.12504322  0.12504322  0.12745846
Direct configuration=     8
   0.87495677  0.87495677  0.87754211
   0.12504323  0.12504323  0.12745789
Direct configuration=     9
   0.87495677  0.87495677  0.87754182
   0.12504323  0.12504323  0.12745818
Direct configuration=    10
   0.87500763  0.87500763  0.87749449
   0.12499237  0.12499237  0.12750551
