unknown system                          
   5.43000000000000     
     0.500000    0.500000    0.000000
     0.000000    0.500000    0.500000
     0.500000    0.000000    0.500000
   Si
     1
Direct
  0.000000  0.000000  0.000000
 
   32   32   32
 -6.3985     -4.7721     -.45095      5.1310      10.257      13.583      14.561      13.501      11.297      8.9395    
  6.8755      5.2212      3.9918      3.1398      2.5957      2.2969      2.2020      2.2969      2.5957      3.1398    
  3.9918      5.2212      6.8755      8.9395      11.297      13.501      14.561      13.583      10.257      5.1310    
 -.45095     -4.7721     -4.7721     -1.8026      3.1189      8.3904      12.470      14.424      14.173      12.362    
  9.9891      7.7783      5.9334      4.5125      3.4931      2.8127      2.4032      2.2123      2.2123      2.4032    
  2.8127      3.4931      4.5125      5.9334      7.7783      9.9891      12.362      14.173      14.424      12.470    
  8.3903      3.1188     -1.8026     -4.7721     -.45095      3.1189      7.6633      11.706      14.111      14.461    
  13.094      10.846      8.5699      6.5950      5.0197      3.8515      3.0425      2.5256      2.2415      2.1512    
  2.2415      2.5257      3.0425      3.8515      5.0197      6.5950      8.5699      10.846      13.094      14.461    
  14.111      11.706      7.6633      3.1188     -.45097     -1.8026      5.1310      8.3904      11.706      13.961    
  14.540      13.499      11.445      9.1851      7.1505      5.4724      4.1880      3.2687      2.6549      2.2849    
  2.1121      2.1121      2.2849      2.6549      3.2687      4.1880      5.4724      7.1505      9.1851      11.445    
  13.499      14.540      13.961      11.706      8.3903      5.1310      3.1188      3.1188      10.257      12.470    
  14.111      14.540      13.625      11.749      9.5744      7.5510      5.8304      4.4734      3.4722      2.7792    
  2.3356      2.0910      2.0132      2.0910      2.3356      2.7792      3.4722      4.4734      5.8304      7.5509    
  9.5744      11.749      13.625      14.540      14.111      12.470      10.258      8.3903      7.6633      8.3903    
  13.583      14.424      14.461      13.499      11.749      9.7075      7.7605      6.0599      4.6809      3.6340    
  2.8861      2.3856      2.0828      1.9408      1.9408      2.0827      2.3856      2.8861      3.6340      4.6809    
  6.0599      7.7605      9.7075      11.749      13.499      14.461      14.424      13.584      12.470      11.706    
  11.706      12.470      14.561      14.173      13.094      11.445      9.5744      7.7605      6.1390      4.7901    
  3.7381      2.9644      2.4275      2.0820      1.8906      1.8294      1.8906      2.0820      2.4275      2.9644    
  3.7382      4.7901      6.1390      7.7605      9.5744      11.445      13.094      14.173      14.561      14.424    
  14.111      13.961      14.111      14.424      13.501      12.362      10.846      9.1851      7.5510      6.0599    
  4.7901      3.7741      3.0058      2.4552      2.0843      1.8582      1.7516      1.7516      1.8582      2.0843    
  2.4552      3.0058      3.7741      4.7901      6.0599      7.5510      9.1851      10.846      12.362      13.501    
  14.173      14.461      14.540      14.540      14.461      14.173      11.297      9.9891      8.5699      7.1505    
  5.8304      4.6809      3.7381      3.0058      2.4649      2.0863      1.8402      1.7027      1.6585      1.7027    
  1.8402      2.0863      2.4649      3.0058      3.7382      4.6809      5.8304      7.1506      8.5699      9.9891    
  11.297      12.362      13.094      13.499      13.625      13.499      13.094      12.362      8.9395      7.7783    
  6.5950      5.4724      4.4734      3.6340      2.9644      2.4552      2.0863      1.8345      1.6791      1.6053    
  1.6053      1.6791      1.8345      2.0863      2.4552      2.9644      3.6340      4.4734      5.4724      6.5950    
  7.7783      8.9395      9.9891      10.846      11.445      11.749      11.749      11.445      10.846      9.9891    
  6.8755      5.9334      5.0197      4.1880      3.4722      2.8861      2.4275      2.0843      1.8402      1.6791    
  1.5880      1.5586      1.5880      1.6791      1.8402      2.0843      2.4275      2.8861      3.4722      4.1880    
  5.0197      5.9334      6.8755      7.7783      8.5699      9.1851      9.5744      9.7075      9.5744      9.1851    
  8.5699      7.7783      5.2212      4.5125      3.8515      3.2687      2.7792      2.3856      2.0820      1.8582    
  1.7027      1.6053      1.5586      1.5586      1.6053      1.7027      1.8582      2.0820      2.3856      2.7791    
  3.2687      3.8515      4.5125      5.2212      5.9334      6.5950      7.1506      7.5510      7.7605      7.7605    
  7.5509      7.1505      6.5950      5.9334      3.9918      3.4931      3.0425      2.6549      2.3356      2.0828    
  1.8906      1.7516      1.6585      1.6053      1.5880      1.6053      1.6585      1.7516      1.8906      2.0827    
  2.3356      2.6549      3.0425      3.4931      3.9918      4.5125      5.0197      5.4724      5.8304      6.0599    
  6.1390      6.0599      5.8304      5.4724      5.0197      4.5125      3.1398      2.8127      2.5256      2.2849    
  2.0910      1.9408      1.8294      1.7516      1.7027      1.6791      1.6791      1.7027      1.7516      1.8294    
  1.9408      2.0910      2.2849      2.5256      2.8127      3.1397      3.4931      3.8515      4.1880      4.4734    
  4.6809      4.7901      4.7901      4.6809      4.4734      4.1880      3.8515      3.4931      2.5957      2.4032    
  2.2415      2.1121      2.0132      1.9408      1.8906      1.8582      1.8402      1.8345      1.8402      1.8582    
  1.8906      1.9408      2.0132      2.1122      2.2415      2.4032      2.5957      2.8127      3.0425      3.2687    
  3.4722      3.6340      3.7382      3.7741      3.7382      3.6340      3.4722      3.2687      3.0425      2.8127    
  2.2969      2.2123      2.1512      2.1121      2.0910      2.0827      2.0820      2.0843      2.0863      2.0863    
  2.0843      2.0820      2.0827      2.0910      2.1122      2.1513      2.2123      2.2969      2.4032      2.5256    
  2.6549      2.7791      2.8861      2.9644      3.0058      3.0058      2.9644      2.8861      2.7792      2.6549    
  2.5257      2.4032      2.2020      2.2123      2.2415      2.2849      2.3356      2.3856      2.4275      2.4552    
  2.4649      2.4552      2.4275      2.3856      2.3356      2.2849      2.2415      2.2123      2.2020      2.2123    
  2.2415      2.2849      2.3356      2.3856      2.4275      2.4552      2.4649      2.4552      2.4275      2.3856    
  2.3356      2.2849      2.2415      2.2123      2.2969      2.4032      2.5257      2.6549      2.7792      2.8861    
  2.9644      3.0058      3.0058      2.9644      2.8861      2.7791      2.6549      2.5256      2.4032      2.2969    
  2.2123      2.1513      2.1122      2.0910      2.0827      2.0820      2.0843      2.0863      2.0863      2.0843    
  2.0820      2.0827      2.0910      2.1121      2.1512      2.2123      2.5957      2.8127      3.0425      3.2687    
  3.4722      3.6340      3.7382      3.7741      3.7382      3.6340      3.4722      3.2687      3.0425      2.8127    
  2.5957      2.4032      2.2415      2.1122      2.0132      1.9408      1.8906      1.8582      1.8402      1.8345    
  1.8402      1.8582      1.8906      1.9408      2.0132      2.1121      2.2415      2.4032      3.1398      3.4931    
  3.8515      4.1880      4.4734      4.6809      4.7901      4.7901      4.6809      4.4734      4.1880      3.8515    
  3.4931      3.1397      2.8127      2.5256      2.2849      2.0910      1.9408      1.8294      1.7516      1.7027    
  1.6791      1.6791      1.7027      1.7516      1.8294      1.9408      2.0910      2.2849      2.5256      2.8127    
  3.9918      4.5125      5.0197      5.4724      5.8304      6.0599      6.1390      6.0599      5.8304      5.4724    
  5.0197      4.5125      3.9918      3.4931      3.0425      2.6549      2.3356      2.0827      1.8906      1.7516    
  1.6585      1.6053      1.5880      1.6053      1.6585      1.7516      1.8906      2.0828      2.3356      2.6549    
  3.0425      3.4931      5.2212      5.9334      6.5950      7.1505      7.5509      7.7605      7.7605      7.5510    
  7.1506      6.5950      5.9334      5.2212      4.5125      3.8515      3.2687      2.7791      2.3856      2.0820    
  1.8582      1.7027      1.6053      1.5586      1.5586      1.6053      1.7027      1.8582      2.0820      2.3856    
  2.7792      3.2687      3.8515      4.5125      6.8755      7.7783      8.5699      9.1851      9.5744      9.7075    
  9.5744      9.1851      8.5699      7.7783      6.8755      5.9334      5.0197      4.1880      3.4722      2.8861    
  2.4275      2.0843      1.8402      1.6791      1.5880      1.5586      1.5880      1.6791      1.8402      2.0843    
  2.4275      2.8861      3.4722      4.1880      5.0197      5.9334      8.9395      9.9891      10.846      11.445    
  11.749      11.749      11.445      10.846      9.9891      8.9395      7.7783      6.5950      5.4724      4.4734    
  3.6340      2.9644      2.4552      2.0863      1.8345      1.6791      1.6053      1.6053      1.6791      1.8345    
  2.0863      2.4552      2.9644      3.6340      4.4734      5.4724      6.5950      7.7783      11.297      12.362    
  13.094      13.499      13.625      13.499      13.094      12.362      11.297      9.9891      8.5699      7.1506    
  5.8304      4.6809      3.7382      3.0058      2.4649      2.0863      1.8402      1.7027      1.6585      1.7027    
  1.8402      2.0863      2.4649      3.0058      3.7381      4.6809      5.8304      7.1505      8.5699      9.9891    
  13.501      14.173      14.461      14.540      14.540      14.461      14.173      13.501      12.362      10.846    
  9.1851      7.5510      6.0599      4.7901      3.7741      3.0058      2.4552      2.0843      1.8582      1.7516    
  1.7516      1.8582      2.0843      2.4552      3.0058      3.7741      4.7901      6.0599      7.5510      9.1851    
  10.846      12.362      14.561      14.424      14.111      13.961      14.111      14.424      14.561      14.173    
  13.094      11.445      9.5744      7.7605      6.1390      4.7901      3.7382      2.9644      2.4275      2.0820    
  1.8906      1.8294      1.8906      2.0820      2.4275      2.9644      3.7381      4.7901      6.1390      7.7605    
  9.5744      11.445      13.094      14.173      13.583      12.470      11.706      11.706      12.470      13.584    
  14.424      14.461      13.499      11.749      9.7075      7.7605      6.0599      4.6809      3.6340      2.8861    
  2.3856      2.0827      1.9408      1.9408      2.0828      2.3856      2.8861      3.6340      4.6809      6.0599    
  7.7605      9.7075      11.749      13.499      14.461      14.424      10.257      8.3903      7.6633      8.3903    
  10.258      12.470      14.111      14.540      13.625      11.749      9.5744      7.5509      5.8304      4.4734    
  3.4722      2.7792      2.3356      2.0910      2.0132      2.0910      2.3356      2.7792      3.4722      4.4734    
  5.8304      7.5510      9.5744      11.749      13.625      14.540      14.111      12.470      5.1310      3.1188    
  3.1188      5.1310      8.3903      11.706      13.961      14.540      13.499      11.445      9.1851      7.1505    
  5.4724      4.1880      3.2687      2.6549      2.2849      2.1121      2.1121      2.2849      2.6549      3.2687    
  4.1880      5.4724      7.1505      9.1851      11.445      13.499      14.540      13.961      11.706      8.3904    
 -.45095     -1.8026     -.45097      3.1188      7.6633      11.706      14.111      14.461      13.094      10.846    
  8.5699      6.5950      5.0197      3.8515      3.0425      2.5257      2.2415      2.1512      2.2415      2.5256    
  3.0425      3.8515      5.0197      6.5950      8.5699      10.846      13.094      14.461      14.111      11.706    
  7.6633      3.1189     -4.7721     -4.7721     -1.8026      3.1188      8.3903      12.470      14.424      14.173    
  12.362      9.9891      7.7783      5.9334      4.5125      3.4931      2.8127      2.4032      2.2123      2.2123    
  2.4032      2.8127      3.4931      4.5125      5.9334      7.7783      9.9891      12.362      14.173      14.424    
  12.470      8.3904      3.1189     -1.8026     -4.7721     -1.8026      3.1189      8.3904      12.470      14.424    
  14.173      12.362      9.9891      7.7783      5.9334      4.5125      3.4931      2.8127      2.4032      2.2123    
  2.2123      2.4032      2.8127      3.4931      4.5125      5.9334      7.7783      9.9891      12.362      14.173    
  14.424      12.470      8.3903      3.1188     -1.8026     -4.7721     -1.8026      2.0071      6.8824      11.269    
  13.966      14.513      13.239      11.001      8.6967      6.6920      5.0904      3.9019      3.0785      2.5526    
  2.2636      2.1717      2.2636      2.5526      3.0785      3.9019      5.0904      6.6920      8.6967      11.001    
  13.239      14.513      13.966      11.269      6.8824      2.0071     -1.8026     -3.2421      3.1189      6.8824    
  10.788      13.590      14.575      13.758      11.761      9.4565      7.3632      5.6302      4.3012      3.3492    
  2.7136      2.3307      2.1519      2.1519      2.3307      2.7136      3.3492      4.3012      5.6302      7.3632    
  9.4565      11.761      13.758      14.575      13.590      10.788      6.8824      3.1188     0.81564     0.81565    
  8.3904      11.269      13.590      14.566      13.985      12.221      9.9971      7.8893      6.0859      4.6586    
  3.6039      2.8737      2.4066      2.1493      2.0675      2.1493      2.4066      2.8737      3.6039      4.6586    
  6.0859      7.8893      9.9971      12.221      13.985      14.566      13.590      11.269      8.3903      6.0336    
  5.1265      6.0336      12.470      13.966      14.575      13.985      12.373      10.277      8.2244      6.4159    
  4.9419      3.8203      3.0186      2.4826      2.1587      2.0070      2.0070      2.1587      2.4826      3.0186    
  3.8203      4.9419      6.4158      8.2244      10.277      12.373      13.985      14.575      13.966      12.470    
  10.779      9.6772      9.6772      10.779      14.424      14.513      13.758      12.221      10.277      8.3395    
  6.5891      5.1239      3.9777      3.1342      2.5494      2.1739      1.9661      1.8998      1.9661      2.1739    
  2.5494      3.1342      3.9778      5.1239      6.5891      8.3394      10.277      12.221      13.758      14.513    
  14.424      13.780      13.080      12.785      13.080      13.780      14.173      13.239      11.761      9.9971    
  8.2244      6.5891      5.1867      4.0607      3.2087      2.5990      2.1893      1.9401      1.8229      1.8229    
  1.9401      2.1893      2.5990      3.2087      4.0607      5.1867      6.5891      8.2244      9.9971      11.761    
  13.239      14.173      14.535      14.519      14.410      14.410      14.519      14.535      12.362      11.001    
  9.4565      7.8893      6.4159      5.1239      4.0607      3.2344      2.6254      2.2005      1.9253      1.7718    
  1.7227      1.7718      1.9252      2.2005      2.6254      3.2344      4.0607      5.1239      6.4159      7.8893    
  9.4565      11.001      12.362      13.363      13.963      14.243      14.319      14.243      13.963      13.363    
  9.9891      8.6967      7.3632      6.0859      4.9419      3.9777      3.2087      2.6254      2.2045      1.9186    
  1.7428      1.6596      1.6596      1.7428      1.9186      2.2045      2.6254      3.2087      3.9778      4.9419    
  6.0859      7.3632      8.6967      9.9891      11.140      12.046      12.643      12.932      12.932      12.643    
  12.046      11.140      7.7783      6.6920      5.6302      4.6586      3.8203      3.1342      2.5990      2.2005    
  1.9186      1.7335      1.6292      1.5956      1.6292      1.7335      1.9186      2.2005      2.5990      3.1342    
  3.8203      4.6586      5.6302      6.6920      7.7783      8.8092      9.7036      10.392      10.824      10.971    
  10.824      10.392      9.7036      8.8092      5.9334      5.0904      4.3012      3.6039      3.0186      2.5494    
  2.1893      1.9253      1.7428      1.6292      1.5748      1.5748      1.6292      1.7428      1.9253      2.1893    
  2.5494      3.0186      3.6039      4.3012      5.0904      5.9334      6.7754      7.5525      8.2004      8.6646    
  8.9065      8.9065      8.6646      8.2004      7.5525      6.7754      4.5125      3.9019      3.3492      2.8737    
  2.4826      2.1739      1.9401      1.7718      1.6596      1.5956      1.5748      1.5956      1.6596      1.7718    
  1.9401      2.1739      2.4826      2.8737      3.3492      3.9019      4.5125      5.1482      5.7650      6.3134    
  6.7452      7.0213      7.1162      7.0213      6.7452      6.3133      5.7650      5.1481      3.4931      3.0785    
  2.7136      2.4066      2.1587      1.9661      1.8229      1.7227      1.6596      1.6292      1.6292      1.6596    
  1.7227      1.8229      1.9661      2.1587      2.4066      2.7136      3.0785      3.4931      3.9397      4.3915    
  4.8146      5.1727      5.4326      5.5693      5.5692      5.4326      5.1727      4.8146      4.3915      3.9398    
  2.8127      2.5526      2.3307      2.1493      2.0070      1.8998      1.8229      1.7718      1.7428      1.7335    
  1.7428      1.7718      1.8229      1.8998      2.0070      2.1494      2.3307      2.5526      2.8127      3.1025    
  3.4072      3.7056      3.9733      4.1858      4.3225      4.3696      4.3225      4.1858      3.9733      3.7056    
  3.4072      3.1026      2.4032      2.2636      2.1519      2.0675      2.0070      1.9661      1.9401      1.9252    
  1.9186      1.9186      1.9253      1.9401      1.9661      2.0070      2.0675      2.1520      2.2636      2.4032    
  2.5679      2.7501      2.9379      3.1158      3.2676      3.3784      3.4367      3.4368      3.3784      3.2677    
  3.1159      2.9379      2.7502      2.5679      2.2123      2.1717      2.1519      2.1493      2.1587      2.1739    
  2.1893      2.2005      2.2045      2.2005      2.1893      2.1739      2.1587      2.1494      2.1520      2.1718    
  2.2123      2.2742      2.3546      2.4473      2.5431      2.6320      2.7038      2.7505      2.7666      2.7505    
  2.7038      2.6320      2.5432      2.4473      2.3546      2.2742      2.2123      2.2636      2.3307      2.4066    
  2.4826      2.5494      2.5990      2.6254      2.6254      2.5990      2.5494      2.4826      2.4066      2.3307    
  2.2636      2.2123      2.1809      2.1701      2.1774      2.1976      2.2246      2.2517      2.2733      2.2852    
  2.2852      2.2733      2.2517      2.2246      2.1976      2.1774      2.1701      2.1809      2.4032      2.5526    
  2.7136      2.8737      3.0186      3.1342      3.2087      3.2344      3.2087      3.1342      3.0186      2.8737    
  2.7136      2.5526      2.4032      2.2742      2.1701      2.0916      2.0362      1.9997      1.9776      1.9654    
  1.9595      1.9578      1.9595      1.9654      1.9776      1.9997      2.0361      2.0916      2.1701      2.2742    
  2.8127      3.0785      3.3492      3.6039      3.8203      3.9778      4.0607      4.0607      3.9778      3.8203    
  3.6039      3.3492      3.0785      2.8127      2.5679      2.3546      2.1774      2.0362      1.9281      1.8489    
  1.7943      1.7602      1.7440      1.7440      1.7602      1.7942      1.8489      1.9280      2.0361      2.1774    
  2.3546      2.5679      3.4931      3.9019      4.3012      4.6586      4.9419      5.1239      5.1867      5.1239    
  4.9419      4.6586      4.3012      3.9019      3.4931      3.1025      2.7501      2.4473      2.1976      1.9997    
  1.8489      1.7395      1.6661      1.6240      1.6103      1.6240      1.6661      1.7395      1.8489      1.9997    
  2.1976      2.4473      2.7502      3.1026      4.5125      5.0904      5.6302      6.0859      6.4158      6.5891    
  6.5891      6.4159      6.0859      5.6302      5.0904      4.5125      3.9397      3.4072      2.9379      2.5431    
  2.2246      1.9776      1.7943      1.6661      1.5854      1.5465      1.5465      1.5854      1.6661      1.7943    
  1.9776      2.2246      2.5432      2.9379      3.4072      3.9398      5.9334      6.6920      7.3632      7.8893    
  8.2244      8.3394      8.2244      7.8893      7.3632      6.6920      5.9334      5.1482      4.3915      3.7056    
  3.1158      2.6320      2.2517      1.9654      1.7602      1.6240      1.5465      1.5215      1.5465      1.6240    
  1.7602      1.9654      2.2518      2.6320      3.1158      3.7056      4.3915      5.1481      7.7783      8.6967    
  9.4565      9.9971      10.277      10.277      9.9971      9.4565      8.6967      7.7783      6.7754      5.7650    
  4.8146      3.9733      3.2676      2.7038      2.2733      1.9595      1.7440      1.6103      1.5465      1.5465    
  1.6103      1.7440      1.9595      2.2733      2.7039      3.2677      3.9733      4.8146      5.7650      6.7754    
  9.9891      11.001      11.761      12.221      12.373      12.221      11.761      11.001      9.9891      8.8092    
  7.5525      6.3134      5.1727      4.1858      3.3784      2.7505      2.2852      1.9578      1.7440      1.6240    
  1.5854      1.6240      1.7440      1.9578      2.2852      2.7505      3.3784      4.1858      5.1727      6.3133    
  7.5525      8.8092      12.362      13.239      13.758      13.985      13.985      13.758      13.239      12.362    
  11.140      9.7036      8.2004      6.7452      5.4326      4.3225      3.4367      2.7666      2.2852      1.9595    
  1.7602      1.6661      1.6661      1.7602      1.9595      2.2852      2.7666      3.4367      4.3224      5.4326    
  6.7452      8.2004      9.7036      11.140      14.173      14.513      14.575      14.566      14.575      14.513    
  14.173      13.363      12.046      10.392      8.6646      7.0213      5.5693      4.3696      3.4368      2.7505    
  2.2733      1.9654      1.7942      1.7395      1.7943      1.9654      2.2733      2.7505      3.4367      4.3696    
  5.5692      7.0213      8.6646      10.392      12.046      13.363      14.424      13.966      13.590      13.590    
  13.966      14.424      14.535      13.963      12.643      10.824      8.9065      7.1162      5.5692      4.3225    
  3.3784      2.7038      2.2517      1.9776      1.8489      1.8489      1.9776      2.2518      2.7039      3.3784    
  4.3224      5.5692      7.1162      8.9065      10.824      12.643      13.963      14.535      12.470      11.269    
  10.788      11.269      12.470      13.780      14.519      14.243      12.932      10.971      8.9065      7.0213    
  5.4326      4.1858      3.2677      2.6320      2.2246      1.9997      1.9280      1.9997      2.2246      2.6320    
  3.2677      4.1858      5.4326      7.0213      8.9065      10.971      12.932      14.243      14.519      13.780    
  8.3903      6.8824      6.8824      8.3903      10.779      13.080      14.410      14.319      12.932      10.824    
  8.6646      6.7452      5.1727      3.9733      3.1159      2.5432      2.1976      2.0361      2.0361      2.1976    
  2.5432      3.1158      3.9733      5.1727      6.7452      8.6646      10.824      12.932      14.319      14.410    
  13.080      10.779      3.1188      2.0071      3.1188      6.0336      9.6772      12.785      14.410      14.243    
  12.643      10.392      8.2004      6.3133      4.8146      3.7056      2.9379      2.4473      2.1774      2.0916    
  2.1774      2.4473      2.9379      3.7056      4.8146      6.3133      8.2004      10.392      12.643      14.243    
  14.410      12.785      9.6772      6.0336     -1.8026     -1.8026     0.81564      5.1265      9.6772      13.080    
  14.519      13.963      12.046      9.7036      7.5525      5.7650      4.3915      3.4072      2.7502      2.3546    
  2.1701      2.1701      2.3546      2.7502      3.4072      4.3915      5.7650      7.5525      9.7036      12.046    
  13.963      14.519      13.080      9.6772      5.1265     0.81565     -4.7721     -3.2421     0.81565      6.0336    
  10.779      13.780      14.535      13.363      11.140      8.8092      6.7754      5.1481      3.9398      3.1026    
  2.5679      2.2742      2.1809      2.2742      2.5679      3.1026      3.9398      5.1481      6.7754      8.8092    
  11.140      13.363      14.535      13.780      10.779      6.0336     0.81565     -3.2421     -.45095      3.1189    
  7.6633      11.706      14.111      14.461      13.094      10.846      8.5699      6.5950      5.0197      3.8515    
  3.0425      2.5256      2.2415      2.1512      2.2415      2.5257      3.0425      3.8515      5.0197      6.5950    
  8.5699      10.846      13.094      14.461      14.111      11.706      7.6633      3.1188     -.45097     -1.8026    
  3.1189      6.8824      10.788      13.590      14.575      13.758      11.761      9.4565      7.3632      5.6302    
  4.3012      3.3492      2.7136      2.3307      2.1519      2.1519      2.3307      2.7136      3.3492      4.3012    
  5.6302      7.3632      9.4565      11.761      13.758      14.575      13.590      10.788      6.8824      3.1188    
 0.81564     0.81565      7.6633      10.788      13.361      14.544      14.093      12.378      10.142      8.0056    
  6.1740      4.7225      3.6494      2.9063      2.4311      2.1694      2.0862      2.1694      2.4311      2.9063    
  3.6494      4.7225      6.1740      8.0056      10.142      12.378      14.093      14.544      13.361      10.788    
  7.6633      5.1265      4.1533      5.1265      11.706      13.590      14.544      14.190      12.681      10.573    
  8.4671      6.6030      5.0795      3.9185      3.0885      2.5336      2.1985      2.0417      2.0417      2.1985    
  2.5336      3.0885      3.9185      5.0794      6.6030      8.4671      10.573      12.681      14.190      14.544    
  13.590      11.706      9.6772      8.3785      8.3785      9.6772      14.111      14.575      14.093      12.681    
  10.720      8.7080      6.8776      5.3387      4.1322      3.2436      2.6278      2.2327      2.0143      1.9447    
  2.0143      2.2327      2.6278      3.2436      4.1322      5.3387      6.8776      8.7080      10.720      12.680    
  14.093      14.575      14.111      13.080      12.089      11.686      12.089      13.080      14.461      13.758    
  12.378      10.573      8.7080      6.9721      5.4751      4.2696      3.3566      2.7036      2.2654      1.9993    
  1.8743      1.8743      1.9993      2.2654      2.7036      3.3566      4.2696      5.4752      6.9721      8.7080    
  10.573      12.377      13.758      14.461      14.519      14.217      13.935      13.935      14.217      14.519    
  13.094      11.761      10.142      8.4671      6.8776      5.4751      4.3170      3.4161      2.7527      2.2907    
  1.9922      1.8261      1.7729      1.8261      1.9921      2.2907      2.7527      3.4161      4.3170      5.4752    
  6.8776      8.4671      10.142      11.761      13.094      13.963      14.382      14.510      14.527      14.510    
  14.382      13.963      10.846      9.4565      8.0056      6.6030      5.3387      4.2696      3.4161      2.7696    
  2.3044      1.9894      1.7963      1.7050      1.7050      1.7963      1.9894      2.3044      2.7696      3.4161    
  4.2696      5.3388      6.6030      8.0056      9.4565      10.846      12.046      12.929      13.467      13.710    
  13.710      13.467      12.929      12.046      8.5699      7.3632      6.1740      5.0795      4.1322      3.3566    
  2.7527      2.3044      1.9887      1.7822      1.6662      1.6289      1.6662      1.7822      1.9887      2.3044    
  2.7526      3.3566      4.1322      5.0795      6.1740      7.3632      8.5699      9.7036      10.676      11.414    
  11.864      12.014      11.864      11.414      10.676      9.7036      6.5950      5.6302      4.7225      3.9185    
  3.2436      2.7036      2.2907      1.9894      1.7822      1.6536      1.5922      1.5922      1.6536      1.7822    
  1.9894      2.2907      2.7036      3.2435      3.9185      4.7225      5.6302      6.5950      7.5525      8.4293    
  9.1547      9.6708      9.9385      9.9385      9.6708      9.1547      8.4293      7.5525      5.0197      4.3012    
  3.6494      3.0885      2.6278      2.2654      1.9922      1.7963      1.6662      1.5922      1.5683      1.5922    
  1.6662      1.7963      1.9921      2.2654      2.6278      3.0884      3.6493      4.3012      5.0197      5.7650    
  6.4848      7.1215      7.6204      7.9381      8.0472      7.9381      7.6204      7.1214      6.4848      5.7650    
  3.8515      3.3492      2.9063      2.5336      2.2327      1.9993      1.8261      1.7050      1.6289      1.5922    
  1.5922      1.6289      1.7050      1.8261      1.9993      2.2327      2.5336      2.9063      3.3492      3.8515    
  4.3915      4.9363      5.4449      5.8741      6.1848      6.3479      6.3479      6.1848      5.8740      5.4448    
  4.9363      4.3915      3.0425      2.7136      2.4311      2.1985      2.0143      1.8743      1.7729      1.7050    
  1.6662      1.6536      1.6662      1.7050      1.7729      1.8743      2.0144      2.1985      2.4311      2.7136    