unknown system                          
   5.43000000000000     
     0.500000    0.500000    0.000000
     0.000000    0.500000    0.500000
     0.500000    0.000000    0.500000
   Si
     1
Direct
  0.000000  0.000000  0.000000
 
   32   32   32
 -.63985368233E+01 -.47721420291E+01 -.45095177571E+00 0.51309835100E+01 0.10257489309E+02
 0.13583451294E+02 0.14561322848E+02 0.13500955577E+02 0.11296967646E+02 0.89395093893E+01
 0.68754841001E+01 0.52212312569E+01 0.39917817191E+01 0.31397584506E+01 0.25957095167E+01
 0.22968721076E+01 0.22019849032E+01 0.22968721076E+01 0.25957095167E+01 0.31397584506E+01
 0.39917817191E+01 0.52212312569E+01 0.68754841001E+01 0.89395093893E+01 0.11296967646E+02
 0.13500955577E+02 0.14561322848E+02 0.13583451294E+02 0.10257489309E+02 0.51309835100E+01
 -.45095177571E+00 -.47721420291E+01 -.47721420291E+01 -.18026121494E+01 0.31188557667E+01
 0.83903511892E+01 0.12469547172E+02 0.14424344327E+02 0.14172587876E+02 0.12361885645E+02
 0.99890838139E+01 0.77782934531E+01 0.59333563042E+01 0.45124722993E+01 0.34931297594E+01
 0.28126965718E+01 0.24032086670E+01 0.22122837654E+01 0.22122925253E+01 0.24032236303E+01
 0.28126998077E+01 0.34931214446E+01 0.45124670768E+01 0.59333611194E+01 0.77783014671E+01
 0.99890912813E+01 0.12361898397E+02 0.14172605938E+02 0.14424351328E+02 0.12469529485E+02
 0.83903196371E+01 0.31188351439E+01 -.18026128848E+01 -.47721384589E+01 -.45095177571E+00
 0.31188557667E+01 0.76633430444E+01 0.11705523686E+02 0.14111196657E+02 0.14461323117E+02
 0.13093809421E+02 0.10845814009E+02 0.85698724570E+01 0.65950001930E+01 0.50196634349E+01
 0.38515324534E+01 0.30424832494E+01 0.25256438829E+01 0.22415138509E+01 0.21512431763E+01
 0.22415232982E+01 0.25256567253E+01 0.30424910887E+01 0.38515302466E+01 0.50196534194E+01
 0.65949912252E+01 0.85698741868E+01 0.10845830539E+02 0.13093835726E+02 0.14461347708E+02
 0.14111207035E+02 0.11705513285E+02 0.76633150197E+01 0.31188224811E+01 -.45097400096E+00
 -.18026128848E+01 0.51309835100E+01 0.83903511892E+01 0.11705523686E+02 0.13960552206E+02
 0.14539583456E+02 0.13498700114E+02 0.11445066627E+02 0.91851430823E+01 0.71505384251E+01
 0.54724260491E+01 0.41880050404E+01 0.32686833267E+01 0.26548705894E+01 0.22849170699E+01
 0.21121481308E+01 0.21121485205E+01 0.22849230466E+01 0.26548855698E+01 0.32686955660E+01
 0.41879983075E+01 0.54724021166E+01 0.71505182302E+01 0.91851430898E+01 0.11445084244E+02
 0.13498724628E+02 0.14539611057E+02 0.13960580110E+02 0.11705539641E+02 0.83903431937E+01
 0.51309599443E+01 0.31188224811E+01 0.31188351439E+01 0.10257489309E+02 0.12469547172E+02
 0.14111196657E+02 0.14539583456E+02 0.13625109845E+02 0.11749054262E+02 0.95744362039E+01
 0.75509525873E+01 0.58303692182E+01 0.44734016491E+01 0.34722046606E+01 0.27791663883E+01
 0.23355590711E+01 0.20910289344E+01 0.20131953037E+01 0.20910334236E+01 0.23355653891E+01
 0.27791708804E+01 0.34722043373E+01 0.44733950562E+01 0.58303568840E+01 0.75509379864E+01
 0.95744255482E+01 0.11749054734E+02 0.13625126193E+02 0.14539615794E+02 0.14111240762E+02
 0.12469594528E+02 0.10257529696E+02 0.83903431937E+01 0.76633150197E+01 0.83903196371E+01
 0.13583451294E+02 0.14424344327E+02 0.14461323117E+02 0.13498700114E+02 0.11749054262E+02
 0.97075427204E+01 0.77604949056E+01 0.60598928098E+01 0.46808781276E+01 0.36340094471E+01
 0.28860869341E+01 0.23855985805E+01 0.20827503417E+01 0.19408251323E+01 0.19408256878E+01
 0.20827482696E+01 0.23855906114E+01 0.28860808769E+01 0.36340156187E+01 0.46808928403E+01
 0.60598984567E+01 0.77604810089E+01 0.97075190772E+01 0.11749041224E+02 0.13498710966E+02
 0.14461359756E+02 0.14424404472E+02 0.13583525453E+02 0.12469594528E+02 0.11705539641E+02
 0.11705513285E+02 0.12469529485E+02 0.14561322848E+02 0.14172587876E+02 0.13093809421E+02
 0.11445066627E+02 0.95744362039E+01 0.77604949056E+01 0.61389566839E+01 0.47900897444E+01
 0.37381467037E+01 0.29643995613E+01 0.24275075691E+01 0.20820466417E+01 0.18905778317E+01
 0.18294195801E+01 0.18905649350E+01 0.20820301106E+01 0.24274995299E+01 0.29644070051E+01
 0.37381672506E+01 0.47901130865E+01 0.61389704157E+01 0.77604918193E+01 0.95744201338E+01
 0.11445051285E+02 0.13093812432E+02 0.14172617438E+02 0.14561373439E+02 0.14424404472E+02
 0.14111240762E+02 0.13960580110E+02 0.14111207035E+02 0.14424351328E+02 0.13500955577E+02
 0.12361885645E+02 0.10845814009E+02 0.91851430823E+01 0.75509525873E+01 0.60598928098E+01
 0.47900897444E+01 0.37740886318E+01 0.30057722762E+01 0.24552345158E+01 0.20843331930E+01
 0.18581923625E+01 0.17515942423E+01 0.17515861680E+01 0.18581759255E+01 0.20843231015E+01
 0.24552377235E+01 0.30057859339E+01 0.37741087350E+01 0.47901147362E+01 0.60599175694E+01
 0.75509656877E+01 0.91851377143E+01 0.10845796324E+02 0.12361872299E+02 0.13500956787E+02
 0.14172617438E+02 0.14461359756E+02 0.14539615794E+02 0.14539611057E+02 0.14461347708E+02
 0.14172605938E+02 0.11296967646E+02 0.99890838139E+01 0.85698724570E+01 0.71505384251E+01
 0.58303692182E+01 0.46808781276E+01 0.37381467037E+01 0.30057722762E+01 0.24649217817E+01
 0.20863317123E+01 0.18402359568E+01 0.17026593788E+01 0.16585030586E+01 0.17026571343E+01
 0.18402324754E+01 0.20863293700E+01 0.24649238637E+01 0.30057809893E+01 0.37381619200E+01
 0.46808970340E+01 0.58303879338E+01 0.71505515869E+01 0.85698757490E+01 0.99890744442E+01
 0.11296946427E+02 0.12361872299E+02 0.13093812432E+02 0.13498710966E+02 0.13625126193E+02
 0.13498724628E+02 0.13093835726E+02 0.12361898397E+02 0.89395093893E+01 0.77782934531E+01
 0.65950001930E+01 0.54724260491E+01 0.44734016491E+01 0.36340094471E+01 0.29643995613E+01
 0.24552345158E+01 0.20863317123E+01 0.18345068216E+01 0.16791266428E+01 0.16052901538E+01
 0.16052935248E+01 0.16791329666E+01 0.18345094185E+01 0.20863284719E+01 0.24552283317E+01
 0.29643931736E+01 0.36340039459E+01 0.44733998852E+01 0.54724338394E+01 0.65950187661E+01
 0.77783134094E+01 0.89395158427E+01 0.99890744442E+01 0.10845796324E+02 0.11445051285E+02
 0.11749041224E+02 0.11749054734E+02 0.11445084244E+02 0.10845830539E+02 0.99890912813E+01
 0.68754841001E+01 0.59333563042E+01 0.50196634349E+01 0.41880050404E+01 0.34722046606E+01
 0.28860869341E+01 0.24275075691E+01 0.20843331930E+01 0.18402359568E+01 0.16791266428E+01
 0.15880107578E+01 0.15585882129E+01 0.15880166483E+01 0.16791331254E+01 0.18402354265E+01
 0.20843204451E+01 0.24274838320E+01 0.28860601283E+01 0.34721857548E+01 0.41880014196E+01
 0.50196755396E+01 0.59333775182E+01 0.68755044236E+01 0.77783134094E+01 0.85698757490E+01
 0.91851377143E+01 0.95744201338E+01 0.97075190772E+01 0.95744255482E+01 0.91851430898E+01
 0.85698741868E+01 0.77783014671E+01 0.52212312569E+01 0.45124722993E+01 0.38515324534E+01
 0.32686833267E+01 0.27791663883E+01 0.23855985805E+01 0.20820466417E+01 0.18581923625E+01
 0.17026593788E+01 0.16052901538E+01 0.15585882129E+01 0.15585902156E+01 0.16052941592E+01
 0.17026600522E+01 0.18581838181E+01 0.20820272435E+01 0.23855737234E+01 0.27791449782E+01
 0.32686712185E+01 0.38515287804E+01 0.45124737578E+01 0.52212383401E+01 0.59333775182E+01
 0.65950187661E+01 0.71505515869E+01 0.75509656877E+01 0.77604918193E+01 0.77604810089E+01
 0.75509379864E+01 0.71505182302E+01 0.65949912252E+01 0.59333611194E+01 0.39917817191E+01
 0.34931297594E+01 0.30424832494E+01 0.26548705894E+01 0.23355590711E+01 0.20827503417E+01
 0.18905778317E+01 0.17515942423E+01 0.16585030586E+01 0.16052935248E+01 0.15880166483E+01
 0.16052941592E+01 0.16585045146E+01 0.17515965055E+01 0.18905799409E+01 0.20827498292E+01
 0.23355529958E+01 0.26548572925E+01 0.30424650252E+01 0.34931127622E+01 0.39917735754E+01
 0.45124737578E+01 0.50196755396E+01 0.54724338394E+01 0.58303879338E+01 0.60599175694E+01
 0.61389704157E+01 0.60598984567E+01 0.58303568840E+01 0.54724021166E+01 0.50196534194E+01
 0.45124670768E+01 0.31397584506E+01 0.28126965718E+01 0.25256438829E+01 0.22849170699E+01
 0.20910289344E+01 0.19408251323E+01 0.18294195801E+01 0.17515861680E+01 0.17026571343E+01
 0.16791329666E+01 0.16791331254E+01 0.17026600522E+01 0.17515965055E+01 0.18294387516E+01
 0.19408478236E+01 0.20910451660E+01 0.22849192172E+01 0.25256319389E+01 0.28126779797E+01
 0.31397424273E+01 0.34931127622E+01 0.38515287804E+01 0.41880014196E+01 0.44733998852E+01
 0.46808970340E+01 0.47901147362E+01 0.47901130865E+01 0.46808928403E+01 0.44733950562E+01
 0.41879983075E+01 0.38515302466E+01 0.34931214446E+01 0.25957095167E+01 0.24032086670E+01
 0.22415138509E+01 0.21121481308E+01 0.20131953037E+01 0.19408256878E+01 0.18905649350E+01
 0.18581759255E+01 0.18402324754E+01 0.18345094185E+01 0.18402354265E+01 0.18581838181E+01
 0.18905799409E+01 0.19408478236E+01 0.20132214266E+01 0.21121721885E+01 0.22415293642E+01
 0.24032110216E+01 0.25956979366E+01 0.28126779797E+01 0.30424650252E+01 0.32686712185E+01
 0.34721857548E+01 0.36340039459E+01 0.37381619200E+01 0.37741087350E+01 0.37381672506E+01
 0.36340156187E+01 0.34722043373E+01 0.32686955660E+01 0.30424910887E+01 0.28126998077E+01
 0.22968721076E+01 0.22122837654E+01 0.21512431763E+01 0.21121485205E+01 0.20910334236E+01
 0.20827482696E+01 0.20820301106E+01 0.20843231015E+01 0.20863293700E+01 0.20863284719E+01
 0.20843204451E+01 0.20820272435E+01 0.20827498292E+01 0.20910451660E+01 0.21121721885E+01
 0.21512722939E+01 0.22123062793E+01 0.22968780386E+01 0.24032110216E+01 0.25256319389E+01
 0.26548572925E+01 0.27791449782E+01 0.28860601283E+01 0.29643931736E+01 0.30057809893E+01
 0.30057859339E+01 0.29644070051E+01 0.28860808769E+01 0.27791708804E+01 0.26548855698E+01
 0.25256567253E+01 0.24032236303E+01 0.22019849032E+01 0.22122925253E+01 0.22415232982E+01
 0.22849230466E+01 0.23355653891E+01 0.23855906114E+01 0.24274995299E+01 0.24552377235E+01
 0.24649238637E+01 0.24552283317E+01 0.24274838320E+01 0.23855737234E+01 0.23355529958E+01
 0.22849192172E+01 0.22415293642E+01 0.22123062793E+01 0.22020014678E+01 0.22123062793E+01
 0.22415293642E+01 0.22849192172E+01 0.23355529958E+01 0.23855737234E+01 0.24274838320E+01
 0.24552283317E+01 0.24649238637E+01 0.24552377235E+01 0.24274995299E+01 0.23855906114E+01
 0.23355653891E+01 0.22849230466E+01 0.22415232982E+01 0.22122925253E+01 0.22968721076E+01
 0.24032236303E+01 0.25256567253E+01 0.26548855698E+01 0.27791708804E+01 0.28860808769E+01
 0.29644070051E+01 0.30057859339E+01 0.30057809893E+01 0.29643931736E+01 0.28860601283E+01
 0.27791449782E+01 0.26548572925E+01 0.25256319389E+01 0.24032110216E+01 0.22968780386E+01
 0.22123062793E+01 0.21512722939E+01 0.21121721885E+01 0.20910451660E+01 0.20827498292E+01
 0.20820272435E+01 0.20843204451E+01 0.20863284719E+01 0.20863293700E+01 0.20843231015E+01
 0.20820301106E+01 0.20827482696E+01 0.20910334236E+01 0.21121485205E+01 0.21512431763E+01
 0.22122837654E+01 0.25957095167E+01 0.28126998077E+01 0.30424910887E+01 0.32686955660E+01
 0.34722043373E+01 0.36340156187E+01 0.37381672506E+01 0.37741087350E+01 0.37381619200E+01
 0.36340039459E+01 0.34721857548E+01 0.32686712185E+01 0.30424650252E+01 0.28126779797E+01
 0.25956979366E+01 0.24032110216E+01 0.22415293642E+01 0.21121721885E+01 0.20132214266E+01
 0.19408478236E+01 0.18905799409E+01 0.18581838181E+01 0.18402354265E+01 0.18345094185E+01
 0.18402324754E+01 0.18581759255E+01 0.18905649350E+01 0.19408256878E+01 0.20131953037E+01
 0.21121481308E+01 0.22415138509E+01 0.24032086670E+01 0.31397584506E+01 0.34931214446E+01
 0.38515302466E+01 0.41879983075E+01 0.44733950562E+01 0.46808928403E+01 0.47901130865E+01
 0.47901147362E+01 0.46808970340E+01 0.44733998852E+01 0.41880014196E+01 0.38515287804E+01
 0.34931127622E+01 0.31397424273E+01 0.28126779797E+01 0.25256319389E+01 0.22849192172E+01
 0.20910451660E+01 0.19408478236E+01 0.18294387516E+01 0.17515965055E+01 0.17026600522E+01
 0.16791331254E+01 0.16791329666E+01 0.17026571343E+01 0.17515861680E+01 0.18294195801E+01
 0.19408251323E+01 0.20910289344E+01 0.22849170699E+01 0.25256438829E+01 0.28126965718E+01
 0.39917817191E+01 0.45124670768E+01 0.50196534194E+01 0.54724021166E+01 0.58303568840E+01
 0.60598984567E+01 0.61389704157E+01 0.60599175694E+01 0.58303879338E+01 0.54724338394E+01
 0.50196755396E+01 0.45124737578E+01 0.39917735754E+01 0.34931127622E+01 0.30424650252E+01
 0.26548572925E+01 0.23355529958E+01 0.20827498292E+01 0.18905799409E+01 0.17515965055E+01
 0.16585045146E+01 0.16052941592E+01 0.15880166483E+01 0.16052935248E+01 0.16585030586E+01
 0.17515942423E+01 0.18905778317E+01 0.20827503417E+01 0.23355590711E+01 0.26548705894E+01
 0.30424832494E+01 0.34931297594E+01 0.52212312569E+01 0.59333611194E+01 0.65949912252E+01
 0.71505182302E+01 0.75509379864E+01 0.77604810089E+01 0.77604918193E+01 0.75509656877E+01
 0.71505515869E+01 0.65950187661E+01 0.59333775182E+01 0.52212383401E+01 0.45124737578E+01
 0.38515287804E+01 0.32686712185E+01 0.27791449782E+01 0.23855737234E+01 0.20820272435E+01
 0.18581838181E+01 0.17026600522E+01 0.16052941592E+01 0.15585902156E+01 0.15585882129E+01
 0.16052901538E+01 0.17026593788E+01 0.18581923625E+01 0.20820466417E+01 0.23855985805E+01
 0.27791663883E+01 0.32686833267E+01 0.38515324534E+01 0.45124722993E+01 0.68754841001E+01
 0.77783014671E+01 0.85698741868E+01 0.91851430898E+01 0.95744255482E+01 0.97075190772E+01
 0.95744201338E+01 0.91851377143E+01 0.85698757490E+01 0.77783134094E+01 0.68755044236E+01
 0.59333775182E+01 0.50196755396E+01 0.41880014196E+01 0.34721857548E+01 0.28860601283E+01
 0.24274838320E+01 0.20843204451E+01 0.18402354265E+01 0.16791331254E+01 0.15880166483E+01
 0.15585882129E+01 0.15880107578E+01 0.16791266428E+01 0.18402359568E+01 0.20843331930E+01
 0.24275075691E+01 0.28860869341E+01 0.34722046606E+01 0.41880050404E+01 0.50196634349E+01
 0.59333563042E+01 0.89395093893E+01 0.99890912813E+01 0.10845830539E+02 0.11445084244E+02
 0.11749054734E+02 0.11749041224E+02 0.11445051285E+02 0.10845796324E+02 0.99890744442E+01
 0.89395158427E+01 0.77783134094E+01 0.65950187661E+01 0.54724338394E+01 0.44733998852E+01
 0.36340039459E+01 0.29643931736E+01 0.24552283317E+01 0.20863284719E+01 0.18345094185E+01
 0.16791329666E+01 0.16052935248E+01 0.16052901538E+01 0.16791266428E+01 0.18345068216E+01
 0.20863317123E+01 0.24552345158E+01 0.29643995613E+01 0.36340094471E+01 0.44734016491E+01
 0.54724260491E+01 0.65950001930E+01 0.77782934531E+01 0.11296967646E+02 0.12361898397E+02
 0.13093835726E+02 0.13498724628E+02 0.13625126193E+02 0.13498710966E+02 0.13093812432E+02
 0.12361872299E+02 0.11296946427E+02 0.99890744442E+01 0.85698757490E+01 0.71505515869E+01
 0.58303879338E+01 0.46808970340E+01 0.37381619200E+01 0.30057809893E+01 0.24649238637E+01
 0.20863293700E+01 0.18402324754E+01 0.17026571343E+01 0.16585030586E+01 0.17026593788E+01
 0.18402359568E+01 0.20863317123E+01 0.24649217817E+01 0.30057722762E+01 0.37381467037E+01
 0.46808781276E+01 0.58303692182E+01 0.71505384251E+01 0.85698724570E+01 0.99890838139E+01
 0.13500955577E+02 0.14172605938E+02 0.14461347708E+02 0.14539611057E+02 0.14539615794E+02
 0.14461359756E+02 0.14172617438E+02 0.13500956787E+02 0.12361872299E+02 0.10845796324E+02
 0.91851377143E+01 0.75509656877E+01 0.60599175694E+01 0.47901147362E+01 0.37741087350E+01
 0.30057859339E+01 0.24552377235E+01 0.20843231015E+01 0.18581759255E+01 0.17515861680E+01
 0.17515942423E+01 0.18581923625E+01 0.20843331930E+01 0.24552345158E+01 0.30057722762E+01
 0.37740886318E+01 0.47900897444E+01 0.60598928098E+01 0.75509525873E+01 0.91851430823E+01
 0.10845814009E+02 0.12361885645E+02 0.14561322848E+02 0.14424351328E+02 0.14111207035E+02
 0.13960580110E+02 0.14111240762E+02 0.14424404472E+02 0.14561373439E+02 0.14172617438E+02
 0.13093812432E+02 0.11445051285E+02 0.95744201338E+01 0.77604918193E+01 0.61389704157E+01
 0.47901130865E+01 0.37381672506E+01 0.29644070051E+01 0.24274995299E+01 0.20820301106E+01
 0.18905649350E+01 0.18294195801E+01 0.18905778317E+01 0.20820466417E+01 0.24275075691E+01
 0.29643995613E+01 0.37381467037E+01 0.47900897444E+01 0.61389566839E+01 0.77604949056E+01
 0.95744362039E+01 0.11445066627E+02 0.13093809421E+02 0.14172587876E+02 0.13583451294E+02
 0.12469529485E+02 0.11705513285E+02 0.11705539641E+02 0.12469594528E+02 0.13583525453E+02
 0.14424404472E+02 0.14461359756E+02 0.13498710966E+02 0.11749041224E+02 0.97075190772E+01
 0.77604810089E+01 0.60598984567E+01 0.46808928403E+01 0.36340156187E+01 0.28860808769E+01
 0.23855906114E+01 0.20827482696E+01 0.19408256878E+01 0.19408251323E+01 0.20827503417E+01
 0.23855985805E+01 0.28860869341E+01 0.36340094471E+01 0.46808781276E+01 0.60598928098E+01
 0.77604949056E+01 0.97075427204E+01 0.11749054262E+02 0.13498700114E+02 0.14461323117E+02
 0.14424344327E+02 0.10257489309E+02 0.83903196371E+01 0.76633150197E+01 0.83903431937E+01
 0.10257529696E+02 0.12469594528E+02 0.14111240762E+02 0.14539615794E+02 0.13625126193E+02
 0.11749054734E+02 0.95744255482E+01 0.75509379864E+01 0.58303568840E+01 0.44733950562E+01
 0.34722043373E+01 0.27791708804E+01 0.23355653891E+01 0.20910334236E+01 0.20131953037E+01
 0.20910289344E+01 0.23355590711E+01 0.27791663883E+01 0.34722046606E+01 0.44734016491E+01
 0.58303692182E+01 0.75509525873E+01 0.95744362039E+01 0.11749054262E+02 0.13625109845E+02
 0.14539583456E+02 0.14111196657E+02 0.12469547172E+02 0.51309835100E+01 0.31188351439E+01
 0.31188224811E+01 0.51309599443E+01 0.83903431937E+01 0.11705539641E+02 0.13960580110E+02
 0.14539611057E+02 0.13498724628E+02 0.11445084244E+02 0.91851430898E+01 0.71505182302E+01
 0.54724021166E+01 0.41879983075E+01 0.32686955660E+01 0.26548855698E+01 0.22849230466E+01
 0.21121485205E+01 0.21121481308E+01 0.22849170699E+01 0.26548705894E+01 0.32686833267E+01
 0.41880050404E+01 0.54724260491E+01 0.71505384251E+01 0.91851430823E+01 0.11445066627E+02
 0.13498700114E+02 0.14539583456E+02 0.13960552206E+02 0.11705523686E+02 0.83903511892E+01
 -.45095177571E+00 -.18026128848E+01 -.45097400096E+00 0.31188224811E+01 0.76633150197E+01
 0.11705513285E+02 0.14111207035E+02 0.14461347708E+02 0.13093835726E+02 0.10845830539E+02
 0.85698741868E+01 0.65949912252E+01 0.50196534194E+01 0.38515302466E+01 0.30424910887E+01
 0.25256567253E+01 0.22415232982E+01 0.21512431763E+01 0.22415138509E+01 0.25256438829E+01
 0.30424832494E+01 0.38515324534E+01 0.50196634349E+01 0.65950001930E+01 0.85698724570E+01
 0.10845814009E+02 0.13093809421E+02 0.14461323117E+02 0.14111196657E+02 0.11705523686E+02
 0.76633430444E+01 0.31188557667E+01 -.47721420291E+01 -.47721384589E+01 -.18026128848E+01
 0.31188351439E+01 0.83903196371E+01 0.12469529485E+02 0.14424351328E+02 0.14172605938E+02
 0.12361898397E+02 0.99890912813E+01 0.77783014671E+01 0.59333611194E+01 0.45124670768E+01
 0.34931214446E+01 0.28126998077E+01 0.24032236303E+01 0.22122925253E+01 0.22122837654E+01
 0.24032086670E+01 0.28126965718E+01 0.34931297594E+01 0.45124722993E+01 0.59333563042E+01
 0.77782934531E+01 0.99890838139E+01 0.12361885645E+02 0.14172587876E+02 0.14424344327E+02
 0.12469547172E+02 0.83903511892E+01 0.31188557667E+01 -.18026121494E+01 -.47721420399E+01
 -.18026121636E+01 0.31188557563E+01 0.83903511817E+01 0.12469547161E+02 0.14424344311E+02
 0.14172587858E+02 0.12361885625E+02 0.99890837917E+01 0.77782934360E+01 0.59333563012E+01
 0.45124723089E+01 0.34931297730E+01 0.28126965853E+01 0.24032086801E+01 0.22122837736E+01
 0.22122925244E+01 0.24032236253E+01 0.28126998088E+01 0.34931214547E+01 0.45124670929E+01
 0.59333611415E+01 0.77783014950E+01 0.99890913072E+01 0.12361898411E+02 0.14172605941E+02
 0.14424351327E+02 0.12469529482E+02 0.83903196321E+01 0.31188351382E+01 -.18026128878E+01
 -.47721384631E+01 -.18026121636E+01 0.20071442921E+01 0.68824192461E+01 0.11269345242E+02
 0.13966102809E+02 0.14512757620E+02 0.13238801479E+02 0.11000511136E+02 0.86966775737E+01
 0.66920201577E+01 0.50904206632E+01 0.39018986825E+01 0.30785413011E+01 0.25526177803E+01
 0.22635612054E+01 0.21717416980E+01 0.22635714914E+01 0.25526316455E+01 0.30785490392E+01
 0.39018945412E+01 0.50904088947E+01 0.66920144069E+01 0.86966904933E+01 0.11000542106E+02
 0.13238833374E+02 0.14512769302E+02 0.13966085653E+02 0.11269311165E+02 0.68823883637E+01
 0.20071285092E+01 -.18026158890E+01 -.32420628622E+01 0.31188557563E+01 0.68824192461E+01
 0.10788455629E+02 0.13589987082E+02 0.14574689702E+02 0.13757798526E+02 0.11761260365E+02
 0.94564698495E+01 0.73631845639E+01 0.56302172489E+01 0.43011638897E+01 0.33491712493E+01
 0.27135737949E+01 0.23306631141E+01 0.21519290310E+01 0.21519310450E+01 0.23306730078E+01
 0.27135922121E+01 0.33491834569E+01 0.43011536478E+01 0.56301913204E+01 0.73631704534E+01
 0.94564848437E+01 0.11761292921E+02 0.13757824580E+02 0.14574699093E+02 0.13589984126E+02
 0.10788443381E+02 0.68823964154E+01 0.31188290678E+01 0.81563636340E+00 0.81564870875E+00
 0.83903511817E+01 0.11269345242E+02 0.13589987082E+02 0.14565965016E+02 0.13985318382E+02
 0.12221006213E+02 0.99970981624E+01 0.78893160479E+01 0.60858801612E+01 0.46585800349E+01
 0.36038810496E+01 0.28736913591E+01 0.24065958415E+01 0.21493377131E+01 0.20675028136E+01
 0.21493490176E+01 0.24066115239E+01 0.28737018623E+01 0.36038793992E+01 0.46585652932E+01
 0.60858579689E+01 0.78892971070E+01 0.99970934897E+01 0.12221021230E+02 0.13985347989E+02
 0.14565996728E+02 0.13590007956E+02 0.11269350494E+02 0.83903459594E+01 0.60335538387E+01
 0.51264772932E+01 0.60335600532E+01 0.12469547161E+02 0.13966102809E+02 0.14574689702E+02
 0.13985318382E+02 0.12373121488E+02 0.10277495842E+02 0.82244485051E+01 0.64158560027E+01
 0.49418778361E+01 0.38202719274E+01 0.30186141088E+01 0.24825893869E+01 0.21586527349E+01
 0.20070152454E+01 0.20070206068E+01 0.21586619714E+01 0.24825920449E+01 0.30186109017E+01
 0.38202699100E+01 0.49418757160E+01 0.64158442303E+01 0.82244266439E+01 0.10277478640E+02
 0.12373123978E+02 0.13985339862E+02 0.14574721103E+02 0.13966141254E+02 0.12469592991E+02
 0.10779045879E+02 0.96772333065E+01 0.96772151131E+01 0.10779002868E+02 0.14424344311E+02
 0.14512757620E+02 0.13757798526E+02 0.12221006213E+02 0.10277495842E+02 0.83394545638E+01
 0.65890829347E+01 0.51239021195E+01 0.39777495134E+01 0.31341896222E+01 0.25494483899E+01
 0.21738716272E+01 0.19660792438E+01 0.18997806888E+01 0.19660709590E+01 0.21738613545E+01
 0.25494439630E+01 0.31341950076E+01 0.39777619659E+01 0.51239137504E+01 0.65890844616E+01
 0.83394415532E+01 0.10277473021E+02 0.12220988619E+02 0.13757803736E+02 0.14512794631E+02
 0.14424406027E+02 0.13780494909E+02 0.13080472492E+02 0.12785186569E+02 0.13080431982E+02
 0.13780430785E+02 0.14172587858E+02 0.13238801479E+02 0.11761260365E+02 0.99970981624E+01
 0.82244485051E+01 0.65890829347E+01 0.51866673973E+01 0.40606871773E+01 0.32086858905E+01
 0.25990351980E+01 0.21893135291E+01 0.19401447313E+01 0.18229146556E+01 0.18229049883E+01
 0.19401247750E+01 0.21893012029E+01 0.25990394615E+01 0.32087034323E+01 0.40607099683E+01
 0.51866887347E+01 0.65890944296E+01 0.82244431429E+01 0.99970792340E+01 0.11761244961E+02
 0.13238807043E+02 0.14172613795E+02 0.14535224391E+02 0.14519237881E+02 0.14409527069E+02
 0.14409519790E+02 0.14519216189E+02 0.14535193149E+02 0.12361885625E+02 0.11000511136E+02
 0.94564698495E+01 0.78893160479E+01 0.64158560027E+01 0.51239021195E+01 0.40606871773E+01
 0.32344098561E+01 0.26253963514E+01 0.22004842232E+01 0.19252574904E+01 0.17718435083E+01
 0.17226818471E+01 0.17718354672E+01 0.19252471420E+01 0.22004797750E+01 0.26254034131E+01
 0.32344277989E+01 0.40607101271E+01 0.51239233225E+01 0.64158714980E+01 0.78893240279E+01
 0.94564699482E+01 0.11000502306E+02 0.12361871078E+02 0.13363233107E+02 0.13962755935E+02
 0.14242717556E+02 0.14318657891E+02 0.14242723851E+02 0.13962768162E+02 0.13363248587E+02
 0.99890837917E+01 0.86966775737E+01 0.73631845639E+01 0.60858801612E+01 0.49418778361E+01
 0.39777495134E+01 0.32086858905E+01 0.26253963514E+01 0.22045345639E+01 0.19185664366E+01
 0.17428365982E+01 0.16595574018E+01 0.16595587821E+01 0.17428382235E+01 0.19185649736E+01
 0.22045318578E+01 0.26253977715E+01 0.32086935353E+01 0.39777607457E+01 0.49418902704E+01
 0.60858945627E+01 0.73631991736E+01 0.86966855458E+01 0.99890763027E+01 0.11139742507E+02
 0.12046119388E+02 0.12643239698E+02 0.12931764369E+02 0.12931773363E+02 0.12643263803E+02
 0.12046149944E+02 0.11139766775E+02 0.77782934360E+01 0.66920201577E+01 0.56302172489E+01
 0.46585800349E+01 0.38202719274E+01 0.31341896222E+01 0.25990351980E+01 0.22004842232E+01
 0.19185664366E+01 0.17334540721E+01 0.16291689643E+01 0.15955619060E+01 0.16291728038E+01
 0.17334580149E+01 0.19185659626E+01 0.22004774257E+01 0.25990239078E+01 0.31341777872E+01
 0.38202636297E+01 0.46585787330E+01 0.56302259429E+01 0.66920379375E+01 0.77783130116E+01
 0.88091980006E+01 0.97035579906E+01 0.10391743282E+02 0.10823655194E+02 0.10970515186E+02
 0.10823673883E+02 0.10391765437E+02 0.97035665313E+01 0.88091881881E+01 0.59333563012E+01
 0.50904206632E+01 0.43011638897E+01 0.36038810496E+01 0.30186141088E+01 0.25494483899E+01
 0.21893135291E+01 0.19252574904E+01 0.17428365982E+01 0.16291689643E+01 0.15748133584E+01
 0.15748151859E+01 0.16291730043E+01 0.17428384936E+01 0.19252512074E+01 0.21892957134E+01
 0.25494223026E+01 0.30185885996E+01 0.36038650151E+01 0.43011613825E+01 0.50904314405E+01
 0.59333769684E+01 0.67754441429E+01 0.75524879015E+01 0.82004045084E+01 0.86645933208E+01
 0.89064921023E+01 0.89064913086E+01 0.86645885268E+01 0.82003916418E+01 0.75524667305E+01
 0.67754196927E+01 0.45124723089E+01 0.39018986825E+01 0.33491712493E+01 0.28736913591E+01
 0.24825893869E+01 0.21738716272E+01 0.19401447313E+01 0.17718435083E+01 0.16595574018E+01
 0.15955619060E+01 0.15748151859E+01 0.15955647957E+01 0.16595599760E+01 0.17718411112E+01
 0.19401343085E+01 0.21738542132E+01 0.24825698672E+01 0.28736751208E+01 0.33491610858E+01
 0.39018939653E+01 0.45124727624E+01 0.51481507664E+01 0.57649994508E+01 0.63133623091E+01
 0.67452176493E+01 0.70212916007E+01 0.71162146477E+01 0.70212679804E+01 0.67451819366E+01
 0.63133294693E+01 0.57649785800E+01 0.51481421129E+01 0.34931297730E+01 0.30785413011E+01
 0.27135737949E+01 0.24065958415E+01 0.21586527349E+01 0.19660792438E+01 0.18229146556E+01
 0.17226818471E+01 0.16595587821E+01 0.16291728038E+01 0.16291730043E+01 0.16595599760E+01
 0.17226853190E+01 0.18229212046E+01 0.19660875242E+01 0.21586587744E+01 0.24065947060E+01
 0.27135627918E+01 0.30785231663E+01 0.34931118716E+01 0.39397458648E+01 0.43915297017E+01
 0.48146101922E+01 0.51727019134E+01 0.54326063451E+01 0.55692538208E+01 0.55692450499E+01
 0.54325840135E+01 0.51726758888E+01 0.48145911369E+01 0.43915245032E+01 0.39397550624E+01
 0.28126965853E+01 0.25526177803E+01 0.23306631141E+01 0.21493377131E+01 0.20070152454E+01
 0.18997806888E+01 0.18229049883E+01 0.17718354672E+01 0.17428382235E+01 0.17334580149E+01
 0.17428384936E+01 0.17718411112E+01 0.18229212046E+01 0.18998069077E+01 0.20070434372E+01
 0.21493566616E+01 0.23306658608E+01 0.25526056112E+01 0.28126776876E+01 0.31025354565E+01
 0.34071600121E+01 0.37055807829E+01 0.39732848722E+01 0.41857946009E+01 0.43224669405E+01
 0.43696180471E+01 0.43224701998E+01 0.41857994606E+01 0.39732900329E+01 0.37055873694E+01
 0.34071710623E+01 0.31025522867E+01 0.24032086801E+01 0.22635612054E+01 0.21519290310E+01
 0.20675028136E+01 0.20070206068E+01 0.19660709590E+01 0.19401247750E+01 0.19252471420E+01
 0.19185649736E+01 0.19185659626E+01 0.19252512074E+01 0.19401343085E+01 0.19660875242E+01
 0.20070434372E+01 0.20675283868E+01 0.21519517861E+01 0.22635755745E+01 0.24032106880E+01
 0.25679120128E+01 0.27501416445E+01 0.29378711237E+01 0.31158244354E+01 0.32676371837E+01
 0.33783688696E+01 0.34367494541E+01 0.34367543177E+01 0.33783830903E+01 0.32676592502E+01
 0.31158513937E+01 0.29378982510E+01 0.27501632870E+01 0.25679232340E+01 0.22122837736E+01
 0.21717416980E+01 0.21519310450E+01 0.21493490176E+01 0.21586619714E+01 0.21738613545E+01
 0.21893012029E+01 0.22004797750E+01 0.22045318578E+01 0.22004774257E+01 0.21892957134E+01
 0.21738542132E+01 0.21586587744E+01 0.21493566616E+01 0.21519517861E+01 0.21717690495E+01
 0.22123058284E+01 0.22742026025E+01 0.23546181887E+01 0.24472577425E+01 0.25431450806E+01
 0.26319940627E+01 0.27038326536E+01 0.27504856091E+01 0.27666493835E+01 0.27504938001E+01
 0.27038483646E+01 0.26320158664E+01 0.25431697888E+01 0.24472792347E+01 0.23546283393E+01
 0.22741956391E+01 0.22122925244E+01 0.22635714914E+01 0.23306730078E+01 0.24066115239E+01
 0.24825920449E+01 0.25494439630E+01 0.25990394615E+01 0.26254034131E+01 0.26253977715E+01
 0.25990239078E+01 0.25494223026E+01 0.24825698672E+01 0.24065947060E+01 0.23306658608E+01
 0.22635755745E+01 0.22123058284E+01 0.21809328078E+01 0.21701330962E+01 0.21773693978E+01
 0.21976474605E+01 0.22246145660E+01 0.22517325181E+01 0.22732957849E+01 0.22851600795E+01
 0.22851636213E+01 0.22733047095E+01 0.22517426226E+01 0.22246207273E+01 0.21976459118E+01
 0.21773591751E+01 0.21701165571E+01 0.21809150405E+01 0.24032236253E+01 0.25526316455E+01
 0.27135922121E+01 0.28737018623E+01 0.30186109017E+01 0.31341950076E+01 0.32087034323E+01
 0.32344277989E+01 0.32086935353E+01 0.31341777872E+01 0.30185885996E+01 0.28736751208E+01
 0.27135627918E+01 0.25526056112E+01 0.24032106880E+01 0.22742026025E+01 0.21701330962E+01
 0.20915817659E+01 0.20361518640E+01 0.19997217586E+01 0.19775927722E+01 0.19653641330E+01
 0.19595271734E+01 0.19578389203E+01 0.19595287848E+01 0.19653651204E+01 0.19775884457E+01
 0.19997069485E+01 0.20361253508E+01 0.20915500403E+01 0.21701084758E+01 0.22741956259E+01
 0.28126998088E+01 0.30785490392E+01 0.33491834569E+01 0.36038793992E+01 0.38202699100E+01
 0.39777619659E+01 0.40607099683E+01 0.40607101271E+01 0.39777607457E+01 0.38202636297E+01
 0.36038650151E+01 0.33491610858E+01 0.30785231663E+01 0.28126776876E+01 0.25679120128E+01
 0.23546181887E+01 0.21773693978E+01 0.20361518640E+01 0.19280686486E+01 0.18489039510E+01
 0.17942534731E+01 0.17602439779E+01 0.17440050194E+01 0.17440040314E+01 0.17602398302E+01
 0.17942434368E+01 0.18488864061E+01 0.19280452296E+01 0.20361281451E+01 0.21773528221E+01