   1   1   0   0
  0.4002575E+02  0.3839590E-09  0.3839590E-09  0.3839590E-09  0.5000000E-15
  1.000000000000000E-004
  CAR 
 unknown system                          
     17.39554923     -8.26860165  301      1.03726004      1.00000000
     -8.269  0.0000E+00  0.0000E+00
     -8.183  0.0000E+00  0.0000E+00
     -8.098  0.0000E+00  0.0000E+00
     -8.012  0.0000E+00  0.0000E+00
     -7.926  0.0000E+00  0.0000E+00
     -7.841  0.0000E+00  0.0000E+00
     -7.755  0.0000E+00  0.0000E+00
     -7.670  0.0000E+00  0.0000E+00
     -7.584  0.0000E+00  0.0000E+00
     -7.499  0.0000E+00  0.0000E+00
     -7.413  0.0000E+00  0.0000E+00
     -7.328  0.0000E+00  0.0000E+00
     -7.242  0.0000E+00  0.0000E+00
     -7.156  0.7450E-15  0.6374E-16
     -7.071  0.1082E+00  0.9259E-02
     -6.985  0.0000E+00  0.9259E-02
     -6.900  0.0000E+00  0.9259E-02
     -6.814  0.1394E-05  0.9259E-02
     -6.729  0.8659E+00  0.8333E-01
     -6.643  0.6494E+00  0.1389E+00
     -6.558  0.0000E+00  0.1389E+00
     -6.472  0.0000E+00  0.1389E+00
     -6.387  0.0000E+00  0.1389E+00
     -6.301  0.4076E-03  0.1389E+00
     -6.215  0.1298E+01  0.2500E+00
     -6.130  0.0000E+00  0.2500E+00
     -6.044  0.4124E-13  0.2500E+00
     -5.959  0.2598E+01  0.4722E+00
     -5.873  0.8658E+00  0.5463E+00
     -5.788  0.0000E+00  0.5463E+00
     -5.702  0.0000E+00  0.5463E+00
     -5.617  0.0000E+00  0.5463E+00
     -5.531  0.2045E+00  0.5638E+00
     -5.446  0.9330E-11  0.6019E+00
     -5.360  0.2598E+01  0.8241E+00
     -5.274  0.6045E+00  0.8758E+00
     -5.189  0.2321E+01  0.1083E+01
     -5.103  0.2597E+01  0.1306E+01
     -5.018  0.0000E+00  0.1306E+01
     -4.932  0.0000E+00  0.1306E+01
     -4.847  0.1695E+00  0.1320E+01
     -4.761  0.3850E+01  0.1649E+01
     -4.676  0.0000E+00  0.1861E+01
     -4.590  0.3033E+00  0.1887E+01
     -4.505  0.1299E+01  0.2000E+01
     -4.419  0.0000E+00  0.2000E+01
     -4.333  0.0000E+00  0.2000E+01
     -4.248  0.0000E+00  0.2000E+01
     -4.162  0.0000E+00  0.2000E+01
     -4.077  0.0000E+00  0.2000E+01
     -3.991  0.0000E+00  0.2000E+01
     -3.906  0.0000E+00  0.2000E+01
     -3.820  0.0000E+00  0.2000E+01
     -3.735  0.0000E+00  0.2000E+01
     -3.649  0.0000E+00  0.2000E+01
     -3.564  0.0000E+00  0.2000E+01
     -3.478  0.0000E+00  0.2000E+01
     -3.392  0.0000E+00  0.2000E+01
     -3.307  0.0000E+00  0.2000E+01
     -3.221  0.0000E+00  0.2000E+01
     -3.136  0.0000E+00  0.2000E+01
     -3.050  0.0000E+00  0.2000E+01
     -2.965  0.0000E+00  0.2000E+01
     -2.879  0.0000E+00  0.2000E+01
     -2.794  0.0000E+00  0.2000E+01
     -2.708  0.0000E+00  0.2000E+01
     -2.622  0.0000E+00  0.2000E+01
     -2.537  0.0000E+00  0.2000E+01
     -2.451  0.0000E+00  0.2000E+01
     -2.366  0.0000E+00  0.2000E+01
     -2.280  0.0000E+00  0.2000E+01
     -2.195  0.0000E+00  0.2000E+01
     -2.109  0.0000E+00  0.2000E+01
     -2.024  0.0000E+00  0.2000E+01
     -1.938  0.0000E+00  0.2000E+01
     -1.853  0.0000E+00  0.2000E+01
     -1.767  0.0000E+00  0.2000E+01
     -1.681  0.0000E+00  0.2000E+01
     -1.596  0.0000E+00  0.2000E+01
     -1.510  0.0000E+00  0.2000E+01
     -1.425  0.0000E+00  0.2000E+01
     -1.339  0.0000E+00  0.2000E+01
     -1.254  0.0000E+00  0.2000E+01
     -1.168  0.4151E+00  0.2036E+01
     -1.083  0.0000E+00  0.2037E+01
     -0.997  0.0000E+00  0.2037E+01
     -0.912  0.0000E+00  0.2037E+01
     -0.826  0.0000E+00  0.2037E+01
     -0.740  0.3593E+00  0.2068E+01
     -0.655  0.2430E+01  0.2276E+01
     -0.569  0.0000E+00  0.2287E+01
     -0.484  0.0000E+00  0.2287E+01
     -0.398  0.0000E+00  0.2287E+01
     -0.313  0.1326E+00  0.2298E+01
     -0.227  0.5063E+01  0.2732E+01
     -0.142  0.3896E+01  0.3065E+01
     -0.056  0.0000E+00  0.3065E+01
      0.029  0.0000E+00  0.3065E+01
      0.115  0.2147E+01  0.3248E+01
      0.201  0.0000E+00  0.3250E+01
      0.286  0.3766E+01  0.3572E+01
      0.372  0.0000E+00  0.3583E+01
      0.457  0.0000E+00  0.3583E+01
      0.543  0.0000E+00  0.3583E+01
      0.628  0.9632E-09  0.3583E+01
      0.714  0.6494E+00  0.3639E+01
      0.799  0.0000E+00  0.3639E+01
      0.885  0.0000E+00  0.3639E+01
      0.970  0.2582E+01  0.3860E+01
      1.056  0.2594E+01  0.4083E+01
      1.142  0.1298E+01  0.4194E+01
      1.227  0.0000E+00  0.4194E+01
      1.313  0.0000E+00  0.4194E+01
      1.398  0.1730E-08  0.4194E+01
      1.484  0.2598E+01  0.4417E+01
      1.569  0.3883E+01  0.4749E+01
      1.655  0.1299E+01  0.4861E+01
      1.740  0.0000E+00  0.4861E+01
      1.826  0.0000E+00  0.4861E+01
      1.912  0.0000E+00  0.4861E+01
      1.997  0.0000E+00  0.4861E+01
      2.083  0.7957E-09  0.4861E+01
      2.168  0.2598E+01  0.5083E+01
      2.254  0.1712E-02  0.5083E+01
      2.339  0.3197E+01  0.5357E+01
      2.425  0.2598E+01  0.5583E+01
      2.510  0.4599E-05  0.5583E+01
      2.596  0.2598E+01  0.5806E+01
      2.681  0.2164E+01  0.5991E+01
      2.767  0.2916E+01  0.6240E+01
      2.853  0.6167E-09  0.6324E+01
      2.938  0.1123E+01  0.6420E+01
      3.024  0.9315E-13  0.6491E+01
      3.109  0.2598E+01  0.6713E+01
      3.195  0.7383E-02  0.6714E+01
      3.280  0.5188E+01  0.7157E+01
      3.366  0.0000E+00  0.7157E+01
      3.451  0.0000E+00  0.7157E+01
      3.537  0.0000E+00  0.7157E+01
      3.622  0.2939E+01  0.7409E+01
      3.708  0.8659E+00  0.7565E+01
      3.794  0.4828E+00  0.7606E+01
      3.879  0.0000E+00  0.7713E+01
      3.965  0.0000E+00  0.7713E+01
      4.050  0.7883E-09  0.7713E+01
      4.136  0.3012E+01  0.7971E+01
      4.221  0.0000E+00  0.7972E+01
      4.307  0.4131E-02  0.7973E+01
      4.392  0.3206E+00  0.8000E+01
      4.478  0.0000E+00  0.8000E+01
      4.563  0.0000E+00  0.8000E+01
      4.649  0.0000E+00  0.8000E+01
      4.735  0.0000E+00  0.8000E+01
      4.820  0.0000E+00  0.8000E+01
      4.906  0.0000E+00  0.8000E+01
      4.991  0.0000E+00  0.8000E+01
      5.077  0.0000E+00  0.8000E+01
      5.162  0.0000E+00  0.8000E+01
      5.248  0.0000E+00  0.8000E+01
      5.333  0.0000E+00  0.8000E+01
      5.419  0.0000E+00  0.8000E+01
      5.504  0.0000E+00  0.8000E+01
      5.590  0.0000E+00  0.8000E+01
      5.676  0.0000E+00  0.8000E+01
      5.761  0.2092E+00  0.8018E+01
      5.847  0.0000E+00  0.8028E+01
      5.932  0.0000E+00  0.8028E+01
      6.018  0.0000E+00  0.8028E+01
      6.103  0.0000E+00  0.8028E+01
      6.189  0.0000E+00  0.8028E+01
      6.274  0.0000E+00  0.8028E+01
      6.360  0.4825E-03  0.8028E+01
      6.446  0.8101E+00  0.8097E+01
      6.531  0.2112E+01  0.8278E+01
      6.617  0.0000E+00  0.8278E+01
      6.702  0.0000E+00  0.8278E+01
      6.788  0.6468E-01  0.8283E+01
      6.873  0.5847E+00  0.8333E+01
      6.959  0.6494E+00  0.8389E+01
      7.044  0.1210E+01  0.8492E+01
      7.130  0.0000E+00  0.8500E+01
      7.215  0.0000E+00  0.8500E+01
      7.301  0.0000E+00  0.8500E+01
      7.387  0.0000E+00  0.8500E+01
      7.472  0.1178E-07  0.8500E+01
      7.558  0.1299E+01  0.8611E+01
      7.643  0.4233E+00  0.8647E+01
      7.729  0.1197E-03  0.8648E+01
      7.814  0.2598E+01  0.8870E+01
      7.900  0.8588E-02  0.8871E+01
      7.985  0.4629E+01  0.9267E+01
      8.071  0.0000E+00  0.9389E+01
      8.156  0.6398E-01  0.9394E+01
      8.242  0.5131E+01  0.9833E+01
      8.328  0.3303E-05  0.9833E+01
      8.413  0.3160E+01  0.1010E+02
      8.499  0.1296E+01  0.1022E+02
      8.584  0.0000E+00  0.1022E+02
      8.670  0.0000E+00  0.1022E+02
      8.755  0.9527E-01  0.1023E+02
      8.841  0.2735E+01  0.1046E+02
      8.926  0.9478E-01  0.1053E+02
      9.012  0.2841E-13  0.1053E+02
      9.097  0.2598E+01  0.1075E+02
      9.183  0.0000E+00  0.1075E+02
      9.269  0.0000E+00  0.1075E+02
      9.354  0.0000E+00  0.1075E+02
      9.440  0.3328E+01  0.1103E+02
      9.525  0.6880E+01  0.1166E+02
      9.611  0.1270E+01  0.1177E+02
      9.696  0.0000E+00  0.1177E+02
      9.782  0.0000E+00  0.1177E+02
      9.867  0.1694E+01  0.1191E+02
      9.953  0.3247E+00  0.1194E+02
     10.038  0.0000E+00  0.1194E+02
     10.124  0.0000E+00  0.1194E+02
     10.210  0.0000E+00  0.1194E+02
     10.295  0.1573E-04  0.1194E+02
     10.381  0.4358E+01  0.1232E+02
     10.466  0.2569E+01  0.1254E+02
     10.552  0.1299E+01  0.1265E+02
     10.637  0.4761E+01  0.1306E+02
     10.723  0.0000E+00  0.1306E+02
     10.808  0.0000E+00  0.1306E+02
     10.894  0.2521E+01  0.1327E+02
     10.980  0.1281E+01  0.1339E+02
     11.065  0.0000E+00  0.1339E+02
     11.151  0.1849E+01  0.1355E+02
     11.236  0.1297E+01  0.1372E+02
     11.322  0.1370E-13  0.1372E+02
     11.407  0.2598E+01  0.1394E+02
     11.493  0.0000E+00  0.1394E+02
     11.578  0.0000E+00  0.1394E+02
     11.664  0.0000E+00  0.1394E+02
     11.749  0.0000E+00  0.1394E+02
     11.835  0.9097E-10  0.1394E+02
     11.921  0.1529E+01  0.1408E+02
     12.006  0.2367E+01  0.1428E+02
     12.092  0.1793E+01  0.1443E+02
     12.177  0.2536E+01  0.1465E+02
     12.263  0.2802E+01  0.1489E+02
     12.348  0.1961E+01  0.1506E+02
     12.434  0.0000E+00  0.1506E+02
     12.519  0.1296E+01  0.1517E+02
     12.605  0.0000E+00  0.1517E+02
     12.690  0.0000E+00  0.1517E+02
     12.776  0.0000E+00  0.1517E+02
     12.862  0.0000E+00  0.1517E+02
     12.947  0.0000E+00  0.1517E+02
     13.033  0.0000E+00  0.1517E+02
     13.118  0.0000E+00  0.1517E+02
     13.204  0.9834E+00  0.1525E+02
     13.289  0.3705E+01  0.1571E+02
     13.375  0.0000E+00  0.1583E+02
     13.460  0.0000E+00  0.1583E+02
     13.546  0.0000E+00  0.1583E+02
     13.631  0.0000E+00  0.1583E+02
     13.717  0.2568E+00  0.1586E+02
     13.803  0.1042E+01  0.1594E+02
     13.888  0.0000E+00  0.1594E+02
     13.974  0.0000E+00  0.1594E+02
     14.059  0.0000E+00  0.1594E+02
     14.145  0.0000E+00  0.1594E+02
     14.230  0.0000E+00  0.1594E+02
     14.316  0.0000E+00  0.1594E+02
     14.401  0.0000E+00  0.1594E+02
     14.487  0.0000E+00  0.1594E+02
     14.572  0.0000E+00  0.1594E+02
     14.658  0.0000E+00  0.1594E+02
     14.744  0.0000E+00  0.1594E+02
     14.829  0.0000E+00  0.1594E+02
     14.915  0.0000E+00  0.1594E+02
     15.000  0.0000E+00  0.1594E+02
     15.086  0.0000E+00  0.1594E+02
     15.171  0.0000E+00  0.1594E+02
     15.257  0.0000E+00  0.1594E+02
     15.342  0.0000E+00  0.1594E+02
     15.428  0.0000E+00  0.1594E+02
     15.514  0.1586E+00  0.1596E+02
     15.599  0.0000E+00  0.1597E+02
     15.685  0.0000E+00  0.1597E+02
     15.770  0.0000E+00  0.1597E+02
     15.856  0.0000E+00  0.1597E+02
     15.941  0.0000E+00  0.1597E+02
     16.027  0.0000E+00  0.1597E+02
     16.112  0.0000E+00  0.1597E+02
     16.198  0.1763E-05  0.1597E+02
     16.283  0.3247E+00  0.1600E+02
     16.369  0.0000E+00  0.1600E+02
     16.455  0.0000E+00  0.1600E+02
     16.540  0.0000E+00  0.1600E+02
     16.626  0.0000E+00  0.1600E+02
     16.711  0.0000E+00  0.1600E+02
     16.797  0.0000E+00  0.1600E+02
     16.882  0.0000E+00  0.1600E+02
     16.968  0.0000E+00  0.1600E+02
     17.053  0.0000E+00  0.1600E+02
     17.139  0.0000E+00  0.1600E+02
     17.224  0.0000E+00  0.1600E+02
     17.310  0.0000E+00  0.1600E+02
     17.396  0.0000E+00  0.1600E+02
