    1    1    1    1
  0.4002575E+02  0.3839590E-09  0.3839590E-09  0.3839590E-09  0.5000000E-15
  1.000000000000000E-004
  CAR 
 unknown system                          
      4     16      8
 
  0.0000000E+00  0.0000000E+00  0.0000000E+00  0.4629630E-02
      1         -7.102049   1.000000
      2          4.322619   0.000000
      3          4.322640   0.000000
      4          4.322640   0.000000
      5          8.848989   0.000000
      6          9.924515   0.000000
      7          9.924527   0.000000
      8          9.924527   0.000000
 
  0.1666667E+00 -0.2078186E-17 -0.2078186E-17  0.3703704E-01
      1         -6.781375   1.000000
      2          2.617813   0.000000
      3          4.119513   0.000000
      4          4.119532   0.000000
      5          8.763957   0.000000
      6         10.325441   0.000000
      7         10.325462   0.000000
      8         10.615337   0.000000
 
  0.3333333E+00 -0.3087111E-16 -0.3115538E-17  0.3703704E-01
      1         -5.933293   1.000000
      2          0.097215   1.000000
      3          3.797687   0.000000
      4          3.797706   0.000000
      5          7.916285   0.000000
      6          9.853092   0.000000
      7          9.853126   0.000000
      8         12.268309   0.000000
 
  0.5000000E+00 -0.2352975E-16  0.3198140E-16  0.1851852E-01
      1         -5.279350   1.000000
      2         -1.180470   1.000000
      3          3.666065   0.000000
      4          3.666084   0.000000
      5          7.628968   0.000000
      6          9.457389   0.000000
      7          9.457420   0.000000
      8         12.045318   0.000000
 
  0.1666667E+00  0.1666667E+00  0.3163886E-17  0.2777778E-01
      1         -6.673787   1.000000
      2          2.895001   0.000000
      3          3.626791   0.000000
      4          3.626803   0.000000
      5          8.405386   0.000000
      6          9.441658   0.000000
      7         11.171694   0.000000
      8         11.171704   0.000000
 
  0.3333333E+00  0.1666667E+00  0.3420887E-17  0.1111111E+00
      1         -5.990698   1.000000
      2          0.952723   1.000000
      3          3.076549   0.000000
      4          3.218871   0.000000
      5          7.976866   0.000000
      6          9.065945   0.000000
      7         10.881262   0.000000
      8         11.376376   0.000000
 
  0.5000000E+00  0.1666667E+00  0.1572356E-16  0.1111111E+00
      1         -5.162037   1.000000
      2         -0.732758   1.000000
      3          2.394017   0.000000
      4          3.214546   0.000000
      5          7.756370   0.000000
      6          9.416635   0.000000
      7         10.587597   0.000000
      8         12.105662   0.000000
 
 -0.3333333E+00  0.1666667E+00  0.2352975E-16  0.1111111E+00
      1         -5.397080   1.000000
      2         -0.300376   1.000000
      3          2.126356   0.000000
      4          3.603214   0.000000
      5          8.360816   0.000000
      6          9.446269   0.000000
      7         10.333280   0.000000
      8         12.229378   0.000000
 
 -0.1666667E+00  0.1666667E+00  0.4156372E-17  0.5555556E-01
      1         -6.276838   1.000000
      2          1.521946   0.000000
      3          2.708639   0.000000
      4          4.093171   0.000000
      5          9.455066   0.000000
      6          9.596505   0.000000
      7         10.611415   0.000000
      8         10.909562   0.000000
 
  0.3333333E+00  0.3333333E+00  0.2207906E-16  0.2777778E-01
      1         -5.527685   1.000000
      2          0.670260   1.000000
      3          2.653833   0.000000
      4          2.653844   0.000000
      5          6.796778   0.000000
      6          6.902744   0.000000
      7         13.723023   0.000000
      8         13.723036   0.000000
 
  0.5000000E+00  0.3333333E+00  0.2121915E-16  0.1111111E+00
      1         -4.836023   1.000000
      2         -0.202275   1.000000
      3          1.441104   0.000000
      4          2.543128   0.000000
      5          6.451796   0.000000
      6          7.984174   0.000000
      7         13.205934   0.000000
      8         13.226998   0.000000
 
 -0.3333333E+00  0.3333333E+00  0.6231076E-17  0.5555556E-01
      1         -4.759633   1.000000
      2          0.098501   1.000000
      3          0.277040   1.000000
      4          2.940525   0.000000
      5          7.033813   0.000000
      6         10.512154   0.000000
      7         11.880350   0.000000
      8         12.066675   0.000000
 
  0.5000000E+00  0.5000000E+00  0.2524295E-16  0.1388889E-01
      1         -4.600728   1.000000
      2         -0.656512   1.000000
      3          2.273423   0.000000
      4          2.273433   0.000000
      5          5.758520   0.000000
      6          6.380970   0.000000
      7         15.513719   0.000000
      8         16.228997   0.000000
 
  0.5000000E+00  0.3333333E+00  0.1666667E+00  0.1111111E+00
      1         -5.265654   1.000000
      2          0.261961   1.000000
      3          1.551225   0.000000
      4          2.764774   0.000000
      5          8.207950   0.000000
      6          8.836042   0.000000
      7         10.396850   0.000000
      8         13.290590   0.000000
 
 -0.3333333E+00  0.3333333E+00  0.1666667E+00  0.1111111E+00
      1         -4.758257   1.000000
      2         -0.296403   1.000000
      3          1.035007   0.625000
      4          2.324510   0.000000
      5          8.170359   0.000000
      6          9.500873   0.000000
      7         11.146669   0.000000
      8         11.930069   0.000000
 
 -0.3333333E+00  0.5000000E+00  0.1666667E+00  0.5555556E-01
      1         -4.550071   1.000000
      2         -0.186081   1.000000
      3          1.117976   0.000000
      4          1.612920   0.000000
      5          7.511879   0.000000
      6          8.433448   0.000000
      7         12.278237   0.000000
      8         12.498843   0.000000
