       N       E                     dE             d eps       ncg     rms          rms(c)
DAV:   1    -0.160752321316E+01   -0.16075E+01   -0.80963E+02   264   0.183E+02
DAV:   2    -0.289661190431E+01   -0.12891E+01   -0.12503E+01   376   0.161E+01
DAV:   3    -0.291027519146E+01   -0.13663E-01   -0.13663E-01   296   0.169E+00
DAV:   4    -0.291032185035E+01   -0.46659E-04   -0.46659E-04   416   0.104E-01
DAV:   5    -0.291032192014E+01   -0.69787E-07   -0.69941E-07   288   0.297E-03    0.735E-01
DAV:   6    -0.290197516161E+01    0.83468E-02   -0.92733E-03   312   0.401E-01    0.396E-01
DAV:   7    -0.289910769096E+01    0.28675E-02   -0.18898E-02   272   0.584E-01    0.129E-01
DAV:   8    -0.289941764411E+01   -0.30995E-03   -0.69119E-04   336   0.134E-01    0.164E-02
DAV:   9    -0.289942995798E+01   -0.12314E-04   -0.14690E-05   168   0.230E-02
   1 F= -.28994300E+01 E0= -.28991320E+01  d E =-.595848E-03
