 vasp.6.3.0 20Jan22 (build Feb 01 2022 16:52:37) complex                        
  
 executed on           TETRA_NSC1 date 2022.02.23  16:14:08
 running    4 mpi-ranks, with    1 threads/rank
 distrk:  each k-point on    4 cores,    1 groups
 distr:  one band on NCORE=   1 cores,    4 groups


--------------------------------------------------------------------------------------------------------


 INCAR:
   ISMEAR = 0
   SIGMA = 0.01
   GGA = PE

 POTCAR:    PAW_PBE Si 05Jan2001                  
 POTCAR:    PAW_PBE Si 05Jan2001                  
   VRHFIN =Si: s2p2                                                                                 
   LEXCH  = PE                                                                                      
   EATOM  =   103.0669 eV,    7.5752 Ry                                                             
                                                                                                    
   TITEL  = PAW_PBE Si 05Jan2001                                                                    
   LULTRA =        F    use ultrasoft PP ?                                                          
   IUNSCR =        1    unscreen: 0-lin 1-nonlin 2-no                                               
   RPACOR =    1.500    partial core radius                                                         
   POMASS =   28.085; ZVAL   =    4.000    mass and valenz                                          
   RCORE  =    1.900    outmost cutoff radius                                                       
   RWIGS  =    2.480; RWIGS  =    1.312    wigner-seitz radius (au A)                               
   ENMAX  =  245.345; ENMIN  =  184.009 eV                                                          
   ICORE  =        2    local potential                                                             
   LCOR   =        T    correct aug charges                                                         
   LPAW   =        T    paw PP                                                                      
   EAUG   =  322.069                                                                                
   DEXC   =    0.000                                                                                
   RMAX   =    1.950    core radius for proj-oper                                                   
   RAUG   =    1.300    factor for augmentation sphere                                              
   RDEP   =    1.993    radius for radial grids                                                     
   RDEPT  =    1.837    core radius for aug-charge                                                  
                                                                                                    
   Atomic configuration                                                                             
    6 entries                                                                                       
     n  l   j            E        occ.                                                              
     1  0  0.50     -1785.8828   2.0000                                                             
     2  0  0.50      -139.4969   2.0000                                                             
     2  1  1.50       -95.5546   6.0000                                                             
     3  0  0.50       -10.8127   2.0000                                                             
     3  1  0.50        -4.0811   2.0000                                                             
     3  2  1.50        -4.0817   0.0000                                                             
   Description                                                                                      
     l       E           TYP  RCUT    TYP  RCUT                                                     
     0    -10.8127223     23  1.900                                                                 
     0     -7.6451159     23  1.900                                                                 
     1     -4.0811372     23  1.900                                                                 
     1      2.4879257     23  1.900                                                                 
     2     -4.0817478      7  1.900                                                                 
  local pseudopotential read in
  partial core-charges read in
  partial kinetic energy density read in
  atomic valenz-charges read in
  non local Contribution for L=           0  read in
    real space projection operators read in
  non local Contribution for L=           0  read in
    real space projection operators read in
  non local Contribution for L=           1  read in
    real space projection operators read in
  non local Contribution for L=           1  read in
    real space projection operators read in
    PAW grid and wavefunctions read in
 
   number of l-projection  operators is LMAX  =           4
   number of lm-projection operators is LMMAX =           8
 
  PAW_PBE Si 05Jan2001                  :
 energy of atom  1       EATOM= -103.0669
 kinetic energy error for atom=    0.0056 (will be added to EATOM!!)
 
 
 POSCAR: System: Si
  positions in cartesian coordinates
  velocities in direct lattice
  No initial velocities read in
 exchange correlation table for  LEXCH =        8
   RHO(1)=    0.500       N(1)  =     2000
   RHO(2)=  100.500       N(2)  =     4000
 


--------------------------------------------------------------------------------------------------------


 ion  position               nearest neighbor table
   1  0.000  0.000  0.000-
 
  LATTYP: Found a face centered cubic cell.
 ALAT       =     5.4300000000
  
  Lattice vectors:
  
 A1 = (   2.7150000000,   2.7150000000,   0.0000000000)
 A2 = (   0.0000000000,   2.7150000000,   2.7150000000)
 A3 = (   2.7150000000,   0.0000000000,   2.7150000000)


Analysis of symmetry for initial positions (statically):
=====================================================================
 Subroutine PRICEL returns:
 Original cell was already a primitive cell.
 

 Routine SETGRP: Setting up the symmetry group for a 
 face centered cubic supercell.


 Subroutine GETGRP returns: Found 48 space group operations
 (whereof 48 operations were pure point group operations)
 out of a pool of 48 trial point group operations.


The static configuration has the point symmetry O_h .


Analysis of symmetry for dynamics (positions and initial velocities):
=====================================================================
 Subroutine PRICEL returns:
 Original cell was already a primitive cell.
 

 Routine SETGRP: Setting up the symmetry group for a 
 face centered cubic supercell.


 Subroutine GETGRP returns: Found 48 space group operations
 (whereof 48 operations were pure point group operations)
 out of a pool of 48 trial point group operations.


The dynamic configuration has the point symmetry O_h .


 Subroutine INISYM returns: Found 48 space group operations
 (whereof 48 operations are pure point group operations),
 and found     1 'primitive' translations


----------------------------------------------------------------------------------------

                                     Primitive cell                                     

  volume of cell :      40.0258

  direct lattice vectors                    reciprocal lattice vectors
     2.715000000  2.715000000  0.000000000     0.184162063  0.184162063 -0.184162063
     0.000000000  2.715000000  2.715000000    -0.184162063  0.184162063  0.184162063
     2.715000000  0.000000000  2.715000000     0.184162063 -0.184162063  0.184162063

  length of vectors
     3.839589822  3.839589822  3.839589822     0.318978049  0.318978049  0.318978049

  position of ions in fractional coordinates (direct lattice)
     0.000000000  0.000000000  0.000000000

  ion indices of the primitive-cell ions
   primitive index   ion index
                 1           1

----------------------------------------------------------------------------------------

 
 
 KPOINTS: k-points                                

Automatic generation of k-mesh.
 Grid dimensions read from file:
 generate k-points for:    6    6    6

 Generating k-lattice:

  Cartesian coordinates                     Fractional coordinates (reciprocal lattice)
     0.030693677  0.030693677 -0.030693677     0.166666667  0.000000000  0.000000000
    -0.030693677  0.030693677  0.030693677     0.000000000  0.166666667 -0.000000000
     0.030693677 -0.030693677  0.030693677    -0.000000000 -0.000000000  0.166666667

  Length of vectors
     0.053163008  0.053163008  0.053163008

  Shift w.r.t. Gamma in fractional coordinates (k-lattice)
     0.000000000  0.000000000  0.000000000

 
 Subroutine IBZKPT returns following result:
 ===========================================
 
 Found     16 irreducible k-points:
 
 Following reciprocal coordinates:
            Coordinates               Weight
  0.000000  0.000000  0.000000      1.000000
  0.166667 -0.000000 -0.000000      8.000000
  0.333333 -0.000000 -0.000000      8.000000
  0.500000 -0.000000  0.000000      4.000000
  0.166667  0.166667  0.000000      6.000000
  0.333333  0.166667  0.000000     24.000000
  0.500000  0.166667  0.000000     24.000000
 -0.333333  0.166667  0.000000     24.000000
 -0.166667  0.166667  0.000000     12.000000
  0.333333  0.333333  0.000000      6.000000
  0.500000  0.333333  0.000000     24.000000
 -0.333333  0.333333  0.000000     12.000000
  0.500000  0.500000  0.000000      3.000000
  0.500000  0.333333  0.166667     24.000000
 -0.333333  0.333333  0.166667     24.000000
 -0.333333  0.500000  0.166667     12.000000
 
 Following cartesian coordinates:
            Coordinates               Weight
  0.000000  0.000000  0.000000      1.000000
  0.166667  0.166667 -0.166667      8.000000
  0.333333  0.333333 -0.333333      8.000000
  0.500000  0.500000 -0.500000      4.000000
  0.000000  0.333333 -0.000000      6.000000
  0.166667  0.500000 -0.166667     24.000000
  0.333333  0.666667 -0.333333     24.000000
 -0.500000 -0.166667  0.500000     24.000000
 -0.333333 -0.000000  0.333333     12.000000
  0.000000  0.666667  0.000000      6.000000
  0.166667  0.833333 -0.166667     24.000000
 -0.666667 -0.000000  0.666667     12.000000
  0.000000  1.000000  0.000000      3.000000
  0.333333  0.666667 -0.000000     24.000000
 -0.500000 -0.166667  0.833333     24.000000
 -0.666667 -0.000000  1.000000     12.000000
 


--------------------------------------------------------------------------------------------------------




 Dimension of arrays:
   k-points           NKPTS =     16   k-points in BZ     NKDIM =     16   number of bands    NBANDS=      8
   number of dos      NEDOS =    301   number of ions     NIONS =      1
   non local maximal  LDIM  =      4   non local SUM 2l+1 LMDIM =      8
   total plane-waves  NPLWV =   4096
   max r-space proj   IRMAX =      1   max aug-charges    IRDMAX=   3621
   dimension x,y,z NGX =    16 NGY =   16 NGZ =   16
   dimension x,y,z NGXF=    32 NGYF=   32 NGZF=   32
   support grid    NGXF=    32 NGYF=   32 NGZF=   32
   ions per type =               1
   NGX,Y,Z   is equivalent  to a cutoff of   6.93,  6.93,  6.93 a.u.
   NGXF,Y,Z  is equivalent  to a cutoff of  13.86, 13.86, 13.86 a.u.

 SYSTEM =  unknown system                          
 POSCAR =  System: Si                              

 Startparameter for this run:
   NWRITE =      2    write-flag & timer
   PREC   = normal    normal or accurate (medium, high low for compatibility)
   ISTART =      0    job   : 0-new  1-cont  2-samecut
   ICHARG =      2    charge: 1-file 2-atom 10-const
   ISPIN  =      1    spin polarized calculation?
   LNONCOLLINEAR =      F non collinear calculations
   LSORBIT =      F    spin-orbit coupling
   INIWAV =      1    electr: 0-lowe 1-rand  2-diag
   LASPH  =      F    aspherical Exc in radial PAW
 Electronic Relaxation 1
   ENCUT  =  245.3 eV  18.03 Ry    4.25 a.u.   4.90  4.90  4.90*2*pi/ulx,y,z
   ENINI  =  245.3     initial cutoff
   ENAUG  =  322.1 eV  augmentation charge cutoff
   NELM   =     60;   NELMIN=  2; NELMDL= -5     # of ELM steps 
   EDIFF  = 0.1E-03   stopping-criterion for ELM
   LREAL  =      F    real-space projection
   NLSPLINE    = F    spline interpolate recip. space projectors
   LCOMPAT=      F    compatible to vasp.4.4
   GGA_COMPAT  = T    GGA compatible to vasp.4.4-vasp.4.6
   LMAXPAW     = -100 max onsite density
   LMAXMIX     =    2 max onsite mixed and CHGCAR
   VOSKOWN=      0    Vosko Wilk Nusair interpolation
   ROPT   =    0.00000
 Ionic relaxation
   EDIFFG = 0.1E-02   stopping-criterion for IOM
   NSW    =      0    number of steps for IOM
   NBLOCK =      1;   KBLOCK =      1    inner block; outer block 
   IBRION =     -1    ionic relax: 0-MD 1-quasi-New 2-CG
   NFREE  =      0    steps in history (QN), initial steepest desc. (CG)
   ISIF   =      2    stress and relaxation
   IWAVPR =     10    prediction:  0-non 1-charg 2-wave 3-comb
   ISYM   =      2    0-nonsym 1-usesym 2-fastsym
   LCORR  =      T    Harris-Foulkes like correction to forces

   POTIM  = 0.5000    time-step for ionic-motion
   TEIN   =    0.0    initial temperature
   TEBEG  =    0.0;   TEEND  =   0.0 temperature during run
   SMASS  =  -3.00    Nose mass-parameter (am)
   estimated Nose-frequenzy (Omega)   =  0.10E-29 period in steps = 0.13E+47 mass=  -0.337E-27a.u.
   SCALEE = 1.0000    scale energy and forces
   NPACO  =    256;   APACO  = 10.0  distance and # of slots for P.C.
   PSTRESS=    0.0 pullay stress

  Mass of Ions in am
   POMASS =  28.09
  Ionic Valenz
   ZVAL   =   4.00
  Atomic Wigner-Seitz radii
   RWIGS  =  -1.00
  virtual crystal weights 
   VCA    =   1.00
   NELECT =       4.0000    total number of electrons
   NUPDOWN=      -1.0000    fix difference up-down

 DOS related values:
   EMIN   =  10.00;   EMAX   =-10.00  energy-range for DOS
   EFERMI =   0.00
   ISMEAR =     0;   SIGMA  =   0.01  broadening in eV -4-tet -1-fermi 0-gaus

 Electronic relaxation 2 (details)
   IALGO  =     38    algorithm
   LDIAG  =      T    sub-space diagonalisation (order eigenvalues)
   LSUBROT=      F    optimize rotation matrix (better conditioning)
   TURBO    =      0    0=normal 1=particle mesh
   IRESTART =      0    0=no restart 2=restart with 2 vectors
   NREBOOT  =      0    no. of reboots
   NMIN     =      0    reboot dimension
   EREF     =   0.00    reference energy to select bands
   IMIX   =      4    mixing-type and parameters
     AMIX     =   0.40;   BMIX     =  1.00
     AMIX_MAG =   1.60;   BMIX_MAG =  1.00
     AMIN     =   0.10
     WC   =   100.;   INIMIX=   1;  MIXPRE=   1;  MAXMIX= -45

 Intra band minimization:
   WEIMIN = 0.0000     energy-eigenvalue tresh-hold
   EBREAK =  0.31E-05  absolut break condition
   DEPER  =   0.30     relativ break condition  

   TIME   =   0.40     timestep for ELM

  volume/ion in A,a.u.               =      40.03       270.11
  Fermi-wavevector in a.u.,A,eV,Ry     =   0.759711  1.435645  7.852746  0.577161
  Thomas-Fermi vector in A             =   1.858566
 
 Write flags
   LWAVE        =      T    write WAVECAR
   LDOWNSAMPLE  =      F    k-point downsampling of WAVECAR
   LCHARG       =      T    write CHGCAR
   LVTOT        =      F    write LOCPOT, total local potential
   LVHAR        =      F    write LOCPOT, Hartree potential only
   LELF         =      F    write electronic localiz. function (ELF)
   LORBIT       =      0    0 simple, 1 ext, 2 COOP (PROOUT), +10 PAW based schemes


 Dipole corrections
   LMONO  =      F    monopole corrections only (constant potential shift)
   LDIPOL =      F    correct potential (dipole corrections)
   IDIPOL =      0    1-x, 2-y, 3-z, 4-all directions 
   EPSILON=  1.0000000 bulk dielectric constant

 Exchange correlation treatment:
   GGA     =    PE    GGA type
   LEXCH   =     8    internal setting for exchange type
   LIBXC   =     F    Libxc                    
   VOSKOWN =     0    Vosko Wilk Nusair interpolation
   LHFCALC =     F    Hartree Fock is set to
   LHFONE  =     F    Hartree Fock one center treatment
   AEXX    =    0.0000 exact exchange contribution

 Linear response parameters
   LEPSILON=     F    determine dielectric tensor
   LRPA    =     F    only Hartree local field effects (RPA)
   LNABLA  =     F    use nabla operator in PAW spheres
   LVEL    =     F    velocity operator in full k-point grid
   CSHIFT  =0.1000    complex shift for real part using Kramers Kronig
   OMEGAMAX=  -1.0    maximum frequency
   DEG_THRESHOLD= 0.2000000E-02 threshold for treating states as degnerate
   RTIME   =   -0.100 relaxation time in fs
  (WPLASMAI=    0.000 imaginary part of plasma frequency in eV, 0.658/RTIME)
   DFIELD  = 0.0000000 0.0000000 0.0000000 field for delta impulse in time
 
  Optional k-point grid parameters
   LKPOINTS_OPT  =     F    use optional k-point grid
   KPOINTS_OPT_MODE=     1    mode for optional k-point grid
 
 Orbital magnetization related:
   ORBITALMAG=     F  switch on orbital magnetization
   LCHIMAG   =     F  perturbation theory with respect to B field
   DQ        =  0.001000  dq finite difference perturbation B field
   LLRAUG    =     F  two centre corrections for induced B field



--------------------------------------------------------------------------------------------------------


 Static calculation
 charge density and potential will be updated during run
 non-spin polarized calculation
 Variant of blocked Davidson
 Davidson routine will perform the subspace rotation
 perform sub-space diagonalisation
    after iterative eigenvector-optimisation
 modified Broyden-mixing scheme, WC =      100.0
 initial mixing is a Kerker type mixing with AMIX =  0.4000 and BMIX =      1.0000
 Hartree-type preconditioning will be used
 using additional bands            6
 reciprocal scheme for non local part
 use partial core corrections
 calculate Harris-corrections to forces 
   (improved forces if not selfconsistent)
 use gradient corrections 
 use of overlap-Matrix (Vanderbilt PP)
 Gauss-broadening in eV      SIGMA  =   0.01


--------------------------------------------------------------------------------------------------------


  energy-cutoff  :      245.34
  volume of cell :       40.03
      direct lattice vectors                 reciprocal lattice vectors
     2.715000000  2.715000000  0.000000000     0.184162063  0.184162063 -0.184162063
     0.000000000  2.715000000  2.715000000    -0.184162063  0.184162063  0.184162063
     2.715000000  0.000000000  2.715000000     0.184162063 -0.184162063  0.184162063

  length of vectors
     3.839589822  3.839589822  3.839589822     0.318978049  0.318978049  0.318978049


 
 k-points in units of 2pi/SCALE and weight: k-points                                
   0.00000000  0.00000000  0.00000000       0.005
   0.16666667  0.16666667 -0.16666667       0.037
   0.33333333  0.33333333 -0.33333333       0.037
   0.50000000  0.50000000 -0.50000000       0.019
   0.00000000  0.33333333 -0.00000000       0.028
   0.16666667  0.50000000 -0.16666667       0.111
   0.33333333  0.66666667 -0.33333333       0.111
  -0.50000000 -0.16666667  0.50000000       0.111
  -0.33333333 -0.00000000  0.33333333       0.056
   0.00000000  0.66666667  0.00000000       0.028
   0.16666667  0.83333333 -0.16666667       0.111
  -0.66666667 -0.00000000  0.66666667       0.056
   0.00000000  1.00000000  0.00000000       0.014
   0.33333333  0.66666667 -0.00000000       0.111
  -0.50000000 -0.16666667  0.83333333       0.111
  -0.66666667 -0.00000000  1.00000000       0.056
 
 k-points in reciprocal lattice and weights: k-points                                
   0.00000000  0.00000000  0.00000000       0.005
   0.16666667 -0.00000000 -0.00000000       0.037
   0.33333333 -0.00000000 -0.00000000       0.037
   0.50000000 -0.00000000  0.00000000       0.019
   0.16666667  0.16666667  0.00000000       0.028
   0.33333333  0.16666667  0.00000000       0.111
   0.50000000  0.16666667  0.00000000       0.111
  -0.33333333  0.16666667  0.00000000       0.111
  -0.16666667  0.16666667  0.00000000       0.056
   0.33333333  0.33333333  0.00000000       0.028
   0.50000000  0.33333333  0.00000000       0.111
  -0.33333333  0.33333333  0.00000000       0.056
   0.50000000  0.50000000  0.00000000       0.014
   0.50000000  0.33333333  0.16666667       0.111
  -0.33333333  0.33333333  0.16666667       0.111
  -0.33333333  0.50000000  0.16666667       0.056
 
 position of ions in fractional coordinates (direct lattice) 
   0.00000000  0.00000000  0.00000000
 
 position of ions in cartesian coordinates  (Angst):
   0.00000000  0.00000000  0.00000000
 


--------------------------------------------------------------------------------------------------------


 k-point   1 :   0.0000 0.0000 0.0000  plane waves:     339
 k-point   2 :   0.1667-0.0000-0.0000  plane waves:     344
 k-point   3 :   0.3333-0.0000-0.0000  plane waves:     347
 k-point   4 :   0.5000-0.0000 0.0000  plane waves:     344
 k-point   5 :   0.1667 0.1667 0.0000  plane waves:     343
 k-point   6 :   0.3333 0.1667 0.0000  plane waves:     343
 k-point   7 :   0.5000 0.1667 0.0000  plane waves:     355
 k-point   8 :  -0.3333 0.1667 0.0000  plane waves:     352
 k-point   9 :  -0.1667 0.1667 0.0000  plane waves:     341
 k-point  10 :   0.3333 0.3333 0.0000  plane waves:     343
 k-point  11 :   0.5000 0.3333 0.0000  plane waves:     352
 k-point  12 :  -0.3333 0.3333 0.0000  plane waves:     353
 k-point  13 :   0.5000 0.5000 0.0000  plane waves:     342
 k-point  14 :   0.5000 0.3333 0.1667  plane waves:     343
 k-point  15 :  -0.3333 0.3333 0.1667  plane waves:     354
 k-point  16 :  -0.3333 0.5000 0.1667  plane waves:     352

 maximum and minimum number of plane-waves per node :       355      339

 maximum number of plane-waves:       355
 maximum index in each direction: 
   IXMAX=    5   IYMAX=    4   IZMAX=    4
   IXMIN=   -5   IYMIN=   -5   IZMIN=   -5


 serial   3D FFT for wavefunctions
 parallel 3D FFT for charge:
    minimum data exchange during FFTs selected (reduces bandwidth)


 total amount of memory used by VASP MPI-rank0    31438. kBytes
=======================================================================

   base      :      30000. kBytes
   nonl-proj :        370. kBytes
   fftplans  :        302. kBytes
   grid      :        577. kBytes
   one-center:          3. kBytes
   wavefun   :        186. kBytes
 
     INWAV:  cpu time      0.0000: real time      0.0000
 Broyden mixing: mesh for mixing (old mesh)
   NGX =  9   NGY =  9   NGZ =  9
  (NGX  = 32   NGY  = 32   NGZ  = 32)
  gives a total of    729 points

 initial charge density was supplied:
 charge density of overlapping atoms calculated
 number of electron       4.0000000 magnetization 
 keeping initial charge density in first step


--------------------------------------------------------------------------------------------------------


 Maximum index for augmentation-charges          847 (set IRDMAX)


--------------------------------------------------------------------------------------------------------


 First call to EWALD:  gamma=   0.518
 Maximum number of real-space cells 3x 3x 3
 Maximum number of reciprocal cells 3x 3x 3

    FEWALD:  cpu time      0.0013: real time      0.0013


--------------------------------------- Iteration      1(   1)  ---------------------------------------


    POTLOK:  cpu time      0.0038: real time      0.0042
    SETDIJ:  cpu time      0.0012: real time      0.0012
     EDDAV:  cpu time      0.0216: real time      0.0218
       DOS:  cpu time      0.0003: real time      0.0004
    --------------------------------------------
      LOOP:  cpu time      0.0269: real time      0.0277

 eigenvalue-minimisations  :   264
 total energy-change (2. order) :-0.1607523E+01  (-0.8096256E+02)
 number of electron       4.0000000 magnetization 
 augmentation part        4.0000000 magnetization 

 Free energy of the ion-electron system (eV)
  ---------------------------------------------------
  alpha Z        PSCENC =         0.84103682
  Ewald energy   TEWEN  =       -97.26856434
  -Hartree energ DENC   =        -6.74769434
  -exchange      EXHF   =         0.00000000
  -V(xc)+E(xc)   XCENC  =       -10.61328651
  PAW double counting   =        88.12379961      -70.53051779
  entropy T*S    EENTRO =        -0.00059585
  eigenvalues    EBANDS =        -8.47298697
  atomic energy  EATOM  =       103.06128616
  Solvation  Ediel_sol  =         0.00000000
  ---------------------------------------------------
  free energy    TOTEN  =        -1.60752321 eV

  energy without entropy =       -1.60692737  energy(sigma->0) =       -1.60722529


--------------------------------------------------------------------------------------------------------




--------------------------------------- Iteration      1(   2)  ---------------------------------------


     EDDAV:  cpu time      0.0259: real time      0.0260
       DOS:  cpu time      0.0002: real time      0.0002
    --------------------------------------------
      LOOP:  cpu time      0.0261: real time      0.0262

 eigenvalue-minimisations  :   376
 total energy-change (2. order) :-0.1289089E+01  (-0.1250253E+01)
 number of electron       4.0000000 magnetization 
 augmentation part        4.0000000 magnetization 

 Free energy of the ion-electron system (eV)
  ---------------------------------------------------
  alpha Z        PSCENC =         0.84103682
  Ewald energy   TEWEN  =       -97.26856434
  -Hartree energ DENC   =        -6.74769434
  -exchange      EXHF   =         0.00000000
  -V(xc)+E(xc)   XCENC  =       -10.61328651
  PAW double counting   =        88.12379961      -70.53051779
  entropy T*S    EENTRO =        -0.00059585
  eigenvalues    EBANDS =        -9.76207566
  atomic energy  EATOM  =       103.06128616
  Solvation  Ediel_sol  =         0.00000000
  ---------------------------------------------------
  free energy    TOTEN  =        -2.89661190 eV

  energy without entropy =       -2.89601606  energy(sigma->0) =       -2.89631398


--------------------------------------------------------------------------------------------------------




--------------------------------------- Iteration      1(   3)  ---------------------------------------


     EDDAV:  cpu time      0.0192: real time      0.0193
       DOS:  cpu time      0.0002: real time      0.0002
    --------------------------------------------
      LOOP:  cpu time      0.0194: real time      0.0195

 eigenvalue-minimisations  :   296
 total energy-change (2. order) :-0.1366329E-01  (-0.1366329E-01)
 number of electron       4.0000000 magnetization 
 augmentation part        4.0000000 magnetization 

 Free energy of the ion-electron system (eV)
  ---------------------------------------------------
  alpha Z        PSCENC =         0.84103682
  Ewald energy   TEWEN  =       -97.26856434
  -Hartree energ DENC   =        -6.74769434
  -exchange      EXHF   =         0.00000000
  -V(xc)+E(xc)   XCENC  =       -10.61328651
  PAW double counting   =        88.12379961      -70.53051779
  entropy T*S    EENTRO =        -0.00059585
  eigenvalues    EBANDS =        -9.77573895
  atomic energy  EATOM  =       103.06128616
  Solvation  Ediel_sol  =         0.00000000
  ---------------------------------------------------
  free energy    TOTEN  =        -2.91027519 eV

  energy without entropy =       -2.90967934  energy(sigma->0) =       -2.90997727


--------------------------------------------------------------------------------------------------------




--------------------------------------- Iteration      1(   4)  ---------------------------------------


     EDDAV:  cpu time      0.0294: real time      0.0295
       DOS:  cpu time      0.0003: real time      0.0003
    --------------------------------------------
      LOOP:  cpu time      0.0296: real time      0.0297

 eigenvalue-minimisations  :   416
 total energy-change (2. order) :-0.4665889E-04  (-0.4665875E-04)
 number of electron       4.0000000 magnetization 
 augmentation part        4.0000000 magnetization 

 Free energy of the ion-electron system (eV)
  ---------------------------------------------------
  alpha Z        PSCENC =         0.84103682
  Ewald energy   TEWEN  =       -97.26856434
  -Hartree energ DENC   =        -6.74769434
  -exchange      EXHF   =         0.00000000
  -V(xc)+E(xc)   XCENC  =       -10.61328651
  PAW double counting   =        88.12379961      -70.53051779
  entropy T*S    EENTRO =        -0.00059585
  eigenvalues    EBANDS =        -9.77578560
  atomic energy  EATOM  =       103.06128616
  Solvation  Ediel_sol  =         0.00000000
  ---------------------------------------------------
  free energy    TOTEN  =        -2.91032185 eV

  energy without entropy =       -2.90972600  energy(sigma->0) =       -2.91002393


--------------------------------------------------------------------------------------------------------




--------------------------------------- Iteration      1(   5)  ---------------------------------------


     EDDAV:  cpu time      0.0190: real time      0.0191
       DOS:  cpu time      0.0002: real time      0.0002
    CHARGE:  cpu time      0.0018: real time      0.0019
    MIXING:  cpu time      0.0005: real time      0.0006
    --------------------------------------------
      LOOP:  cpu time      0.0216: real time      0.0218

 eigenvalue-minimisations  :   288
 total energy-change (2. order) :-0.6978682E-07  (-0.6994130E-07)
 number of electron       3.9999996 magnetization 
 augmentation part       -0.2678602 magnetization 

 Broyden mixing:
  rms(total) = 0.73456E-01    rms(broyden)= 0.73437E-01
  rms(prec ) = 0.23467E+00
  weight for this iteration     100.00

 Free energy of the ion-electron system (eV)
  ---------------------------------------------------
  alpha Z        PSCENC =         0.84103682
  Ewald energy   TEWEN  =       -97.26856434
  -Hartree energ DENC   =        -6.74769434
  -exchange      EXHF   =         0.00000000
  -V(xc)+E(xc)   XCENC  =       -10.61328651
  PAW double counting   =        88.12379961      -70.53051779
  entropy T*S    EENTRO =        -0.00059585
  eigenvalues    EBANDS =        -9.77578567
  atomic energy  EATOM  =       103.06128616
  Solvation  Ediel_sol  =         0.00000000
  ---------------------------------------------------
  free energy    TOTEN  =        -2.91032192 eV

  energy without entropy =       -2.90972607  energy(sigma->0) =       -2.91002400


--------------------------------------------------------------------------------------------------------




--------------------------------------- Iteration      1(   6)  ---------------------------------------


    POTLOK:  cpu time      0.0035: real time      0.0035
    SETDIJ:  cpu time      0.0010: real time      0.0010
     EDDAV:  cpu time      0.0198: real time      0.0199
       DOS:  cpu time      0.0002: real time      0.0002
    CHARGE:  cpu time      0.0012: real time      0.0012
    MIXING:  cpu time      0.0005: real time      0.0005
    --------------------------------------------
      LOOP:  cpu time      0.0262: real time      0.0263

 eigenvalue-minimisations  :   312
 total energy-change (2. order) : 0.8346759E-02  (-0.9273313E-03)
 number of electron       3.9999996 magnetization 
 augmentation part       -0.2708027 magnetization 

 Broyden mixing:
  rms(total) = 0.39604E-01    rms(broyden)= 0.39602E-01
  rms(prec ) = 0.13844E+00
  weight for this iteration     100.00

 eigenvalues of (default mixing * dielectric matrix)
  average eigenvalue GAMMA=   1.9698
  1.9698

 Free energy of the ion-electron system (eV)
  ---------------------------------------------------
  alpha Z        PSCENC =         0.84103682
  Ewald energy   TEWEN  =       -97.26856434
  -Hartree energ DENC   =        -6.34905533
  -exchange      EXHF   =         0.00000000
  -V(xc)+E(xc)   XCENC  =       -10.66737618
  PAW double counting   =        98.05065577      -80.43142342
  entropy T*S    EENTRO =        -0.00059585
  eigenvalues    EBANDS =       -10.13793878
  atomic energy  EATOM  =       103.06128616
  Solvation  Ediel_sol  =         0.00000000
  ---------------------------------------------------
  free energy    TOTEN  =        -2.90197516 eV

  energy without entropy =       -2.90137931  energy(sigma->0) =       -2.90167724


--------------------------------------------------------------------------------------------------------




--------------------------------------- Iteration      1(   7)  ---------------------------------------


    POTLOK:  cpu time      0.0030: real time      0.0031
    SETDIJ:  cpu time      0.0009: real time      0.0009
     EDDAV:  cpu time      0.0175: real time      0.0175
       DOS:  cpu time      0.0002: real time      0.0002
    CHARGE:  cpu time      0.0014: real time      0.0014
    MIXING:  cpu time      0.0004: real time      0.0004
    --------------------------------------------
      LOOP:  cpu time      0.0234: real time      0.0235

 eigenvalue-minimisations  :   272
 total energy-change (2. order) : 0.2867471E-02  (-0.1889771E-02)
 number of electron       3.9999996 magnetization 
 augmentation part       -0.2750710 magnetization 

 Broyden mixing:
  rms(total) = 0.12908E-01    rms(broyden)= 0.12905E-01
  rms(prec ) = 0.17105E-01
  weight for this iteration     100.00

 eigenvalues of (default mixing * dielectric matrix)
  average eigenvalue GAMMA=   2.3963
  2.3178  2.4748

 Free energy of the ion-electron system (eV)
  ---------------------------------------------------
  alpha Z        PSCENC =         0.84103682
  Ewald energy   TEWEN  =       -97.26856434
  -Hartree energ DENC   =        -5.80484316
  -exchange      EXHF   =         0.00000000
  -V(xc)+E(xc)   XCENC  =       -10.74449623
  PAW double counting   =       107.94087802      -90.29220657
  entropy T*S    EENTRO =        -0.00059585
  eigenvalues    EBANDS =       -10.63160254
  atomic energy  EATOM  =       103.06128616
  Solvation  Ediel_sol  =         0.00000000
  ---------------------------------------------------
  free energy    TOTEN  =        -2.89910769 eV

  energy without entropy =       -2.89851184  energy(sigma->0) =       -2.89880977


--------------------------------------------------------------------------------------------------------




--------------------------------------- Iteration      1(   8)  ---------------------------------------


    POTLOK:  cpu time      0.0034: real time      0.0034
    SETDIJ:  cpu time      0.0011: real time      0.0011
     EDDAV:  cpu time      0.0234: real time      0.0235
       DOS:  cpu time      0.0002: real time      0.0002
    CHARGE:  cpu time      0.0014: real time      0.0014
    MIXING:  cpu time      0.0004: real time      0.0004
    --------------------------------------------
      LOOP:  cpu time      0.0298: real time      0.0300

 eigenvalue-minimisations  :   336
 total energy-change (2. order) :-0.3099531E-03  (-0.6911919E-04)
 number of electron       3.9999996 magnetization 
 augmentation part       -0.2751918 magnetization 

 Broyden mixing:
  rms(total) = 0.16362E-02    rms(broyden)= 0.16354E-02
  rms(prec ) = 0.35021E-02
  weight for this iteration     100.00

 eigenvalues of (default mixing * dielectric matrix)
  average eigenvalue GAMMA=   2.1016
  1.0180  2.2807  3.0060

 Free energy of the ion-electron system (eV)
  ---------------------------------------------------
  alpha Z        PSCENC =         0.84103682
  Ewald energy   TEWEN  =       -97.26856434
  -Hartree energ DENC   =        -5.78733319
  -exchange      EXHF   =         0.00000000
  -V(xc)+E(xc)   XCENC  =       -10.75015434
  PAW double counting   =       100.43325881      -82.79403859
  entropy T*S    EENTRO =        -0.00059585
  eigenvalues    EBANDS =       -10.63431312
  atomic energy  EATOM  =       103.06128616
  Solvation  Ediel_sol  =         0.00000000
  ---------------------------------------------------
  free energy    TOTEN  =        -2.89941764 eV

  energy without entropy =       -2.89882180  energy(sigma->0) =       -2.89911972


--------------------------------------------------------------------------------------------------------




--------------------------------------- Iteration      1(   9)  ---------------------------------------


    POTLOK:  cpu time      0.0035: real time      0.0036
    SETDIJ:  cpu time      0.0010: real time      0.0010
     EDDAV:  cpu time      0.0124: real time      0.0125
       DOS:  cpu time      0.0002: real time      0.0002
    --------------------------------------------
      LOOP:  cpu time      0.0172: real time      0.0173

 eigenvalue-minimisations  :   168
 total energy-change (2. order) :-0.1231387E-04  (-0.1468950E-05)
 number of electron       3.9999996 magnetization 
 augmentation part       -0.2751918 magnetization 

 Free energy of the ion-electron system (eV)
  ---------------------------------------------------
  alpha Z        PSCENC =         0.84103682
  Ewald energy   TEWEN  =       -97.26856434
  -Hartree energ DENC   =        -5.77463054
  -exchange      EXHF   =         0.00000000
  -V(xc)+E(xc)   XCENC  =       -10.75273082
  PAW double counting   =        99.20064886      -81.56213096
  entropy T*S    EENTRO =        -0.00059585
  eigenvalues    EBANDS =       -10.64374927
  atomic energy  EATOM  =       103.06128616
  Solvation  Ediel_sol  =         0.00000000
  ---------------------------------------------------
  free energy    TOTEN  =        -2.89942996 eV

  energy without entropy =       -2.89883411  energy(sigma->0) =       -2.89913203


--------------------------------------------------------------------------------------------------------




 average (electrostatic) potential at core
  the test charge radii are     0.9892
  (the norm of the test charge is              1.0000)
       1 -89.5092
 
 
 
 E-fermi :   1.0373     XC(G=0):  -7.4480     alpha+bet : -5.9923

 Fermi energy:         1.0372600382

 k-point     1 :       0.0000    0.0000    0.0000
  band No.  band energies     occupation 
      1      -7.1020      2.00000
      2       4.3226      0.00000
      3       4.3226      0.00000
      4       4.3226      0.00000
      5       8.8490      0.00000
      6       9.9245      0.00000
      7       9.9245      0.00000
      8       9.9245      0.00000

 k-point     2 :       0.1667   -0.0000   -0.0000
  band No.  band energies     occupation 
      1      -6.7814      2.00000
      2       2.6178      0.00000
      3       4.1195      0.00000
      4       4.1195      0.00000
      5       8.7640      0.00000
      6      10.3254      0.00000
      7      10.3255      0.00000
      8      10.6153      0.00000

 k-point     3 :       0.3333   -0.0000   -0.0000
  band No.  band energies     occupation 
      1      -5.9333      2.00000
      2       0.0972      2.00000
      3       3.7977      0.00000
      4       3.7977      0.00000
      5       7.9163      0.00000
      6       9.8531      0.00000
      7       9.8531      0.00000
      8      12.2683      0.00000

 k-point     4 :       0.5000   -0.0000    0.0000
  band No.  band energies     occupation 
      1      -5.2794      2.00000
      2      -1.1805      2.00000
      3       3.6661      0.00000
      4       3.6661      0.00000
      5       7.6290      0.00000
      6       9.4574      0.00000
      7       9.4574      0.00000
      8      12.0453      0.00000

 k-point     5 :       0.1667    0.1667    0.0000
  band No.  band energies     occupation 
      1      -6.6738      2.00000
      2       2.8950      0.00000
      3       3.6268      0.00000
      4       3.6268      0.00000
      5       8.4054      0.00000
      6       9.4417      0.00000
      7      11.1717      0.00000
      8      11.1717      0.00000

 k-point     6 :       0.3333    0.1667    0.0000
  band No.  band energies     occupation 
      1      -5.9907      2.00000
      2       0.9527      2.00000
      3       3.0765      0.00000
      4       3.2189      0.00000
      5       7.9769      0.00000
      6       9.0659      0.00000
      7      10.8813      0.00000
      8      11.3764      0.00000

 k-point     7 :       0.5000    0.1667    0.0000
  band No.  band energies     occupation 
      1      -5.1620      2.00000
      2      -0.7328      2.00000
      3       2.3940      0.00000
      4       3.2145      0.00000
      5       7.7564      0.00000
      6       9.4166      0.00000
      7      10.5876      0.00000
      8      12.1057      0.00000

 k-point     8 :      -0.3333    0.1667    0.0000
  band No.  band energies     occupation 
      1      -5.3971      2.00000
      2      -0.3004      2.00000
      3       2.1264      0.00000
      4       3.6032      0.00000
      5       8.3608      0.00000
      6       9.4463      0.00000
      7      10.3333      0.00000
      8      12.2294      0.00000

 k-point     9 :      -0.1667    0.1667    0.0000
  band No.  band energies     occupation 
      1      -6.2768      2.00000
      2       1.5219      0.00000
      3       2.7086      0.00000
      4       4.0932      0.00000
      5       9.4551      0.00000
      6       9.5965      0.00000
      7      10.6114      0.00000
      8      10.9096      0.00000

 k-point    10 :       0.3333    0.3333    0.0000
  band No.  band energies     occupation 
      1      -5.5277      2.00000
      2       0.6703      2.00000
      3       2.6538      0.00000
      4       2.6538      0.00000
      5       6.7968      0.00000
      6       6.9027      0.00000
      7      13.7230      0.00000
      8      13.7230      0.00000

 k-point    11 :       0.5000    0.3333    0.0000
  band No.  band energies     occupation 
      1      -4.8360      2.00000
      2      -0.2023      2.00000
      3       1.4411      0.00000
      4       2.5431      0.00000
      5       6.4518      0.00000
      6       7.9842      0.00000
      7      13.2059      0.00000
      8      13.2270      0.00000

 k-point    12 :      -0.3333    0.3333    0.0000
  band No.  band energies     occupation 
      1      -4.7596      2.00000
      2       0.0985      2.00000
      3       0.2770      2.00000
      4       2.9405      0.00000
      5       7.0338      0.00000
      6      10.5122      0.00000
      7      11.8803      0.00000
      8      12.0667      0.00000

 k-point    13 :       0.5000    0.5000    0.0000
  band No.  band energies     occupation 
      1      -4.6007      2.00000
      2      -0.6565      2.00000
      3       2.2734      0.00000
      4       2.2734      0.00000
      5       5.7585      0.00000
      6       6.3810      0.00000
      7      15.5137      0.00000
      8      16.2290      0.00000

 k-point    14 :       0.5000    0.3333    0.1667
  band No.  band energies     occupation 
      1      -5.2657      2.00000
      2       0.2620      2.00000
      3       1.5512      0.00000
      4       2.7648      0.00000
      5       8.2080      0.00000
      6       8.8360      0.00000
      7      10.3968      0.00000
      8      13.2906      0.00000

 k-point    15 :      -0.3333    0.3333    0.1667
  band No.  band energies     occupation 
      1      -4.7583      2.00000
      2      -0.2964      2.00000
      3       1.0350      1.25000
      4       2.3245      0.00000
      5       8.1704      0.00000
      6       9.5009      0.00000
      7      11.1467      0.00000
      8      11.9301      0.00000

 k-point    16 :      -0.3333    0.5000    0.1667
  band No.  band energies     occupation 
      1      -4.5501      2.00000
      2      -0.1861      2.00000
      3       1.1180      0.00000
      4       1.6129      0.00000
      5       7.5119      0.00000
      6       8.4334      0.00000
      7      12.2782      0.00000
      8      12.4988      0.00000


--------------------------------------------------------------------------------------------------------


 soft charge-density along one line, spin component           1
         0         1         2         3         4         5         6         7         8         9
 total charge-density along one line
 
 pseudopotential strength for first ion, spin component:           1
 19.076  26.619   0.000  -0.000   0.000   0.000  -0.000   0.000
 26.619  37.150   0.000  -0.000   0.000   0.000  -0.000   0.000
  0.000   0.000   4.256  -0.000  -0.000   7.938  -0.000  -0.000
 -0.000  -0.000  -0.000   4.256  -0.000  -0.000   7.938  -0.000
  0.000   0.000  -0.000  -0.000   4.256  -0.000  -0.000   7.938
  0.000   0.000   7.938  -0.000  -0.000  14.813  -0.000  -0.000
 -0.000  -0.000  -0.000   7.938  -0.000  -0.000  14.813  -0.000
  0.000   0.000  -0.000  -0.000   7.938  -0.000  -0.000  14.813
 total augmentation occupancy for first ion, spin component:           1
  1.998  -0.163   0.000   0.000   0.000   0.000   0.000   0.000
 -0.163   0.272   0.000   0.000   0.000   0.000   0.000   0.000
  0.000   0.000   0.910   0.000  -0.000  -0.110  -0.000   0.000
  0.000   0.000   0.000   0.910   0.000  -0.000  -0.110  -0.000
  0.000   0.000  -0.000   0.000   0.910   0.000  -0.000  -0.110
  0.000   0.000  -0.110  -0.000   0.000   0.015   0.000  -0.000
  0.000   0.000  -0.000  -0.110  -0.000   0.000   0.015   0.000
  0.000   0.000   0.000  -0.000  -0.110  -0.000   0.000   0.015


------------------------ aborting loop because EDIFF is reached ----------------------------------------


    CHARGE:  cpu time      0.0012: real time      0.0012
    FORLOC:  cpu time      0.0002: real time      0.0002
    FORNL :  cpu time      0.0010: real time      0.0010
    STRESS:  cpu time      0.0195: real time      0.0195
    FORCOR:  cpu time      0.0032: real time      0.0032
    FORHAR:  cpu time      0.0007: real time      0.0007
    MIXING:  cpu time      0.0003: real time      0.0003
    OFIELD:  cpu time      0.0000: real time      0.0000

  FORCE on cell =-STRESS in cart. coord.  units (eV):
  Direction    XX          YY          ZZ          XY          YZ          ZX
  --------------------------------------------------------------------------------------
  Alpha Z     0.84104     0.84104     0.84104
  Ewald     -32.42286   -32.42286   -32.42286     0.00000    -0.00000    -0.00000
  Hartree     1.92492     1.92492     1.92492     0.00000     0.00000     0.00000
  E(xc)     -10.88192   -10.88192   -10.88192     0.00001     0.00001     0.00001
  Local     -16.32899   -16.32899   -16.32899     0.00003     0.00003     0.00003
  n-local    38.71125    41.66786    38.69505     1.89063    -1.12850    -1.23695
  augment    -7.03663    -7.03663    -7.03663    -0.00003    -0.00003    -0.00003
  Kinetic    18.05424    27.90167    19.29553     5.07319    -3.73806    -5.53968
  Fock        0.00000     0.00000     0.00000     0.00000     0.00000     0.00000
  -------------------------------------------------------------------------------------
  Total      -2.46256    -2.46256    -2.46256    -0.00000     0.00000    -0.00000
  in kB     -98.57307   -98.57307   -98.57307    -0.00000     0.00000    -0.00000
  external pressure =      -98.57 kB  Pullay stress =        0.00 kB


 VOLUME and BASIS-vectors are now :
 -----------------------------------------------------------------------------
  energy-cutoff  :      245.34
  volume of cell :       40.03
      direct lattice vectors                 reciprocal lattice vectors
     2.715000000  2.715000000  0.000000000     0.184162063  0.184162063 -0.184162063
     0.000000000  2.715000000  2.715000000    -0.184162063  0.184162063  0.184162063
     2.715000000  0.000000000  2.715000000     0.184162063 -0.184162063  0.184162063

  length of vectors
     3.839589822  3.839589822  3.839589822     0.318978049  0.318978049  0.318978049


 FORCES acting on ions
    electron-ion (+dipol)            ewald-force                    non-local-force                 convergence-correction
 -----------------------------------------------------------------------------------------------
   0.199E-15 -.234E-15 0.704E-15   -.213E-15 0.818E-16 0.736E-16   0.742E-22 -.291E-23 0.477E-22   0.798E-16 0.205E-16 0.147E-15
 -----------------------------------------------------------------------------------------------
   0.199E-15 -.234E-15 0.704E-15   -.213E-15 0.818E-16 0.736E-16   0.742E-22 -.291E-23 0.477E-22   0.798E-16 0.205E-16 0.147E-15
 
 
 POSITION                                       TOTAL-FORCE (eV/Angst)
 -----------------------------------------------------------------------------------
      0.00000      0.00000      0.00000         0.000000      0.000000      0.000000
 -----------------------------------------------------------------------------------
    total drift:                                0.000000     -0.000000      0.000000


--------------------------------------------------------------------------------------------------------



  FREE ENERGIE OF THE ION-ELECTRON SYSTEM (eV)
  ---------------------------------------------------
  free  energy   TOTEN  =        -2.89942996 eV

  energy  without entropy=       -2.89883411  energy(sigma->0) =       -2.89913203
 


--------------------------------------------------------------------------------------------------------


    POTLOK:  cpu time      0.0045: real time      0.0045


--------------------------------------------------------------------------------------------------------


 writing wavefunctions
     LOOP+:  cpu time      0.2942: real time      0.2993
    4ORBIT:  cpu time      0.0000: real time      0.0000

 total amount of memory used by VASP MPI-rank0    31438. kBytes
=======================================================================

   base      :      30000. kBytes
   nonl-proj :        370. kBytes
   fftplans  :        302. kBytes
   grid      :        577. kBytes
   one-center:          3. kBytes
   wavefun   :        186. kBytes
 
  
  
 General timing and accounting informations for this job:
 ========================================================
  
                  Total CPU time used (sec):        0.514
                            User time (sec):        0.402
                          System time (sec):        0.112
                         Elapsed time (sec):        0.565
  
                   Maximum memory used (kb):       45592.
                   Average memory used (kb):          N/A
  
                          Minor page faults:         8967
                          Major page faults:            0
                 Voluntary context switches:         1750
