<?xml version="1.0" encoding="ISO-8859-1"?>
<modeling>
 <generator>
  <i name="program" type="string">vasp </i>
  <i name="version" type="string">6.3.0  </i>
  <i name="subversion" type="string">20Jan22 (build Feb 01 2022 16:52:37) complex                          parallel </i>
  <i name="platform" type="string">TETRA_NSC1 </i>
  <i name="date" type="string">2022 02 23 </i>
  <i name="time" type="string">16:14:08 </i>
 </generator>
 <incar>
  <i type="int" name="ISMEAR">     0</i>
  <i name="SIGMA">      0.01000000</i>
  <i type="string" name="GGA">PE</i>
 </incar>
 <primitive_cell>
  <structure name="primitive_cell" >
   <crystal>
    <varray name="basis" >
     <v>       2.71500000       2.71500000       0.00000000 </v>
     <v>       0.00000000       2.71500000       2.71500000 </v>
     <v>       2.71500000       0.00000000       2.71500000 </v>
    </varray>
    <i name="volume">     40.02575175 </i>
    <varray name="rec_basis" >
     <v>       0.18416206       0.18416206      -0.18416206 </v>
     <v>      -0.18416206       0.18416206       0.18416206 </v>
     <v>       0.18416206      -0.18416206       0.18416206 </v>
    </varray>
   </crystal>
   <varray name="positions" >
    <v>       0.00000000       0.00000000       0.00000000 </v>
   </varray>
  </structure>
  <varray name="primitive_index" >
   <v type="int" >        1 </v>
  </varray>
 </primitive_cell>
 <kpoints>
  <generation param="Gamma">
   <v type="int" name="divisions">       6        6        6 </v>
   <v name="usershift">      0.00000000       0.00000000       0.00000000 </v>
   <v name="genvec1">      0.16666667       0.00000000       0.00000000 </v>
   <v name="genvec2">      0.00000000       0.16666667      -0.00000000 </v>
   <v name="genvec3">     -0.00000000      -0.00000000       0.16666667 </v>
   <v name="shift">      0.00000000       0.00000000       0.00000000 </v>
  </generation>
  <varray name="kpointlist" >
   <v>       0.00000000       0.00000000       0.00000000 </v>
   <v>       0.16666667      -0.00000000      -0.00000000 </v>
   <v>       0.33333333      -0.00000000      -0.00000000 </v>
   <v>       0.50000000      -0.00000000       0.00000000 </v>
   <v>       0.16666667       0.16666667       0.00000000 </v>
   <v>       0.33333333       0.16666667       0.00000000 </v>
   <v>       0.50000000       0.16666667       0.00000000 </v>
   <v>      -0.33333333       0.16666667       0.00000000 </v>
   <v>      -0.16666667       0.16666667       0.00000000 </v>
   <v>       0.33333333       0.33333333       0.00000000 </v>
   <v>       0.50000000       0.33333333       0.00000000 </v>
   <v>      -0.33333333       0.33333333       0.00000000 </v>
   <v>       0.50000000       0.50000000       0.00000000 </v>
   <v>       0.50000000       0.33333333       0.16666667 </v>
   <v>      -0.33333333       0.33333333       0.16666667 </v>
   <v>      -0.33333333       0.50000000       0.16666667 </v>
  </varray>
  <varray name="weights" >
   <v>       0.00462963 </v>
   <v>       0.03703704 </v>
   <v>       0.03703704 </v>
   <v>       0.01851852 </v>
   <v>       0.02777778 </v>
   <v>       0.11111111 </v>
   <v>       0.11111111 </v>
   <v>       0.11111111 </v>
   <v>       0.05555556 </v>
   <v>       0.02777778 </v>
   <v>       0.11111111 </v>
   <v>       0.05555556 </v>
   <v>       0.01388889 </v>
   <v>       0.11111111 </v>
   <v>       0.11111111 </v>
   <v>       0.05555556 </v>
  </varray>
 </kpoints>
 <parameters>
  <separator name="general" >
   <i type="string" name="SYSTEM">unknown system</i>
   <i type="logical" name="LCOMPAT"> F  </i>
  </separator>
  <separator name="electronic" >
   <i type="string" name="PREC">normal</i>
   <i name="ENMAX">    245.34500000</i>
   <i name="ENAUG">    322.06900000</i>
   <i name="EDIFF">      0.00010000</i>
   <i type="int" name="IALGO">    38</i>
   <i type="int" name="IWAVPR">    10</i>
   <i type="int" name="NBANDS">     8</i>
   <i type="int" name="NBANDSLOW">    -1</i>
   <i type="int" name="NBANDSHIGH">    -1</i>
   <i name="NELECT">      4.00000000</i>
   <i type="int" name="TURBO">     0</i>
   <i type="int" name="IRESTART">     0</i>
   <i type="int" name="NREBOOT">     0</i>
   <i type="int" name="NMIN">     0</i>
   <i name="EREF">      0.00000000</i>
   <separator name="electronic smearing" >
    <i type="int" name="ISMEAR">     0</i>
    <i name="SIGMA">      0.01000000</i>
    <i name="KSPACING">      0.50000000</i>
    <i type="logical" name="KGAMMA"> T  </i>
    <i type="logical" name="KBLOWUP"> T  </i>
   </separator>
   <separator name="electronic projectors" >
    <i type="logical" name="LREAL"> F  </i>
    <v name="ROPT">      0.00000000</v>
    <i type="int" name="LMAXPAW">  -100</i>
    <i type="int" name="LMAXMIX">     2</i>
    <i type="logical" name="NLSPLINE"> F  </i>
   </separator>
   <separator name="electronic startup" >
    <i type="int" name="ISTART">     0</i>
    <i type="int" name="ICHARG">     2</i>
    <i type="int" name="INIWAV">     1</i>
   </separator>
   <separator name="electronic spin" >
    <i type="int" name="ISPIN">     1</i>
    <i type="logical" name="LNONCOLLINEAR"> F  </i>
    <v name="MAGMOM">      1.00000000</v>
    <i name="NUPDOWN">     -1.00000000</i>
    <i type="logical" name="LSORBIT"> F  </i>
    <v name="SAXIS">      0.00000000      0.00000000      1.00000000</v>
    <i type="logical" name="LSPIRAL"> F  </i>
    <v name="QSPIRAL">      0.00000000      0.00000000      0.00000000</v>
    <i type="logical" name="LZEROZ"> F  </i>
   </separator>
   <separator name="electronic exchange-correlation" >
    <i type="logical" name="LASPH"> F  </i>
    <i type="logical" name="LMETAGGA"> F  </i>
   </separator>
   <separator name="electronic convergence" >
    <i type="int" name="NELM">    60</i>
    <i type="int" name="NELMDL">    -5</i>
    <i type="int" name="NELMIN">     2</i>
    <i name="ENINI">    245.34500000</i>
    <separator name="electronic convergence detail" >
     <i type="logical" name="LDIAG"> T  </i>
     <i type="logical" name="LSUBROT"> F  </i>
     <i name="WEIMIN">      0.00000000</i>
     <i name="EBREAK">      0.00000313</i>
     <i name="DEPER">      0.30000000</i>
     <i type="int" name="NRMM">     4</i>
     <i name="TIME">      0.40000000</i>
    </separator>
   </separator>
   <separator name="electronic mixer" >
    <i name="AMIX">      0.40000000</i>
    <i name="BMIX">      1.00000000</i>
    <i name="AMIN">      0.10000000</i>
    <i name="AMIX_MAG">      1.60000000</i>
    <i name="BMIX_MAG">      1.00000000</i>
    <separator name="electronic mixer details" >
     <i type="int" name="IMIX">     4</i>
     <i type="logical" name="MIXFIRST"> F  </i>
     <i type="int" name="MAXMIX">   -45</i>
     <i name="WC">    100.00000000</i>
     <i type="int" name="INIMIX">     1</i>
     <i type="int" name="MIXPRE">     1</i>
     <i type="int" name="MREMOVE">     5</i>
    </separator>
   </separator>
   <separator name="electronic dipolcorrection" >
    <i type="logical" name="LDIPOL"> F  </i>
    <i type="logical" name="LMONO"> F  </i>
    <i type="int" name="IDIPOL">     0</i>
    <i name="EPSILON">      1.00000000</i>
    <v name="DIPOL">   -100.00000000   -100.00000000   -100.00000000</v>
    <i name="EFIELD">      0.00000000</i>
   </separator>
  </separator>
  <separator name="grids" >
   <i type="int" name="NGX">    16</i>
   <i type="int" name="NGY">    16</i>
   <i type="int" name="NGZ">    16</i>
   <i type="int" name="NGXF">    32</i>
   <i type="int" name="NGYF">    32</i>
   <i type="int" name="NGZF">    32</i>
   <i type="logical" name="ADDGRID"> F  </i>
  </separator>
  <separator name="ionic" >
   <i type="int" name="NSW">     0</i>
   <i type="int" name="IBRION">    -1</i>
   <i type="int" name="MDALGO">     0</i>
   <i type="int" name="ISIF">     2</i>
   <i name="PSTRESS">      0.00000000</i>
   <i name="EDIFFG">      0.00100000</i>
   <i type="int" name="NFREE">     0</i>
   <i name="POTIM">      0.50000000</i>
   <i name="SMASS">     -3.00000000</i>
   <i name="SCALEE">      1.00000000</i>
  </separator>
  <separator name="ionic md" >
   <i name="TEBEG">      0.00010000</i>
   <i name="TEEND">      0.00010000</i>
   <i type="int" name="NBLOCK">     1</i>
   <i type="int" name="KBLOCK">     1</i>
   <i type="int" name="NPACO">   256</i>
   <i name="APACO">     10.00000000</i>
  </separator>
  <separator name="symmetry" >
   <i type="int" name="ISYM">     2</i>
   <i name="SYMPREC">      0.00001000</i>
  </separator>
  <separator name="dos" >
   <i type="int" name="LORBIT">     0</i>
   <v name="RWIGS">     -1.00000000</v>
   <i type="int" name="NEDOS">   301</i>
   <i name="EMIN">     10.00000000</i>
   <i name="EMAX">    -10.00000000</i>
   <i name="EFERMI">      0.00000000</i>
  </separator>
  <separator name="writing" >
   <i type="int" name="NWRITE">     2</i>
   <i type="logical" name="LWAVE"> T  </i>
   <i type="logical" name="LDOWNSAMPLE"> F  </i>
   <i type="logical" name="LCHARG"> T  </i>
   <i type="logical" name="LPARD"> F  </i>
   <i type="logical" name="LVTOT"> F  </i>
   <i type="logical" name="LVHAR"> F  </i>
   <i type="logical" name="LELF"> F  </i>
   <i type="logical" name="LOPTICS"> F  </i>
   <v name="STM">      0.00000000      0.00000000      0.00000000      0.00000000      0.00000000      0.00000000      0.00000000</v>
  </separator>
  <separator name="performance" >
   <i type="int" name="NPAR">     4</i>
   <i type="int" name="NSIM">     4</i>
   <i type="int" name="NBLK">    -1</i>
   <i type="logical" name="LPLANE"> T  </i>
   <i type="logical" name="LSCALAPACK"> T  </i>
   <i type="logical" name="LSCAAWARE"> F  </i>
   <i type="logical" name="LSCALU"> F  </i>
   <i type="logical" name="LASYNC"> F  </i>
   <i type="logical" name="LORBITALREAL"> F  </i>
  </separator>
  <separator name="miscellaneous" >
   <i type="int" name="IDIOT">     3</i>
   <i type="int" name="PHON_NSTRUCT">    -1</i>
   <i type="logical" name="LMUSIC"> F  </i>
   <v name="POMASS">     28.08500000</v>
   <v name="DARWINR">      0.00000000</v>
   <v name="DARWINV">      1.00000000</v>
   <i type="logical" name="LCORR"> T  </i>
  </separator>
  <i type="logical" name="GGA_COMPAT"> T  </i>
  <i type="logical" name="LBERRY"> F  </i>
  <i type="int" name="ICORELEVEL">     0</i>
  <i type="logical" name="LDAU"> F  </i>
  <i type="int" name="I_CONSTRAINED_M">     0</i>
  <separator name="electronic exchange-correlation" >
   <i type="string" name="GGA">PE</i>
   <i type="int" name="VOSKOWN">     0</i>
   <i type="logical" name="LHFCALC"> F  </i>
   <i type="string" name="PRECFOCK"></i>
   <i type="logical" name="LSYMGRAD"> F  </i>
   <i type="logical" name="LHFONE"> F  </i>
   <i type="logical" name="LRHFCALC"> F  </i>
   <i type="logical" name="LTHOMAS"> F  </i>
   <i type="logical" name="LMODELHF"> F  </i>
   <i type="logical" name="LFOCKACE"> F  </i>
   <i name="ENCUT4O">     -1.00000000</i>
   <i type="int" name="EXXOEP">     0</i>
   <i type="int" name="FOURORBIT">     0</i>
   <i name="AEXX">      0.00000000</i>
   <i name="HFALPHA">      0.00000000</i>
   <i name="MCALPHA">      0.00000000</i>
   <i name="ALDAX">      1.00000000</i>
   <i name="AGGAX">      1.00000000</i>
   <i name="ALDAC">      1.00000000</i>
   <i name="AGGAC">      1.00000000</i>
   <i type="int" name="NKREDX">     1</i>
   <i type="int" name="NKREDY">     1</i>
   <i type="int" name="NKREDZ">     1</i>
   <i type="logical" name="SHIFTRED"> F  </i>
   <i type="logical" name="ODDONLY"> F  </i>
   <i type="logical" name="EVENONLY"> F  </i>
   <i type="int" name="LMAXFOCK">     0</i>
   <i type="int" name="NMAXFOCKAE">     0</i>
   <i type="logical" name="LFOCKAEDFT"> F  </i>
   <i name="HFSCREEN">      0.00000000</i>
   <i name="HFSCREENC">      0.00000000</i>
   <i type="int" name="NBANDSGWLOW">     0</i>
  </separator>
  <separator name="vdW DFT" >
   <i type="logical" name="LUSE_VDW"> F  </i>
   <i name="Zab_VDW">     -0.84910000</i>
   <i name="PARAM1">      0.12340000</i>
   <i name="PARAM2">      1.00000000</i>
   <i name="PARAM3">      0.00000000</i>
  </separator>
  <separator name="model GW" >
   <i type="int" name="MODEL_GW">     0</i>
   <i name="MODEL_EPS0">     24.01545105</i>
   <i name="MODEL_ALPHA">      1.00000000</i>
  </separator>
  <separator name="linear response parameters" >
   <i type="logical" name="LEPSILON"> F  </i>
   <i type="logical" name="LRPA"> F  </i>
   <i type="logical" name="LNABLA"> F  </i>
   <i type="logical" name="LVEL"> F  </i>
   <i name="CSHIFT">      0.10000000</i>
   <i name="OMEGAMAX">     -1.00000000</i>
   <i name="DEG_THRESHOLD">      0.00200000</i>
   <i name="RTIME">     -0.10000000</i>
   <i name="WPLASMAI">      0.00000000</i>
   <v name="DFIELD">      0.00000000      0.00000000      0.00000000</v>
   <v name="WPLASMA">      0.00000000      0.00000000      0.00000000      0.00000000      0.00000000      0.00000000      0.00000000      0.00000000      0.00000000</v>
  </separator>
  <separator name="orbital magnetization" >
   <i type="logical" name="NUCIND"> F  </i>
   <v name="MAGPOS">      0.00000000      0.00000000      0.00000000</v>
   <i type="logical" name="LNICSALL"> T  </i>
   <i type="logical" name="ORBITALMAG"> F  </i>
   <i type="logical" name="LMAGBLOCH"> F  </i>
   <i type="logical" name="LCHIMAG"> F  </i>
   <i type="logical" name="LGAUGE"> T  </i>
   <i type="int" name="MAGATOM">     0</i>
   <v name="MAGDIPOL">      0.00000000      0.00000000      0.00000000</v>
   <v name="AVECCONST">      0.00000000      0.00000000      0.00000000</v>
  </separator>
  <separator name="response functions" >
   <i type="logical" name="LFINITE_TEMPERATURE"> F  </i>
   <i type="logical" name="LADDER"> F  </i>
   <i type="logical" name="LRPAFORCE"> F  </i>
   <i type="logical" name="LFXC"> F  </i>
   <i type="logical" name="LHARTREE"> T  </i>
   <i type="int" name="IBSE">     0</i>
   <v type="int" name="KPOINT">    -1     0     0     0</v>
   <i type="logical" name="LTCTC"> F  </i>
   <i type="logical" name="LTCTE"> F  </i>
   <i type="logical" name="LTETE"> F  </i>
   <i type="logical" name="LTRIPLET"> F  </i>
   <i type="logical" name="LFXCEPS"> F  </i>
   <i type="logical" name="LFXHEG"> F  </i>
   <i type="int" name="NATURALO">     2</i>
   <i type="logical" name="LHOLEGF"> F  </i>
   <i type="logical" name="L2ORDER"> F  </i>
   <i type="logical" name="LDMP1"> F  </i>
   <i type="logical" name="LMP2LT"> F  </i>
   <i type="logical" name="LSMP2LT"> F  </i>
   <i type="logical" name="LGWLF"> F  </i>
   <i name="ENCUTGW">     -2.00000000</i>
   <i name="ENCUTGWSOFT">     -2.00000000</i>
   <i name="ENCUTLF">     -1.00000000</i>
   <i type="logical" name="LESF_SPLINES"> F  </i>
   <i type="int" name="LMAXMP2">    -1</i>
   <i name="SCISSOR">      0.00000000</i>
   <i type="int" name="NOMEGA">     0</i>
   <i type="int" name="NOMEGAR">     0</i>
   <i type="int" name="NBANDSGW">    -1</i>
   <i type="int" name="NBANDSO">    -1</i>
   <i type="int" name="NBANDSV">    -1</i>
   <i type="int" name="NELMGW">     1</i>
   <i type="int" name="NELMHF">     1</i>
   <i type="int" name="DIM">     3</i>
   <i type="int" name="IESPILON">     4</i>
   <i type="int" name="ANTIRES">     0</i>
   <i name="OMEGAMAX">    -30.00000000</i>
   <i name="OMEGAMIN">    -30.00000000</i>
   <i name="OMEGATL">   -200.00000000</i>
   <i type="int" name="OMEGAGRID">     0</i>
   <i name="CSHIFT">     -0.10000000</i>
   <i type="logical" name="LSELFENERGY"> F  </i>
   <i type="logical" name="LSPECTRAL"> F  </i>
   <i type="logical" name="LSPECTRALGW"> F  </i>
   <i type="logical" name="LSINGLES"> F  </i>
   <i type="logical" name="LFERMIGW"> F  </i>
   <i type="logical" name="ODDONLYGW"> F  </i>
   <i type="logical" name="EVENONLYGW"> F  </i>
   <i type="int" name="NKREDLFX">     1</i>
   <i type="int" name="NKREDLFY">     1</i>
   <i type="int" name="NKREDLFZ">     1</i>
   <i type="int" name="MAXMEM">  2800</i>
   <i type="int" name="TELESCOPE">     0</i>
   <i type="int" name="NTAUPAR">    -1</i>
   <i type="int" name="NOMEGAPAR">    -1</i>
   <i name="DAMP_NEWTON">      0.80000001</i>
   <i name="LAMBDA">      1.00000000</i>
  </separator>
  <separator name="External order field" >
   <i name="OFIELD_KAPPA">      0.00000000</i>
   <v name="OFIELD_K">      0.00000000      0.00000000      0.00000000</v>
   <i name="OFIELD_Q6_NEAR">      0.00000000</i>
   <i name="OFIELD_Q6_FAR">      0.00000000</i>
   <i name="OFIELD_A">      0.00000000</i>
  </separator>
  <separator name="optional k-points parameters" >
   <i type="int" name="KPOINTS_OPT_MODE">     1</i>
   <i type="logical" name="LKPOINTS_OPT"> F  </i>
  </separator>
 </parameters>
 <atominfo>
  <atoms>       1 </atoms>
  <types>       1 </types>
  <array name="atoms" >
   <dimension dim="1">ion</dimension>
   <field type="string">element</field>
   <field type="int">atomtype</field>
   <set>
    <rc><c>Si</c><c>   1</c></rc>
   </set>
  </array>
  <array name="atomtypes" >
   <dimension dim="1">type</dimension>
   <field type="int">atomspertype</field>
   <field type="string">element</field>
   <field>mass</field>
   <field>valence</field>
   <field type="string">pseudopotential</field>
   <set>
    <rc><c>   1</c><c>Si</c><c>     28.08500000</c><c>      4.00000000</c><c>  PAW_PBE Si 05Jan2001                  </c></rc>
   </set>
  </array>
 </atominfo>
 <structure name="initialpos" >
  <crystal>
   <varray name="basis" >
    <v>       2.71500000       2.71500000       0.00000000 </v>
    <v>       0.00000000       2.71500000       2.71500000 </v>
    <v>       2.71500000       0.00000000       2.71500000 </v>
   </varray>
   <i name="volume">     40.02575175 </i>
   <varray name="rec_basis" >
    <v>       0.18416206       0.18416206      -0.18416206 </v>
    <v>      -0.18416206       0.18416206       0.18416206 </v>
    <v>       0.18416206      -0.18416206       0.18416206 </v>
   </varray>
  </crystal>
  <varray name="positions" >
   <v>       0.00000000       0.00000000       0.00000000 </v>
  </varray>
 </structure>
 <calculation>
  <scstep>
   <time name="dav">    0.02    0.02</time>
   <time name="total">    0.03    0.03</time>
   <energy>
    <i name="alphaZ">      0.84103682 </i>
    <i name="ewald">    -97.26856434 </i>
    <i name="hartreedc">     -6.74769434 </i>
    <i name="XCdc">    -10.61328651 </i>
    <i name="pawpsdc">     88.12379961 </i>
    <i name="pawaedc">    -70.53051779 </i>
    <i name="eentropy">     -0.00059585 </i>
    <i name="bandstr">     -8.47298697 </i>
    <i name="atom">    103.06128616 </i>
    <i name="e_fr_energy">     -1.60752321 </i>
    <i name="e_wo_entrp">     -1.60692737 </i>
    <i name="e_0_energy">     -1.60722529 </i>
   </energy>
  </scstep>
  <scstep>
   <time name="dav">    0.03    0.03</time>
   <time name="total">    0.03    0.03</time>
   <energy>
    <i name="e_fr_energy">     -2.89661190 </i>
    <i name="e_wo_entrp">     -2.89601606 </i>
    <i name="e_0_energy">     -2.89631398 </i>
   </energy>
  </scstep>
  <scstep>
   <time name="dav">    0.02    0.02</time>
   <time name="total">    0.02    0.02</time>
   <energy>
    <i name="e_fr_energy">     -2.91027519 </i>
    <i name="e_wo_entrp">     -2.90967934 </i>
    <i name="e_0_energy">     -2.90997727 </i>
   </energy>
  </scstep>
  <scstep>
   <time name="dav">    0.03    0.03</time>
   <time name="total">    0.03    0.03</time>
   <energy>
    <i name="e_fr_energy">     -2.91032185 </i>
    <i name="e_wo_entrp">     -2.90972600 </i>
    <i name="e_0_energy">     -2.91002393 </i>
   </energy>
  </scstep>
  <scstep>
   <time name="dav">    0.02    0.02</time>
   <time name="total">    0.02    0.02</time>
   <energy>
    <i name="e_fr_energy">     -2.91032192 </i>
    <i name="e_wo_entrp">     -2.90972607 </i>
    <i name="e_0_energy">     -2.91002400 </i>
   </energy>
  </scstep>
  <scstep>
   <time name="dav">    0.02    0.02</time>
   <time name="total">    0.03    0.03</time>
   <energy>
    <i name="e_fr_energy">     -2.90197516 </i>
    <i name="e_wo_entrp">     -2.90137931 </i>
    <i name="e_0_energy">     -2.90167724 </i>
   </energy>
  </scstep>
  <scstep>
   <time name="dav">    0.02    0.02</time>
   <time name="total">    0.02    0.02</time>
   <energy>
    <i name="e_fr_energy">     -2.89910769 </i>
    <i name="e_wo_entrp">     -2.89851184 </i>
    <i name="e_0_energy">     -2.89880977 </i>
   </energy>
  </scstep>
  <scstep>
   <time name="dav">    0.02    0.02</time>
   <time name="total">    0.03    0.03</time>
   <energy>
    <i name="e_fr_energy">     -2.89941764 </i>
    <i name="e_wo_entrp">     -2.89882180 </i>
    <i name="e_0_energy">     -2.89911972 </i>
   </energy>
  </scstep>
  <scstep>
   <time name="dav">    0.01    0.01</time>
   <time name="total">    0.02    0.02</time>
   <energy>
    <i name="alphaZ">      0.84103682 </i>
    <i name="ewald">    -97.26856434 </i>
    <i name="hartreedc">     -5.77463054 </i>
    <i name="XCdc">    -10.75273082 </i>
    <i name="pawpsdc">     99.20064886 </i>
    <i name="pawaedc">    -81.56213096 </i>
    <i name="eentropy">     -0.00059585 </i>
    <i name="bandstr">    -10.64374927 </i>
    <i name="atom">    103.06128616 </i>
    <i name="e_fr_energy">     -2.89942996 </i>
    <i name="e_wo_entrp">     -2.89883411 </i>
    <i name="e_0_energy">     -2.89913203 </i>
   </energy>
  </scstep>
  <structure>
   <crystal>
    <varray name="basis" >
     <v>       2.71500000       2.71500000       0.00000000 </v>
     <v>       0.00000000       2.71500000       2.71500000 </v>
     <v>       2.71500000       0.00000000       2.71500000 </v>
    </varray>
    <i name="volume">     40.02575175 </i>
    <varray name="rec_basis" >
     <v>       0.18416206       0.18416206      -0.18416206 </v>
     <v>      -0.18416206       0.18416206       0.18416206 </v>
     <v>       0.18416206      -0.18416206       0.18416206 </v>
    </varray>
   </crystal>
   <varray name="positions" >
    <v>       0.00000000       0.00000000       0.00000000 </v>
   </varray>
  </structure>
  <varray name="forces" >
   <v>       0.00000000       0.00000000       0.00000000 </v>
  </varray>
  <varray name="stress" >
   <v>     -98.57307185       0.00000000      -0.00000000 </v>
   <v>      -0.00000000     -98.57307185      -0.00000000 </v>
   <v>      -0.00000000       0.00000000     -98.57307185 </v>
  </varray>
  <energy>
   <i name="e_fr_energy">     -2.89942996 </i>
   <i name="e_wo_entrp">     -2.89883411 </i>
   <i name="e_0_energy">     -2.89913203 </i>
  </energy>
  <time name="totalsc">    0.29    0.30</time>
  <eigenvalues>
   <array>
    <dimension dim="1">band</dimension>
    <dimension dim="2">kpoint</dimension>
    <dimension dim="3">spin</dimension>
    <field>eigene</field>
    <field>occ</field>
    <set>
     <set comment="spin 1">
      <set comment="kpoint 1">
       <r>   -7.1020    1.0000 </r>
       <r>    4.3226    0.0000 </r>
       <r>    4.3226    0.0000 </r>
       <r>    4.3226    0.0000 </r>
       <r>    8.8490    0.0000 </r>
       <r>    9.9245    0.0000 </r>
       <r>    9.9245    0.0000 </r>
       <r>    9.9245    0.0000 </r>
      </set>
      <set comment="kpoint 2">
       <r>   -6.7814    1.0000 </r>
       <r>    2.6178    0.0000 </r>
       <r>    4.1195    0.0000 </r>
       <r>    4.1195    0.0000 </r>
       <r>    8.7640    0.0000 </r>
       <r>   10.3254    0.0000 </r>
       <r>   10.3255    0.0000 </r>
       <r>   10.6153    0.0000 </r>
      </set>
      <set comment="kpoint 3">
       <r>   -5.9333    1.0000 </r>
       <r>    0.0972    1.0000 </r>
       <r>    3.7977    0.0000 </r>
       <r>    3.7977    0.0000 </r>
       <r>    7.9163    0.0000 </r>
       <r>    9.8531    0.0000 </r>
       <r>    9.8531    0.0000 </r>
       <r>   12.2683    0.0000 </r>
      </set>
      <set comment="kpoint 4">
       <r>   -5.2794    1.0000 </r>
       <r>   -1.1805    1.0000 </r>
       <r>    3.6661    0.0000 </r>
       <r>    3.6661    0.0000 </r>
       <r>    7.6290    0.0000 </r>
       <r>    9.4574    0.0000 </r>
       <r>    9.4574    0.0000 </r>
       <r>   12.0453    0.0000 </r>
      </set>
      <set comment="kpoint 5">
       <r>   -6.6738    1.0000 </r>
       <r>    2.8950    0.0000 </r>
       <r>    3.6268    0.0000 </r>
       <r>    3.6268    0.0000 </r>
       <r>    8.4054    0.0000 </r>
       <r>    9.4417    0.0000 </r>
       <r>   11.1717    0.0000 </r>
       <r>   11.1717    0.0000 </r>
      </set>
      <set comment="kpoint 6">
       <r>   -5.9907    1.0000 </r>
       <r>    0.9527    1.0000 </r>
       <r>    3.0765    0.0000 </r>
       <r>    3.2189    0.0000 </r>
       <r>    7.9769    0.0000 </r>
       <r>    9.0659    0.0000 </r>
       <r>   10.8813    0.0000 </r>
       <r>   11.3764    0.0000 </r>
      </set>
      <set comment="kpoint 7">
       <r>   -5.1620    1.0000 </r>
       <r>   -0.7328    1.0000 </r>
       <r>    2.3940    0.0000 </r>
       <r>    3.2145    0.0000 </r>
       <r>    7.7564    0.0000 </r>
       <r>    9.4166    0.0000 </r>
       <r>   10.5876    0.0000 </r>
       <r>   12.1057    0.0000 </r>
      </set>
      <set comment="kpoint 8">
       <r>   -5.3971    1.0000 </r>
       <r>   -0.3004    1.0000 </r>
       <r>    2.1264    0.0000 </r>
       <r>    3.6032    0.0000 </r>
       <r>    8.3608    0.0000 </r>
       <r>    9.4463    0.0000 </r>
       <r>   10.3333    0.0000 </r>
       <r>   12.2294    0.0000 </r>
      </set>
      <set comment="kpoint 9">
       <r>   -6.2768    1.0000 </r>
       <r>    1.5219    0.0000 </r>
       <r>    2.7086    0.0000 </r>
       <r>    4.0932    0.0000 </r>
       <r>    9.4551    0.0000 </r>
       <r>    9.5965    0.0000 </r>
       <r>   10.6114    0.0000 </r>
       <r>   10.9096    0.0000 </r>
      </set>
      <set comment="kpoint 10">
       <r>   -5.5277    1.0000 </r>
       <r>    0.6703    1.0000 </r>
       <r>    2.6538    0.0000 </r>
       <r>    2.6538    0.0000 </r>
       <r>    6.7968    0.0000 </r>
       <r>    6.9027    0.0000 </r>
       <r>   13.7230    0.0000 </r>
       <r>   13.7230    0.0000 </r>
      </set>
      <set comment="kpoint 11">
       <r>   -4.8360    1.0000 </r>
       <r>   -0.2023    1.0000 </r>
       <r>    1.4411    0.0000 </r>
       <r>    2.5431    0.0000 </r>
       <r>    6.4518    0.0000 </r>
       <r>    7.9842    0.0000 </r>
       <r>   13.2059    0.0000 </r>
       <r>   13.2270    0.0000 </r>
      </set>
      <set comment="kpoint 12">
       <r>   -4.7596    1.0000 </r>
       <r>    0.0985    1.0000 </r>
       <r>    0.2770    1.0000 </r>
       <r>    2.9405    0.0000 </r>
       <r>    7.0338    0.0000 </r>
       <r>   10.5122    0.0000 </r>
       <r>   11.8803    0.0000 </r>
       <r>   12.0667    0.0000 </r>
      </set>
      <set comment="kpoint 13">
       <r>   -4.6007    1.0000 </r>
       <r>   -0.6565    1.0000 </r>
       <r>    2.2734    0.0000 </r>
       <r>    2.2734    0.0000 </r>
       <r>    5.7585    0.0000 </r>
       <r>    6.3810    0.0000 </r>
       <r>   15.5137    0.0000 </r>
       <r>   16.2290    0.0000 </r>
      </set>
      <set comment="kpoint 14">
       <r>   -5.2657    1.0000 </r>
       <r>    0.2620    1.0000 </r>
       <r>    1.5512    0.0000 </r>
       <r>    2.7648    0.0000 </r>
       <r>    8.2080    0.0000 </r>
       <r>    8.8360    0.0000 </r>
       <r>   10.3968    0.0000 </r>
       <r>   13.2906    0.0000 </r>
      </set>
      <set comment="kpoint 15">
       <r>   -4.7583    1.0000 </r>
       <r>   -0.2964    1.0000 </r>
       <r>    1.0350    0.6250 </r>
       <r>    2.3245    0.0000 </r>
       <r>    8.1704    0.0000 </r>
       <r>    9.5009    0.0000 </r>
       <r>   11.1467    0.0000 </r>
       <r>   11.9301    0.0000 </r>
      </set>
      <set comment="kpoint 16">
       <r>   -4.5501    1.0000 </r>
       <r>   -0.1861    1.0000 </r>
       <r>    1.1180    0.0000 </r>
       <r>    1.6129    0.0000 </r>
       <r>    7.5119    0.0000 </r>
       <r>    8.4334    0.0000 </r>
       <r>   12.2782    0.0000 </r>
       <r>   12.4988    0.0000 </r>
      </set>
     </set>
    </set>
   </array>
  </eigenvalues>
  <separator name="orbital magnetization" >
   <v name="MAGDIPOLOUT">      0.00000000      0.00000000      0.00000000</v>
  </separator>
  <dos>
   <i name="efermi">      1.03726004 </i>
   <total>
    <array>
     <dimension dim="1">gridpoints</dimension>
     <dimension dim="2">spin</dimension>
     <field>energy</field>
     <field>total</field>
     <field>integrated</field>
     <set>
      <set comment="spin 1">
       <r>    -8.2686     0.0000     0.0000 </r>
       <r>    -8.1831     0.0000     0.0000 </r>
       <r>    -8.0975     0.0000     0.0000 </r>
       <r>    -8.0120     0.0000     0.0000 </r>
       <r>    -7.9264     0.0000     0.0000 </r>
       <r>    -7.8409     0.0000     0.0000 </r>
       <r>    -7.7553     0.0000     0.0000 </r>
       <r>    -7.6698     0.0000     0.0000 </r>
       <r>    -7.5842     0.0000     0.0000 </r>
       <r>    -7.4987     0.0000     0.0000 </r>
       <r>    -7.4131     0.0000     0.0000 </r>
       <r>    -7.3276     0.0000     0.0000 </r>
       <r>    -7.2420     0.0000     0.0000 </r>
       <r>    -7.1565     0.0000     0.0000 </r>
       <r>    -7.0709     0.1082     0.0093 </r>
       <r>    -6.9854     0.0000     0.0093 </r>
       <r>    -6.8998     0.0000     0.0093 </r>
       <r>    -6.8143     0.0000     0.0093 </r>
       <r>    -6.7288     0.8659     0.0833 </r>
       <r>    -6.6432     0.6494     0.1389 </r>
       <r>    -6.5577     0.0000     0.1389 </r>
       <r>    -6.4721     0.0000     0.1389 </r>
       <r>    -6.3866     0.0000     0.1389 </r>
       <r>    -6.3010     0.0004     0.1389 </r>
       <r>    -6.2155     1.2984     0.2500 </r>
       <r>    -6.1299     0.0000     0.2500 </r>
       <r>    -6.0444     0.0000     0.2500 </r>
       <r>    -5.9588     2.5978     0.4722 </r>
       <r>    -5.8733     0.8658     0.5463 </r>
       <r>    -5.7877     0.0000     0.5463 </r>
       <r>    -5.7022     0.0000     0.5463 </r>
       <r>    -5.6166     0.0000     0.5463 </r>
       <r>    -5.5311     0.2045     0.5638 </r>
       <r>    -5.4455     0.0000     0.6019 </r>
       <r>    -5.3600     2.5977     0.8241 </r>
       <r>    -5.2745     0.6045     0.8758 </r>
       <r>    -5.1889     2.3206     1.0833 </r>
       <r>    -5.1034     2.5975     1.3056 </r>
       <r>    -5.0178     0.0000     1.3056 </r>
       <r>    -4.9323     0.0000     1.3056 </r>
       <r>    -4.8467     0.1695     1.3201 </r>
       <r>    -4.7612     3.8500     1.6494 </r>
       <r>    -4.6756     0.0000     1.8611 </r>
       <r>    -4.5901     0.3033     1.8871 </r>
       <r>    -4.5045     1.2988     2.0000 </r>
       <r>    -4.4190     0.0000     2.0000 </r>
       <r>    -4.3334     0.0000     2.0000 </r>
       <r>    -4.2479     0.0000     2.0000 </r>
       <r>    -4.1623     0.0000     2.0000 </r>
       <r>    -4.0768     0.0000     2.0000 </r>
       <r>    -3.9912     0.0000     2.0000 </r>
       <r>    -3.9057     0.0000     2.0000 </r>
       <r>    -3.8201     0.0000     2.0000 </r>
       <r>    -3.7346     0.0000     2.0000 </r>
       <r>    -3.6491     0.0000     2.0000 </r>
       <r>    -3.5635     0.0000     2.0000 </r>
       <r>    -3.4780     0.0000     2.0000 </r>
       <r>    -3.3924     0.0000     2.0000 </r>
       <r>    -3.3069     0.0000     2.0000 </r>
       <r>    -3.2213     0.0000     2.0000 </r>
       <r>    -3.1358     0.0000     2.0000 </r>
       <r>    -3.0502     0.0000     2.0000 </r>
       <r>    -2.9647     0.0000     2.0000 </r>
       <r>    -2.8791     0.0000     2.0000 </r>
       <r>    -2.7936     0.0000     2.0000 </r>
       <r>    -2.7080     0.0000     2.0000 </r>
       <r>    -2.6225     0.0000     2.0000 </r>
       <r>    -2.5369     0.0000     2.0000 </r>
       <r>    -2.4514     0.0000     2.0000 </r>
       <r>    -2.3658     0.0000     2.0000 </r>
       <r>    -2.2803     0.0000     2.0000 </r>
       <r>    -2.1948     0.0000     2.0000 </r>
       <r>    -2.1092     0.0000     2.0000 </r>
       <r>    -2.0237     0.0000     2.0000 </r>
       <r>    -1.9381     0.0000     2.0000 </r>
       <r>    -1.8526     0.0000     2.0000 </r>
       <r>    -1.7670     0.0000     2.0000 </r>
       <r>    -1.6815     0.0000     2.0000 </r>
       <r>    -1.5959     0.0000     2.0000 </r>
       <r>    -1.5104     0.0000     2.0000 </r>
       <r>    -1.4248     0.0000     2.0000 </r>
       <r>    -1.3393     0.0000     2.0000 </r>
       <r>    -1.2537     0.0000     2.0000 </r>
       <r>    -1.1682     0.4151     2.0355 </r>
       <r>    -1.0826     0.0000     2.0370 </r>
       <r>    -0.9971     0.0000     2.0370 </r>
       <r>    -0.9115     0.0000     2.0370 </r>
       <r>    -0.8260     0.0000     2.0370 </r>
       <r>    -0.7405     0.3593     2.0678 </r>
       <r>    -0.6549     2.4299     2.2756 </r>
       <r>    -0.5694     0.0000     2.2870 </r>
       <r>    -0.4838     0.0000     2.2870 </r>
       <r>    -0.3983     0.0000     2.2870 </r>
       <r>    -0.3127     0.1326     2.2984 </r>
       <r>    -0.2272     5.0633     2.7315 </r>
       <r>    -0.1416     3.8959     3.0648 </r>
       <r>    -0.0561     0.0000     3.0648 </r>
       <r>     0.0295     0.0000     3.0648 </r>
       <r>     0.1150     2.1470     3.2485 </r>
       <r>     0.2006     0.0000     3.2500 </r>
       <r>     0.2861     3.7662     3.5722 </r>
       <r>     0.3717     0.0000     3.5833 </r>
       <r>     0.4572     0.0000     3.5833 </r>
       <r>     0.5428     0.0000     3.5833 </r>
       <r>     0.6283     0.0000     3.5833 </r>
       <r>     0.7139     0.6494     3.6389 </r>
       <r>     0.7994     0.0000     3.6389 </r>
       <r>     0.8849     0.0000     3.6389 </r>
       <r>     0.9705     2.5821     3.8598 </r>
       <r>     1.0560     2.5938     4.0830 </r>
       <r>     1.1416     1.2983     4.1944 </r>
       <r>     1.2271     0.0000     4.1944 </r>
       <r>     1.3127     0.0000     4.1944 </r>
       <r>     1.3982     0.0000     4.1944 </r>
       <r>     1.4838     2.5977     4.4167 </r>
       <r>     1.5693     3.8829     4.7488 </r>
       <r>     1.6549     1.2988     4.8611 </r>
       <r>     1.7404     0.0000     4.8611 </r>
       <r>     1.8260     0.0000     4.8611 </r>
       <r>     1.9115     0.0000     4.8611 </r>
       <r>     1.9971     0.0000     4.8611 </r>
       <r>     2.0826     0.0000     4.8611 </r>
       <r>     2.1682     2.5977     5.0833 </r>
       <r>     2.2537     0.0017     5.0835 </r>
       <r>     2.3392     3.1971     5.3570 </r>
       <r>     2.4248     2.5976     5.5833 </r>
       <r>     2.5103     0.0000     5.5833 </r>
       <r>     2.5959     2.5985     5.8056 </r>
       <r>     2.6814     2.1639     5.9907 </r>
       <r>     2.7670     2.9161     6.2402 </r>
       <r>     2.8525     0.0000     6.3241 </r>
       <r>     2.9381     1.1230     6.4201 </r>
       <r>     3.0236     0.0000     6.4907 </r>
       <r>     3.1092     2.5977     6.7130 </r>
       <r>     3.1947     0.0074     6.7136 </r>
       <r>     3.2803     5.1879     7.1574 </r>
       <r>     3.3658     0.0000     7.1574 </r>
       <r>     3.4514     0.0000     7.1574 </r>
       <r>     3.5369     0.0000     7.1574 </r>
       <r>     3.6225     2.9394     7.4089 </r>
       <r>     3.7080     0.8659     7.5648 </r>
       <r>     3.7935     0.4828     7.6061 </r>
       <r>     3.8791     0.0000     7.7130 </r>
       <r>     3.9646     0.0000     7.7130 </r>
       <r>     4.0502     0.0000     7.7130 </r>
       <r>     4.1357     3.0117     7.9706 </r>
       <r>     4.2213     0.0000     7.9722 </r>
       <r>     4.3068     0.0041     7.9726 </r>
       <r>     4.3924     0.3206     8.0000 </r>
       <r>     4.4779     0.0000     8.0000 </r>
       <r>     4.5635     0.0000     8.0000 </r>
       <r>     4.6490     0.0000     8.0000 </r>
       <r>     4.7346     0.0000     8.0000 </r>
       <r>     4.8201     0.0000     8.0000 </r>
       <r>     4.9057     0.0000     8.0000 </r>
       <r>     4.9912     0.0000     8.0000 </r>
       <r>     5.0768     0.0000     8.0000 </r>
       <r>     5.1623     0.0000     8.0000 </r>
       <r>     5.2479     0.0000     8.0000 </r>
       <r>     5.3334     0.0000     8.0000 </r>
       <r>     5.4189     0.0000     8.0000 </r>
       <r>     5.5045     0.0000     8.0000 </r>
       <r>     5.5900     0.0000     8.0000 </r>
       <r>     5.6756     0.0000     8.0000 </r>
       <r>     5.7611     0.2092     8.0179 </r>
       <r>     5.8467     0.0000     8.0278 </r>
       <r>     5.9322     0.0000     8.0278 </r>
       <r>     6.0178     0.0000     8.0278 </r>
       <r>     6.1033     0.0000     8.0278 </r>
       <r>     6.1889     0.0000     8.0278 </r>
       <r>     6.2744     0.0000     8.0278 </r>
       <r>     6.3600     0.0005     8.0278 </r>
       <r>     6.4455     0.8101     8.0971 </r>
       <r>     6.5311     2.1117     8.2778 </r>
       <r>     6.6166     0.0000     8.2778 </r>
       <r>     6.7022     0.0000     8.2778 </r>
       <r>     6.7877     0.0647     8.2833 </r>
       <r>     6.8732     0.5847     8.3333 </r>
       <r>     6.9588     0.6494     8.3889 </r>
       <r>     7.0443     1.2102     8.4924 </r>
       <r>     7.1299     0.0000     8.5000 </r>
       <r>     7.2154     0.0000     8.5000 </r>
       <r>     7.3010     0.0000     8.5000 </r>
       <r>     7.3865     0.0000     8.5000 </r>
       <r>     7.4721     0.0000     8.5000 </r>
       <r>     7.5576     1.2988     8.6111 </r>
       <r>     7.6432     0.4233     8.6473 </r>
       <r>     7.7287     0.0001     8.6482 </r>
       <r>     7.8143     2.5975     8.8704 </r>
       <r>     7.8998     0.0086     8.8711 </r>
       <r>     7.9854     4.6287     9.2671 </r>
       <r>     8.0709     0.0000     9.3889 </r>
       <r>     8.1565     0.0640     9.3944 </r>
       <r>     8.2420     5.1313     9.8333 </r>
       <r>     8.3275     0.0000     9.8333 </r>
       <r>     8.4131     3.1602    10.1037 </r>
       <r>     8.4986     1.2962    10.2222 </r>
       <r>     8.5842     0.0000    10.2222 </r>
       <r>     8.6697     0.0000    10.2222 </r>
       <r>     8.7553     0.0953    10.2304 </r>
       <r>     8.8408     2.7348    10.4643 </r>
       <r>     8.9264     0.0948    10.5278 </r>
       <r>     9.0119     0.0000    10.5278 </r>
       <r>     9.0975     2.5976    10.7500 </r>
       <r>     9.1830     0.0000    10.7500 </r>
       <r>     9.2686     0.0000    10.7500 </r>
       <r>     9.3541     0.0000    10.7500 </r>
       <r>     9.4397     3.3278    11.0347 </r>
       <r>     9.5252     6.8802    11.6573 </r>
       <r>     9.6108     1.2704    11.7661 </r>
       <r>     9.6963     0.0000    11.7685 </r>
       <r>     9.7819     0.0000    11.7685 </r>
       <r>     9.8674     1.6943    11.9135 </r>
       <r>     9.9529     0.3247    11.9444 </r>
       <r>    10.0385     0.0000    11.9444 </r>
       <r>    10.1240     0.0000    11.9444 </r>
       <r>    10.2096     0.0000    11.9444 </r>
       <r>    10.2951     0.0000    11.9444 </r>
       <r>    10.3807     4.3583    12.3173 </r>
       <r>    10.4662     2.5688    12.5370 </r>
       <r>    10.5518     1.2988    12.6481 </r>
       <r>    10.6373     4.7614    13.0555 </r>
       <r>    10.7229     0.0000    13.0556 </r>
       <r>    10.8084     0.0000    13.0556 </r>
       <r>    10.8940     2.5214    13.2713 </r>
       <r>    10.9795     1.2810    13.3889 </r>
       <r>    11.0651     0.0000    13.3889 </r>
       <r>    11.1506     1.8492    13.5471 </r>
       <r>    11.2362     1.2970    13.7222 </r>
       <r>    11.3217     0.0000    13.7222 </r>
       <r>    11.4072     2.5976    13.9444 </r>
       <r>    11.4928     0.0000    13.9444 </r>
       <r>    11.5783     0.0000    13.9444 </r>
       <r>    11.6639     0.0000    13.9444 </r>
       <r>    11.7494     0.0000    13.9444 </r>
       <r>    11.8350     0.0000    13.9444 </r>
       <r>    11.9205     1.5291    14.0753 </r>
       <r>    12.0061     2.3673    14.2778 </r>
       <r>    12.0916     1.7927    14.4311 </r>
       <r>    12.1772     2.5365    14.6481 </r>
       <r>    12.2627     2.8018    14.8878 </r>
       <r>    12.3483     1.9606    15.0556 </r>
       <r>    12.4338     0.0000    15.0556 </r>
       <r>    12.5194     1.2964    15.1665 </r>
       <r>    12.6049     0.0000    15.1667 </r>
       <r>    12.6905     0.0000    15.1667 </r>
       <r>    12.7760     0.0000    15.1667 </r>
       <r>    12.8615     0.0000    15.1667 </r>
       <r>    12.9471     0.0000    15.1667 </r>
       <r>    13.0326     0.0000    15.1667 </r>
       <r>    13.1182     0.0000    15.1667 </r>
       <r>    13.2037     0.9834    15.2508 </r>
       <r>    13.2893     3.7050    15.7060 </r>
       <r>    13.3748     0.0000    15.8333 </r>
       <r>    13.4604     0.0000    15.8333 </r>
       <r>    13.5459     0.0000    15.8333 </r>
       <r>    13.6315     0.0000    15.8333 </r>
       <r>    13.7170     0.2568    15.8553 </r>
       <r>    13.8026     1.0420    15.9444 </r>
       <r>    13.8881     0.0000    15.9444 </r>
       <r>    13.9737     0.0000    15.9444 </r>
       <r>    14.0592     0.0000    15.9444 </r>
       <r>    14.1448     0.0000    15.9444 </r>
       <r>    14.2303     0.0000    15.9444 </r>
       <r>    14.3159     0.0000    15.9444 </r>
       <r>    14.4014     0.0000    15.9444 </r>
       <r>    14.4869     0.0000    15.9444 </r>
       <r>    14.5725     0.0000    15.9444 </r>
       <r>    14.6580     0.0000    15.9444 </r>
       <r>    14.7436     0.0000    15.9444 </r>
       <r>    14.8291     0.0000    15.9444 </r>
       <r>    14.9147     0.0000    15.9444 </r>
       <r>    15.0002     0.0000    15.9444 </r>
       <r>    15.0858     0.0000    15.9444 </r>
       <r>    15.1713     0.0000    15.9444 </r>
       <r>    15.2569     0.0000    15.9444 </r>
       <r>    15.3424     0.0000    15.9444 </r>
       <r>    15.4280     0.0000    15.9444 </r>
       <r>    15.5135     0.1586    15.9580 </r>
       <r>    15.5991     0.0000    15.9722 </r>
       <r>    15.6846     0.0000    15.9722 </r>
       <r>    15.7702     0.0000    15.9722 </r>
       <r>    15.8557     0.0000    15.9722 </r>
       <r>    15.9412     0.0000    15.9722 </r>
       <r>    16.0268     0.0000    15.9722 </r>
       <r>    16.1123     0.0000    15.9722 </r>
       <r>    16.1979     0.0000    15.9722 </r>
       <r>    16.2834     0.3247    16.0000 </r>
       <r>    16.3690     0.0000    16.0000 </r>
       <r>    16.4545     0.0000    16.0000 </r>
       <r>    16.5401     0.0000    16.0000 </r>
       <r>    16.6256     0.0000    16.0000 </r>
       <r>    16.7112     0.0000    16.0000 </r>
       <r>    16.7967     0.0000    16.0000 </r>
       <r>    16.8823     0.0000    16.0000 </r>
       <r>    16.9678     0.0000    16.0000 </r>
       <r>    17.0534     0.0000    16.0000 </r>
       <r>    17.1389     0.0000    16.0000 </r>
       <r>    17.2245     0.0000    16.0000 </r>
       <r>    17.3100     0.0000    16.0000 </r>
       <r>    17.3955     0.0000    16.0000 </r>
      </set>
     </set>
    </array>
   </total>
  </dos>
 </calculation>
 <structure name="finalpos" >
  <crystal>
   <varray name="basis" >
    <v>       2.71500000       2.71500000       0.00000000 </v>
    <v>       0.00000000       2.71500000       2.71500000 </v>
    <v>       2.71500000       0.00000000       2.71500000 </v>
   </varray>
   <i name="volume">     40.02575175 </i>
   <varray name="rec_basis" >
    <v>       0.18416206       0.18416206      -0.18416206 </v>
    <v>      -0.18416206       0.18416206       0.18416206 </v>
    <v>       0.18416206      -0.18416206       0.18416206 </v>
   </varray>
  </crystal>
  <varray name="positions" >
   <v>       0.00000000       0.00000000       0.00000000 </v>
  </varray>
 </structure>
</modeling>
