unknown system                          
           1
     2.715000    2.715000    0.000000
     0.000000    2.715000    2.715000
     2.715000    0.000000    2.715000
   Si
     1
Direct configuration=     1
   0.00000000  0.00000000  0.00000000
