diamond Si                              
   5.50000000000000     
     0.000000    0.500000    0.500000
     0.500000    0.000000    0.500000
     0.500000    0.500000    0.000000
   Si
     2
Direct
  0.875000  0.875000  0.875000
  0.125000  0.125000  0.125000
 
   32   32   32
  22.794      22.742      22.534      22.034      21.029      19.502      17.772      16.384      15.852      16.384    
  17.772      19.502      21.029      22.034      22.534      22.742      22.794      22.742      22.534      22.034    
  21.029      19.502      17.772      16.384      15.852      16.384      17.772      19.502      21.029      22.034    
  22.534      22.742      22.742      23.037      22.981      22.214      20.569      18.308      16.094      14.719    
  14.719      16.094      18.308      20.569      22.214      22.981      23.037      22.742      22.292      21.758    
  21.110      20.282      19.201      17.935      16.762      16.048      16.048      16.763      17.935      19.201    
  20.282      21.110      21.757      22.292      22.534      22.981      22.625      21.104      18.521      15.528    
  13.119      12.195      13.119      15.528      18.521      21.104      22.625      22.981      22.534      21.758    
  20.869      19.947      18.989      17.977      16.936      15.963      15.247      14.981      15.247      15.963    
  16.936      17.977      18.989      19.947      20.869      21.757      22.034      22.214      21.104      18.571    
  15.106      11.745      9.6703      9.6703      11.745      15.106      18.571      21.104      22.214      22.034    
  21.110      19.947      18.741      17.575      16.464      15.418      14.489      13.772      13.376      13.376    
  13.772      14.489      15.418      16.464      17.575      18.742      19.947      21.110      21.029      20.569    
  18.521      15.106      11.206      8.0973      6.9105      8.0973      11.206      15.106      18.521      20.569    
  21.029      20.282      18.989      17.575      16.201      14.940      13.818      12.856      12.099      11.608    
  11.437      11.608      12.099      12.856      13.818      14.941      16.201      17.575      18.989      20.282    
  19.502      18.308      15.528      11.745      8.0973      5.8562      5.8562      8.0973      11.745      15.528    
  18.308      19.502      19.202      17.977      16.464      14.941      13.536      12.308      11.279      10.469    
  9.9022      9.6093      9.6093      9.9022      10.469      11.279      12.308      13.536      14.941      16.464    
  17.977      19.201      17.772      16.094      13.119      9.6703      6.9105      5.8562      6.9106      9.6704    
  13.119      16.094      17.772      17.936      16.936      15.418      13.818      12.308      10.979      9.8713    
  8.9968      8.3622      7.9759      7.8460      7.9759      8.3622      8.9968      9.8713      10.979      12.308    
  13.818      15.418      16.936      17.935      16.384      14.719      12.195      9.6703      8.0973      8.0973    
  9.6704      12.195      14.719      16.384      16.763      15.963      14.489      12.856      11.279      9.8713    
  8.6891      7.7496      7.0513      6.5889      6.3584      6.3584      6.5889      7.0513      7.7496      8.6891    
  9.8713      11.279      12.856      14.489      15.963      16.763      15.852      14.719      13.119      11.745    
  11.206      11.745      13.119      14.719      15.852      16.048      15.247      13.772      12.099      10.469    
  8.9968      7.7496      6.7496      5.9935      5.4674      5.1577      5.0555      5.1578      5.4674      5.9935    
  6.7496      7.7496      8.9968      10.469      12.099      13.772      15.247      16.048      16.384      16.094    
  15.528      15.106      15.106      15.528      16.094      16.384      16.048      14.981      13.376      11.608    
  9.9022      8.3622      7.0513      5.9935      5.1839      4.6033      4.2302      4.0479      4.0479      4.2302    
  4.6033      5.1839      5.9935      7.0513      8.3622      9.9022      11.608      13.376      14.981      16.048    
  17.772      18.308      18.521      18.571      18.521      18.308      17.772      16.763      15.247      13.376    
  11.437      9.6092      7.9759      6.5889      5.4674      4.6033      3.9722      3.5456      3.2998      3.2195    
  3.2998      3.5457      3.9723      4.6033      5.4674      6.5889      7.9759      9.6093      11.437      13.376    
  15.247      16.762      19.502      20.569      21.104      21.104      20.569      19.502      17.936      15.963    
  13.772      11.608      9.6092      7.8460      6.3584      5.1577      4.2302      3.5457      3.0691      2.7694    
  2.6250      2.6250      2.7694      3.0691      3.5457      4.2302      5.1578      6.3584      7.8460      9.6093    
  11.608      13.772      15.963      17.935      21.029      22.214      22.625      22.214      21.029      19.202    
  16.936      14.489      12.099      9.9022      7.9759      6.3584      5.0555      4.0479      3.2998      2.7694    
  2.4189      2.2197      2.1551      2.2197      2.4189      2.7694      3.2998      4.0479      5.0555      6.3584    
  7.9759      9.9022      12.099      14.489      16.936      19.201      22.034      22.981      22.981      22.034    
  20.282      17.977      15.418      12.856      10.469      8.3622      6.5889      5.1577      4.0479      3.2195    
  2.6250      2.2197      1.9685      1.8484      1.8484      1.9685      2.2197      2.6250      3.2195      4.0479    
  5.1577      6.5889      8.3622      10.469      12.856      15.418      17.977      20.282      22.534      23.037    
  22.534      21.110      18.989      16.464      13.818      11.279      8.9968      7.0513      5.4674      4.2302    
  3.2998      2.6250      2.1552      1.8484      1.6754      1.6195      1.6754      1.8484      2.1551      2.6250    
  3.2998      4.2302      5.4674      7.0513      8.9968      11.279      13.818      16.464      18.989      21.110    
  22.742      22.742      21.758      19.947      17.575      14.941      12.308      9.8713      7.7496      5.9935    
  4.6033      3.5457      2.7694      2.2197      1.8484      1.6195      1.5104      1.5104      1.6195      1.8484    
  2.2197      2.7694      3.5456      4.6033      5.9935      7.7496      9.8713      12.308      14.940      17.575    
  19.947      21.758      22.794      22.292      20.869      18.741      16.201      13.536      10.979      8.6891    
  6.7496      5.1839      3.9722      3.0691      2.4189      1.9685      1.6754      1.5104      1.4571      1.5104    
  1.6754      1.9685      2.4189      3.0691      3.9722      5.1839      6.7496      8.6891      10.979      13.536    
  16.201      18.741      20.869      22.292      22.742      21.758      19.947      17.575      14.940      12.308    
  9.8713      7.7496      5.9935      4.6033      3.5456      2.7694      2.2197      1.8484      1.6195      1.5104    
  1.5104      1.6195      1.8484      2.2197      2.7694      3.5457      4.6033      5.9935      7.7496      9.8713    
  12.308      14.941      17.575      19.947      21.758      22.742      22.534      21.110      18.989      16.464    
  13.818      11.279      8.9968      7.0513      5.4674      4.2302      3.2998      2.6250      2.1551      1.8484    
  1.6754      1.6195      1.6754      1.8484      2.1552      2.6250      3.2998      4.2302      5.4674      7.0513    
  8.9968      11.279      13.818      16.464      18.989      21.110      22.534      23.037      22.034      20.282    
  17.977      15.418      12.856      10.469      8.3622      6.5889      5.1577      4.0479      3.2195      2.6250    
  2.2197      1.9685      1.8484      1.8484      1.9685      2.2197      2.6250      3.2195      4.0479      5.1577    
  6.5889      8.3622      10.469      12.856      15.418      17.977      20.282      22.034      22.981      22.981    
  21.029      19.201      16.936      14.489      12.099      9.9022      7.9759      6.3584      5.0555      4.0479    
  3.2998      2.7694      2.4189      2.2197      2.1551      2.2197      2.4189      2.7694      3.2998      4.0479    
  5.0555      6.3584      7.9759      9.9022      12.099      14.489      16.936      19.202      21.029      22.214    
  22.625      22.214      19.502      17.935      15.963      13.772      11.608      9.6093      7.8460      6.3584    
  5.1578      4.2302      3.5457      3.0691      2.7694      2.6250      2.6250      2.7694      3.0691      3.5457    
  4.2302      5.1577      6.3584      7.8460      9.6092      11.608      13.772      15.963      17.936      19.502    
  20.569      21.104      21.104      20.569      17.772      16.762      15.247      13.376      11.437      9.6093    
  7.9759      6.5889      5.4674      4.6033      3.9723      3.5457      3.2998      3.2195      3.2998      3.5456    
  3.9722      4.6033      5.4674      6.5889      7.9759      9.6092      11.437      13.376      15.247      16.763    
  17.772      18.308      18.521      18.571      18.521      18.308      16.384      16.048      14.981      13.376    
  11.608      9.9022      8.3622      7.0513      5.9935      5.1839      4.6033      4.2302      4.0479      4.0479    
  4.2302      4.6033      5.1839      5.9935      7.0513      8.3622      9.9022      11.608      13.376      14.981    
  16.048      16.384      16.094      15.528      15.106      15.106      15.528      16.094      15.852      16.048    
  15.247      13.772      12.099      10.469      8.9968      7.7496      6.7496      5.9935      5.4674      5.1578    
  5.0555      5.1577      5.4674      5.9935      6.7496      7.7496      8.9968      10.469      12.099      13.772    
  15.247      16.048      15.852      14.719      13.119      11.745      11.206      11.745      13.119      14.719    
  16.384      16.763      15.963      14.489      12.856      11.279      9.8713      8.6891      7.7496      7.0513    
  6.5889      6.3584      6.3584      6.5889      7.0513      7.7496      8.6891      9.8713      11.279      12.856    
  14.489      15.963      16.763      16.384      14.719      12.195      9.6704      8.0973      8.0973      9.6703    
  12.195      14.719      17.772      17.935      16.936      15.418      13.818      12.308      10.979      9.8713    
  8.9968      8.3622      7.9759      7.8460      7.9759      8.3622      8.9968      9.8713      10.979      12.308    
  13.818      15.418      16.936      17.936      17.772      16.094      13.119      9.6704      6.9106      5.8562    
  6.9105      9.6703      13.119      16.094      19.502      19.201      17.977      16.464      14.941      13.536    
  12.308      11.279      10.469      9.9022      9.6093      9.6093      9.9022      10.469      11.279      12.308    
  13.536      14.941      16.464      17.977      19.202      19.502      18.308      15.528      11.745      8.0973    
  5.8562      5.8562      8.0973      11.745      15.528      18.308      21.029      20.282      18.989      17.575    
  16.201      14.941      13.818      12.856      12.099      11.608      11.437      11.608      12.099      12.856    
  13.818      14.940      16.201      17.575      18.989      20.282      21.029      20.569      18.521      15.106    
  11.206      8.0973      6.9105      8.0973      11.206      15.106      18.521      20.569      22.034      21.110    
  19.947      18.742      17.575      16.464      15.418      14.489      13.772      13.376      13.376      13.772    
  14.489      15.418      16.464      17.575      18.741      19.947      21.110      22.034      22.214      21.104    
  18.571      15.106      11.745      9.6703      9.6703      11.745      15.106      18.571      21.104      22.214    
  22.534      21.757      20.869      19.947      18.989      17.977      16.936      15.963      15.247      14.981    
  15.247      15.963      16.936      17.977      18.989      19.947      20.869      21.758      22.534      22.981    
  22.625      21.104      18.521      15.528      13.119      12.195      13.119      15.528      18.521      21.104    
  22.625      22.981      22.742      22.292      21.757      21.110      20.282      19.201      17.935      16.763    
  16.048      16.048      16.762      17.935      19.201      20.282      21.110      21.758      22.292      22.742    
  23.037      22.981      22.214      20.569      18.308      16.094      14.719      14.719      16.094      18.308    
  20.569      22.214      22.981      23.037      22.742      23.037      22.981      22.214      20.569      18.308    
  16.094      14.719      14.719      16.094      18.308      20.569      22.214      22.981      23.037      22.742    
  22.292      21.758      21.110      20.282      19.201      17.935      16.762      16.048      16.048      16.763    
  17.935      19.201      20.282      21.110      21.757      22.292      23.037      23.481      23.067      21.423    
  18.668      15.490      12.939      11.961      12.939      15.490      18.668      21.423      23.067      23.481    
  23.037      22.241      21.330      20.386      19.405      18.364      17.286      16.271      15.521      15.242    
  15.521      16.271      17.286      18.364      19.405      20.386      21.330      22.241      22.981      23.067    
  21.710      18.787      14.860      11.079      8.7531      8.7531      11.079      14.860      18.787      21.710    
  23.067      22.981      22.038      20.820      19.558      18.336      17.169      16.066      15.080      14.314    
  13.889      13.889      14.314      15.080      16.066      17.169      18.336      19.558      20.820      22.038    
  22.214      21.423      18.787      14.598      9.9026      6.1917      4.7800      6.1917      9.9026      14.598    
  18.787      21.423      22.214      21.559      20.204      18.699      17.233      15.886      14.682      13.644    
  12.822      12.285      12.098      12.285      12.822      13.644      14.682      15.886      17.233      18.699    
  20.204      21.558      20.569      18.668      14.860      9.9026      5.2150      2.3596      2.3597      5.2151    
  9.9027      14.860      18.668      20.569      20.609      19.425      17.810      16.168      14.647      13.312    
  12.189      11.298      10.672      10.346      10.346      10.672      11.298      12.189      13.312      14.647    
  16.168      17.811      19.425      20.609      18.308      15.490      11.079      6.1917      2.3596     0.90760    
  2.3597      6.1918      11.079      15.490      18.308      19.169      18.436      16.880      15.159      13.515    
  12.059      10.838      9.8695      9.1625      8.7300      8.5842      8.7300      9.1625      9.8695      10.838    
  12.059      13.515      15.159      16.880      18.436      19.169      16.094      12.939      8.7531      4.7800    
  2.3597      2.3597      4.7800      8.7532      12.939      16.094      17.536      17.291      15.939      14.220    
  12.514      10.970      9.6626      8.6168      7.8354      7.3153      7.0554      7.0554      7.3154      7.8354    
  8.6168      9.6626      10.970      12.514      14.220      15.939      17.291      17.536      14.719      11.961    
  8.7531      6.1917      5.2151      6.1918      8.7532      11.961      14.719      16.224      16.236      15.078    
  13.395      11.666      10.066      8.6903      7.5768      6.7293      6.1367      5.7867      5.6709      5.7867    
  6.1367      6.7293      7.5768      8.6903      10.066      11.666      13.395      15.078      16.236      16.224    
  14.719      12.939      11.079      9.9026      9.9027      11.079      12.939      14.719      15.721      15.594    
  14.453      12.765      11.005      9.3605      7.9290      6.7573      5.8524      5.1995      4.7782      4.5720    
  4.5720      4.7782      5.1995      5.8524      6.7573      7.9289      9.3605      11.005      12.765      14.452    
  15.594      15.720      16.094      15.490      14.860      14.598      14.860      15.490      16.094      16.224    
  15.594      14.222      12.419      10.580      8.8719      7.3809      6.1528      5.1947      4.4894      4.0104    
  3.7334      3.6429      3.7334      4.0104      4.4895      5.1948      6.1528      7.3809      8.8719      10.580    
  12.419      14.222      15.594      16.224      18.308      18.668      18.787      18.787      18.668      18.308    
  17.536      16.236      14.453      12.419      10.433      8.6208      7.0496      5.7549      4.7400      3.9838    
  3.4541      3.1199      2.9586      2.9586      3.1199      3.4541      3.9838      4.7400      5.7549      7.0496    
  8.6208      10.433      12.419      14.453      16.236      17.536      20.569      21.423      21.710      21.423    
  20.569      19.169      17.291      15.078      12.765      10.580      8.6208      6.9386      5.5575      4.4735    
  3.6603      3.0800      2.6951      2.4759      2.4048      2.4759      2.6951      3.0800      3.6603      4.4735    
  5.5575      6.9386      8.6209      10.580      12.765      15.078      17.291      19.169      22.214      23.067    
  23.067      22.214      20.609      18.436      15.939      13.395      11.005      8.8719      7.0496      5.5575    
  4.3858      3.5027      2.8650      2.4288      2.1579      2.0283      2.0282      2.1578      2.4287      2.8650    
  3.5027      4.3858      5.5575      7.0496      8.8719      11.005      13.395      15.939      18.436      20.609    
  22.981      23.481      22.981      21.559      19.425      16.880      14.220      11.666      9.3605      7.3809    
  5.7549      4.4735      3.5027      2.7949      2.3006      1.9774      1.7950      1.7361      1.7950      1.9774    
  2.3006      2.7949      3.5027      4.4735      5.7549      7.3810      9.3605      11.666      14.220      16.880    
  19.425      21.559      23.037      23.037      22.038      20.204      17.810      15.159      12.514      10.066    
  7.9290      6.1528      4.7400      3.6603      2.8650      2.3006      1.9190      1.6836      1.5713      1.5713    
  1.6836      1.9189      2.3006      2.8650      3.6603      4.7400      6.1528      7.9289      10.066      12.514    
  15.159      17.810      20.204      22.038      22.742      22.241      20.820      18.699      16.168      13.515    
  10.970      8.6903      6.7573      5.1947      3.9838      3.0800      2.4288      1.9774      1.6836      1.5181    
  1.4646      1.5181      1.6836      1.9774      2.4287      3.0800      3.9837      5.1947      6.7573      8.6903    
  10.970      13.515      16.168      18.699      20.820      22.241      22.292      21.330      19.558      17.233    
  14.647      12.059      9.6626      7.5768      5.8524      4.4894      3.4541      2.6951      2.1579      1.7950    
  1.5713      1.4646      1.4646      1.5713      1.7950      2.1579      2.6951      3.4541      4.4894      5.8524    
  7.5768      9.6626      12.059      14.647      17.233      19.558      21.330      22.292      21.758      20.386    
  18.336      15.886      13.312      10.838      8.6168      6.7293      5.1995      4.0104      3.1199      2.4759    
  2.0283      1.7361      1.5713      1.5181      1.5713      1.7361      2.0283      2.4760      3.1199      4.0104    
  5.1995      6.7293      8.6168      10.838      13.312      15.886      18.336      20.386      21.758      22.241    
  21.110      19.405      17.169      14.682      12.189      9.8695      7.8354      6.1367      4.7782      3.7334    
  2.9586      2.4048      2.0282      1.7950      1.6836      1.6836      1.7950      2.0283      2.4049      2.9586    
  3.7335      4.7782      6.1367      7.8354      9.8695      12.189      14.682      17.169      19.405      21.110    
  22.038      22.038      20.282      18.364      16.066      13.644      11.298      9.1625      7.3153      5.7867    
  4.5720      3.6429      2.9586      2.4759      2.1578      1.9774      1.9189      1.9774      2.1579      2.4760    
  2.9586      3.6429      4.5720      5.7867      7.3154      9.1625      11.298      13.644      16.066      18.364    
  20.282      21.559      22.007      21.559      19.201      17.286      15.080      12.822      10.672      8.7300    
  7.0554      5.6709      4.5720      3.7334      3.1199      2.6951      2.4287      2.3006      2.3006      2.4287    
  2.6951      3.1199      3.7335      4.5720      5.6709      7.0554      8.7300      10.672      12.822      15.080    
  17.286      19.202      20.609      21.354      21.354      20.609      17.935      16.271      14.314      12.285    
  10.346      8.5842      7.0554      5.7867      4.7782      4.0104      3.4541      3.0800      2.8650      2.7949    
  2.8650      3.0800      3.4541      4.0104      4.7782      5.7867      7.0554      8.5842      10.346      12.285    
  14.314      16.271      17.935      19.169      19.915      20.163      19.915      19.169      16.762      15.521    
  13.889      12.098      10.346      8.7300      7.3154      6.1367      5.1995      4.4895      3.9838      3.6603    
  3.5027      3.5027      3.6603      3.9837      4.4894      5.1995      6.1367      7.3154      8.7300      10.346    
  12.098      13.889      15.521      16.763      17.536      17.916      18.052      18.051      17.916      17.536    
  16.048      15.242      13.889      12.285      10.672      9.1625      7.8354      6.7293      5.8524      5.1948    
  4.7400      4.4735      4.3858      4.4735      4.7400      5.1947      5.8524      6.7293      7.8354      9.1625    
  10.672      12.285      13.889      15.242      16.048      16.224      15.948      15.562      15.390      15.562    
  15.948      16.224      16.048      15.521      14.314      12.822      11.298      9.8695      8.6168      7.5768    
  6.7573      6.1528      5.7549      5.5575      5.5575      5.7549      6.1528      6.7573      7.5768      8.6168    
  9.8695      11.298      12.822      14.314      15.521      16.048      15.720      14.722      13.542      12.760    
  12.760      13.542      14.722      15.720      16.763      16.271      15.080      13.644      12.189      10.838    
  9.6626      8.6903      7.9289      7.3809      7.0496      6.9386      7.0496      7.3810      7.9289      8.6903    
  9.6626      10.838      12.189      13.644      15.080      16.271      16.763      16.224      14.722      12.765    
  11.123      10.485      11.123      12.765      14.722      16.224      17.935      17.286      16.066      14.682    
  13.312      12.059      10.970      10.066      9.3605      8.8719      8.6208      8.6209      8.8719      9.3605    
  10.066      10.970      12.059      13.312      14.682      16.066      17.286      17.935      17.536      15.948    
  13.542      11.123      9.6094      9.6094      11.123      13.542      15.948      17.536      19.201      18.364    
  17.169      15.886      14.647      13.515      12.514      11.666      11.005      10.580      10.433      10.580    
  11.005      11.666      12.514      13.515      14.647      15.886      17.169      18.364      19.202      19.169    
  17.916      15.562      12.760      10.485      9.6094      10.485      12.760      15.562      17.916      19.169    
  20.282      19.405      18.336      17.233      16.168      15.159      14.220      13.395      12.765      12.419    
  12.419      12.765      13.395      14.220      15.159      16.168      17.233      18.336      19.405      20.282    
  20.609      19.915      18.052      15.390      12.760      11.123      11.123      12.760      15.390      18.052    
  19.915      20.609      21.110      20.386      19.558      18.699      17.811      16.880      15.939      15.078    
  14.452      14.222      14.453      15.078      15.939      16.880      17.810      18.699      19.558      20.386    
  21.110      21.559      21.354      20.163      18.051      15.562      13.542      12.765      13.542      15.562    
  18.052      20.163      21.354      21.558      21.757      21.330      20.820      20.204      19.425      18.436    
  17.291      16.236      15.594      15.594      16.236      17.291      18.436      19.425      20.204      20.820    
  21.330      21.758      22.038      22.007      21.354      19.915      17.916      15.948      14.722      14.722    
  15.948      17.916      19.915      21.354      22.006      22.038      22.292      22.241      22.038      21.558    
  20.609      19.169      17.536      16.224      15.720      16.224      17.536      19.169      20.609      21.559    
  22.038      22.241      22.292      22.241      22.038      21.559      20.609      19.169      17.536      16.224    
  15.720      16.224      17.536      19.169      20.609      21.558      22.038      22.241      22.534      22.981    
  22.625      21.104      18.521      15.528      13.119      12.195      13.119      15.528      18.521      21.104    
  22.625      22.981      22.534      21.758      20.869      19.947      18.989      17.977      16.936      15.963    
  15.247      14.981      15.247      15.963      16.936      17.977      18.989      19.947      20.869      21.757    
  22.981      23.067      21.710      18.787      14.860      11.079      8.7531      8.7531      11.079      14.860    
  18.787      21.710      23.067      22.981      22.038      20.820      19.558      18.336      17.169      16.066    
  15.080      14.314      13.889      13.889      14.314      15.080      16.066      17.169      18.336      19.558    
  20.820      22.038      22.625      21.710      18.857      14.384      9.3978      5.4670      3.9731      5.4670    
  9.3978      14.384      18.857      21.710      22.625      22.006      20.632      19.093      17.595      16.218    
  14.985      13.920      13.075      12.522      12.329      12.522      13.075      13.920      14.985      16.218    
  17.595      19.093      20.632      22.006      21.104      18.787      14.384      8.7502      3.4646     0.25626    
 0.25625      3.4645      8.7502      14.384      18.787      21.104      21.354      20.207      18.538      16.830    
  15.244      13.852      12.677      11.743      11.084      10.741      10.741      11.084      11.743      12.677    
  13.852      15.245      16.830      18.538      20.207      21.354      18.521      14.860      9.3978      3.4646    
 -1.1459     -2.8864     -1.1459      3.4646      9.3978      14.860      18.521      19.915      19.407      17.848    
  16.046      14.311      12.770      11.474      10.443      9.6878      9.2245      9.0681      9.2245      9.6878    
  10.443      11.474      12.770      14.311      16.046      17.848      19.407      19.915      15.528      11.079    
  5.4670     0.25626     -2.8864     -2.8864     0.25629      5.4671      11.079      15.528      17.916      18.200    
  17.010      15.239      13.437      11.790      10.388      9.2627      8.4186      7.8552      7.5729      7.5730    
  7.8552      8.4186      9.2626      10.388      11.790      13.437      15.239      17.010      18.200      17.916    
  13.119      8.7531      3.9731     0.25625     -1.1459     0.25629      3.9732      8.7532      13.119      15.948    
  16.828      16.072      14.438      12.637      10.935      9.4550      8.2491      7.3269      6.6800      6.2968    
  6.1700      6.2969      6.6800      7.3269      8.2490      9.4550      10.935      12.637      14.438      16.072    
  16.828      15.948      12.195      8.7531      5.4670      3.4645      3.4646      5.4671      8.7532      12.195    
  14.722      15.724      15.217      13.727      11.946      10.221      8.6889      7.4199      6.4325      5.7169    
  5.2537      5.0265      5.0265      5.2537      5.7169      6.4326      7.4199      8.6889      10.221      11.946    
  13.727      15.217      15.724      14.722      13.119      11.079      9.3978      8.7502      9.3978      11.079    
  13.119      14.722      15.299      14.700      13.223      11.426      9.6731      8.0986      6.7775      5.7352    
  4.9625      4.4355      4.1302      4.0303      4.1302      4.4355      4.9625      5.7352      6.7775      8.0985    
  9.6731      11.426      13.223      14.700      15.299      14.722      15.528      14.860      14.384      14.384    
  14.860      15.528      15.948      15.724      14.700      13.039      11.144      9.3250      7.6947      6.3197    
  5.2252      4.4018      3.8218      3.4547      3.2773      3.2773      3.4548      3.8218      4.4018      5.2252    
  6.3198      7.6947      9.3250      11.144      13.039      14.700      15.724      15.948      18.521      18.787    
  18.857      18.787      18.521      17.916      16.828      15.217      13.223      11.144      9.2052      7.4889    
  6.0452      4.8920      4.0167      3.3877      2.9688      2.7299      2.6523      2.7299      2.9688      3.3877    
  4.0167      4.8920      6.0453      7.4889      9.2052      11.144      13.223      15.217      16.828      17.916    
  21.104      21.710      21.710      21.104      19.915      18.200      16.072      13.727      11.426      9.3250    
  7.4889      5.9537      4.7275      3.7920      3.1112      2.6434      2.3524      2.2130      2.2130      2.3523    
  2.6434      3.1112      3.7921      4.7275      5.9537      7.4889      9.3251      11.426      13.727      16.072    
  18.200      19.915      22.625      23.067      22.625      21.354      19.407      17.010      14.438      11.946    
  9.6731      7.6947      6.0452      4.7275      3.7183      2.9769      2.4569      2.1162      1.9238      1.8616    