diamond Si                              
   5.50000000000000     
     0.000000    0.500000    0.500000
     0.500000    0.000000    0.500000
     0.500000    0.500000    0.000000
   Si
     2
Direct
  0.875000  0.875000  0.875000
  0.125000  0.125000  0.125000
 
   32   32   32
 0.22794188266E+02 0.22741971270E+02 0.22534246151E+02 0.22033944104E+02 0.21028934317E+02
 0.19502440163E+02 0.17772220971E+02 0.16384242448E+02 0.15851780049E+02 0.16384239190E+02
 0.17772211268E+02 0.19502431702E+02 0.21028947171E+02 0.22033991155E+02 0.22534319260E+02
 0.22742052824E+02 0.22794269828E+02 0.22742052824E+02 0.22534319260E+02 0.22033991155E+02
 0.21028947171E+02 0.19502431702E+02 0.17772211268E+02 0.16384239190E+02 0.15851780049E+02
 0.16384242448E+02 0.17772220971E+02 0.19502440163E+02 0.21028934317E+02 0.22033944104E+02
 0.22534246151E+02 0.22741971270E+02 0.22741971270E+02 0.23036972029E+02 0.22981243735E+02
 0.22214201174E+02 0.20568771385E+02 0.18307954842E+02 0.16094094877E+02 0.14719115211E+02
 0.14719108763E+02 0.16094082487E+02 0.18307951818E+02 0.20568791639E+02 0.22214252628E+02
 0.22981324838E+02 0.23037067624E+02 0.22742057278E+02 0.22292386474E+02 0.21757514018E+02
 0.21110456508E+02 0.20281812050E+02 0.19201464805E+02 0.17935440517E+02 0.16762489779E+02
 0.16048305394E+02 0.16048314572E+02 0.16762511839E+02 0.17935462800E+02 0.19201476617E+02
 0.20281810961E+02 0.21110443076E+02 0.21757482829E+02 0.22292327821E+02 0.22534246151E+02
 0.22981243735E+02 0.22624721720E+02 0.21103834302E+02 0.18521291373E+02 0.15528167636E+02
 0.13118957619E+02 0.12194864949E+02 0.13118930128E+02 0.15528138264E+02 0.18521287447E+02
 0.21103868647E+02 0.22624794543E+02 0.22981342069E+02 0.22534338301E+02 0.21757530664E+02
 0.20868526990E+02 0.19946631232E+02 0.18989414918E+02 0.17977070825E+02 0.16935946264E+02
 0.15962728339E+02 0.15246711413E+02 0.14981050665E+02 0.15246700921E+02 0.15962715987E+02
 0.16935945966E+02 0.17977095017E+02 0.18989463137E+02 0.19946680017E+02 0.20868538440E+02
 0.21757482829E+02 0.22033944104E+02 0.22214201174E+02 0.21103834302E+02 0.18570521862E+02
 0.15105748669E+02 0.11744626902E+02 0.96703457025E+01 0.96703340063E+01 0.11744600418E+02
 0.15105726803E+02 0.18570524494E+02 0.21103874828E+02 0.22214277404E+02 0.22034028106E+02
 0.21110490945E+02 0.19946663925E+02 0.18741456937E+02 0.17574993205E+02 0.16463711472E+02
 0.15418344533E+02 0.14488948028E+02 0.13771768352E+02 0.13375928195E+02 0.13375898862E+02
 0.13771704598E+02 0.14488900016E+02 0.15418347661E+02 0.16463767947E+02 0.17575077106E+02
 0.18741526454E+02 0.19946680017E+02 0.21110443076E+02 0.21028934317E+02 0.20568771385E+02
 0.18521291373E+02 0.15105748669E+02 0.11205976421E+02 0.80973106088E+01 0.69105371807E+01
 0.80972973256E+01 0.11205966257E+02 0.15105757503E+02 0.18521323385E+02 0.20568820946E+02
 0.21028987136E+02 0.20281843982E+02 0.18989457378E+02 0.17575035604E+02 0.16201155649E+02
 0.14940484280E+02 0.13818203917E+02 0.12856460347E+02 0.12099163839E+02 0.11607735260E+02
 0.11436666580E+02 0.11607699090E+02 0.12099117351E+02 0.12856432479E+02 0.13818208980E+02
 0.14940520791E+02 0.16201208233E+02 0.17575077106E+02 0.18989463137E+02 0.20281810961E+02
 0.19502440163E+02 0.18307954842E+02 0.15528167636E+02 0.11744626902E+02 0.80973106088E+01
 0.58561739725E+01 0.58561771983E+01 0.80973214894E+01 0.11744649029E+02 0.15528205231E+02
 0.18308006316E+02 0.19502491215E+02 0.19201505353E+02 0.17977092577E+02 0.16463752029E+02
 0.14940518716E+02 0.13535738869E+02 0.12307635482E+02 0.11279155347E+02 0.10468565872E+02
 0.99021742097E+01 0.96092670711E+01 0.96092605105E+01 0.99021607173E+01 0.10468552474E+02
 0.11279137816E+02 0.12307610646E+02 0.13535719730E+02 0.14940520791E+02 0.16463767947E+02
 0.17977095017E+02 0.19201476617E+02 0.17772220971E+02 0.16094094877E+02 0.13118957619E+02
 0.96703457025E+01 0.69105371807E+01 0.58561771983E+01 0.69105770103E+01 0.96704064349E+01
 0.13119018048E+02 0.16094146460E+02 0.17772265436E+02 0.17935500723E+02 0.16935974163E+02
 0.15418368538E+02 0.13818233402E+02 0.12307645438E+02 0.10979112724E+02 0.98713407253E+01
 0.89968234552E+01 0.83622314181E+01 0.79759324052E+01 0.78460365665E+01 0.79759206373E+01
 0.83622137824E+01 0.89968010762E+01 0.98713092854E+01 0.10979074128E+02 0.12307610646E+02
 0.13818208980E+02 0.15418347661E+02 0.16935945966E+02 0.17935462800E+02 0.16384242448E+02
 0.14719115211E+02 0.12194864949E+02 0.96703340063E+01 0.80972973256E+01 0.80973214894E+01
 0.96704064349E+01 0.12194970522E+02 0.14719212820E+02 0.16384296360E+02 0.16762532016E+02
 0.15962744761E+02 0.14488956219E+02 0.12856490724E+02 0.11279170358E+02 0.98713258423E+01
 0.86891459938E+01 0.77495876785E+01 0.70513060895E+01 0.65888538698E+01 0.63584229040E+01
 0.63584297291E+01 0.65888579748E+01 0.70512852035E+01 0.77495505325E+01 0.86891187483E+01
 0.98713092854E+01 0.11279137816E+02 0.12856432479E+02 0.14488900016E+02 0.15962715987E+02
 0.16762511839E+02 0.15851780049E+02 0.14719108763E+02 0.13118930128E+02 0.11744600418E+02
 0.11205966257E+02 0.11744649029E+02 0.13119018048E+02 0.14719212820E+02 0.15851869506E+02
 0.16048371435E+02 0.15246733040E+02 0.13771733439E+02 0.12099153784E+02 0.10468589703E+02
 0.89968289631E+01 0.77495664176E+01 0.67496014868E+01 0.59934566454E+01 0.54673819289E+01
 0.51577340789E+01 0.50555443291E+01 0.51577599002E+01 0.54674121102E+01 0.59934718132E+01
 0.67495988042E+01 0.77495505325E+01 0.89968010762E+01 0.10468552474E+02 0.12099117351E+02
 0.13771704598E+02 0.15246700921E+02 0.16048314572E+02 0.16384239190E+02 0.16094082487E+02
 0.15528138264E+02 0.15105726803E+02 0.15105757503E+02 0.15528205231E+02 0.16094146460E+02
 0.16384296360E+02 0.16048371435E+02 0.14981112896E+02 0.13375923358E+02 0.11607685496E+02
 0.99021526302E+01 0.83622385337E+01 0.70513119309E+01 0.59934532761E+01 0.51838701851E+01
 0.46032894930E+01 0.42301642361E+01 0.40479237271E+01 0.40479276852E+01 0.42301900407E+01
 0.46033484870E+01 0.51839321922E+01 0.59934718132E+01 0.70512852035E+01 0.83622137824E+01
 0.99021607173E+01 0.11607699090E+02 0.13375898862E+02 0.14981050665E+02 0.16048305394E+02
 0.17772211268E+02 0.18307951818E+02 0.18521287447E+02 0.18570524494E+02 0.18521323385E+02
 0.18308006316E+02 0.17772265436E+02 0.16762532016E+02 0.15246733040E+02 0.13375923358E+02
 0.11436641362E+02 0.96092336645E+01 0.79759061395E+01 0.65888507642E+01 0.54673959877E+01
 0.46033158197E+01 0.39722154295E+01 0.35456440044E+01 0.32997532092E+01 0.32194845829E+01
 0.32997723697E+01 0.35456790204E+01 0.39722564989E+01 0.46033484870E+01 0.54674121102E+01
 0.65888579748E+01 0.79759206373E+01 0.96092605105E+01 0.11436666580E+02 0.13375928195E+02
 0.15246711413E+02 0.16762489779E+02 0.19502431702E+02 0.20568791639E+02 0.21103868647E+02
 0.21103874828E+02 0.20568820946E+02 0.19502491215E+02 0.17935500723E+02 0.15962744761E+02
 0.13771733439E+02 0.11607685496E+02 0.96092336645E+01 0.78460121958E+01 0.63583978924E+01
 0.51577323403E+01 0.42301882437E+01 0.35456914881E+01 0.30690787642E+01 0.27693841064E+01
 0.26249590792E+01 0.26249782636E+01 0.27694164960E+01 0.30690866400E+01 0.35456790204E+01
 0.42301900407E+01 0.51577599002E+01 0.63584297291E+01 0.78460365665E+01 0.96092670711E+01
 0.11607735260E+02 0.13771768352E+02 0.15962728339E+02 0.17935440517E+02 0.21028947171E+02
 0.22214252628E+02 0.22624794543E+02 0.22214277404E+02 0.21028987136E+02 0.19201505353E+02
 0.16935974163E+02 0.14488956219E+02 0.12099153784E+02 0.99021526302E+01 0.79759061395E+01
 0.63583978924E+01 0.50555274838E+01 0.40479255229E+01 0.32997840341E+01 0.27694319116E+01
 0.24188675962E+01 0.22196999497E+01 0.21551332852E+01 0.22196978004E+01 0.24188584713E+01
 0.27694164960E+01 0.32997723697E+01 0.40479276852E+01 0.50555443291E+01 0.63584229040E+01
 0.79759324052E+01 0.99021742097E+01 0.12099163839E+02 0.14488948028E+02 0.16935946264E+02
 0.19201464805E+02 0.22033991155E+02 0.22981324838E+02 0.22981342069E+02 0.22034028106E+02
 0.20281843982E+02 0.17977092577E+02 0.15418368538E+02 0.12856490724E+02 0.10468589703E+02
 0.83622385337E+01 0.65888507642E+01 0.51577323403E+01 0.40479255229E+01 0.32194887861E+01
 0.26249926949E+01 0.22197304747E+01 0.19685275678E+01 0.18484168091E+01 0.18483985619E+01
 0.19684881082E+01 0.22196978004E+01 0.26249782636E+01 0.32194845829E+01 0.40479237271E+01
 0.51577340789E+01 0.65888538698E+01 0.83622314181E+01 0.10468565872E+02 0.12856460347E+02
 0.15418344533E+02 0.17977070825E+02 0.20281812050E+02 0.22534319260E+02 0.23037067624E+02
 0.22534338301E+02 0.21110490945E+02 0.18989457378E+02 0.16463752029E+02 0.13818233402E+02
 0.11279170358E+02 0.89968289631E+01 0.70513119309E+01 0.54673959877E+01 0.42301882437E+01
 0.32997840341E+01 0.26249926949E+01 0.21551662225E+01 0.18484262918E+01 0.16754301438E+01
 0.16195268127E+01 0.16754138164E+01 0.18483985619E+01 0.21551332852E+01 0.26249590792E+01
 0.32997532092E+01 0.42301642361E+01 0.54673819289E+01 0.70513060895E+01 0.89968234552E+01
 0.11279155347E+02 0.13818203917E+02 0.16463711472E+02 0.18989414918E+02 0.21110456508E+02
 0.22742052824E+02 0.22742057278E+02 0.21757530664E+02 0.19946663925E+02 0.17575035604E+02
 0.14940518716E+02 0.12307645438E+02 0.98713258423E+01 0.77495664176E+01 0.59934532761E+01
 0.46033158197E+01 0.35456914881E+01 0.27694319116E+01 0.22197304747E+01 0.18484262918E+01
 0.16195241501E+01 0.15103758265E+01 0.15103785033E+01 0.16195268127E+01 0.18484168091E+01
 0.22196999497E+01 0.27693841064E+01 0.35456440044E+01 0.46032894930E+01 0.59934566454E+01
 0.77495876785E+01 0.98713407253E+01 0.12307635482E+02 0.14940484280E+02 0.17574993205E+02
 0.19946631232E+02 0.21757514018E+02 0.22794269828E+02 0.22292386474E+02 0.20868526990E+02
 0.18741456937E+02 0.16201155649E+02 0.13535738869E+02 0.10979112724E+02 0.86891459938E+01
 0.67496014868E+01 0.51838701851E+01 0.39722154295E+01 0.30690787642E+01 0.24188675962E+01
 0.19685275678E+01 0.16754301438E+01 0.15103758265E+01 0.14570713676E+01 0.15103758265E+01
 0.16754301438E+01 0.19685275678E+01 0.24188675962E+01 0.30690787642E+01 0.39722154295E+01
 0.51838701851E+01 0.67496014868E+01 0.86891459938E+01 0.10979112724E+02 0.13535738869E+02
 0.16201155649E+02 0.18741456937E+02 0.20868526990E+02 0.22292386474E+02 0.22742052824E+02
 0.21757514018E+02 0.19946631232E+02 0.17574993205E+02 0.14940484280E+02 0.12307635482E+02
 0.98713407253E+01 0.77495876785E+01 0.59934566454E+01 0.46032894930E+01 0.35456440044E+01
 0.27693841064E+01 0.22196999497E+01 0.18484168091E+01 0.16195268127E+01 0.15103785033E+01
 0.15103758265E+01 0.16195241501E+01 0.18484262918E+01 0.22197304747E+01 0.27694319116E+01
 0.35456914881E+01 0.46033158197E+01 0.59934532761E+01 0.77495664176E+01 0.98713258423E+01
 0.12307645438E+02 0.14940518716E+02 0.17575035604E+02 0.19946663925E+02 0.21757530664E+02
 0.22742057278E+02 0.22534319260E+02 0.21110456508E+02 0.18989414918E+02 0.16463711472E+02
 0.13818203917E+02 0.11279155347E+02 0.89968234552E+01 0.70513060895E+01 0.54673819289E+01
 0.42301642361E+01 0.32997532092E+01 0.26249590792E+01 0.21551332852E+01 0.18483985619E+01
 0.16754138164E+01 0.16195268127E+01 0.16754301438E+01 0.18484262918E+01 0.21551662225E+01
 0.26249926949E+01 0.32997840341E+01 0.42301882437E+01 0.54673959877E+01 0.70513119309E+01
 0.89968289631E+01 0.11279170358E+02 0.13818233402E+02 0.16463752029E+02 0.18989457378E+02
 0.21110490945E+02 0.22534338301E+02 0.23037067624E+02 0.22033991155E+02 0.20281812050E+02
 0.17977070825E+02 0.15418344533E+02 0.12856460347E+02 0.10468565872E+02 0.83622314181E+01
 0.65888538698E+01 0.51577340789E+01 0.40479237271E+01 0.32194845829E+01 0.26249782636E+01
 0.22196978004E+01 0.19684881082E+01 0.18483985619E+01 0.18484168091E+01 0.19685275678E+01
 0.22197304747E+01 0.26249926949E+01 0.32194887861E+01 0.40479255229E+01 0.51577323403E+01
 0.65888507642E+01 0.83622385337E+01 0.10468589703E+02 0.12856490724E+02 0.15418368538E+02
 0.17977092577E+02 0.20281843982E+02 0.22034028106E+02 0.22981342069E+02 0.22981324838E+02
 0.21028947171E+02 0.19201464805E+02 0.16935946264E+02 0.14488948028E+02 0.12099163839E+02
 0.99021742097E+01 0.79759324052E+01 0.63584229040E+01 0.50555443291E+01 0.40479276852E+01
 0.32997723697E+01 0.27694164960E+01 0.24188584713E+01 0.22196978004E+01 0.21551332852E+01
 0.22196999497E+01 0.24188675962E+01 0.27694319116E+01 0.32997840341E+01 0.40479255229E+01
 0.50555274838E+01 0.63583978924E+01 0.79759061395E+01 0.99021526302E+01 0.12099153784E+02
 0.14488956219E+02 0.16935974163E+02 0.19201505353E+02 0.21028987136E+02 0.22214277404E+02
 0.22624794543E+02 0.22214252628E+02 0.19502431702E+02 0.17935440517E+02 0.15962728339E+02
 0.13771768352E+02 0.11607735260E+02 0.96092670711E+01 0.78460365665E+01 0.63584297291E+01
 0.51577599002E+01 0.42301900407E+01 0.35456790204E+01 0.30690866400E+01 0.27694164960E+01
 0.26249782636E+01 0.26249590792E+01 0.27693841064E+01 0.30690787642E+01 0.35456914881E+01
 0.42301882437E+01 0.51577323403E+01 0.63583978924E+01 0.78460121958E+01 0.96092336645E+01
 0.11607685496E+02 0.13771733439E+02 0.15962744761E+02 0.17935500723E+02 0.19502491215E+02
 0.20568820946E+02 0.21103874828E+02 0.21103868647E+02 0.20568791639E+02 0.17772211268E+02
 0.16762489779E+02 0.15246711413E+02 0.13375928195E+02 0.11436666580E+02 0.96092605105E+01
 0.79759206373E+01 0.65888579748E+01 0.54674121102E+01 0.46033484870E+01 0.39722564989E+01
 0.35456790204E+01 0.32997723697E+01 0.32194845829E+01 0.32997532092E+01 0.35456440044E+01
 0.39722154295E+01 0.46033158197E+01 0.54673959877E+01 0.65888507642E+01 0.79759061395E+01
 0.96092336645E+01 0.11436641362E+02 0.13375923358E+02 0.15246733040E+02 0.16762532016E+02
 0.17772265436E+02 0.18308006316E+02 0.18521323385E+02 0.18570524494E+02 0.18521287447E+02
 0.18307951818E+02 0.16384239190E+02 0.16048305394E+02 0.14981050665E+02 0.13375898862E+02
 0.11607699090E+02 0.99021607173E+01 0.83622137824E+01 0.70512852035E+01 0.59934718132E+01
 0.51839321922E+01 0.46033484870E+01 0.42301900407E+01 0.40479276852E+01 0.40479237271E+01
 0.42301642361E+01 0.46032894930E+01 0.51838701851E+01 0.59934532761E+01 0.70513119309E+01
 0.83622385337E+01 0.99021526302E+01 0.11607685496E+02 0.13375923358E+02 0.14981112896E+02
 0.16048371435E+02 0.16384296360E+02 0.16094146460E+02 0.15528205231E+02 0.15105757503E+02
 0.15105726803E+02 0.15528138264E+02 0.16094082487E+02 0.15851780049E+02 0.16048314572E+02
 0.15246700921E+02 0.13771704598E+02 0.12099117351E+02 0.10468552474E+02 0.89968010762E+01
 0.77495505325E+01 0.67495988042E+01 0.59934718132E+01 0.54674121102E+01 0.51577599002E+01
 0.50555443291E+01 0.51577340789E+01 0.54673819289E+01 0.59934566454E+01 0.67496014868E+01
 0.77495664176E+01 0.89968289631E+01 0.10468589703E+02 0.12099153784E+02 0.13771733439E+02
 0.15246733040E+02 0.16048371435E+02 0.15851869506E+02 0.14719212820E+02 0.13119018048E+02
 0.11744649029E+02 0.11205966257E+02 0.11744600418E+02 0.13118930128E+02 0.14719108763E+02
 0.16384242448E+02 0.16762511839E+02 0.15962715987E+02 0.14488900016E+02 0.12856432479E+02
 0.11279137816E+02 0.98713092854E+01 0.86891187483E+01 0.77495505325E+01 0.70512852035E+01
 0.65888579748E+01 0.63584297291E+01 0.63584229040E+01 0.65888538698E+01 0.70513060895E+01
 0.77495876785E+01 0.86891459938E+01 0.98713258423E+01 0.11279170358E+02 0.12856490724E+02
 0.14488956219E+02 0.15962744761E+02 0.16762532016E+02 0.16384296360E+02 0.14719212820E+02
 0.12194970522E+02 0.96704064349E+01 0.80973214894E+01 0.80972973256E+01 0.96703340063E+01
 0.12194864949E+02 0.14719115211E+02 0.17772220971E+02 0.17935462800E+02 0.16935945966E+02
 0.15418347661E+02 0.13818208980E+02 0.12307610646E+02 0.10979074128E+02 0.98713092854E+01
 0.89968010762E+01 0.83622137824E+01 0.79759206373E+01 0.78460365665E+01 0.79759324052E+01
 0.83622314181E+01 0.89968234552E+01 0.98713407253E+01 0.10979112724E+02 0.12307645438E+02
 0.13818233402E+02 0.15418368538E+02 0.16935974163E+02 0.17935500723E+02 0.17772265436E+02
 0.16094146460E+02 0.13119018048E+02 0.96704064349E+01 0.69105770103E+01 0.58561771983E+01
 0.69105371807E+01 0.96703457025E+01 0.13118957619E+02 0.16094094877E+02 0.19502440163E+02
 0.19201476617E+02 0.17977095017E+02 0.16463767947E+02 0.14940520791E+02 0.13535719730E+02
 0.12307610646E+02 0.11279137816E+02 0.10468552474E+02 0.99021607173E+01 0.96092605105E+01
 0.96092670711E+01 0.99021742097E+01 0.10468565872E+02 0.11279155347E+02 0.12307635482E+02
 0.13535738869E+02 0.14940518716E+02 0.16463752029E+02 0.17977092577E+02 0.19201505353E+02
 0.19502491215E+02 0.18308006316E+02 0.15528205231E+02 0.11744649029E+02 0.80973214894E+01
 0.58561771983E+01 0.58561739725E+01 0.80973106088E+01 0.11744626902E+02 0.15528167636E+02
 0.18307954842E+02 0.21028934317E+02 0.20281810961E+02 0.18989463137E+02 0.17575077106E+02
 0.16201208233E+02 0.14940520791E+02 0.13818208980E+02 0.12856432479E+02 0.12099117351E+02
 0.11607699090E+02 0.11436666580E+02 0.11607735260E+02 0.12099163839E+02 0.12856460347E+02
 0.13818203917E+02 0.14940484280E+02 0.16201155649E+02 0.17575035604E+02 0.18989457378E+02
 0.20281843982E+02 0.21028987136E+02 0.20568820946E+02 0.18521323385E+02 0.15105757503E+02
 0.11205966257E+02 0.80972973256E+01 0.69105371807E+01 0.80973106088E+01 0.11205976421E+02
 0.15105748669E+02 0.18521291373E+02 0.20568771385E+02 0.22033944104E+02 0.21110443076E+02
 0.19946680017E+02 0.18741526454E+02 0.17575077106E+02 0.16463767947E+02 0.15418347661E+02
 0.14488900016E+02 0.13771704598E+02 0.13375898862E+02 0.13375928195E+02 0.13771768352E+02
 0.14488948028E+02 0.15418344533E+02 0.16463711472E+02 0.17574993205E+02 0.18741456937E+02
 0.19946663925E+02 0.21110490945E+02 0.22034028106E+02 0.22214277404E+02 0.21103874828E+02
 0.18570524494E+02 0.15105726803E+02 0.11744600418E+02 0.96703340063E+01 0.96703457025E+01
 0.11744626902E+02 0.15105748669E+02 0.18570521862E+02 0.21103834302E+02 0.22214201174E+02
 0.22534246151E+02 0.21757482829E+02 0.20868538440E+02 0.19946680017E+02 0.18989463137E+02
 0.17977095017E+02 0.16935945966E+02 0.15962715987E+02 0.15246700921E+02 0.14981050665E+02
 0.15246711413E+02 0.15962728339E+02 0.16935946264E+02 0.17977070825E+02 0.18989414918E+02
 0.19946631232E+02 0.20868526990E+02 0.21757530664E+02 0.22534338301E+02 0.22981342069E+02
 0.22624794543E+02 0.21103868647E+02 0.18521287447E+02 0.15528138264E+02 0.13118930128E+02
 0.12194864949E+02 0.13118957619E+02 0.15528167636E+02 0.18521291373E+02 0.21103834302E+02
 0.22624721720E+02 0.22981243735E+02 0.22741971270E+02 0.22292327821E+02 0.21757482829E+02
 0.21110443076E+02 0.20281810961E+02 0.19201476617E+02 0.17935462800E+02 0.16762511839E+02
 0.16048314572E+02 0.16048305394E+02 0.16762489779E+02 0.17935440517E+02 0.19201464805E+02
 0.20281812050E+02 0.21110456508E+02 0.21757514018E+02 0.22292386474E+02 0.22742057278E+02
 0.23037067624E+02 0.22981324838E+02 0.22214252628E+02 0.20568791639E+02 0.18307951818E+02
 0.16094082487E+02 0.14719108763E+02 0.14719115211E+02 0.16094094877E+02 0.18307954842E+02
 0.20568771385E+02 0.22214201174E+02 0.22981243735E+02 0.23036972029E+02 0.22741969723E+02
 0.23036969682E+02 0.22981241924E+02 0.22214199962E+02 0.20568769952E+02 0.18307953510E+02
 0.16094094666E+02 0.14719115819E+02 0.14719109053E+02 0.16094082567E+02 0.18307952591E+02
 0.20568792764E+02 0.22214252996E+02 0.22981324640E+02 0.23037067893E+02 0.22742057812E+02
 0.22292386277E+02 0.21757513349E+02 0.21110456433E+02 0.20281812399E+02 0.19201464628E+02
 0.17935440132E+02 0.16762490286E+02 0.16048306598E+02 0.16048315433E+02 0.16762512527E+02
 0.17935464237E+02 0.19201478413E+02 0.20281811879E+02 0.21110443124E+02 0.21757482856E+02
 0.22292327532E+02 0.23036969682E+02 0.23481231269E+02 0.23066590587E+02 0.21423130887E+02
 0.18667621697E+02 0.15490124163E+02 0.12938529367E+02 0.11960786503E+02 0.12938546590E+02
 0.15490158709E+02 0.18667667508E+02 0.21423182567E+02 0.23066656254E+02 0.23481320790E+02
 0.23037067963E+02 0.22240878803E+02 0.21329982405E+02 0.20385965844E+02 0.19404625704E+02
 0.18363526679E+02 0.17285540363E+02 0.16270506751E+02 0.15520936962E+02 0.15242410388E+02
 0.15520936679E+02 0.16270508080E+02 0.17285547801E+02 0.18363546296E+02 0.19404656646E+02
 0.20385988718E+02 0.21329965626E+02 0.22240809311E+02 0.22981241924E+02 0.23066590587E+02
 0.21709515732E+02 0.18787323128E+02 0.14859774469E+02 0.11078612044E+02 0.87531359211E+01
 0.87531415658E+01 0.11078629460E+02 0.14859801853E+02 0.18787357727E+02 0.21709563434E+02
 0.23066662227E+02 0.22981328679E+02 0.22037816265E+02 0.20819743972E+02 0.19557788222E+02
 0.18336105315E+02 0.17169266061E+02 0.16066169978E+02 0.15079784201E+02 0.14314174754E+02
 0.13888841792E+02 0.13888828340E+02 0.14314144906E+02 0.15079761767E+02 0.16066177318E+02
 0.17169311865E+02 0.18336173977E+02 0.19557839746E+02 0.20819739319E+02 0.22037752495E+02
 0.22214199962E+02 0.21423130887E+02 0.18787323128E+02 0.14597751142E+02 0.99025983092E+01
 0.61917039939E+01 0.47799570191E+01 0.61917345959E+01 0.99026298748E+01 0.14597762847E+02
 0.18787330810E+02 0.21423165454E+02 0.22214261656E+02 0.21558508688E+02 0.20204226132E+02
 0.18698630410E+02 0.17233136638E+02 0.15886004911E+02 0.14682109885E+02 0.13644237090E+02
 0.12821674200E+02 0.12285097617E+02 0.12097776620E+02 0.12285047042E+02 0.12821617075E+02
 0.13644216498E+02 0.14682137025E+02 0.15886067345E+02 0.17233211992E+02 0.18698685804E+02
 0.20204229592E+02 0.21558459894E+02 0.20568769952E+02 0.18667621697E+02 0.14859774469E+02
 0.99025983092E+01 0.52150347565E+01 0.23596144280E+01 0.23596504439E+01 0.52151096629E+01
 0.99026527939E+01 0.14859789473E+02 0.18667625831E+02 0.20568786059E+02 0.20609354406E+02
 0.19425239441E+02 0.17810467183E+02 0.16167943747E+02 0.14646628050E+02 0.13311893640E+02
 0.12188603653E+02 0.11297786285E+02 0.10671555126E+02 0.10346293118E+02 0.10346270559E+02
 0.10671510478E+02 0.11297758226E+02 0.12188602540E+02 0.13311906643E+02 0.14646652031E+02
 0.16167984406E+02 0.17810511338E+02 0.19425258660E+02 0.20609342911E+02 0.18307953510E+02
 0.15490124163E+02 0.11078612044E+02 0.61917039939E+01 0.23596144280E+01 0.90760118285E+00
 0.23596751401E+01 0.61917894633E+01 0.11078680925E+02 0.15490158371E+02 0.18307958509E+02
 0.19169296146E+02 0.18435680092E+02 0.16880176070E+02 0.15159292371E+02 0.13514624640E+02
 0.12058588814E+02 0.10838195423E+02 0.98694684263E+01 0.91624858684E+01 0.87300419339E+01
 0.85842370056E+01 0.87300469584E+01 0.91624880793E+01 0.98694570921E+01 0.10838167838E+02
 0.12058557877E+02 0.13514610353E+02 0.15159303179E+02 0.16880202061E+02 0.18435704943E+02
 0.19169309660E+02 0.16094094666E+02 0.12938529367E+02 0.87531359211E+01 0.47799570191E+01
 0.23596504439E+01 0.23596751401E+01 0.47800260408E+01 0.87532270607E+01 0.12938603470E+02
 0.16094123674E+02 0.17535573338E+02 0.17291142032E+02 0.15938665808E+02 0.14220277124E+02
 0.12514356765E+02 0.10970220654E+02 0.96626118625E+01 0.86168498412E+01 0.78353613104E+01
 0.73153433981E+01 0.70553742398E+01 0.70553919419E+01 0.73153710559E+01 0.78353576508E+01
 0.86168116006E+01 0.96625704638E+01 0.10970194609E+02 0.12514334315E+02 0.14220248489E+02
 0.15938645614E+02 0.17291143931E+02 0.17535578256E+02 0.14719115819E+02 0.11960786503E+02
 0.87531415658E+01 0.61917345959E+01 0.52151096629E+01 0.61917894633E+01 0.87532270607E+01
 0.11960870212E+02 0.14719176495E+02 0.16223920628E+02 0.16235688615E+02 0.15077936800E+02
 0.13395099732E+02 0.11666075014E+02 0.10066207752E+02 0.86902752094E+01 0.75767968623E+01
 0.67292801177E+01 0.61367098797E+01 0.57866825660E+01 0.56709426976E+01 0.57866961304E+01
 0.61367201361E+01 0.67292747211E+01 0.75767788758E+01 0.86902509721E+01 0.10066175739E+02
 0.11666033141E+02 0.13395055464E+02 0.15077900700E+02 0.16235659520E+02 0.16223883404E+02
 0.14719109053E+02 0.12938546590E+02 0.11078629460E+02 0.99026298748E+01 0.99026527939E+01
 0.11078680925E+02 0.12938603470E+02 0.14719176495E+02 0.15720533291E+02 0.15594064829E+02
 0.14452506360E+02 0.12764538841E+02 0.11005339622E+02 0.93605375715E+01 0.79289595807E+01
 0.67572963487E+01 0.58523836379E+01 0.51994943173E+01 0.47782124455E+01 0.45719657078E+01
 0.45719649143E+01 0.47782243135E+01 0.51995321043E+01 0.58524211269E+01 0.67572907691E+01
 0.79289110801E+01 0.93604947268E+01 0.11005334255E+02 0.12764541227E+02 0.14452466783E+02
 0.15593980462E+02 0.15720444861E+02 0.16094082567E+02 0.15490158709E+02 0.14859801853E+02
 0.14597762847E+02 0.14859789473E+02 0.15490158371E+02 0.16094123674E+02 0.16223920628E+02
 0.15594064829E+02 0.14221673643E+02 0.12419348041E+02 0.10580283902E+02 0.88718857284E+01
 0.73809456767E+01 0.61527874503E+01 0.51947362300E+01 0.44894414230E+01 0.40103706769E+01
 0.37334262578E+01 0.36429009903E+01 0.37334491842E+01 0.40104139012E+01 0.44894886611E+01
 0.51947607328E+01 0.61527782978E+01 0.73809260957E+01 0.88718901125E+01 0.10580312949E+02
 0.12419359740E+02 0.14221629218E+02 0.15593974880E+02 0.16223835498E+02 0.18307952591E+02
 0.18667667508E+02 0.18787357727E+02 0.18787330810E+02 0.18667625831E+02 0.18307958509E+02
 0.17535573338E+02 0.16235688615E+02 0.14452506360E+02 0.12419348041E+02 0.10433057180E+02
 0.86208372815E+01 0.70495614610E+01 0.57548894748E+01 0.47400020355E+01 0.39837859329E+01
 0.34540921200E+01 0.31198860802E+01 0.29585551063E+01 0.29585750922E+01 0.31199219229E+01
 0.34541091232E+01 0.39837901608E+01 0.47400233881E+01 0.57549285567E+01 0.70495901393E+01
 0.86208482543E+01 0.10433074388E+02 0.12419377117E+02 0.14452511824E+02 0.16235646096E+02
 0.17535519652E+02 0.20568792764E+02 0.21423182567E+02 0.21709563434E+02 0.21423165454E+02
 0.20568786059E+02 0.19169296146E+02 0.17291142032E+02 0.15077936800E+02 0.12764538841E+02
 0.10580283902E+02 0.86208372815E+01 0.69385820504E+01 0.55574848667E+01 0.44734959736E+01
 0.36602789414E+01 0.30800256600E+01 0.26950550353E+01 0.24759332111E+01 0.24048471605E+01
 0.24759357533E+01 0.26950512274E+01 0.30800186593E+01 0.36602861708E+01 0.44735243020E+01
 0.55575193950E+01 0.69386096092E+01 0.86208665713E+01 0.10580327174E+02 0.12764582736E+02
 0.15077953153E+02 0.17291127266E+02 0.19169279870E+02 0.22214252996E+02 0.23066656254E+02
 0.23066662227E+02 0.22214261656E+02 0.20609354406E+02 0.18435680092E+02 0.15938665808E+02
 0.13395099732E+02 0.11005339622E+02 0.88718857284E+01 0.70495614610E+01 0.55574848667E+01
 0.43857581926E+01 0.35027111772E+01 0.28650194132E+01 0.24287527570E+01 0.21578648329E+01
 0.20282539149E+01 0.20282390237E+01 0.21578361817E+01 0.24287361259E+01 0.28650180088E+01
 0.35027112269E+01 0.43857600037E+01 0.55575062488E+01 0.70496069010E+01 0.88719305840E+01
 0.11005357781E+02 0.13395094915E+02 0.15938660840E+02 0.18435683704E+02 0.20609354893E+02
 0.22981324640E+02 0.23481320790E+02 0.22981328679E+02 0.21558508688E+02 0.19425239441E+02
 0.16880176070E+02 0.14220277124E+02 0.11666075014E+02 0.93605375715E+01 0.73809456767E+01
 0.57548894748E+01 0.44734959736E+01 0.35027111772E+01 0.27949327648E+01 0.23006130383E+01
 0.19774113375E+01 0.17950383512E+01 0.17360975739E+01 0.17950192866E+01 0.19773811652E+01
 0.23005824808E+01 0.27949107661E+01 0.35027033511E+01 0.44735027412E+01 0.57549037218E+01
 0.73809551219E+01 0.93605335301E+01 0.11666059070E+02 0.14220258425E+02 0.16880161701E+02
 0.19425230018E+02 0.21558502077E+02 0.23037067893E+02 0.23037067963E+02 0.22037816265E+02
 0.20204226132E+02 0.17810467183E+02 0.15159292371E+02 0.12514356765E+02 0.10066207752E+02
 0.79289595807E+01 0.61527874503E+01 0.47400020355E+01 0.36602789414E+01 0.28650194132E+01
 0.23006130383E+01 0.19189513445E+01 0.16835650002E+01 0.15713119997E+01 0.15713106125E+01
 0.16835544047E+01 0.19189237998E+01 0.23005752925E+01 0.28649867453E+01 0.36602561845E+01
 0.47399816511E+01 0.61527666341E+01 0.79289470352E+01 0.10066207183E+02 0.12514354076E+02
 0.15159271475E+02 0.17810433101E+02 0.20204199812E+02 0.22037807796E+02 0.22742057812E+02
 0.22240878803E+02 0.20819743972E+02 0.18698630410E+02 0.16167943747E+02 0.13514624640E+02
 0.10970220654E+02 0.86902752094E+01 0.67572963487E+01 0.51947362300E+01 0.39837859329E+01
 0.30800256600E+01 0.24287527570E+01 0.19774113375E+01 0.16835650002E+01 0.15180572226E+01
 0.14646007120E+01 0.15180579720E+01 0.16835666268E+01 0.19774057622E+01 0.24287264996E+01
 0.30799774728E+01 0.39837357642E+01 0.51947089129E+01 0.67572975615E+01 0.86902881973E+01
 0.10970225583E+02 0.13514615012E+02 0.16167924609E+02 0.18698608382E+02 0.20819723979E+02
 0.22240866336E+02 0.22292386277E+02 0.21329982405E+02 0.19557788222E+02 0.17233136638E+02
 0.14646628050E+02 0.12058588814E+02 0.96626118625E+01 0.75767968623E+01 0.58523836379E+01
 0.44894414230E+01 0.34540921200E+01 0.26950550353E+01 0.21578648329E+01 0.17950383512E+01
 0.15713119997E+01 0.14646007120E+01 0.14646005587E+01 0.15713155927E+01 0.17950494312E+01
 0.21578764463E+01 0.26950563235E+01 0.34540830139E+01 0.44894317231E+01 0.58523781097E+01
 0.75767906256E+01 0.96626032510E+01 0.12058587264E+02 0.14646641287E+02 0.17233156211E+02
 0.19557797691E+02 0.21329978556E+02 0.22292382062E+02 0.21757513349E+02 0.20385965844E+02
 0.18336105315E+02 0.15886004911E+02 0.13311893640E+02 0.10838195423E+02 0.86168498412E+01
 0.67292801177E+01 0.51994943173E+01 0.40103706769E+01 0.31198860802E+01 0.24759332111E+01
 0.20282539149E+01 0.17360975739E+01 0.15713106125E+01 0.15180579720E+01 0.15713155927E+01
 0.17361076118E+01 0.20282745630E+01 0.24759718946E+01 0.31199375618E+01 0.40104116783E+01
 0.51995017563E+01 0.67292561007E+01 0.86168235124E+01 0.10838196763E+02 0.13311928345E+02
 0.15886055267E+02 0.18336149994E+02 0.20385994629E+02 0.21757526409E+02 0.22240865133E+02
 0.21110456433E+02 0.19404625704E+02 0.17169266061E+02 0.14682109885E+02 0.12188603653E+02
 0.98694684263E+01 0.78353613104E+01 0.61367098797E+01 0.47782124455E+01 0.37334262578E+01
 0.29585551063E+01 0.24048471605E+01 0.20282390237E+01 0.17950192866E+01 0.16835544047E+01
 0.16835666268E+01 0.17950494312E+01 0.20282745630E+01 0.24048811742E+01 0.29585876663E+01
 0.37334559170E+01 0.47782327464E+01 0.61367177229E+01 0.78353652375E+01 0.98694833710E+01
 0.12188637377E+02 0.14682157449E+02 0.17169316525E+02 0.19404669948E+02 0.21110487428E+02