   2   2   1   0
  0.2079688E+02  0.3889087E-09  0.3889087E-09  0.3889087E-09  0.5000000E-15
  1.000000000000000E-004
  CAR 
 diamond Si                              
     16.87263158     -8.25268055  301      5.45978613      1.00000000
     -8.253  0.0000E+00  0.0000E+00
     -8.169  0.0000E+00  0.0000E+00
     -8.085  0.0000E+00  0.0000E+00
     -8.001  0.0000E+00  0.0000E+00
     -7.918  0.0000E+00  0.0000E+00
     -7.834  0.0000E+00  0.0000E+00
     -7.750  0.0000E+00  0.0000E+00
     -7.666  0.0000E+00  0.0000E+00
     -7.583  0.0000E+00  0.0000E+00
     -7.499  0.0000E+00  0.0000E+00
     -7.415  0.0000E+00  0.0000E+00
     -7.331  0.0000E+00  0.0000E+00
     -7.248  0.0000E+00  0.0000E+00
     -7.164  0.0000E+00  0.0000E+00
     -7.080  0.0000E+00  0.0000E+00
     -6.996  0.0000E+00  0.0000E+00
     -6.913  0.0000E+00  0.0000E+00
     -6.829  0.0000E+00  0.0000E+00
     -6.745  0.0000E+00  0.0000E+00
     -6.661  0.0000E+00  0.0000E+00
     -6.578  0.0000E+00  0.0000E+00
     -6.494  0.0000E+00  0.0000E+00
     -6.410  0.0000E+00  0.0000E+00
     -6.326  0.0000E+00  0.0000E+00
     -6.243  0.1178E-02  0.3936E-05
     -6.159  0.1031E+00  0.3222E-02
     -6.075  0.1304E+00  0.1309E-01
     -5.991  0.1752E+00  0.2585E-01
     -5.908  0.2116E+00  0.4229E-01
     -5.824  0.2274E+00  0.6054E-01
     -5.740  0.2547E+00  0.8072E-01
     -5.656  0.2832E+00  0.1032E+00
     -5.573  0.3057E+00  0.1281E+00
     -5.489  0.3242E+00  0.1545E+00
     -5.405  0.3425E+00  0.1824E+00
     -5.321  0.3629E+00  0.2119E+00
     -5.238  0.3860E+00  0.2432E+00
     -5.154  0.4094E+00  0.2766E+00
     -5.070  0.4267E+00  0.3116E+00
     -4.986  0.4452E+00  0.3481E+00
     -4.903  0.4652E+00  0.3862E+00
     -4.819  0.4862E+00  0.4261E+00
     -4.735  0.5093E+00  0.4677E+00
     -4.651  0.5341E+00  0.5114E+00
     -4.568  0.5598E+00  0.5572E+00
     -4.484  0.5850E+00  0.6051E+00
     -4.400  0.6138E+00  0.6553E+00
     -4.316  0.6513E+00  0.7082E+00
     -4.233  0.6964E+00  0.7646E+00
     -4.149  0.7549E+00  0.8251E+00
     -4.065  0.8799E+00  0.8934E+00
     -3.981  0.9059E+00  0.9692E+00
     -3.898  0.9533E+00  0.1044E+01
     -3.814  0.8993E+00  0.1123E+01
     -3.730  0.8391E+00  0.1196E+01
     -3.646  0.8183E+00  0.1265E+01
     -3.563  0.7895E+00  0.1332E+01
     -3.479  0.7591E+00  0.1397E+01
     -3.395  0.7269E+00  0.1460E+01
     -3.311  0.6899E+00  0.1519E+01
     -3.228  0.6719E+00  0.1576E+01
     -3.144  0.6468E+00  0.1631E+01
     -3.060  0.6152E+00  0.1684E+01
     -2.976  0.5792E+00  0.1734E+01
     -2.893  0.5516E+00  0.1781E+01
     -2.809  0.5346E+00  0.1826E+01
     -2.725  0.5100E+00  0.1871E+01
     -2.641  0.4670E+00  0.1911E+01
     -2.558  0.4411E+00  0.1950E+01
     -2.474  0.3173E+00  0.1983E+01
     -2.390  0.9965E-01  0.1997E+01
     -2.306  0.7645E-02  0.2000E+01
     -2.223  0.0000E+00  0.2000E+01
     -2.139  0.6092E-02  0.2000E+01
     -2.055  0.3100E-01  0.2002E+01
     -1.971  0.6885E-01  0.2006E+01
     -1.888  0.1529E+00  0.2015E+01
     -1.804  0.2493E+00  0.2032E+01
     -1.720  0.4919E+00  0.2062E+01
     -1.636  0.5239E+00  0.2104E+01
     -1.553  0.5299E+00  0.2148E+01
     -1.469  0.5682E+00  0.2192E+01
     -1.385  0.6253E+00  0.2242E+01
     -1.301  0.7365E+00  0.2299E+01
     -1.218  0.1330E+01  0.2381E+01
     -1.134  0.1896E+01  0.2524E+01
     -1.050  0.1199E+01  0.2649E+01
     -0.966  0.9955E+00  0.2740E+01
     -0.883  0.8621E+00  0.2817E+01
     -0.799  0.7844E+00  0.2886E+01
     -0.715  0.7199E+00  0.2949E+01
     -0.631  0.6621E+00  0.3007E+01
     -0.548  0.6093E+00  0.3060E+01
     -0.464  0.5529E+00  0.3109E+01
     -0.380  0.5197E+00  0.3153E+01
     -0.296  0.4967E+00  0.3196E+01
     -0.213  0.4754E+00  0.3237E+01
     -0.129  0.4552E+00  0.3276E+01
     -0.045  0.4347E+00  0.3313E+01
      0.039  0.4129E+00  0.3348E+01
      0.122  0.3901E+00  0.3382E+01
      0.206  0.3681E+00  0.3414E+01
      0.290  0.3448E+00  0.3444E+01
      0.374  0.3211E+00  0.3471E+01
      0.457  0.3091E+00  0.3498E+01
      0.541  0.2994E+00  0.3523E+01
      0.625  0.2899E+00  0.3548E+01
      0.709  0.2795E+00  0.3572E+01
      0.792  0.2689E+00  0.3595E+01
      0.876  0.2583E+00  0.3617E+01
      0.960  0.2476E+00  0.3638E+01
      1.044  0.2368E+00  0.3658E+01
      1.127  0.2259E+00  0.3678E+01
      1.211  0.2027E+00  0.3696E+01
      1.295  0.2497E+00  0.3713E+01
      1.379  0.6844E+00  0.3752E+01
      1.462  0.9904E+00  0.3822E+01
      1.546  0.1367E+01  0.3934E+01
      1.630  0.1237E+01  0.4039E+01
      1.714  0.1224E+01  0.4142E+01
      1.797  0.1203E+01  0.4245E+01
      1.881  0.1113E+01  0.4342E+01
      1.965  0.1004E+01  0.4430E+01
      2.049  0.9609E+00  0.4512E+01
      2.132  0.9394E+00  0.4591E+01
      2.216  0.1195E+01  0.4688E+01
      2.300  0.1098E+01  0.4779E+01
      2.384  0.1222E+01  0.4877E+01
      2.467  0.1318E+01  0.4982E+01
      2.551  0.1349E+01  0.5095E+01
      2.635  0.1415E+01  0.5209E+01
      2.719  0.1569E+01  0.5334E+01
      2.802  0.1620E+01  0.5469E+01
      2.886  0.1615E+01  0.5602E+01
      2.970  0.1535E+01  0.5737E+01
      3.054  0.1504E+01  0.5864E+01
      3.137  0.1484E+01  0.5989E+01
      3.221  0.1442E+01  0.6111E+01
      3.305  0.1444E+01  0.6232E+01
      3.389  0.1430E+01  0.6352E+01
      3.472  0.1402E+01  0.6471E+01
      3.556  0.1366E+01  0.6587E+01
      3.640  0.1340E+01  0.6700E+01
      3.724  0.1336E+01  0.6812E+01
      3.807  0.1351E+01  0.6925E+01
      3.891  0.1331E+01  0.7037E+01
      3.975  0.1304E+01  0.7148E+01
      4.059  0.1265E+01  0.7255E+01
      4.142  0.1253E+01  0.7361E+01
      4.226  0.1170E+01  0.7463E+01
      4.310  0.9615E+00  0.7553E+01
      4.394  0.7832E+00  0.7626E+01
      4.477  0.6884E+00  0.7688E+01
      4.561  0.6164E+00  0.7742E+01
      4.645  0.5512E+00  0.7791E+01
      4.729  0.4810E+00  0.7834E+01
      4.812  0.4153E+00  0.7872E+01
      4.896  0.3536E+00  0.7904E+01
      4.980  0.2978E+00  0.7931E+01
      5.064  0.2380E+00  0.7954E+01
      5.147  0.1875E+00  0.7972E+01
      5.231  0.1537E+00  0.7986E+01
      5.315  0.6234E-01  0.7997E+01
      5.399  0.1094E-01  0.8000E+01
      5.482  0.0000E+00  0.8000E+01
      5.566  0.0000E+00  0.8000E+01
      5.650  0.0000E+00  0.8000E+01
      5.734  0.0000E+00  0.8000E+01
      5.817  0.0000E+00  0.8000E+01
      5.901  0.0000E+00  0.8000E+01
      5.985  0.0000E+00  0.8000E+01
      6.069  0.0000E+00  0.8000E+01
      6.152  0.1333E-01  0.8000E+01
      6.236  0.9487E-01  0.8005E+01
      6.320  0.1439E+00  0.8015E+01
      6.404  0.1982E+00  0.8029E+01
      6.488  0.2636E+00  0.8048E+01
      6.571  0.3307E+00  0.8073E+01
      6.655  0.3927E+00  0.8104E+01
      6.739  0.4590E+00  0.8139E+01
      6.823  0.5260E+00  0.8181E+01
      6.906  0.6018E+00  0.8228E+01
      6.990  0.6818E+00  0.8282E+01
      7.074  0.7496E+00  0.8342E+01
      7.158  0.8148E+00  0.8407E+01
      7.241  0.9091E+00  0.8479E+01
      7.325  0.1008E+01  0.8559E+01
      7.409  0.1128E+01  0.8648E+01
      7.493  0.1416E+01  0.8753E+01
      7.576  0.1584E+01  0.8879E+01
      7.660  0.1696E+01  0.9016E+01
      7.744  0.1856E+01  0.9164E+01
      7.828  0.2012E+01  0.9328E+01
      7.911  0.2041E+01  0.9497E+01
      7.995  0.1886E+01  0.9666E+01
      8.079  0.1440E+01  0.9805E+01
      8.163  0.1100E+01  0.9910E+01
      8.246  0.9229E+00  0.9993E+01
      8.330  0.9067E+00  0.1007E+02
      8.414  0.8693E+00  0.1014E+02
      8.498  0.8259E+00  0.1022E+02
      8.581  0.8085E+00  0.1028E+02
      8.665  0.1134E+01  0.1036E+02
      8.749  0.1660E+01  0.1047E+02
      8.833  0.2614E+01  0.1066E+02
      8.916  0.2574E+01  0.1088E+02
      9.000  0.1917E+01  0.1107E+02
      9.084  0.1885E+01  0.1123E+02
      9.168  0.1828E+01  0.1138E+02
      9.251  0.1682E+01  0.1153E+02
      9.335  0.1630E+01  0.1167E+02
      9.419  0.1508E+01  0.1180E+02
      9.503  0.1311E+01  0.1192E+02
      9.586  0.1177E+01  0.1202E+02
      9.670  0.1116E+01  0.1212E+02
      9.754  0.1131E+01  0.1221E+02
      9.838  0.1110E+01  0.1230E+02
      9.921  0.1102E+01  0.1240E+02
     10.005  0.1117E+01  0.1249E+02
     10.089  0.1772E+01  0.1260E+02
     10.173  0.1433E+01  0.1274E+02
     10.256  0.1322E+01  0.1286E+02
     10.340  0.1154E+01  0.1296E+02
     10.424  0.1087E+01  0.1305E+02
     10.508  0.1123E+01  0.1314E+02
     10.591  0.1233E+01  0.1324E+02
     10.675  0.1235E+01  0.1334E+02
     10.759  0.1315E+01  0.1345E+02
     10.843  0.1226E+01  0.1356E+02
     10.926  0.1172E+01  0.1366E+02
     11.010  0.1196E+01  0.1376E+02
     11.094  0.1151E+01  0.1386E+02
     11.178  0.1166E+01  0.1395E+02
     11.261  0.1111E+01  0.1405E+02
     11.345  0.1056E+01  0.1414E+02
     11.429  0.9783E+00  0.1422E+02
     11.513  0.9185E+00  0.1430E+02
     11.596  0.9005E+00  0.1438E+02
     11.680  0.8625E+00  0.1445E+02
     11.764  0.8947E+00  0.1453E+02
     11.848  0.9570E+00  0.1460E+02
     11.931  0.1032E+01  0.1469E+02
     12.015  0.1108E+01  0.1478E+02
     12.099  0.1146E+01  0.1487E+02
     12.183  0.1158E+01  0.1497E+02
     12.266  0.1111E+01  0.1506E+02
     12.350  0.9996E+00  0.1515E+02
     12.434  0.8874E+00  0.1523E+02
     12.518  0.7820E+00  0.1530E+02
     12.601  0.6972E+00  0.1536E+02
     12.685  0.6651E+00  0.1542E+02
     12.769  0.6426E+00  0.1547E+02
     12.853  0.6310E+00  0.1553E+02
     12.936  0.6255E+00  0.1558E+02
     13.020  0.6270E+00  0.1563E+02
     13.104  0.6285E+00  0.1569E+02
     13.188  0.5244E+00  0.1573E+02
     13.271  0.4232E+00  0.1577E+02
     13.355  0.3378E+00  0.1581E+02
     13.439  0.2379E+00  0.1583E+02
     13.523  0.2136E+00  0.1585E+02
     13.606  0.1952E+00  0.1587E+02
     13.690  0.1778E+00  0.1588E+02
     13.774  0.1615E+00  0.1590E+02
     13.858  0.1462E+00  0.1591E+02
     13.941  0.1320E+00  0.1592E+02
     14.025  0.1188E+00  0.1593E+02
     14.109  0.1067E+00  0.1594E+02
     14.193  0.9562E-01  0.1595E+02
     14.276  0.8561E-01  0.1596E+02
     14.360  0.7666E-01  0.1596E+02
     14.444  0.6876E-01  0.1597E+02
     14.528  0.6191E-01  0.1597E+02
     14.611  0.6292E-01  0.1598E+02
     14.695  0.9490E-01  0.1599E+02
     14.779  0.7739E-01  0.1599E+02
     14.863  0.2600E-01  0.1600E+02
     14.946  0.0000E+00  0.1600E+02
     15.030  0.0000E+00  0.1600E+02
     15.114  0.0000E+00  0.1600E+02
     15.198  0.0000E+00  0.1600E+02
     15.281  0.0000E+00  0.1600E+02
     15.365  0.0000E+00  0.1600E+02
     15.449  0.0000E+00  0.1600E+02
     15.533  0.0000E+00  0.1600E+02
     15.616  0.0000E+00  0.1600E+02
     15.700  0.0000E+00  0.1600E+02
     15.784  0.0000E+00  0.1600E+02
     15.868  0.0000E+00  0.1600E+02
     15.951  0.0000E+00  0.1600E+02
     16.035  0.0000E+00  0.1600E+02
     16.119  0.0000E+00  0.1600E+02
     16.203  0.0000E+00  0.1600E+02
     16.286  0.0000E+00  0.1600E+02
     16.370  0.0000E+00  0.1600E+02
     16.454  0.0000E+00  0.1600E+02
     16.538  0.0000E+00  0.1600E+02
     16.621  0.0000E+00  0.1600E+02
     16.705  0.0000E+00  0.1600E+02
     16.789  0.0000E+00  0.1600E+02
     16.873  0.0000E+00  0.1600E+02
     16.87263158     -8.25268055  301      5.45978613      1.00000000
     -8.253  0.0000E+00  0.0000E+00  0.0000E+00  0.0000E+00  0.0000E+00  0.0000E+00  0.0000E+00  0.0000E+00  0.0000E+00
     -8.169  0.0000E+00  0.0000E+00  0.0000E+00  0.0000E+00  0.0000E+00  0.0000E+00  0.0000E+00  0.0000E+00  0.0000E+00
     -8.085  0.0000E+00  0.0000E+00  0.0000E+00  0.0000E+00  0.0000E+00  0.0000E+00  0.0000E+00  0.0000E+00  0.0000E+00
     -8.001  0.0000E+00  0.0000E+00  0.0000E+00  0.0000E+00  0.0000E+00  0.0000E+00  0.0000E+00  0.0000E+00  0.0000E+00
     -7.918  0.0000E+00  0.0000E+00  0.0000E+00  0.0000E+00  0.0000E+00  0.0000E+00  0.0000E+00  0.0000E+00  0.0000E+00
     -7.834  0.0000E+00  0.0000E+00  0.0000E+00  0.0000E+00  0.0000E+00  0.0000E+00  0.0000E+00  0.0000E+00  0.0000E+00
     -7.750  0.0000E+00  0.0000E+00  0.0000E+00  0.0000E+00  0.0000E+00  0.0000E+00  0.0000E+00  0.0000E+00  0.0000E+00
     -7.666  0.0000E+00  0.0000E+00  0.0000E+00  0.0000E+00  0.0000E+00  0.0000E+00  0.0000E+00  0.0000E+00  0.0000E+00
     -7.583  0.0000E+00  0.0000E+00  0.0000E+00  0.0000E+00  0.0000E+00  0.0000E+00  0.0000E+00  0.0000E+00  0.0000E+00
     -7.499  0.0000E+00  0.0000E+00  0.0000E+00  0.0000E+00  0.0000E+00  0.0000E+00  0.0000E+00  0.0000E+00  0.0000E+00
     -7.415  0.0000E+00  0.0000E+00  0.0000E+00  0.0000E+00  0.0000E+00  0.0000E+00  0.0000E+00  0.0000E+00  0.0000E+00
     -7.331  0.0000E+00  0.0000E+00  0.0000E+00  0.0000E+00  0.0000E+00  0.0000E+00  0.0000E+00  0.0000E+00  0.0000E+00
     -7.248  0.0000E+00  0.0000E+00  0.0000E+00  0.0000E+00  0.0000E+00  0.0000E+00  0.0000E+00  0.0000E+00  0.0000E+00
     -7.164  0.0000E+00  0.0000E+00  0.0000E+00  0.0000E+00  0.0000E+00  0.0000E+00  0.0000E+00  0.0000E+00  0.0000E+00
     -7.080  0.0000E+00  0.0000E+00  0.0000E+00  0.0000E+00  0.0000E+00  0.0000E+00  0.0000E+00  0.0000E+00  0.0000E+00
     -6.996  0.0000E+00  0.0000E+00  0.0000E+00  0.0000E+00  0.0000E+00  0.0000E+00  0.0000E+00  0.0000E+00  0.0000E+00
     -6.913  0.0000E+00  0.0000E+00  0.0000E+00  0.0000E+00  0.0000E+00  0.0000E+00  0.0000E+00  0.0000E+00  0.0000E+00
     -6.829  0.0000E+00  0.0000E+00  0.0000E+00  0.0000E+00  0.0000E+00  0.0000E+00  0.0000E+00  0.0000E+00  0.0000E+00
     -6.745  0.0000E+00  0.0000E+00  0.0000E+00  0.0000E+00  0.0000E+00  0.0000E+00  0.0000E+00  0.0000E+00  0.0000E+00
     -6.661  0.0000E+00  0.0000E+00  0.0000E+00  0.0000E+00  0.0000E+00  0.0000E+00  0.0000E+00  0.0000E+00  0.0000E+00
     -6.578  0.0000E+00  0.0000E+00  0.0000E+00  0.0000E+00  0.0000E+00  0.0000E+00  0.0000E+00  0.0000E+00  0.0000E+00
     -6.494  0.0000E+00  0.0000E+00  0.0000E+00  0.0000E+00  0.0000E+00  0.0000E+00  0.0000E+00  0.0000E+00  0.0000E+00
     -6.410  0.0000E+00  0.0000E+00  0.0000E+00  0.0000E+00  0.0000E+00  0.0000E+00  0.0000E+00  0.0000E+00  0.0000E+00
     -6.326  0.0000E+00  0.0000E+00  0.0000E+00  0.0000E+00  0.0000E+00  0.0000E+00  0.0000E+00  0.0000E+00  0.0000E+00
     -6.243  0.2496E-03  0.3688E-06  0.3688E-06  0.3688E-06  0.0000E+00  0.0000E+00  0.0000E+00  0.0000E+00  0.0000E+00
     -6.159  0.2184E-01  0.3227E-04  0.3227E-04  0.3227E-04  0.0000E+00  0.0000E+00  0.0000E+00  0.0000E+00  0.0000E+00
     -6.075  0.2757E-01  0.9844E-04  0.9844E-04  0.9844E-04  0.0000E+00  0.0000E+00  0.0000E+00  0.0000E+00  0.0000E+00
     -5.991  0.3699E-01  0.1680E-03  0.1680E-03  0.1680E-03  0.0000E+00  0.0000E+00  0.0000E+00  0.0000E+00  0.0000E+00
     -5.908  0.4460E-01  0.2580E-03  0.2580E-03  0.2580E-03  0.0000E+00  0.0000E+00  0.0000E+00  0.0000E+00  0.0000E+00
     -5.824  0.4781E-01  0.3709E-03  0.3709E-03  0.3709E-03  0.0000E+00  0.0000E+00  0.0000E+00  0.0000E+00  0.0000E+00
     -5.740  0.5349E-01  0.4767E-03  0.4767E-03  0.4767E-03  0.0000E+00  0.0000E+00  0.0000E+00  0.0000E+00  0.0000E+00
     -5.656  0.5940E-01  0.5887E-03  0.5887E-03  0.5887E-03  0.0000E+00  0.0000E+00  0.0000E+00  0.0000E+00  0.0000E+00
     -5.573  0.6405E-01  0.7227E-03  0.7227E-03  0.7227E-03  0.0000E+00  0.0000E+00  0.0000E+00  0.0000E+00  0.0000E+00
     -5.489  0.6783E-01  0.8706E-03  0.8706E-03  0.8706E-03  0.0000E+00  0.0000E+00  0.0000E+00  0.0000E+00  0.0000E+00
     -5.405  0.7158E-01  0.1024E-02  0.1024E-02  0.1024E-02  0.0000E+00  0.0000E+00  0.0000E+00  0.0000E+00  0.0000E+00
     -5.321  0.7580E-01  0.1178E-02  0.1178E-02  0.1178E-02  0.0000E+00  0.0000E+00  0.0000E+00  0.0000E+00  0.0000E+00
     -5.238  0.8056E-01  0.1329E-02  0.1329E-02  0.1329E-02  0.0000E+00  0.0000E+00  0.0000E+00  0.0000E+00  0.0000E+00
     -5.154  0.8542E-01  0.1486E-02  0.1486E-02  0.1486E-02  0.0000E+00  0.0000E+00  0.0000E+00  0.0000E+00  0.0000E+00
     -5.070  0.8896E-01  0.1684E-02  0.1684E-02  0.1684E-02  0.0000E+00  0.0000E+00  0.0000E+00  0.0000E+00  0.0000E+00
     -4.986  0.9279E-01  0.1886E-02  0.1886E-02  0.1886E-02  0.0000E+00  0.0000E+00  0.0000E+00  0.0000E+00  0.0000E+00
     -4.903  0.9697E-01  0.2089E-02  0.2089E-02  0.2089E-02  0.0000E+00  0.0000E+00  0.0000E+00  0.0000E+00  0.0000E+00
     -4.819  0.1013E+00  0.2297E-02  0.2297E-02  0.2297E-02  0.0000E+00  0.0000E+00  0.0000E+00  0.0000E+00  0.0000E+00
     -4.735  0.1062E+00  0.2506E-02  0.2506E-02  0.2506E-02  0.0000E+00  0.0000E+00  0.0000E+00  0.0000E+00  0.0000E+00
     -4.651  0.1114E+00  0.2719E-02  0.2719E-02  0.2719E-02  0.0000E+00  0.0000E+00  0.0000E+00  0.0000E+00  0.0000E+00
     -4.568  0.1169E+00  0.2942E-02  0.2942E-02  0.2942E-02  0.0000E+00  0.0000E+00  0.0000E+00  0.0000E+00  0.0000E+00
     -4.484  0.1223E+00  0.3230E-02  0.3230E-02  0.3230E-02  0.0000E+00  0.0000E+00  0.0000E+00  0.0000E+00  0.0000E+00
     -4.400  0.1285E+00  0.3533E-02  0.3533E-02  0.3533E-02  0.0000E+00  0.0000E+00  0.0000E+00  0.0000E+00  0.0000E+00
     -4.316  0.1367E+00  0.3868E-02  0.3868E-02  0.3868E-02  0.0000E+00  0.0000E+00  0.0000E+00  0.0000E+00  0.0000E+00
     -4.233  0.1465E+00  0.4237E-02  0.4237E-02  0.4237E-02  0.0000E+00  0.0000E+00  0.0000E+00  0.0000E+00  0.0000E+00
     -4.149  0.1594E+00  0.4672E-02  0.4672E-02  0.4672E-02  0.0000E+00  0.0000E+00  0.0000E+00  0.0000E+00  0.0000E+00
     -4.065  0.1869E+00  0.5426E-02  0.5426E-02  0.5426E-02  0.0000E+00  0.0000E+00  0.0000E+00  0.0000E+00  0.0000E+00
     -3.981  0.1926E+00  0.5714E-02  0.5714E-02  0.5714E-02  0.0000E+00  0.0000E+00  0.0000E+00  0.0000E+00  0.0000E+00
     -3.898  0.2030E+00  0.6259E-02  0.6259E-02  0.6259E-02  0.0000E+00  0.0000E+00  0.0000E+00  0.0000E+00  0.0000E+00
     -3.814  0.1911E+00  0.6258E-02  0.6258E-02  0.6258E-02  0.0000E+00  0.0000E+00  0.0000E+00  0.0000E+00  0.0000E+00
     -3.730  0.1778E+00  0.6142E-02  0.6142E-02  0.6142E-02  0.0000E+00  0.0000E+00  0.0000E+00  0.0000E+00  0.0000E+00
     -3.646  0.1732E+00  0.6213E-02  0.6213E-02  0.6213E-02  0.0000E+00  0.0000E+00  0.0000E+00  0.0000E+00  0.0000E+00
     -3.563  0.1669E+00  0.6199E-02  0.6199E-02  0.6199E-02  0.0000E+00  0.0000E+00  0.0000E+00  0.0000E+00  0.0000E+00
     -3.479  0.1602E+00  0.6176E-02  0.6176E-02  0.6176E-02  0.0000E+00  0.0000E+00  0.0000E+00  0.0000E+00  0.0000E+00
     -3.395  0.1531E+00  0.6143E-02  0.6143E-02  0.6143E-02  0.0000E+00  0.0000E+00  0.0000E+00  0.0000E+00  0.0000E+00
     -3.311  0.1451E+00  0.6109E-02  0.6109E-02  0.6109E-02  0.0000E+00  0.0000E+00  0.0000E+00  0.0000E+00  0.0000E+00
     -3.228  0.1412E+00  0.6134E-02  0.6134E-02  0.6134E-02  0.0000E+00  0.0000E+00  0.0000E+00  0.0000E+00  0.0000E+00
     -3.144  0.1357E+00  0.6074E-02  0.6074E-02  0.6074E-02  0.0000E+00  0.0000E+00  0.0000E+00  0.0000E+00  0.0000E+00
     -3.060  0.1288E+00  0.5965E-02  0.5965E-02  0.5965E-02  0.0000E+00  0.0000E+00  0.0000E+00  0.0000E+00  0.0000E+00
     -2.976  0.1209E+00  0.5832E-02  0.5832E-02  0.5832E-02  0.0000E+00  0.0000E+00  0.0000E+00  0.0000E+00  0.0000E+00
     -2.893  0.1149E+00  0.5724E-02  0.5724E-02  0.5724E-02  0.0000E+00  0.0000E+00  0.0000E+00  0.0000E+00  0.0000E+00
     -2.809  0.1109E+00  0.5787E-02  0.5787E-02  0.5787E-02  0.0000E+00  0.0000E+00  0.0000E+00  0.0000E+00  0.0000E+00
     -2.725  0.1054E+00  0.5693E-02  0.5693E-02  0.5693E-02  0.0000E+00  0.0000E+00  0.0000E+00  0.0000E+00  0.0000E+00
     -2.641  0.9627E-01  0.5331E-02  0.5331E-02  0.5331E-02  0.0000E+00  0.0000E+00  0.0000E+00  0.0000E+00  0.0000E+00
     -2.558  0.9080E-01  0.5142E-02  0.5142E-02  0.5142E-02  0.0000E+00  0.0000E+00  0.0000E+00  0.0000E+00  0.0000E+00
     -2.474  0.6520E-01  0.3765E-02  0.3765E-02  0.3765E-02  0.0000E+00  0.0000E+00  0.0000E+00  0.0000E+00  0.0000E+00
     -2.390  0.2029E-01  0.1214E-02  0.1214E-02  0.1214E-02  0.0000E+00  0.0000E+00  0.0000E+00  0.0000E+00  0.0000E+00
     -2.306  0.1525E-02  0.9727E-04  0.9727E-04  0.9727E-04  0.0000E+00  0.0000E+00  0.0000E+00  0.0000E+00  0.0000E+00
     -2.223  0.0000E+00  0.0000E+00  0.0000E+00  0.0000E+00  0.0000E+00  0.0000E+00  0.0000E+00  0.0000E+00  0.0000E+00
     -2.139  0.1173E-02  0.9709E-04  0.9709E-04  0.9709E-04  0.0000E+00  0.0000E+00  0.0000E+00  0.0000E+00  0.0000E+00
     -2.055  0.5967E-02  0.4971E-03  0.4971E-03  0.4971E-03  0.0000E+00  0.0000E+00  0.0000E+00  0.0000E+00  0.0000E+00
     -1.971  0.1325E-01  0.1108E-02  0.1108E-02  0.1108E-02  0.0000E+00  0.0000E+00  0.0000E+00  0.0000E+00  0.0000E+00
     -1.888  0.2946E-01  0.2481E-02  0.2481E-02  0.2481E-02  0.0000E+00  0.0000E+00  0.0000E+00  0.0000E+00  0.0000E+00
     -1.804  0.4794E-01  0.4091E-02  0.4091E-02  0.4091E-02  0.0000E+00  0.0000E+00  0.0000E+00  0.0000E+00  0.0000E+00
     -1.720  0.9500E-01  0.8089E-02  0.8089E-02  0.8089E-02  0.0000E+00  0.0000E+00  0.0000E+00  0.0000E+00  0.0000E+00
     -1.636  0.1002E+00  0.8852E-02  0.8852E-02  0.8852E-02  0.0000E+00  0.0000E+00  0.0000E+00  0.0000E+00  0.0000E+00
     -1.553  0.1004E+00  0.9226E-02  0.9226E-02  0.9226E-02  0.0000E+00  0.0000E+00  0.0000E+00  0.0000E+00  0.0000E+00
     -1.469  0.1060E+00  0.1033E-01  0.1033E-01  0.1033E-01  0.0000E+00  0.0000E+00  0.0000E+00  0.0000E+00  0.0000E+00
     -1.385  0.1150E+00  0.1174E-01  0.1174E-01  0.1174E-01  0.0000E+00  0.0000E+00  0.0000E+00  0.0000E+00  0.0000E+00
     -1.301  0.1324E+00  0.1442E-01  0.1442E-01  0.1442E-01  0.0000E+00  0.0000E+00  0.0000E+00  0.0000E+00  0.0000E+00
     -1.218  0.2099E+00  0.3051E-01  0.3051E-01  0.3051E-01  0.0000E+00  0.0000E+00  0.0000E+00  0.0000E+00  0.0000E+00
     -1.134  0.2785E+00  0.4690E-01  0.4690E-01  0.4690E-01  0.0000E+00  0.0000E+00  0.0000E+00  0.0000E+00  0.0000E+00
     -1.050  0.1807E+00  0.2935E-01  0.2935E-01  0.2935E-01  0.0000E+00  0.0000E+00  0.0000E+00  0.0000E+00  0.0000E+00
     -0.966  0.1515E+00  0.2437E-01  0.2437E-01  0.2437E-01  0.0000E+00  0.0000E+00  0.0000E+00  0.0000E+00  0.0000E+00
     -0.883  0.1318E+00  0.2121E-01  0.2121E-01  0.2121E-01  0.0000E+00  0.0000E+00  0.0000E+00  0.0000E+00  0.0000E+00
     -0.799  0.1201E+00  0.1945E-01  0.1945E-01  0.1945E-01  0.0000E+00  0.0000E+00  0.0000E+00  0.0000E+00  0.0000E+00
     -0.715  0.1101E+00  0.1803E-01  0.1803E-01  0.1803E-01  0.0000E+00  0.0000E+00  0.0000E+00  0.0000E+00  0.0000E+00
     -0.631  0.1010E+00  0.1678E-01  0.1678E-01  0.1678E-01  0.0000E+00  0.0000E+00  0.0000E+00  0.0000E+00  0.0000E+00
     -0.548  0.9250E-01  0.1566E-01  0.1566E-01  0.1566E-01  0.0000E+00  0.0000E+00  0.0000E+00  0.0000E+00  0.0000E+00
     -0.464  0.8330E-01  0.1447E-01  0.1447E-01  0.1447E-01  0.0000E+00  0.0000E+00  0.0000E+00  0.0000E+00  0.0000E+00
     -0.380  0.7805E-01  0.1377E-01  0.1377E-01  0.1377E-01  0.0000E+00  0.0000E+00  0.0000E+00  0.0000E+00  0.0000E+00
     -0.296  0.7445E-01  0.1328E-01  0.1328E-01  0.1328E-01  0.0000E+00  0.0000E+00  0.0000E+00  0.0000E+00  0.0000E+00
     -0.213  0.7107E-01  0.1285E-01  0.1285E-01  0.1285E-01  0.0000E+00  0.0000E+00  0.0000E+00  0.0000E+00  0.0000E+00
     -0.129  0.6779E-01  0.1244E-01  0.1244E-01  0.1244E-01  0.0000E+00  0.0000E+00  0.0000E+00  0.0000E+00  0.0000E+00
     -0.045  0.6440E-01  0.1203E-01  0.1203E-01  0.1203E-01  0.0000E+00  0.0000E+00  0.0000E+00  0.0000E+00  0.0000E+00
      0.039  0.6082E-01  0.1158E-01  0.1158E-01  0.1158E-01  0.0000E+00  0.0000E+00  0.0000E+00  0.0000E+00  0.0000E+00
      0.122  0.5703E-01  0.1109E-01  0.1109E-01  0.1109E-01  0.0000E+00  0.0000E+00  0.0000E+00  0.0000E+00  0.0000E+00
      0.206  0.5341E-01  0.1062E-01  0.1062E-01  0.1062E-01  0.0000E+00  0.0000E+00  0.0000E+00  0.0000E+00  0.0000E+00
      0.290  0.4960E-01  0.1010E-01  0.1010E-01  0.1010E-01  0.0000E+00  0.0000E+00  0.0000E+00  0.0000E+00  0.0000E+00
      0.374  0.4578E-01  0.9560E-02  0.9560E-02  0.9560E-02  0.0000E+00  0.0000E+00  0.0000E+00  0.0000E+00  0.0000E+00
      0.457  0.4386E-01  0.9302E-02  0.9302E-02  0.9302E-02  0.0000E+00  0.0000E+00  0.0000E+00  0.0000E+00  0.0000E+00
      0.541  0.4230E-01  0.9103E-02  0.9103E-02  0.9103E-02  0.0000E+00  0.0000E+00  0.0000E+00  0.0000E+00  0.0000E+00
      0.625  0.4075E-01  0.8907E-02  0.8907E-02  0.8907E-02  0.0000E+00  0.0000E+00  0.0000E+00  0.0000E+00  0.0000E+00
      0.709  0.3902E-01  0.8682E-02  0.8682E-02  0.8682E-02  0.0000E+00  0.0000E+00  0.0000E+00  0.0000E+00  0.0000E+00
      0.792  0.3728E-01  0.8452E-02  0.8452E-02  0.8452E-02  0.0000E+00  0.0000E+00  0.0000E+00  0.0000E+00  0.0000E+00
      0.876  0.3554E-01  0.8215E-02  0.8215E-02  0.8215E-02  0.0000E+00  0.0000E+00  0.0000E+00  0.0000E+00  0.0000E+00
      0.960  0.3378E-01  0.7972E-02  0.7972E-02  0.7972E-02  0.0000E+00  0.0000E+00  0.0000E+00  0.0000E+00  0.0000E+00
      1.044  0.3202E-01  0.7722E-02  0.7722E-02  0.7722E-02  0.0000E+00  0.0000E+00  0.0000E+00  0.0000E+00  0.0000E+00
      1.127  0.3025E-01  0.7465E-02  0.7465E-02  0.7465E-02  0.0000E+00  0.0000E+00  0.0000E+00  0.0000E+00  0.0000E+00
      1.211  0.2667E-01  0.6846E-02  0.6846E-02  0.6846E-02  0.0000E+00  0.0000E+00  0.0000E+00  0.0000E+00  0.0000E+00
      1.295  0.2533E-01  0.9510E-02  0.9510E-02  0.9510E-02  0.0000E+00  0.0000E+00  0.0000E+00  0.0000E+00  0.0000E+00
      1.379  0.2723E-01  0.3185E-01  0.3185E-01  0.3185E-01  0.0000E+00  0.0000E+00  0.0000E+00  0.0000E+00  0.0000E+00
      1.462  0.2966E-01  0.4777E-01  0.4777E-01  0.4777E-01  0.0000E+00  0.0000E+00  0.0000E+00  0.0000E+00  0.0000E+00
      1.546  0.3209E-01  0.6764E-01  0.6764E-01  0.6764E-01  0.0000E+00  0.0000E+00  0.0000E+00  0.0000E+00  0.0000E+00
      1.630  0.3235E-01  0.6109E-01  0.6109E-01  0.6109E-01  0.0000E+00  0.0000E+00  0.0000E+00  0.0000E+00  0.0000E+00
      1.714  0.3311E-01  0.6065E-01  0.6065E-01  0.6065E-01  0.0000E+00  0.0000E+00  0.0000E+00  0.0000E+00  0.0000E+00
      1.797  0.3370E-01  0.6007E-01  0.6007E-01  0.6007E-01  0.0000E+00  0.0000E+00  0.0000E+00  0.0000E+00  0.0000E+00
      1.881  0.3306E-01  0.5584E-01  0.5584E-01  0.5584E-01  0.0000E+00  0.0000E+00  0.0000E+00  0.0000E+00  0.0000E+00
      1.965  0.3146E-01  0.5059E-01  0.5059E-01  0.5059E-01  0.0000E+00  0.0000E+00  0.0000E+00  0.0000E+00  0.0000E+00
      2.049  0.3036E-01  0.4875E-01  0.4875E-01  0.4875E-01  0.0000E+00  0.0000E+00  0.0000E+00  0.0000E+00  0.0000E+00
      2.132  0.2953E-01  0.4797E-01  0.4797E-01  0.4797E-01  0.0000E+00  0.0000E+00  0.0000E+00  0.0000E+00  0.0000E+00
      2.216  0.2906E-01  0.6283E-01  0.6283E-01  0.6283E-01  0.0000E+00  0.0000E+00  0.0000E+00  0.0000E+00  0.0000E+00
      2.300  0.2767E-01  0.5811E-01  0.5811E-01  0.5811E-01  0.0000E+00  0.0000E+00  0.0000E+00  0.0000E+00  0.0000E+00
      2.384  0.2705E-01  0.6626E-01  0.6626E-01  0.6626E-01  0.0000E+00  0.0000E+00  0.0000E+00  0.0000E+00  0.0000E+00
      2.467  0.2670E-01  0.7261E-01  0.7261E-01  0.7261E-01  0.0000E+00  0.0000E+00  0.0000E+00  0.0000E+00  0.0000E+00
      2.551  0.2580E-01  0.7545E-01  0.7545E-01  0.7545E-01  0.0000E+00  0.0000E+00  0.0000E+00  0.0000E+00  0.0000E+00
      2.635  0.2506E-01  0.8037E-01  0.8037E-01  0.8037E-01  0.0000E+00  0.0000E+00  0.0000E+00  0.0000E+00  0.0000E+00
      2.719  0.2434E-01  0.9095E-01  0.9095E-01  0.9095E-01  0.0000E+00  0.0000E+00  0.0000E+00  0.0000E+00  0.0000E+00
      2.802  0.2346E-01  0.9508E-01  0.9508E-01  0.9508E-01  0.0000E+00  0.0000E+00  0.0000E+00  0.0000E+00  0.0000E+00
      2.886  0.2258E-01  0.9577E-01  0.9577E-01  0.9577E-01  0.0000E+00  0.0000E+00  0.0000E+00  0.0000E+00  0.0000E+00
      2.970  0.2173E-01  0.9146E-01  0.9146E-01  0.9146E-01  0.0000E+00  0.0000E+00  0.0000E+00  0.0000E+00  0.0000E+00
      3.054  0.2093E-01  0.9012E-01  0.9012E-01  0.9012E-01  0.0000E+00  0.0000E+00  0.0000E+00  0.0000E+00  0.0000E+00
      3.137  0.2028E-01  0.8942E-01  0.8942E-01  0.8942E-01  0.0000E+00  0.0000E+00  0.0000E+00  0.0000E+00  0.0000E+00
      3.221  0.1909E-01  0.8745E-01  0.8745E-01  0.8745E-01  0.0000E+00  0.0000E+00  0.0000E+00  0.0000E+00  0.0000E+00
      3.305  0.1747E-01  0.8878E-01  0.8878E-01  0.8878E-01  0.0000E+00  0.0000E+00  0.0000E+00  0.0000E+00  0.0000E+00
      3.389  0.1627E-01  0.8878E-01  0.8878E-01  0.8878E-01  0.0000E+00  0.0000E+00  0.0000E+00  0.0000E+00  0.0000E+00
      3.472  0.1520E-01  0.8769E-01  0.8769E-01  0.8769E-01  0.0000E+00  0.0000E+00  0.0000E+00  0.0000E+00  0.0000E+00
      3.556  0.1421E-01  0.8608E-01  0.8608E-01  0.8608E-01  0.0000E+00  0.0000E+00  0.0000E+00  0.0000E+00  0.0000E+00
      3.640  0.1308E-01  0.8527E-01  0.8527E-01  0.8527E-01  0.0000E+00  0.0000E+00  0.0000E+00  0.0000E+00  0.0000E+00
      3.724  0.1211E-01  0.8586E-01  0.8586E-01  0.8586E-01  0.0000E+00  0.0000E+00  0.0000E+00  0.0000E+00  0.0000E+00
      3.807  0.1120E-01  0.8785E-01  0.8785E-01  0.8785E-01  0.0000E+00  0.0000E+00  0.0000E+00  0.0000E+00  0.0000E+00
      3.891  0.1022E-01  0.8732E-01  0.8732E-01  0.8732E-01  0.0000E+00  0.0000E+00  0.0000E+00  0.0000E+00  0.0000E+00
      3.975  0.9261E-02  0.8628E-01  0.8628E-01  0.8628E-01  0.0000E+00  0.0000E+00  0.0000E+00  0.0000E+00  0.0000E+00
      4.059  0.8321E-02  0.8433E-01  0.8433E-01  0.8433E-01  0.0000E+00  0.0000E+00  0.0000E+00  0.0000E+00  0.0000E+00
      4.142  0.7394E-02  0.8441E-01  0.8441E-01  0.8441E-01  0.0000E+00  0.0000E+00  0.0000E+00  0.0000E+00  0.0000E+00
      4.226  0.6549E-02  0.7935E-01  0.7935E-01  0.7935E-01  0.0000E+00  0.0000E+00  0.0000E+00  0.0000E+00  0.0000E+00
      4.310  0.5811E-02  0.6517E-01  0.6517E-01  0.6517E-01  0.0000E+00  0.0000E+00  0.0000E+00  0.0000E+00  0.0000E+00
      4.394  0.5308E-02  0.5300E-01  0.5300E-01  0.5300E-01  0.0000E+00  0.0000E+00  0.0000E+00  0.0000E+00  0.0000E+00
      4.477  0.4892E-02  0.4664E-01  0.4664E-01  0.4664E-01  0.0000E+00  0.0000E+00  0.0000E+00  0.0000E+00  0.0000E+00
      4.561  0.4101E-02  0.4194E-01  0.4194E-01  0.4194E-01  0.0000E+00  0.0000E+00  0.0000E+00  0.0000E+00  0.0000E+00
      4.645  0.3768E-02  0.3756E-01  0.3756E-01  0.3756E-01  0.0000E+00  0.0000E+00  0.0000E+00  0.0000E+00  0.0000E+00
      4.729  0.3426E-02  0.3284E-01  0.3284E-01  0.3284E-01  0.0000E+00  0.0000E+00  0.0000E+00  0.0000E+00  0.0000E+00
      4.812  0.2882E-02  0.2846E-01  0.2846E-01  0.2846E-01  0.0000E+00  0.0000E+00  0.0000E+00  0.0000E+00  0.0000E+00