    2    2    1    1
  0.2079688E+02  0.3889087E-09  0.3889087E-09  0.3889087E-09  0.5000000E-15
  1.000000000000000E-004
  CAR 
 diamond Si                              
      8     56      8
 
  0.0000000E+00  0.0000000E+00  0.0000000E+00  0.7513148E-03
      1         -6.252681   1.000000
      2          5.459480   1.000000
      3          5.459499   1.000000
      4          5.459499   1.000000
      5          8.011290   0.000000
      6          8.011309   0.000000
      7          8.011309   0.000000
      8          8.387818   0.000000
 
  0.9090909E-01  0.6938894E-17  0.3232894E-17  0.6010518E-02
      1         -6.147838   1.000000
      2          4.471461   1.000000
      3          5.298609   1.000000
      4          5.298626   1.000000
      5          7.959246   0.000000
      6          8.249993   0.000000
      7          8.250010   0.000000
      8          9.259137   0.000000
 
  0.1818182E+00 -0.1734723E-17  0.2996341E-17  0.6010518E-02
      1         -5.837853   1.000000
      2          2.822024   1.000000
      3          4.965904   1.000000
      4          4.965920   1.000000
      5          7.624811   0.000000
      6          8.713623   0.000000
      7          8.713645   0.000000
      8         10.865352   0.000000
 
  0.2727273E+00  0.5204170E-17 -0.3311745E-17  0.6010518E-02
      1         -5.339187   1.000000
      2          1.203562   1.000000
      3          4.648485   1.000000
      4          4.648502   1.000000
      5          7.279119   0.000000
      6          8.974387   0.000000
      7          8.974416   0.000000
      8         12.443902   0.000000
 
  0.3636364E+00 -0.6938894E-17  0.9462128E-17  0.6010518E-02
      1         -4.703590   1.000000
      2         -0.210564   1.000000
      3          4.420633   1.000000
      4          4.420651   1.000000
      5          7.019543   0.000000
      6          8.938160   0.000000
      7          8.938193   0.000000
      8         13.250529   0.000000
 
  0.4545455E+00  0.3469447E-17 -0.3154043E-18  0.6010518E-02
      1         -4.121449   1.000000
      2         -1.188274   1.000000
      3          4.304164   1.000000
      4          4.304182   1.000000
      5          6.883373   0.000000
      6          8.843568   0.000000
      7          8.843601   0.000000
      8         13.157574   0.000000
 
  0.9090909E-01  0.9090909E-01 -0.1129172E-17  0.4507889E-02
      1         -6.112706   1.000000
      2          4.622823   1.000000
      3          4.985901   1.000000
      4          4.985913   1.000000
      5          7.701487   0.000000
      6          8.659003   0.000000
      7          8.659015   0.000000
      8          9.160277   0.000000
 
  0.1818182E+00  0.9090909E-01  0.1025064E-17  0.1803156E-01
      1         -5.870343   1.000000
      2          3.296877   1.000000
      3          4.599732   1.000000
      4          4.763375   1.000000
      5          7.731126   0.000000
      6          8.638085   0.000000
      7          9.236311   0.000000
      8         10.233291   0.000000
 
  0.2727273E+00  0.9090909E-01  0.4257958E-17  0.1803156E-01
      1         -5.431942   1.000000
      2          1.718192   1.000000
      3          4.287506   1.000000
      4          4.396785   1.000000
      5          7.813416   0.000000
      6          8.668188   0.000000
      7          9.594903   0.000000
      8         10.780638   0.000000
 
  0.3636364E+00  0.9090909E-01 -0.2050128E-17  0.1803156E-01
      1         -4.832141   1.000000
      2          0.253354   1.000000
      3          4.023083   1.000000
      4          4.102919   1.000000
      5          7.634352   0.000000
      6          8.755158   0.000000
      7          9.549638   0.000000
      8         11.540559   0.000000
 
  0.4545455E+00  0.9090909E-01  0.7254298E-17  0.1803156E-01
      1         -4.190494   1.000000
      2         -0.898963   1.000000
      3          3.733181   1.000000
      4          4.061133   1.000000
      5          7.486087   0.000000
      6          8.739326   0.000000
      7          9.333180   0.000000
      8         12.747274   0.000000
 
 -0.4545455E+00  0.9090909E-01  0.7885107E-17  0.1803156E-01
      1         -3.935037   1.000000
      2         -1.282845   1.000000
      3          3.562076   1.000000
      4          4.156927   1.000000
      5          7.450948   0.000000
      6          8.803272   0.000000
      7          9.154242   0.000000
      8         13.442324   0.000000
 
 -0.3636364E+00  0.9090909E-01 -0.1892426E-17  0.1803156E-01
      1         -4.394537   1.000000
      2         -0.564598   1.000000
      3          3.530968   1.000000
      4          4.376699   1.000000
      5          7.546921   0.000000
      6          8.988549   0.000000
      7          9.070841   0.000000
      8         13.103266   0.000000
 
 -0.2727273E+00  0.9090909E-01 -0.8200511E-17  0.1803156E-01
      1         -5.047391   1.000000
      2          0.721758   1.000000
      3          3.654215   1.000000
      4          4.691840   1.000000
      5          7.759028   0.000000
      6          8.987358   0.000000
      7          9.182187   0.000000
      8         12.035270   0.000000
 
 -0.1818182E+00  0.9090909E-01  0.4573362E-17  0.1803156E-01
      1         -5.599681   1.000000
      2          2.227957   1.000000
      3          3.949894   1.000000
      4          5.046995   1.000000
      5          8.052476   0.000000
      6          8.694884   0.000000
      7          9.033909   0.000000
      8         11.117944   0.000000
 
 -0.9090909E-01  0.9090909E-01 -0.5204170E-17  0.9015778E-02
      1         -5.974408   1.000000
      2          3.665399   1.000000
      3          4.504825   1.000000
      4          5.316501   1.000000
      5          8.280213   0.000000
      6          8.300961   0.000000
      7          8.456853   0.000000
      8         10.174927   0.000000
 
  0.1818182E+00  0.1818182E+00 -0.2258344E-17  0.4507889E-02
      1         -5.695756   1.000000
      2          3.122142   1.000000
      3          4.178798   1.000000
      4          4.178809   1.000000
      5          7.073296   0.000000
      6          9.477293   0.000000
      7          9.971875   0.000000
      8          9.971889   0.000000
 
  0.2727273E+00  0.1818182E+00  0.3154043E-17  0.1803156E-01
      1         -5.321111   1.000000
      2          1.998451   1.000000
      3          3.764427   1.000000
      4          3.844396   1.000000
      5          7.124691   0.000000
      6          9.117386   0.000000
      7         10.259189   0.000000
      8         10.548974   0.000000
 
  0.3636364E+00  0.1818182E+00  0.3784851E-17  0.1803156E-01
      1         -4.769401   1.000000
      2          0.671330   1.000000
      3          3.241783   1.000000
      4          3.651567   1.000000
      5          7.357886   0.000000
      6          9.467943   0.000000
      7         10.063873   0.000000
      8         10.649135   0.000000
 
  0.4545455E+00  0.1818182E+00  0.1829345E-16  0.1803156E-01
      1         -4.115238   1.000000
      2         -0.523042   1.000000
      3          2.776775   1.000000
      4          3.618023   1.000000
      5          7.397142   0.000000
      6          9.807683   0.000000
      7         10.416610   0.000000
      8         10.686136   0.000000
 
 -0.4545455E+00  0.1818182E+00  0.1577021E-17  0.1803156E-01
      1         -3.656382   1.000000
      2         -1.202583   1.000000
      3          2.451651   1.000000
      4          3.742969   1.000000
      5          7.486019   0.000000
      6          9.691346   0.000000
      7         10.134680   0.000000
      8         12.270701   0.000000
 
 -0.3636364E+00  0.1818182E+00  0.9146724E-17  0.1803156E-01
      1         -3.927450   1.000000
      2         -0.809043   1.000000
      3          2.307504   1.000000
      4          4.011581   1.000000
      5          7.718742   0.000000
      6          9.694203   0.000000
      7          9.908252   0.000000
      8         13.043217   0.000000
 
 -0.2727273E+00  0.1818182E+00  0.2838638E-17  0.1803156E-01
      1         -4.571913   1.000000
      2          0.266089   1.000000
      3          2.395535   1.000000
      4          4.386213   1.000000
      5          8.058606   0.000000
      6          9.651576   0.000000
      7          9.757440   0.000000
      8         11.662252   0.000000
 
 -0.1818182E+00  0.1818182E+00 -0.3469447E-17  0.9015778E-02
      1         -5.166755   1.000000
      2          1.421253   1.000000
      3          2.873493   1.000000
      4          4.787015   1.000000
      5          8.351056   0.000000
      6          9.163394   0.000000
      7          9.451638   0.000000
      8         11.000007   0.000000
 
  0.2727273E+00  0.2727273E+00 -0.3387516E-17  0.4507889E-02
      1         -5.009823   1.000000
      2          1.530068   1.000000
      3          3.477486   1.000000
      4          3.477497   1.000000
      5          6.503153   0.000000
      6          8.286838   0.000000
      7         11.501346   0.000000
      8         11.501361   0.000000
 
  0.3636364E+00  0.2727273E+00  0.7017745E-17  0.1803156E-01
      1         -4.512855   1.000000
      2          0.601766   1.000000
      3          2.958542   1.000000
      4          3.251669   1.000000
      5          6.635917   0.000000
      6          8.006659   0.000000
      7         11.767483   0.000000
      8         11.971353   0.000000
 
  0.4545455E+00  0.2727273E+00 -0.1892426E-17  0.1803156E-01
      1         -3.876630   1.000000
      2         -0.394031   1.000000
      3          2.256057   1.000000
      4          3.190630   1.000000
      5          6.840229   0.000000
      6          8.730709   0.000000
      7         11.594316   0.000000
      8         11.857631   0.000000
 
 -0.4545455E+00  0.2727273E+00  0.2649396E-16  0.1803156E-01
      1         -3.289449   1.000000
      2         -1.163406   1.000000
      3          1.701511   1.000000
      4          3.298114   1.000000
      5          6.970191   0.000000
      6         10.181394   0.000000
      7         11.415597   0.000000
      8         11.541381   0.000000
 
 -0.3636364E+00  0.2727273E+00  0.1671643E-16  0.1803156E-01
      1         -3.345014   1.000000
      2         -1.085745   1.000000
      3          1.428911   1.000000
      4          3.563368   1.000000
      5          7.246773   0.000000
      6         11.184869   0.000000
      7         11.207510   0.000000
      8         12.052878   0.000000
 
 -0.2727273E+00  0.2727273E+00  0.1040834E-16  0.9015778E-02
      1         -3.954002   1.000000
      2         -0.352427   1.000000
      3          1.587631   1.000000
      4          3.952625   1.000000
      5          7.667646   0.000000
      6         10.583163   0.000000
      7         10.944383   0.000000
      8         11.686322   0.000000
 
  0.3636364E+00  0.3636364E+00 -0.4516688E-17  0.4507889E-02
      1         -4.070314   1.000000
      2         -0.046115   1.000000
      3          2.983700   1.000000
      4          2.983711   1.000000
      5          6.163420   0.000000
      6          7.184638   0.000000
      7         13.123600   0.000000
      8         13.123616   0.000000
 
  0.4545455E+00  0.3636364E+00 -0.1427204E-16  0.1803156E-01
      1         -3.468933   1.000000
      2         -0.838327   1.000000
      3          2.472857   1.000000
      4          2.881157   1.000000
      5          6.372647   0.000000
      6          7.187911   0.000000
      7         13.429525   0.000000
      8         13.462622   0.000000
 
 -0.4545455E+00  0.3636364E+00 -0.2144749E-16  0.1803156E-01
      1         -2.820789   1.000000
      2         -1.533376   1.000000
      3          1.728609   1.000000
      4          2.951329   1.000000
      5          6.542340   0.000000
      6          8.334465   0.000000
      7         13.187873   0.000000
      8         13.285908   0.000000
 
 -0.3636364E+00  0.3636364E+00 -0.1387779E-16  0.9015778E-02
      1         -2.765864   1.000000
      2         -1.558747   1.000000
      3          1.263851   1.000000
      4          3.187934   1.000000
      5          6.810199   0.000000
      6         10.023287   0.000000
      7         12.508143   0.000000
      8         13.046132   0.000000
 
  0.4545455E+00  0.4545455E+00 -0.5645860E-17  0.4507889E-02
      1         -2.902690   1.000000
      2         -1.544352   1.000000
      3          2.731960   1.000000
      4          2.731970   1.000000
      5          6.134381   0.000000
      6          6.462794   0.000000
      7         14.766379   0.000000
      8         14.766392   0.000000
 
 -0.4545455E+00  0.4545455E+00  0.6938894E-17  0.9015778E-02
      1         -2.280392   1.000000
      2         -2.168088   1.000000
      3          2.312385   1.000000
      4          2.756104   1.000000
      5          6.315571   0.000000
      6          6.877998   0.000000
      7         14.677078   0.000000
      8         14.872632   0.000000
 
  0.2727273E+00  0.1818182E+00  0.9090909E-01  0.1803156E-01
      1         -5.562347   1.000000
      2          2.440965   1.000000
      3          3.691307   1.000000
      4          4.654119   1.000000
      5          7.792281   0.000000
      6          8.941913   0.000000
      7          9.771197   0.000000
      8         10.214877   0.000000
 
  0.3636364E+00  0.1818182E+00  0.9090909E-01  0.3606311E-01
      1         -5.066401   1.000000
      2          1.159162   1.000000
      3          3.137438   1.000000
      4          4.346164   1.000000
      5          8.087418   0.000000
      6          8.929925   0.000000
      7         10.112075   0.000000
      8         10.337560   0.000000
 
  0.4545455E+00  0.1818182E+00  0.9090909E-01  0.3606311E-01
      1         -4.431961   1.000000
      2         -0.139521   1.000000
      3          2.877870   1.000000
      4          4.015519   1.000000
      5          8.094105   0.000000
      6          8.795805   0.000000
      7         10.199798   0.000000
      8         11.157306   0.000000
 
 -0.4545455E+00  0.1818182E+00  0.9090909E-01  0.3606311E-01
      1         -3.844851   1.000000
      2         -1.083207   1.000000
      3          2.775342   1.000000
      4          3.813733   1.000000
      5          8.049489   0.000000
      6          8.629276   0.000000
      7         10.142325   0.000000
      8         12.579847   0.000000
 
  0.3636364E+00  0.2727273E+00  0.9090909E-01  0.1803156E-01
      1         -4.886445   1.000000
      2          1.165044   1.000000
      3          2.996509   1.000000
      4          3.684241   1.000000
      5          7.249688   0.000000
      6          8.763562   0.000000
      7         10.359150   0.000000
      8         11.387554   0.000000
 
  0.4545455E+00  0.2727273E+00  0.9090909E-01  0.3606311E-01
      1         -4.289928   1.000000
      2          0.117729   1.000000
      3          2.434405   1.000000
      4          3.384639   1.000000
      5          7.607590   0.000000
      6          9.171178   0.000000
      7         10.048328   0.000000
      8         11.778452   0.000000
 
 -0.4545455E+00  0.2727273E+00  0.9090909E-01  0.3606311E-01
      1         -3.643925   1.000000
      2         -0.852892   1.000000
      3          2.055165   1.000000
      4          3.235682   1.000000
      5          7.739722   0.000000
      6          9.688194   0.000000
      7         10.481925   0.000000
      8         11.736468   0.000000
 
 -0.3636364E+00  0.2727273E+00  0.9090909E-01  0.3606311E-01
      1         -3.390947   1.000000
      2         -1.185412   1.000000
      3          1.832871   1.000000
      4          3.321542   1.000000
      5          7.942518   0.000000
      6          9.425896   0.000000
      7         11.616440   0.000000
      8         12.153668   0.000000
 
 -0.2727273E+00  0.2727273E+00  0.9090909E-01  0.3606311E-01
      1         -3.874374   1.000000
      2         -0.525961   1.000000
      3          1.829369   1.000000
      4          3.605386   1.000000
      5          8.284866   0.000000
      6          9.243671   0.000000
      7         10.926137   0.000000
      8         11.574652   0.000000
 
 -0.1818182E+00  0.2727273E+00  0.9090909E-01  0.1803156E-01
      1         -4.524750   1.000000
      2          0.423766   1.000000
      3          2.201137   1.000000
      4          4.004085   1.000000
      5          8.690956   0.000000
      6          8.830903   0.000000
      7         10.085711   0.000000
      8         11.107214   0.000000
 
  0.4545455E+00  0.3636364E+00  0.9090909E-01  0.1803156E-01
      1         -3.965605   1.000000
      2         -0.178940   1.000000
      3          2.535205   1.000000
      4          2.914528   1.000000
      5          6.908755   0.000000
      6          7.766728   0.000000
      7         11.710713   0.000000
      8         13.095178   0.000000
 
 -0.4545455E+00  0.3636364E+00  0.9090909E-01  0.3606311E-01
      1         -3.309720   1.000000
      2         -0.978146   1.000000
      3          1.918179   1.000000
      4          2.743079   1.000000
      5          7.253143   0.000000
      6          8.550996   0.000000
      7         11.369150   0.000000
      8         13.442290   0.000000
 
 -0.3636364E+00  0.3636364E+00  0.9090909E-01  0.3606311E-01
      1         -2.862848   1.000000
      2         -1.456742   1.000000
      3          1.417911   1.000000
      4          2.854535   1.000000
      5          7.461750   0.000000
      6         10.095310   0.000000
      7         11.068262   0.000000
      8         12.637078   0.000000
 
 -0.2727273E+00  0.3636364E+00  0.9090909E-01  0.1803156E-01
      1         -3.235296   1.000000
      2         -1.067229   1.000000
      3          1.317566   1.000000
      4          3.166060   1.000000
      5          7.819195   0.000000
      6         10.488303   0.000000
      7         11.190013   0.000000
      8         12.076186   0.000000
 
 -0.4545455E+00  0.4545455E+00  0.9090909E-01  0.1803156E-01
      1         -2.833649   1.000000
      2         -1.544252   1.000000
      3          2.349381   1.000000
      4          2.468299   1.000000
      5          6.848172   0.000000
      6          7.120775   0.000000
      7         13.212323   0.000000
      8         14.545939   0.000000
 
 -0.3636364E+00  0.4545455E+00  0.9090909E-01  0.1803156E-01
      1         -2.351054   1.000000
      2         -1.975688   1.000000
      3          1.721048   1.000000
      4          2.537899   1.000000
      5          7.125529   0.000000
      6          8.344716   0.000000
      7         12.771902   0.000000
      8         12.996569   0.000000
 
 -0.4545455E+00  0.3636364E+00  0.1818182E+00  0.1803156E-01
      1         -3.668628   1.000000
      2         -0.559179   1.000000
      3          1.807553   1.000000
      4          2.940176   1.000000
      5          8.524619   0.000000
      6          9.194921   0.000000
      7          9.669343   0.000000
      8         13.003315   0.000000
 
 -0.3636364E+00  0.3636364E+00  0.1818182E+00  0.3606311E-01
      1         -3.059159   1.000000
      2         -1.237550   1.000000
      3          1.536278   1.000000
      4          2.633041   1.000000
      5          8.907406   0.000000
      6          9.228488   0.000000
      7         10.474309   0.000000
      8         12.300411   0.000000
 
 -0.3636364E+00  0.4545455E+00  0.1818182E+00  0.1803156E-01
      1         -2.658468   1.000000
      2         -1.589800   1.000000
      3          1.763013   1.000000
      4          2.134210   1.000000
      5          8.451174   0.000000
      6          8.664462   0.000000
      7         10.970406   0.000000
      8         12.532143   0.000000
 
 -0.2727273E+00  0.4545455E+00  0.1818182E+00  0.1803156E-01
      1         -2.468860   1.000000
      2         -1.748247   1.000000
      3          1.496929   1.000000
      4          2.169112   1.000000
      5          8.798844   0.000000
      6         10.082809   0.000000
      7         10.720635   0.000000
      8         10.751519   0.000000
