 vasp.6.3.0 20Jan22 (build Feb 01 2022 16:52:37) complex                        
  
 executed on           TETRA_NSC1 date 2022.02.23  07:23:25
 running    4 mpi-ranks, with    1 threads/rank
 distrk:  each k-point on    4 cores,    1 groups
 distr:  one band on NCORE=   1 cores,    4 groups


--------------------------------------------------------------------------------------------------------


 INCAR:
   SYSTEM = diamond Si
   ISTART = 0
   ICHARG = 2
   ENCUT = 240
   ISMEAR = -5
   LORBIT = 11

 POTCAR:    PAW_PBE Si 05Jan2001                  
 POTCAR:    PAW_PBE Si 05Jan2001                  
   VRHFIN =Si: s2p2                                                                                 
   LEXCH  = PE                                                                                      
   EATOM  =   103.0669 eV,    7.5752 Ry                                                             
                                                                                                    
   TITEL  = PAW_PBE Si 05Jan2001                                                                    
   LULTRA =        F    use ultrasoft PP ?                                                          
   IUNSCR =        1    unscreen: 0-lin 1-nonlin 2-no                                               
   RPACOR =    1.500    partial core radius                                                         
   POMASS =   28.085; ZVAL   =    4.000    mass and valenz                                          
   RCORE  =    1.900    outmost cutoff radius                                                       
   RWIGS  =    2.480; RWIGS  =    1.312    wigner-seitz radius (au A)                               
   ENMAX  =  245.345; ENMIN  =  184.009 eV                                                          
   ICORE  =        2    local potential                                                             
   LCOR   =        T    correct aug charges                                                         
   LPAW   =        T    paw PP                                                                      
   EAUG   =  322.069                                                                                
   DEXC   =    0.000                                                                                
   RMAX   =    1.950    core radius for proj-oper                                                   
   RAUG   =    1.300    factor for augmentation sphere                                              
   RDEP   =    1.993    radius for radial grids                                                     
   RDEPT  =    1.837    core radius for aug-charge                                                  
                                                                                                    
   Atomic configuration                                                                             
    6 entries                                                                                       
     n  l   j            E        occ.                                                              
     1  0  0.50     -1785.8828   2.0000                                                             
     2  0  0.50      -139.4969   2.0000                                                             
     2  1  1.50       -95.5546   6.0000                                                             
     3  0  0.50       -10.8127   2.0000                                                             
     3  1  0.50        -4.0811   2.0000                                                             
     3  2  1.50        -4.0817   0.0000                                                             
   Description                                                                                      
     l       E           TYP  RCUT    TYP  RCUT                                                     
     0    -10.8127223     23  1.900                                                                 
     0     -7.6451159     23  1.900                                                                 
     1     -4.0811372     23  1.900                                                                 
     1      2.4879257     23  1.900                                                                 
     2     -4.0817478      7  1.900                                                                 
  local pseudopotential read in
  partial core-charges read in
  partial kinetic energy density read in
  atomic valenz-charges read in
  non local Contribution for L=           0  read in
    real space projection operators read in
  non local Contribution for L=           0  read in
    real space projection operators read in
  non local Contribution for L=           1  read in
    real space projection operators read in
  non local Contribution for L=           1  read in
    real space projection operators read in
    PAW grid and wavefunctions read in
 
   number of l-projection  operators is LMAX  =           4
   number of lm-projection operators is LMMAX =           8
 
  PAW_PBE Si 05Jan2001                  :
 energy of atom  1       EATOM= -103.0669
 kinetic energy error for atom=    0.0061 (will be added to EATOM!!)
 
 
 POSCAR: cubic diamond Si
  positions in direct lattice
  No initial velocities read in
 exchange correlation table for  LEXCH =        8
   RHO(1)=    0.500       N(1)  =     2000
   RHO(2)=  100.500       N(2)  =     4000
 


--------------------------------------------------------------------------------------------------------


 ion  position               nearest neighbor table
   1  0.875  0.875  0.875-   2 2.38   2 2.38   2 2.38   2 2.38
   2  0.125  0.125  0.125-   1 2.38   1 2.38   1 2.38   1 2.38
 
  LATTYP: Found a face centered cubic cell.
 ALAT       =     5.5000000000
  
  Lattice vectors:
  
 A1 = (   0.0000000000,   2.7500000000,   2.7500000000)
 A2 = (   2.7500000000,   0.0000000000,   2.7500000000)
 A3 = (   2.7500000000,   2.7500000000,   0.0000000000)


Analysis of symmetry for initial positions (statically):
=====================================================================
 Subroutine PRICEL returns:
 Original cell was already a primitive cell.
 

 Routine SETGRP: Setting up the symmetry group for a 
 face centered cubic supercell.


 Subroutine GETGRP returns: Found 48 space group operations
 (whereof 12 operations were pure point group operations)
 out of a pool of 48 trial point group operations.


The static configuration has the point symmetry D_3d.
 The point group associated with its full space group is O_h .


Analysis of symmetry for dynamics (positions and initial velocities):
=====================================================================
 Subroutine PRICEL returns:
 Original cell was already a primitive cell.
 

 Routine SETGRP: Setting up the symmetry group for a 
 face centered cubic supercell.


 Subroutine GETGRP returns: Found 48 space group operations
 (whereof 12 operations were pure point group operations)
 out of a pool of 48 trial point group operations.


The dynamic configuration has the point symmetry D_3d.
 The point group associated with its full space group is O_h .


 Subroutine INISYM returns: Found 48 space group operations
 (whereof 12 operations are pure point group operations),
 and found     1 'primitive' translations


----------------------------------------------------------------------------------------

                                     Primitive cell                                     

  volume of cell :      41.5938

  direct lattice vectors                    reciprocal lattice vectors
     0.000000000  2.750000000  2.750000000    -0.181818182  0.181818182  0.181818182
     2.750000000  0.000000000  2.750000000     0.181818182 -0.181818182  0.181818182
     2.750000000  2.750000000  0.000000000     0.181818182  0.181818182 -0.181818182

  length of vectors
     3.889087297  3.889087297  3.889087297     0.314918329  0.314918329  0.314918329

  position of ions in fractional coordinates (direct lattice)
     0.875000000  0.875000000  0.875000000
     0.125000000  0.125000000  0.125000000

  ion indices of the primitive-cell ions
   primitive index   ion index
                 1           1
                 2           2

----------------------------------------------------------------------------------------

 
 
 KPOINTS: k-points                                

Automatic generation of k-mesh.
 Grid dimensions read from file:
 generate k-points for:   11   11   11

 Generating k-lattice:

  Cartesian coordinates                     Fractional coordinates (reciprocal lattice)
    -0.016528926  0.016528926  0.016528926     0.090909091  0.000000000  0.000000000
     0.016528926 -0.016528926  0.016528926     0.000000000  0.090909091  0.000000000
     0.016528926  0.016528926 -0.016528926     0.000000000  0.000000000  0.090909091

  Length of vectors
     0.028628939  0.028628939  0.028628939

  Shift w.r.t. Gamma in fractional coordinates (k-lattice)
     0.000000000  0.000000000  0.000000000

 TETIRR: Found    201 inequivalent tetrahedra from     7986
 
 Subroutine IBZKPT returns following result:
 ===========================================
 
 Found     56 irreducible k-points:
 
 Following reciprocal coordinates:
            Coordinates               Weight
  0.000000  0.000000  0.000000      1.000000
  0.090909  0.000000  0.000000      8.000000
  0.181818 -0.000000  0.000000      8.000000
  0.272727  0.000000 -0.000000      8.000000
  0.363636 -0.000000  0.000000      8.000000
  0.454545  0.000000 -0.000000      8.000000
  0.090909  0.090909 -0.000000      6.000000
  0.181818  0.090909  0.000000     24.000000
  0.272727  0.090909  0.000000     24.000000
  0.363636  0.090909 -0.000000     24.000000
  0.454545  0.090909  0.000000     24.000000
 -0.454545  0.090909  0.000000     24.000000
 -0.363636  0.090909 -0.000000     24.000000
 -0.272727  0.090909 -0.000000     24.000000
 -0.181818  0.090909  0.000000     24.000000
 -0.090909  0.090909 -0.000000     12.000000
  0.181818  0.181818 -0.000000      6.000000
  0.272727  0.181818  0.000000     24.000000
  0.363636  0.181818  0.000000     24.000000
  0.454545  0.181818  0.000000     24.000000
 -0.454545  0.181818  0.000000     24.000000
 -0.363636  0.181818  0.000000     24.000000
 -0.272727  0.181818  0.000000     24.000000
 -0.181818  0.181818 -0.000000     12.000000
  0.272727  0.272727 -0.000000      6.000000
  0.363636  0.272727  0.000000     24.000000
  0.454545  0.272727 -0.000000     24.000000
 -0.454545  0.272727  0.000000     24.000000
 -0.363636  0.272727  0.000000     24.000000
 -0.272727  0.272727  0.000000     12.000000
  0.363636  0.363636 -0.000000      6.000000
  0.454545  0.363636 -0.000000     24.000000
 -0.454545  0.363636 -0.000000     24.000000
 -0.363636  0.363636 -0.000000     12.000000
  0.454545  0.454545 -0.000000      6.000000
 -0.454545  0.454545  0.000000     12.000000
  0.272727  0.181818  0.090909     24.000000
  0.363636  0.181818  0.090909     48.000000
  0.454545  0.181818  0.090909     48.000000
 -0.454545  0.181818  0.090909     48.000000
  0.363636  0.272727  0.090909     24.000000
  0.454545  0.272727  0.090909     48.000000
 -0.454545  0.272727  0.090909     48.000000
 -0.363636  0.272727  0.090909     48.000000
 -0.272727  0.272727  0.090909     48.000000
 -0.181818  0.272727  0.090909     24.000000
  0.454545  0.363636  0.090909     24.000000
 -0.454545  0.363636  0.090909     48.000000
 -0.363636  0.363636  0.090909     48.000000
 -0.272727  0.363636  0.090909     24.000000
 -0.454545  0.454545  0.090909     24.000000
 -0.363636  0.454545  0.090909     24.000000
 -0.454545  0.363636  0.181818     24.000000
 -0.363636  0.363636  0.181818     48.000000
 -0.363636  0.454545  0.181818     24.000000
 -0.272727  0.454545  0.181818     24.000000
 
 Following cartesian coordinates:
            Coordinates               Weight
  0.000000  0.000000  0.000000      1.000000
 -0.090909  0.090909  0.090909      8.000000
 -0.181818  0.181818  0.181818      8.000000
 -0.272727  0.272727  0.272727      8.000000
 -0.363636  0.363636  0.363636      8.000000
 -0.454545  0.454545  0.454545      8.000000
 -0.000000  0.000000  0.181818      6.000000
 -0.090909  0.090909  0.272727     24.000000
 -0.181818  0.181818  0.363636     24.000000
 -0.272727  0.272727  0.454545     24.000000
 -0.363636  0.363636  0.545455     24.000000
  0.545455 -0.545455 -0.363636     24.000000
  0.454545 -0.454545 -0.272727     24.000000
  0.363636 -0.363636 -0.181818     24.000000
  0.272727 -0.272727 -0.090909     24.000000
  0.181818 -0.181818 -0.000000     12.000000
 -0.000000  0.000000  0.363636      6.000000
 -0.090909  0.090909  0.454545     24.000000
 -0.181818  0.181818  0.545455     24.000000
 -0.272727  0.272727  0.636364     24.000000
  0.636364 -0.636364 -0.272727     24.000000
  0.545455 -0.545455 -0.181818     24.000000
  0.454545 -0.454545 -0.090909     24.000000
  0.363636 -0.363636 -0.000000     12.000000
 -0.000000 -0.000000  0.545455      6.000000
 -0.090909  0.090909  0.636364     24.000000
 -0.181818  0.181818  0.727273     24.000000
  0.727273 -0.727273 -0.181818     24.000000
  0.636364 -0.636364 -0.090909     24.000000
  0.545455 -0.545455 -0.000000     12.000000
 -0.000000  0.000000  0.727273      6.000000
 -0.090909  0.090909  0.818182     24.000000
  0.818182 -0.818182 -0.090909     24.000000
  0.727273 -0.727273 -0.000000     12.000000
 -0.000000  0.000000  0.909091      6.000000
  0.909091 -0.909091 -0.000000     12.000000
  0.000000  0.181818  0.363636     24.000000
 -0.090909  0.272727  0.454545     48.000000
 -0.181818  0.363636  0.545455     48.000000
  0.727273 -0.545455 -0.363636     48.000000
  0.000000  0.181818  0.545455     24.000000
 -0.090909  0.272727  0.636364     48.000000
  0.818182 -0.636364 -0.272727     48.000000
  0.727273 -0.545455 -0.181818     48.000000
  0.636364 -0.454545 -0.090909     48.000000
  0.545455 -0.363636  0.000000     24.000000
  0.000000  0.181818  0.727273     24.000000
  0.909091 -0.727273 -0.181818     48.000000
  0.818182 -0.636364 -0.090909     48.000000
  0.727273 -0.545455 -0.000000     24.000000
  1.000000 -0.818182 -0.090909     24.000000
  0.909091 -0.727273 -0.000000     24.000000
  1.000000 -0.636364 -0.272727     24.000000
  0.909091 -0.545455 -0.181818     48.000000
  1.000000 -0.636364 -0.090909     24.000000
  0.909091 -0.545455 -0.000000     24.000000
 


--------------------------------------------------------------------------------------------------------




 Dimension of arrays:
   k-points           NKPTS =     56   k-points in BZ     NKDIM =     56   number of bands    NBANDS=      8
   number of dos      NEDOS =    301   number of ions     NIONS =      2
   non local maximal  LDIM  =      4   non local SUM 2l+1 LMDIM =      8
   total plane-waves  NPLWV =   4096
   max r-space proj   IRMAX =      1   max aug-charges    IRDMAX=   3492
   dimension x,y,z NGX =    16 NGY =   16 NGZ =   16
   dimension x,y,z NGXF=    32 NGYF=   32 NGZF=   32
   support grid    NGXF=    32 NGYF=   32 NGZF=   32
   ions per type =               2
   NGX,Y,Z   is equivalent  to a cutoff of   6.84,  6.84,  6.84 a.u.
   NGXF,Y,Z  is equivalent  to a cutoff of  13.68, 13.68, 13.68 a.u.

 SYSTEM =  diamond Si                              
 POSCAR =  cubic diamond Si                        

 Startparameter for this run:
   NWRITE =      2    write-flag & timer
   PREC   = normal    normal or accurate (medium, high low for compatibility)
   ISTART =      0    job   : 0-new  1-cont  2-samecut
   ICHARG =      2    charge: 1-file 2-atom 10-const
   ISPIN  =      1    spin polarized calculation?
   LNONCOLLINEAR =      F non collinear calculations
   LSORBIT =      F    spin-orbit coupling
   INIWAV =      1    electr: 0-lowe 1-rand  2-diag
   LASPH  =      F    aspherical Exc in radial PAW
 Electronic Relaxation 1
   ENCUT  =  240.0 eV  17.64 Ry    4.20 a.u.   4.91  4.91  4.91*2*pi/ulx,y,z
   ENINI  =  240.0     initial cutoff
   ENAUG  =  322.1 eV  augmentation charge cutoff
   NELM   =     60;   NELMIN=  2; NELMDL= -5     # of ELM steps 
   EDIFF  = 0.1E-03   stopping-criterion for ELM
   LREAL  =      F    real-space projection
   NLSPLINE    = F    spline interpolate recip. space projectors
   LCOMPAT=      F    compatible to vasp.4.4
   GGA_COMPAT  = T    GGA compatible to vasp.4.4-vasp.4.6
   LMAXPAW     = -100 max onsite density
   LMAXMIX     =    2 max onsite mixed and CHGCAR
   VOSKOWN=      0    Vosko Wilk Nusair interpolation
   ROPT   =    0.00000
 Ionic relaxation
   EDIFFG = 0.1E-02   stopping-criterion for IOM
   NSW    =      0    number of steps for IOM
   NBLOCK =      1;   KBLOCK =      1    inner block; outer block 
   IBRION =     -1    ionic relax: 0-MD 1-quasi-New 2-CG
   NFREE  =      0    steps in history (QN), initial steepest desc. (CG)
   ISIF   =      2    stress and relaxation
   IWAVPR =     10    prediction:  0-non 1-charg 2-wave 3-comb
   ISYM   =      2    0-nonsym 1-usesym 2-fastsym
   LCORR  =      T    Harris-Foulkes like correction to forces

   POTIM  = 0.5000    time-step for ionic-motion
   TEIN   =    0.0    initial temperature
   TEBEG  =    0.0;   TEEND  =   0.0 temperature during run
   SMASS  =  -3.00    Nose mass-parameter (am)
   estimated Nose-frequenzy (Omega)   =  0.10E-29 period in steps = 0.13E+47 mass=  -0.346E-27a.u.
   SCALEE = 1.0000    scale energy and forces
   NPACO  =    256;   APACO  = 10.0  distance and # of slots for P.C.
   PSTRESS=    0.0 pullay stress

  Mass of Ions in am
   POMASS =  28.09
  Ionic Valenz
   ZVAL   =   4.00
  Atomic Wigner-Seitz radii
   RWIGS  =  -1.00
  virtual crystal weights 
   VCA    =   1.00
   NELECT =       8.0000    total number of electrons
   NUPDOWN=      -1.0000    fix difference up-down

 DOS related values:
   EMIN   =  10.00;   EMAX   =-10.00  energy-range for DOS
   EFERMI =   0.00
   ISMEAR =    -5;   SIGMA  =   0.20  broadening in eV -4-tet -1-fermi 0-gaus

 Electronic relaxation 2 (details)
   IALGO  =     38    algorithm
   LDIAG  =      T    sub-space diagonalisation (order eigenvalues)
   LSUBROT=      F    optimize rotation matrix (better conditioning)
   TURBO    =      0    0=normal 1=particle mesh
   IRESTART =      0    0=no restart 2=restart with 2 vectors
   NREBOOT  =      0    no. of reboots
   NMIN     =      0    reboot dimension
   EREF     =   0.00    reference energy to select bands
   IMIX   =      4    mixing-type and parameters
     AMIX     =   0.40;   BMIX     =  1.00
     AMIX_MAG =   1.60;   BMIX_MAG =  1.00
     AMIN     =   0.10
     WC   =   100.;   INIMIX=   1;  MIXPRE=   1;  MAXMIX= -45

 Intra band minimization:
   WEIMIN = 0.0000     energy-eigenvalue tresh-hold
   EBREAK =  0.31E-05  absolut break condition
   DEPER  =   0.30     relativ break condition  

   TIME   =   0.40     timestep for ELM

  volume/ion in A,a.u.               =      20.80       140.34
  Fermi-wavevector in a.u.,A,eV,Ry     =   0.944993  1.785779 12.150174  0.893013
  Thomas-Fermi vector in A             =   2.072852
 
 Write flags
   LWAVE        =      T    write WAVECAR
   LDOWNSAMPLE  =      F    k-point downsampling of WAVECAR
   LCHARG       =      T    write CHGCAR
   LVTOT        =      F    write LOCPOT, total local potential
   LVHAR        =      F    write LOCPOT, Hartree potential only
   LELF         =      F    write electronic localiz. function (ELF)
   LORBIT       =     11    0 simple, 1 ext, 2 COOP (PROOUT), +10 PAW based schemes


 Dipole corrections
   LMONO  =      F    monopole corrections only (constant potential shift)
   LDIPOL =      F    correct potential (dipole corrections)
   IDIPOL =      0    1-x, 2-y, 3-z, 4-all directions 
   EPSILON=  1.0000000 bulk dielectric constant

 Exchange correlation treatment:
   GGA     =    --    GGA type
   LEXCH   =     8    internal setting for exchange type
   LIBXC   =     F    Libxc                    
   VOSKOWN =     0    Vosko Wilk Nusair interpolation
   LHFCALC =     F    Hartree Fock is set to
   LHFONE  =     F    Hartree Fock one center treatment
   AEXX    =    0.0000 exact exchange contribution

 Linear response parameters
   LEPSILON=     F    determine dielectric tensor
   LRPA    =     F    only Hartree local field effects (RPA)
   LNABLA  =     F    use nabla operator in PAW spheres
   LVEL    =     F    velocity operator in full k-point grid
   CSHIFT  =0.1000    complex shift for real part using Kramers Kronig
   OMEGAMAX=  -1.0    maximum frequency
   DEG_THRESHOLD= 0.2000000E-02 threshold for treating states as degnerate
   RTIME   =   -0.100 relaxation time in fs
  (WPLASMAI=    0.000 imaginary part of plasma frequency in eV, 0.658/RTIME)
   DFIELD  = 0.0000000 0.0000000 0.0000000 field for delta impulse in time
 
  Optional k-point grid parameters
   LKPOINTS_OPT  =     F    use optional k-point grid
   KPOINTS_OPT_MODE=     1    mode for optional k-point grid
 
 Orbital magnetization related:
   ORBITALMAG=     F  switch on orbital magnetization
   LCHIMAG   =     F  perturbation theory with respect to B field
   DQ        =  0.001000  dq finite difference perturbation B field
   LLRAUG    =     F  two centre corrections for induced B field



--------------------------------------------------------------------------------------------------------


 Static calculation
 charge density and potential will be updated during run
 non-spin polarized calculation
 Variant of blocked Davidson
 Davidson routine will perform the subspace rotation
 perform sub-space diagonalisation
    after iterative eigenvector-optimisation
 modified Broyden-mixing scheme, WC =      100.0
 initial mixing is a Kerker type mixing with AMIX =  0.4000 and BMIX =      1.0000
 Hartree-type preconditioning will be used
 using additional bands            4
 reciprocal scheme for non local part
 use partial core corrections
 calculate Harris-corrections to forces 
   (improved forces if not selfconsistent)
 use gradient corrections 
 use of overlap-Matrix (Vanderbilt PP)
 Fermi weights with tetrahedron method with Bloechl corrections


--------------------------------------------------------------------------------------------------------


  energy-cutoff  :      240.00
  volume of cell :       41.59
      direct lattice vectors                 reciprocal lattice vectors
     0.000000000  2.750000000  2.750000000    -0.181818182  0.181818182  0.181818182
     2.750000000  0.000000000  2.750000000     0.181818182 -0.181818182  0.181818182
     2.750000000  2.750000000  0.000000000     0.181818182  0.181818182 -0.181818182

  length of vectors
     3.889087297  3.889087297  3.889087297     0.314918329  0.314918329  0.314918329


 
 k-points in units of 2pi/SCALE and weight: k-points                                
   0.00000000  0.00000000  0.00000000       0.001
  -0.09090909  0.09090909  0.09090909       0.006
  -0.18181818  0.18181818  0.18181818       0.006
  -0.27272727  0.27272727  0.27272727       0.006
  -0.36363636  0.36363636  0.36363636       0.006
  -0.45454545  0.45454545  0.45454545       0.006
  -0.00000000  0.00000000  0.18181818       0.005
  -0.09090909  0.09090909  0.27272727       0.018
  -0.18181818  0.18181818  0.36363636       0.018
  -0.27272727  0.27272727  0.45454545       0.018
  -0.36363636  0.36363636  0.54545455       0.018
   0.54545455 -0.54545455 -0.36363636       0.018
   0.45454545 -0.45454545 -0.27272727       0.018
   0.36363636 -0.36363636 -0.18181818       0.018
   0.27272727 -0.27272727 -0.09090909       0.018
   0.18181818 -0.18181818 -0.00000000       0.009
  -0.00000000  0.00000000  0.36363636       0.005
  -0.09090909  0.09090909  0.45454545       0.018
  -0.18181818  0.18181818  0.54545455       0.018
  -0.27272727  0.27272727  0.63636364       0.018
   0.63636364 -0.63636364 -0.27272727       0.018
   0.54545455 -0.54545455 -0.18181818       0.018
   0.45454545 -0.45454545 -0.09090909       0.018
   0.36363636 -0.36363636 -0.00000000       0.009
  -0.00000000 -0.00000000  0.54545455       0.005
  -0.09090909  0.09090909  0.63636364       0.018
  -0.18181818  0.18181818  0.72727273       0.018
   0.72727273 -0.72727273 -0.18181818       0.018
   0.63636364 -0.63636364 -0.09090909       0.018
   0.54545455 -0.54545455 -0.00000000       0.009
  -0.00000000  0.00000000  0.72727273       0.005
  -0.09090909  0.09090909  0.81818182       0.018
   0.81818182 -0.81818182 -0.09090909       0.018
   0.72727273 -0.72727273 -0.00000000       0.009
  -0.00000000  0.00000000  0.90909091       0.005
   0.90909091 -0.90909091 -0.00000000       0.009
   0.00000000  0.18181818  0.36363636       0.018
  -0.09090909  0.27272727  0.45454545       0.036
  -0.18181818  0.36363636  0.54545455       0.036
   0.72727273 -0.54545455 -0.36363636       0.036
   0.00000000  0.18181818  0.54545455       0.018
  -0.09090909  0.27272727  0.63636364       0.036
   0.81818182 -0.63636364 -0.27272727       0.036
   0.72727273 -0.54545455 -0.18181818       0.036
   0.63636364 -0.45454545 -0.09090909       0.036
   0.54545455 -0.36363636  0.00000000       0.018
   0.00000000  0.18181818  0.72727273       0.018
   0.90909091 -0.72727273 -0.18181818       0.036
   0.81818182 -0.63636364 -0.09090909       0.036
   0.72727273 -0.54545455 -0.00000000       0.018
   1.00000000 -0.81818182 -0.09090909       0.018
   0.90909091 -0.72727273 -0.00000000       0.018
   1.00000000 -0.63636364 -0.27272727       0.018
   0.90909091 -0.54545455 -0.18181818       0.036
   1.00000000 -0.63636364 -0.09090909       0.018
   0.90909091 -0.54545455 -0.00000000       0.018
 
 k-points in reciprocal lattice and weights: k-points                                
   0.00000000  0.00000000  0.00000000       0.001
   0.09090909  0.00000000  0.00000000       0.006
   0.18181818 -0.00000000  0.00000000       0.006
   0.27272727  0.00000000 -0.00000000       0.006
   0.36363636 -0.00000000  0.00000000       0.006
   0.45454545  0.00000000 -0.00000000       0.006
   0.09090909  0.09090909 -0.00000000       0.005
   0.18181818  0.09090909  0.00000000       0.018
   0.27272727  0.09090909  0.00000000       0.018
   0.36363636  0.09090909 -0.00000000       0.018
   0.45454545  0.09090909  0.00000000       0.018
  -0.45454545  0.09090909  0.00000000       0.018
  -0.36363636  0.09090909 -0.00000000       0.018
  -0.27272727  0.09090909 -0.00000000       0.018
  -0.18181818  0.09090909  0.00000000       0.018
  -0.09090909  0.09090909 -0.00000000       0.009
   0.18181818  0.18181818 -0.00000000       0.005
   0.27272727  0.18181818  0.00000000       0.018
   0.36363636  0.18181818  0.00000000       0.018
   0.45454545  0.18181818  0.00000000       0.018
  -0.45454545  0.18181818  0.00000000       0.018
  -0.36363636  0.18181818  0.00000000       0.018
  -0.27272727  0.18181818  0.00000000       0.018
  -0.18181818  0.18181818 -0.00000000       0.009
   0.27272727  0.27272727 -0.00000000       0.005
   0.36363636  0.27272727  0.00000000       0.018
   0.45454545  0.27272727 -0.00000000       0.018
  -0.45454545  0.27272727  0.00000000       0.018
  -0.36363636  0.27272727  0.00000000       0.018
  -0.27272727  0.27272727  0.00000000       0.009
   0.36363636  0.36363636 -0.00000000       0.005
   0.45454545  0.36363636 -0.00000000       0.018
  -0.45454545  0.36363636 -0.00000000       0.018
  -0.36363636  0.36363636 -0.00000000       0.009
   0.45454545  0.45454545 -0.00000000       0.005
  -0.45454545  0.45454545  0.00000000       0.009
   0.27272727  0.18181818  0.09090909       0.018
   0.36363636  0.18181818  0.09090909       0.036
   0.45454545  0.18181818  0.09090909       0.036
  -0.45454545  0.18181818  0.09090909       0.036
   0.36363636  0.27272727  0.09090909       0.018
   0.45454545  0.27272727  0.09090909       0.036
  -0.45454545  0.27272727  0.09090909       0.036
  -0.36363636  0.27272727  0.09090909       0.036
  -0.27272727  0.27272727  0.09090909       0.036
  -0.18181818  0.27272727  0.09090909       0.018
   0.45454545  0.36363636  0.09090909       0.018
  -0.45454545  0.36363636  0.09090909       0.036
  -0.36363636  0.36363636  0.09090909       0.036
  -0.27272727  0.36363636  0.09090909       0.018
  -0.45454545  0.45454545  0.09090909       0.018
  -0.36363636  0.45454545  0.09090909       0.018
  -0.45454545  0.36363636  0.18181818       0.018
  -0.36363636  0.36363636  0.18181818       0.036
  -0.36363636  0.45454545  0.18181818       0.018
  -0.27272727  0.45454545  0.18181818       0.018
 
 position of ions in fractional coordinates (direct lattice) 
   0.87500000  0.87500000  0.87500000
   0.12500000  0.12500000  0.12500000
 
 position of ions in cartesian coordinates  (Angst):
   4.81250000  4.81250000  4.81250000
   0.68750000  0.68750000  0.68750000
 


--------------------------------------------------------------------------------------------------------


 k-point   1 :   0.0000 0.0000 0.0000  plane waves:     339
 k-point   2 :   0.0909 0.0000 0.0000  plane waves:     335
 k-point   3 :   0.1818-0.0000 0.0000  plane waves:     344
 k-point   4 :   0.2727 0.0000-0.0000  plane waves:     350
 k-point   5 :   0.3636-0.0000 0.0000  plane waves:     353
 k-point   6 :   0.4545 0.0000-0.0000  plane waves:     356
 k-point   7 :   0.0909 0.0909-0.0000  plane waves:     335
 k-point   8 :   0.1818 0.0909 0.0000  plane waves:     345
 k-point   9 :   0.2727 0.0909 0.0000  plane waves:     343
 k-point  10 :   0.3636 0.0909-0.0000  plane waves:     349
 k-point  11 :   0.4545 0.0909 0.0000  plane waves:     347
 k-point  12 :  -0.4545 0.0909 0.0000  plane waves:     353
 k-point  13 :  -0.3636 0.0909-0.0000  plane waves:     352
 k-point  14 :  -0.2727 0.0909-0.0000  plane waves:     348
 k-point  15 :  -0.1818 0.0909 0.0000  plane waves:     351
 k-point  16 :  -0.0909 0.0909-0.0000  plane waves:     343
 k-point  17 :   0.1818 0.1818-0.0000  plane waves:     347
 k-point  18 :   0.2727 0.1818 0.0000  plane waves:     348
 k-point  19 :   0.3636 0.1818 0.0000  plane waves:     349
 k-point  20 :   0.4545 0.1818 0.0000  plane waves:     348
 k-point  21 :  -0.4545 0.1818 0.0000  plane waves:     360
 k-point  22 :  -0.3636 0.1818 0.0000  plane waves:     354
 k-point  23 :  -0.2727 0.1818 0.0000  plane waves:     351
 k-point  24 :  -0.1818 0.1818-0.0000  plane waves:     349
 k-point  25 :   0.2727 0.2727-0.0000  plane waves:     347
 k-point  26 :   0.3636 0.2727 0.0000  plane waves:     341
 k-point  27 :   0.4545 0.2727-0.0000  plane waves:     346
 k-point  28 :  -0.4545 0.2727 0.0000  plane waves:     359
 k-point  29 :  -0.3636 0.2727 0.0000  plane waves:     358
 k-point  30 :  -0.2727 0.2727 0.0000  plane waves:     351
 k-point  31 :   0.3636 0.3636-0.0000  plane waves:     351
 k-point  32 :   0.4545 0.3636-0.0000  plane waves:     348
 k-point  33 :  -0.4545 0.3636-0.0000  plane waves:     358
 k-point  34 :  -0.3636 0.3636-0.0000  plane waves:     351
 k-point  35 :   0.4545 0.4545-0.0000  plane waves:     343
 k-point  36 :  -0.4545 0.4545 0.0000  plane waves:     347
 k-point  37 :   0.2727 0.1818 0.0909  plane waves:     349
 k-point  38 :   0.3636 0.1818 0.0909  plane waves:     343
 k-point  39 :   0.4545 0.1818 0.0909  plane waves:     348
 k-point  40 :  -0.4545 0.1818 0.0909  plane waves:     354
 k-point  41 :   0.3636 0.2727 0.0909  plane waves:     346
 k-point  42 :   0.4545 0.2727 0.0909  plane waves:     345
 k-point  43 :  -0.4545 0.2727 0.0909  plane waves:     355
 k-point  44 :  -0.3636 0.2727 0.0909  plane waves:     359
 k-point  45 :  -0.2727 0.2727 0.0909  plane waves:     355
 k-point  46 :  -0.1818 0.2727 0.0909  plane waves:     350
 k-point  47 :   0.4545 0.3636 0.0909  plane waves:     342
 k-point  48 :  -0.4545 0.3636 0.0909  plane waves:     349
 k-point  49 :  -0.3636 0.3636 0.0909  plane waves:     356
 k-point  50 :  -0.2727 0.3636 0.0909  plane waves:     355
 k-point  51 :  -0.4545 0.4545 0.0909  plane waves:     357
 k-point  52 :  -0.3636 0.4545 0.0909  plane waves:     357
 k-point  53 :  -0.4545 0.3636 0.1818  plane waves:     349
 k-point  54 :  -0.3636 0.3636 0.1818  plane waves:     359
 k-point  55 :  -0.3636 0.4545 0.1818  plane waves:     355
 k-point  56 :  -0.2727 0.4545 0.1818  plane waves:     355

 maximum and minimum number of plane-waves per node :       360      335

 maximum number of plane-waves:       360
 maximum index in each direction: 
   IXMAX=    5   IYMAX=    4   IZMAX=    4
   IXMIN=   -5   IYMIN=   -5   IZMIN=   -5


 serial   3D FFT for wavefunctions
 parallel 3D FFT for charge:
    minimum data exchange during FFTs selected (reduces bandwidth)


 total amount of memory used by VASP MPI-rank0    32859. kBytes
=======================================================================

   base      :      30000. kBytes
   nonl-proj :       1301. kBytes
   fftplans  :        302. kBytes
   grid      :        577. kBytes
   one-center:          6. kBytes
   wavefun   :        673. kBytes
 
     INWAV:  cpu time      0.0000: real time      0.0001
 Broyden mixing: mesh for mixing (old mesh)
   NGX =  9   NGY =  9   NGZ =  9
  (NGX  = 32   NGY  = 32   NGZ  = 32)
  gives a total of    729 points

 initial charge density was supplied:
 charge density of overlapping atoms calculated
 number of electron       8.0000000 magnetization 
 keeping initial charge density in first step


--------------------------------------------------------------------------------------------------------


 Maximum index for augmentation-charges          805 (set IRDMAX)


--------------------------------------------------------------------------------------------------------


 First call to EWALD:  gamma=   0.512
 Maximum number of real-space cells 3x 3x 3
 Maximum number of reciprocal cells 3x 3x 3

    FEWALD:  cpu time      0.0015: real time      0.0016


--------------------------------------- Iteration      1(   1)  ---------------------------------------


    POTLOK:  cpu time      0.0042: real time      0.0044
    SETDIJ:  cpu time      0.0013: real time      0.0013
     EDDAV:  cpu time      0.0729: real time      0.0740
 BZINTS: Fermi energy:    7.990268;    8.000000 electrons
         Band energy: 0.958766E+01;  BLOECHL correction:   -0.070296
       DOS:  cpu time      0.0029: real time      0.0029
    --------------------------------------------
      LOOP:  cpu time      0.0813: real time      0.0826

 eigenvalue-minimisations  :   904
 total energy-change (2. order) :-0.1857951E+01  (-0.2004046E+03)
 number of electron       8.0000000 magnetization 
 augmentation part        8.0000000 magnetization 

 Free energy of the ion-electron system (eV)
  ---------------------------------------------------
  alpha Z        PSCENC =         3.23732588
  Ewald energy   TEWEN  =      -225.65453461
  -Hartree energ DENC   =       -11.58535014
  -exchange      EXHF   =         0.00000000
  -V(xc)+E(xc)   XCENC  =       -18.75116554
  PAW double counting   =       176.24759923     -141.06103558
  entropy T*S    EENTRO =         0.00000000
  eigenvalues    EBANDS =         9.58765681
  atomic energy  EATOM  =       206.12155316
  Solvation  Ediel_sol  =         0.00000000
  ---------------------------------------------------
  free energy    TOTEN  =        -1.85795080 eV

  energy without entropy =       -1.85795080  energy(sigma->0) =       -1.85795080


--------------------------------------------------------------------------------------------------------




--------------------------------------- Iteration      1(   2)  ---------------------------------------


     EDDAV:  cpu time      0.1160: real time      0.1177
 BZINTS: Fermi energy:    4.972779;    8.000000 electrons
         Band energy: 0.553004E+00;  BLOECHL correction:    0.000000
       DOS:  cpu time      0.0019: real time      0.0020
    --------------------------------------------
      LOOP:  cpu time      0.1179: real time      0.1197

 eigenvalue-minimisations  :  1440
 total energy-change (2. order) :-0.9034653E+01  (-0.8977780E+01)
 number of electron       8.0000000 magnetization 
 augmentation part        8.0000000 magnetization 

 Free energy of the ion-electron system (eV)
  ---------------------------------------------------
  alpha Z        PSCENC =         3.23732588
  Ewald energy   TEWEN  =      -225.65453461
  -Hartree energ DENC   =       -11.58535014
  -exchange      EXHF   =         0.00000000
  -V(xc)+E(xc)   XCENC  =       -18.75116554
  PAW double counting   =       176.24759923     -141.06103558
  entropy T*S    EENTRO =         0.00000000
  eigenvalues    EBANDS =         0.55300367
  atomic energy  EATOM  =       206.12155316
  Solvation  Ediel_sol  =         0.00000000
  ---------------------------------------------------
  free energy    TOTEN  =       -10.89260393 eV

  energy without entropy =      -10.89260393  energy(sigma->0) =      -10.89260393


--------------------------------------------------------------------------------------------------------




--------------------------------------- Iteration      1(   3)  ---------------------------------------


     EDDAV:  cpu time      0.0956: real time      0.0971
 BZINTS: Fermi energy:    4.929882;    8.000000 electrons
         Band energy: 0.465054E+00;  BLOECHL correction:   -0.000000
       DOS:  cpu time      0.0019: real time      0.0019
    --------------------------------------------
      LOOP:  cpu time      0.0975: real time      0.0990

 eigenvalue-minimisations  :  1208
 total energy-change (2. order) :-0.8794923E-01  (-0.8794923E-01)
 number of electron       8.0000000 magnetization 
 augmentation part        8.0000000 magnetization 

 Free energy of the ion-electron system (eV)
  ---------------------------------------------------
  alpha Z        PSCENC =         3.23732588
  Ewald energy   TEWEN  =      -225.65453461
  -Hartree energ DENC   =       -11.58535014
  -exchange      EXHF   =         0.00000000
  -V(xc)+E(xc)   XCENC  =       -18.75116554
  PAW double counting   =       176.24759923     -141.06103558
  entropy T*S    EENTRO =         0.00000000
  eigenvalues    EBANDS =         0.46505444
  atomic energy  EATOM  =       206.12155316
  Solvation  Ediel_sol  =         0.00000000
  ---------------------------------------------------
  free energy    TOTEN  =       -10.98055317 eV

  energy without entropy =      -10.98055317  energy(sigma->0) =      -10.98055317


--------------------------------------------------------------------------------------------------------




--------------------------------------- Iteration      1(   4)  ---------------------------------------


     EDDAV:  cpu time      0.1087: real time      0.1106
 BZINTS: Fermi energy:    4.929935;    8.000000 electrons
         Band energy: 0.464856E+00;  BLOECHL correction:    0.000000
       DOS:  cpu time      0.0018: real time      0.0019
    --------------------------------------------
      LOOP:  cpu time      0.1105: real time      0.1126

 eigenvalue-minimisations  :  1368
 total energy-change (2. order) :-0.1986315E-03  (-0.1986316E-03)
 number of electron       8.0000000 magnetization 
 augmentation part        8.0000000 magnetization 

 Free energy of the ion-electron system (eV)
  ---------------------------------------------------
  alpha Z        PSCENC =         3.23732588
  Ewald energy   TEWEN  =      -225.65453461
  -Hartree energ DENC   =       -11.58535014
  -exchange      EXHF   =         0.00000000
  -V(xc)+E(xc)   XCENC  =       -18.75116554
  PAW double counting   =       176.24759923     -141.06103558
  entropy T*S    EENTRO =         0.00000000
  eigenvalues    EBANDS =         0.46485581
  atomic energy  EATOM  =       206.12155316
  Solvation  Ediel_sol  =         0.00000000
  ---------------------------------------------------
  free energy    TOTEN  =       -10.98075180 eV

  energy without entropy =      -10.98075180  energy(sigma->0) =      -10.98075180


--------------------------------------------------------------------------------------------------------




--------------------------------------- Iteration      1(   5)  ---------------------------------------


     EDDAV:  cpu time      0.0987: real time      0.1001
 BZINTS: Fermi energy:    4.930007;    8.000000 electrons
         Band energy: 0.464856E+00;  BLOECHL correction:    0.000000
       DOS:  cpu time      0.0019: real time      0.0020
    CHARGE:  cpu time      0.0032: real time      0.0032
    MIXING:  cpu time      0.0005: real time      0.0005
    --------------------------------------------
      LOOP:  cpu time      0.1043: real time      0.1058

 eigenvalue-minimisations  :  1256
 total energy-change (2. order) :-0.1130965E-06  (-0.1130965E-06)
 number of electron       8.0000001 magnetization 
 augmentation part       -0.4671975 magnetization 

 Broyden mixing:
  rms(total) = 0.51883E+00    rms(broyden)= 0.51881E+00
  rms(prec ) = 0.93796E+00
  weight for this iteration     100.00

 Free energy of the ion-electron system (eV)
  ---------------------------------------------------
  alpha Z        PSCENC =         3.23732588
  Ewald energy   TEWEN  =      -225.65453461
  -Hartree energ DENC   =       -11.58535014
  -exchange      EXHF   =         0.00000000
  -V(xc)+E(xc)   XCENC  =       -18.75116554
  PAW double counting   =       176.24759923     -141.06103558
  entropy T*S    EENTRO =         0.00000000
  eigenvalues    EBANDS =         0.46485570
  atomic energy  EATOM  =       206.12155316
  Solvation  Ediel_sol  =         0.00000000
  ---------------------------------------------------
  free energy    TOTEN  =       -10.98075191 eV

  energy without entropy =      -10.98075191  energy(sigma->0) =      -10.98075191


--------------------------------------------------------------------------------------------------------




--------------------------------------- Iteration      1(   6)  ---------------------------------------


    POTLOK:  cpu time      0.0036: real time      0.0037
    SETDIJ:  cpu time      0.0012: real time      0.0012
     EDDAV:  cpu time      0.0815: real time      0.0826
 BZINTS: Fermi energy:    5.142840;    8.000000 electrons
         Band energy: 0.187256E+01;  BLOECHL correction:   -0.000000
       DOS:  cpu time      0.0019: real time      0.0020
    CHARGE:  cpu time      0.0028: real time      0.0029
    MIXING:  cpu time      0.0004: real time      0.0004
    --------------------------------------------
      LOOP:  cpu time      0.0914: real time      0.0928

 eigenvalue-minimisations  :  1064
 total energy-change (2. order) : 0.1084023E+00  (-0.6916358E-02)
 number of electron       8.0000001 magnetization 
 augmentation part       -0.4619293 magnetization 

 Broyden mixing:
  rms(total) = 0.31702E+00    rms(broyden)= 0.31702E+00
  rms(prec ) = 0.56104E+00
  weight for this iteration     100.00

 eigenvalues of (default mixing * dielectric matrix)
  average eigenvalue GAMMA=   2.5646
  2.5646

 Free energy of the ion-electron system (eV)
  ---------------------------------------------------
  alpha Z        PSCENC =         3.23732588
  Ewald energy   TEWEN  =      -225.65453461
  -Hartree energ DENC   =       -13.01578958
  -exchange      EXHF   =         0.00000000
  -V(xc)+E(xc)   XCENC  =       -18.52133453
  PAW double counting   =       405.66059978     -370.57273296
  entropy T*S    EENTRO =         0.00000000
  eigenvalues    EBANDS =         1.87256321
  atomic energy  EATOM  =       206.12155316
  Solvation  Ediel_sol  =         0.00000000
  ---------------------------------------------------
  free energy    TOTEN  =       -10.87234965 eV

  energy without entropy =      -10.87234965  energy(sigma->0) =      -10.87234965


--------------------------------------------------------------------------------------------------------




--------------------------------------- Iteration      1(   7)  ---------------------------------------


    POTLOK:  cpu time      0.0036: real time      0.0038
    SETDIJ:  cpu time      0.0011: real time      0.0011
     EDDAV:  cpu time      0.0852: real time      0.0864
 BZINTS: Fermi energy:    5.469870;    8.000000 electrons
         Band energy: 0.403681E+01;  BLOECHL correction:   -0.000000
       DOS:  cpu time      0.0019: real time      0.0020
    CHARGE:  cpu time      0.0028: real time      0.0028
    MIXING:  cpu time      0.0003: real time      0.0003
    --------------------------------------------
      LOOP:  cpu time      0.0950: real time      0.0965

 eigenvalue-minimisations  :  1120
 total energy-change (2. order) : 0.5053987E-01  (-0.1357494E-01)
 number of electron       8.0000001 magnetization 
 augmentation part       -0.4555347 magnetization 

 Broyden mixing:
  rms(total) = 0.16275E-01    rms(broyden)= 0.16274E-01
  rms(prec ) = 0.38510E-01
  weight for this iteration     100.00

 eigenvalues of (default mixing * dielectric matrix)
  average eigenvalue GAMMA=   2.0356
  1.6722  2.3990

 Free energy of the ion-electron system (eV)
  ---------------------------------------------------
  alpha Z        PSCENC =         3.23732588
  Ewald energy   TEWEN  =      -225.65453461
  -Hartree energ DENC   =       -15.38764408
  -exchange      EXHF   =         0.00000000
  -V(xc)+E(xc)   XCENC  =       -18.13480911
  PAW double counting   =       973.31487693     -938.35538460
  entropy T*S    EENTRO =         0.00000000
  eigenvalues    EBANDS =         4.03680666
  atomic energy  EATOM  =       206.12155316
  Solvation  Ediel_sol  =         0.00000000
  ---------------------------------------------------
  free energy    TOTEN  =       -10.82180978 eV

  energy without entropy =      -10.82180978  energy(sigma->0) =      -10.82180978


--------------------------------------------------------------------------------------------------------




--------------------------------------- Iteration      1(   8)  ---------------------------------------


    POTLOK:  cpu time      0.0036: real time      0.0037
    SETDIJ:  cpu time      0.0011: real time      0.0011
     EDDAV:  cpu time      0.0712: real time      0.0723
 BZINTS: Fermi energy:    5.453858;    8.000000 electrons
         Band energy: 0.393967E+01;  BLOECHL correction:   -0.000000
       DOS:  cpu time      0.0020: real time      0.0020
    CHARGE:  cpu time      0.0029: real time      0.0029
    MIXING:  cpu time      0.0003: real time      0.0003
    --------------------------------------------
      LOOP:  cpu time      0.0811: real time      0.0824

 eigenvalue-minimisations  :   944
 total energy-change (2. order) :-0.1034686E-02  (-0.3297196E-03)
 number of electron       8.0000001 magnetization 
 augmentation part       -0.4564233 magnetization 

 Broyden mixing:
  rms(total) = 0.70572E-02    rms(broyden)= 0.70567E-02
  rms(prec ) = 0.13233E-01
  weight for this iteration     100.00

 eigenvalues of (default mixing * dielectric matrix)
  average eigenvalue GAMMA=   2.2190
  2.8419  1.9075  1.9075

 Free energy of the ion-electron system (eV)
  ---------------------------------------------------
  alpha Z        PSCENC =         3.23732588
  Ewald energy   TEWEN  =      -225.65453461
  -Hartree energ DENC   =       -15.31490237
  -exchange      EXHF   =         0.00000000
  -V(xc)+E(xc)   XCENC  =       -18.13675761
  PAW double counting   =       974.16903038     -939.18423422
  entropy T*S    EENTRO =         0.00000000
  eigenvalues    EBANDS =         3.93967493
  atomic energy  EATOM  =       206.12155316
  Solvation  Ediel_sol  =         0.00000000
  ---------------------------------------------------
  free energy    TOTEN  =       -10.82284447 eV

  energy without entropy =      -10.82284447  energy(sigma->0) =      -10.82284447


--------------------------------------------------------------------------------------------------------




--------------------------------------- Iteration      1(   9)  ---------------------------------------


    POTLOK:  cpu time      0.0037: real time      0.0038
    SETDIJ:  cpu time      0.0011: real time      0.0011
     EDDAV:  cpu time      0.1031: real time      0.1049
 BZINTS: Fermi energy:    5.458188;    8.000000 electrons
         Band energy: 0.397156E+01;  BLOECHL correction:   -0.000000
       DOS:  cpu time      0.0020: real time      0.0020
    CHARGE:  cpu time      0.0028: real time      0.0028
    MIXING:  cpu time      0.0003: real time      0.0003
    --------------------------------------------
      LOOP:  cpu time      0.1130: real time      0.1150

 eigenvalue-minimisations  :  1312
 total energy-change (2. order) :-0.2169691E-03  (-0.2202799E-04)
 number of electron       8.0000001 magnetization 
 augmentation part       -0.4565582 magnetization 

 Broyden mixing:
  rms(total) = 0.55699E-02    rms(broyden)= 0.55699E-02
  rms(prec ) = 0.63768E-02
  weight for this iteration     100.00

 eigenvalues of (default mixing * dielectric matrix)
  average eigenvalue GAMMA=   2.1024
  0.9467  2.5686  2.5686  2.3258

 Free energy of the ion-electron system (eV)
  ---------------------------------------------------
  alpha Z        PSCENC =         3.23732588
  Ewald energy   TEWEN  =      -225.65453461
  -Hartree energ DENC   =       -15.35869939
  -exchange      EXHF   =         0.00000000
  -V(xc)+E(xc)   XCENC  =       -18.12818758
  PAW double counting   =       977.02873774     -942.04081292
  entropy T*S    EENTRO =         0.00000000
  eigenvalues    EBANDS =         3.97155629
  atomic energy  EATOM  =       206.12155316
  Solvation  Ediel_sol  =         0.00000000
  ---------------------------------------------------
  free energy    TOTEN  =       -10.82306144 eV

  energy without entropy =      -10.82306144  energy(sigma->0) =      -10.82306144


--------------------------------------------------------------------------------------------------------




--------------------------------------- Iteration      1(  10)  ---------------------------------------


    POTLOK:  cpu time      0.0036: real time      0.0038
    SETDIJ:  cpu time      0.0011: real time      0.0011
     EDDAV:  cpu time      0.0471: real time      0.0479
 BZINTS: Fermi energy:    5.459786;    8.000000 electrons
         Band energy: 0.398024E+01;  BLOECHL correction:    0.000000
       DOS:  cpu time      0.0019: real time      0.0019
    --------------------------------------------
      LOOP:  cpu time      0.0537: real time      0.0547

 eigenvalue-minimisations  :   560
 total energy-change (2. order) :-0.2317908E-04  (-0.2574252E-05)
 number of electron       8.0000001 magnetization 
 augmentation part       -0.4565582 magnetization 

 Free energy of the ion-electron system (eV)
  ---------------------------------------------------
  alpha Z        PSCENC =         3.23732588
  Ewald energy   TEWEN  =      -225.65453461
  -Hartree energ DENC   =       -15.36738772
  -exchange      EXHF   =         0.00000000
  -V(xc)+E(xc)   XCENC  =       -18.12795946
  PAW double counting   =       964.60986453     -929.62218162
  entropy T*S    EENTRO =         0.00000000
  eigenvalues    EBANDS =         3.98023523
  atomic energy  EATOM  =       206.12155316
  Solvation  Ediel_sol  =         0.00000000
  ---------------------------------------------------
  free energy    TOTEN  =       -10.82308462 eV

  energy without entropy =      -10.82308462  energy(sigma->0) =      -10.82308462


--------------------------------------------------------------------------------------------------------




 average (electrostatic) potential at core
  the test charge radii are     0.9892
  (the norm of the test charge is              1.0000)
       1 -83.6740       2 -83.6740
 
 
 
 E-fermi :   5.4598     XC(G=0):  -9.2621     alpha+bet :-11.5327

 Fermi energy:         5.4597861276

 k-point     1 :       0.0000    0.0000    0.0000
  band No.  band energies     occupation 
      1      -6.2527      2.00000
      2       5.4595      2.00000
      3       5.4595      2.00000
      4       5.4595      2.00000
      5       8.0113      0.00000
      6       8.0113      0.00000
      7       8.0113      0.00000
      8       8.3878      0.00000

 k-point     2 :       0.0909    0.0000    0.0000
  band No.  band energies     occupation 
      1      -6.1478      2.00000
      2       4.4715      2.00000
      3       5.2986      2.00000
      4       5.2986      2.00000
      5       7.9592      0.00000
      6       8.2500      0.00000
      7       8.2500      0.00000
      8       9.2591      0.00000

 k-point     3 :       0.1818   -0.0000    0.0000
  band No.  band energies     occupation 
      1      -5.8379      2.00000
      2       2.8220      2.00000
      3       4.9659      2.00000
      4       4.9659      2.00000
      5       7.6248      0.00000
      6       8.7136      0.00000
      7       8.7136      0.00000
      8      10.8654      0.00000

 k-point     4 :       0.2727    0.0000   -0.0000
  band No.  band energies     occupation 
      1      -5.3392      2.00000
      2       1.2036      2.00000
      3       4.6485      2.00000
      4       4.6485      2.00000
      5       7.2791      0.00000
      6       8.9744      0.00000
      7       8.9744      0.00000
      8      12.4439      0.00000

 k-point     5 :       0.3636   -0.0000    0.0000
  band No.  band energies     occupation 
      1      -4.7036      2.00000
      2      -0.2106      2.00000
      3       4.4206      2.00000
      4       4.4207      2.00000
      5       7.0195      0.00000
      6       8.9382      0.00000
      7       8.9382      0.00000
      8      13.2505      0.00000

 k-point     6 :       0.4545    0.0000   -0.0000
  band No.  band energies     occupation 
      1      -4.1214      2.00000
      2      -1.1883      2.00000
      3       4.3042      2.00000
      4       4.3042      2.00000
      5       6.8834      0.00000
      6       8.8436      0.00000
      7       8.8436      0.00000
      8      13.1576      0.00000

 k-point     7 :       0.0909    0.0909   -0.0000
  band No.  band energies     occupation 
      1      -6.1127      2.00000
      2       4.6228      2.00000
      3       4.9859      2.00000
      4       4.9859      2.00000
      5       7.7015      0.00000
      6       8.6590      0.00000
      7       8.6590      0.00000
      8       9.1603      0.00000

 k-point     8 :       0.1818    0.0909    0.0000
  band No.  band energies     occupation 
      1      -5.8703      2.00000
      2       3.2969      2.00000
      3       4.5997      2.00000
      4       4.7634      2.00000
      5       7.7311      0.00000
      6       8.6381      0.00000
      7       9.2363      0.00000
      8      10.2333      0.00000

 k-point     9 :       0.2727    0.0909    0.0000
  band No.  band energies     occupation 
      1      -5.4319      2.00000
      2       1.7182      2.00000
      3       4.2875      2.00000
      4       4.3968      2.00000
      5       7.8134      0.00000
      6       8.6682      0.00000
      7       9.5949      0.00000
      8      10.7806      0.00000

 k-point    10 :       0.3636    0.0909   -0.0000
  band No.  band energies     occupation 
      1      -4.8321      2.00000
      2       0.2534      2.00000
      3       4.0231      2.00000
      4       4.1029      2.00000
      5       7.6344      0.00000
      6       8.7552      0.00000
      7       9.5496      0.00000
      8      11.5406      0.00000

 k-point    11 :       0.4545    0.0909    0.0000
  band No.  band energies     occupation 
      1      -4.1905      2.00000
      2      -0.8990      2.00000
      3       3.7332      2.00000
      4       4.0611      2.00000
      5       7.4861      0.00000
      6       8.7393      0.00000
      7       9.3332      0.00000
      8      12.7473      0.00000

 k-point    12 :      -0.4545    0.0909    0.0000
  band No.  band energies     occupation 
      1      -3.9350      2.00000
      2      -1.2828      2.00000
      3       3.5621      2.00000
      4       4.1569      2.00000
      5       7.4509      0.00000
      6       8.8033      0.00000
      7       9.1542      0.00000
      8      13.4423      0.00000

 k-point    13 :      -0.3636    0.0909   -0.0000
  band No.  band energies     occupation 
      1      -4.3945      2.00000
      2      -0.5646      2.00000
      3       3.5310      2.00000
      4       4.3767      2.00000
      5       7.5469      0.00000
      6       8.9885      0.00000
      7       9.0708      0.00000
      8      13.1033      0.00000

 k-point    14 :      -0.2727    0.0909   -0.0000
  band No.  band energies     occupation 
      1      -5.0474      2.00000
      2       0.7218      2.00000
      3       3.6542      2.00000
      4       4.6918      2.00000
      5       7.7590      0.00000
      6       8.9874      0.00000
      7       9.1822      0.00000
      8      12.0353      0.00000

 k-point    15 :      -0.1818    0.0909    0.0000
  band No.  band energies     occupation 
      1      -5.5997      2.00000
      2       2.2280      2.00000
      3       3.9499      2.00000
      4       5.0470      2.00000
      5       8.0525      0.00000
      6       8.6949      0.00000
      7       9.0339      0.00000
      8      11.1179      0.00000

 k-point    16 :      -0.0909    0.0909   -0.0000
  band No.  band energies     occupation 
      1      -5.9744      2.00000
      2       3.6654      2.00000
      3       4.5048      2.00000
      4       5.3165      2.00000
      5       8.2802      0.00000
      6       8.3010      0.00000
      7       8.4569      0.00000
      8      10.1749      0.00000

 k-point    17 :       0.1818    0.1818   -0.0000
  band No.  band energies     occupation 
      1      -5.6958      2.00000
      2       3.1221      2.00000
      3       4.1788      2.00000
      4       4.1788      2.00000
      5       7.0733      0.00000
      6       9.4773      0.00000
      7       9.9719      0.00000
      8       9.9719      0.00000

 k-point    18 :       0.2727    0.1818    0.0000
  band No.  band energies     occupation 
      1      -5.3211      2.00000
      2       1.9985      2.00000
      3       3.7644      2.00000
      4       3.8444      2.00000
      5       7.1247      0.00000
      6       9.1174      0.00000
      7      10.2592      0.00000
      8      10.5490      0.00000

 k-point    19 :       0.3636    0.1818    0.0000
  band No.  band energies     occupation 
      1      -4.7694      2.00000
      2       0.6713      2.00000
      3       3.2418      2.00000
      4       3.6516      2.00000
      5       7.3579      0.00000
      6       9.4679      0.00000
      7      10.0639      0.00000
      8      10.6491      0.00000

 k-point    20 :       0.4545    0.1818    0.0000
  band No.  band energies     occupation 
      1      -4.1152      2.00000
      2      -0.5230      2.00000
      3       2.7768      2.00000
      4       3.6180      2.00000
      5       7.3971      0.00000
      6       9.8077      0.00000
      7      10.4166      0.00000
      8      10.6861      0.00000

 k-point    21 :      -0.4545    0.1818    0.0000
  band No.  band energies     occupation 
      1      -3.6564      2.00000
      2      -1.2026      2.00000
      3       2.4517      2.00000
      4       3.7430      2.00000
      5       7.4860      0.00000
      6       9.6913      0.00000
      7      10.1347      0.00000
      8      12.2707      0.00000

 k-point    22 :      -0.3636    0.1818    0.0000
  band No.  band energies     occupation 
      1      -3.9275      2.00000
      2      -0.8090      2.00000
      3       2.3075      2.00000
      4       4.0116      2.00000
      5       7.7187      0.00000
      6       9.6942      0.00000
      7       9.9083      0.00000
      8      13.0432      0.00000

 k-point    23 :      -0.2727    0.1818    0.0000
  band No.  band energies     occupation 
      1      -4.5719      2.00000
      2       0.2661      2.00000
      3       2.3955      2.00000
      4       4.3862      2.00000
      5       8.0586      0.00000
      6       9.6516      0.00000
      7       9.7574      0.00000
      8      11.6623      0.00000

 k-point    24 :      -0.1818    0.1818   -0.0000
  band No.  band energies     occupation 
      1      -5.1668      2.00000
      2       1.4213      2.00000
      3       2.8735      2.00000
      4       4.7870      2.00000
      5       8.3511      0.00000
      6       9.1634      0.00000
      7       9.4516      0.00000
      8      11.0000      0.00000

 k-point    25 :       0.2727    0.2727   -0.0000
  band No.  band energies     occupation 
      1      -5.0098      2.00000
      2       1.5301      2.00000
      3       3.4775      2.00000
      4       3.4775      2.00000
      5       6.5032      0.00000
      6       8.2868      0.00000
      7      11.5013      0.00000
      8      11.5014      0.00000

 k-point    26 :       0.3636    0.2727    0.0000
  band No.  band energies     occupation 
      1      -4.5129      2.00000
      2       0.6018      2.00000
      3       2.9585      2.00000
      4       3.2517      2.00000
      5       6.6359      0.00000
      6       8.0067      0.00000
      7      11.7675      0.00000
      8      11.9714      0.00000

 k-point    27 :       0.4545    0.2727   -0.0000
  band No.  band energies     occupation 
      1      -3.8766      2.00000
      2      -0.3940      2.00000
      3       2.2561      2.00000
      4       3.1906      2.00000
      5       6.8402      0.00000
      6       8.7307      0.00000
      7      11.5943      0.00000
      8      11.8576      0.00000

 k-point    28 :      -0.4545    0.2727    0.0000
  band No.  band energies     occupation 
      1      -3.2894      2.00000
      2      -1.1634      2.00000
      3       1.7015      2.00000
      4       3.2981      2.00000
      5       6.9702      0.00000
      6      10.1814      0.00000
      7      11.4156      0.00000
      8      11.5414      0.00000

 k-point    29 :      -0.3636    0.2727    0.0000
  band No.  band energies     occupation 
      1      -3.3450      2.00000
      2      -1.0857      2.00000
      3       1.4289      2.00000
      4       3.5634      2.00000
      5       7.2468      0.00000
      6      11.1849      0.00000
      7      11.2075      0.00000
      8      12.0529      0.00000

 k-point    30 :      -0.2727    0.2727    0.0000
  band No.  band energies     occupation 
      1      -3.9540      2.00000
      2      -0.3524      2.00000
      3       1.5876      2.00000
      4       3.9526      2.00000
      5       7.6676      0.00000
      6      10.5832      0.00000
      7      10.9444      0.00000
      8      11.6863      0.00000

 k-point    31 :       0.3636    0.3636   -0.0000
  band No.  band energies     occupation 
      1      -4.0703      2.00000
      2      -0.0461      2.00000
      3       2.9837      2.00000
      4       2.9837      2.00000
      5       6.1634      0.00000
      6       7.1846      0.00000
      7      13.1236      0.00000
      8      13.1236      0.00000

 k-point    32 :       0.4545    0.3636   -0.0000
  band No.  band energies     occupation 
      1      -3.4689      2.00000
      2      -0.8383      2.00000
      3       2.4729      2.00000
      4       2.8812      2.00000
      5       6.3726      0.00000
      6       7.1879      0.00000
      7      13.4295      0.00000
      8      13.4626      0.00000

 k-point    33 :      -0.4545    0.3636   -0.0000
  band No.  band energies     occupation 
      1      -2.8208      2.00000
      2      -1.5334      2.00000
      3       1.7286      2.00000
      4       2.9513      2.00000
      5       6.5423      0.00000
      6       8.3345      0.00000
      7      13.1879      0.00000
      8      13.2859      0.00000

 k-point    34 :      -0.3636    0.3636   -0.0000
  band No.  band energies     occupation 
      1      -2.7659      2.00000
      2      -1.5587      2.00000
      3       1.2639      2.00000
      4       3.1879      2.00000
      5       6.8102      0.00000
      6      10.0233      0.00000
      7      12.5081      0.00000
      8      13.0461      0.00000

 k-point    35 :       0.4545    0.4545   -0.0000
  band No.  band energies     occupation 
      1      -2.9027      2.00000
      2      -1.5444      2.00000
      3       2.7320      2.00000
      4       2.7320      2.00000
      5       6.1344      0.00000
      6       6.4628      0.00000
      7      14.7664      0.00000
      8      14.7664      0.00000

 k-point    36 :      -0.4545    0.4545    0.0000
  band No.  band energies     occupation 
      1      -2.2804      2.00000
      2      -2.1681      2.00000
      3       2.3124      2.00000
      4       2.7561      2.00000
      5       6.3156      0.00000
      6       6.8780      0.00000
      7      14.6771      0.00000
      8      14.8726      0.00000

 k-point    37 :       0.2727    0.1818    0.0909
  band No.  band energies     occupation 
      1      -5.5623      2.00000
      2       2.4410      2.00000
      3       3.6913      2.00000
      4       4.6541      2.00000
      5       7.7923      0.00000
      6       8.9419      0.00000
      7       9.7712      0.00000
      8      10.2149      0.00000

 k-point    38 :       0.3636    0.1818    0.0909
  band No.  band energies     occupation 
      1      -5.0664      2.00000
      2       1.1592      2.00000
      3       3.1374      2.00000
      4       4.3462      2.00000
      5       8.0874      0.00000
      6       8.9299      0.00000
      7      10.1121      0.00000
      8      10.3376      0.00000

 k-point    39 :       0.4545    0.1818    0.0909
  band No.  band energies     occupation 
      1      -4.4320      2.00000
      2      -0.1395      2.00000
      3       2.8779      2.00000
      4       4.0155      2.00000
      5       8.0941      0.00000
      6       8.7958      0.00000
      7      10.1998      0.00000
      8      11.1573      0.00000

 k-point    40 :      -0.4545    0.1818    0.0909
  band No.  band energies     occupation 
      1      -3.8449      2.00000
      2      -1.0832      2.00000
      3       2.7753      2.00000
      4       3.8137      2.00000
      5       8.0495      0.00000
      6       8.6293      0.00000
      7      10.1423      0.00000
      8      12.5798      0.00000

 k-point    41 :       0.3636    0.2727    0.0909
  band No.  band energies     occupation 
      1      -4.8864      2.00000
      2       1.1650      2.00000
      3       2.9965      2.00000
      4       3.6842      2.00000
      5       7.2497      0.00000
      6       8.7636      0.00000
      7      10.3591      0.00000
      8      11.3876      0.00000

 k-point    42 :       0.4545    0.2727    0.0909
  band No.  band energies     occupation 
      1      -4.2899      2.00000
      2       0.1177      2.00000
      3       2.4344      2.00000
      4       3.3846      2.00000
      5       7.6076      0.00000
      6       9.1712      0.00000
      7      10.0483      0.00000
      8      11.7785      0.00000

 k-point    43 :      -0.4545    0.2727    0.0909
  band No.  band energies     occupation 
      1      -3.6439      2.00000
      2      -0.8529      2.00000
      3       2.0552      2.00000
      4       3.2357      2.00000
      5       7.7397      0.00000
      6       9.6882      0.00000
      7      10.4819      0.00000
      8      11.7365      0.00000

 k-point    44 :      -0.3636    0.2727    0.0909
  band No.  band energies     occupation 
      1      -3.3909      2.00000
      2      -1.1854      2.00000
      3       1.8329      2.00000
      4       3.3215      2.00000
      5       7.9425      0.00000
      6       9.4259      0.00000
      7      11.6164      0.00000
      8      12.1537      0.00000

 k-point    45 :      -0.2727    0.2727    0.0909
  band No.  band energies     occupation 
      1      -3.8744      2.00000
      2      -0.5260      2.00000
      3       1.8294      2.00000
      4       3.6054      2.00000
      5       8.2849      0.00000
      6       9.2437      0.00000
      7      10.9261      0.00000
      8      11.5747      0.00000

 k-point    46 :      -0.1818    0.2727    0.0909
  band No.  band energies     occupation 
      1      -4.5248      2.00000
      2       0.4238      2.00000
      3       2.2011      2.00000
      4       4.0041      2.00000
      5       8.6910      0.00000
      6       8.8309      0.00000
      7      10.0857      0.00000
      8      11.1072      0.00000

 k-point    47 :       0.4545    0.3636    0.0909
  band No.  band energies     occupation 
      1      -3.9656      2.00000
      2      -0.1789      2.00000
      3       2.5352      2.00000
      4       2.9145      2.00000
      5       6.9088      0.00000
      6       7.7667      0.00000
      7      11.7107      0.00000
      8      13.0952      0.00000

 k-point    48 :      -0.4545    0.3636    0.0909
  band No.  band energies     occupation 
      1      -3.3097      2.00000
      2      -0.9781      2.00000
      3       1.9182      2.00000
      4       2.7431      2.00000
      5       7.2531      0.00000
      6       8.5510      0.00000
      7      11.3692      0.00000
      8      13.4423      0.00000

 k-point    49 :      -0.3636    0.3636    0.0909
  band No.  band energies     occupation 
      1      -2.8628      2.00000
      2      -1.4567      2.00000
      3       1.4179      2.00000
      4       2.8545      2.00000
      5       7.4617      0.00000
      6      10.0953      0.00000
      7      11.0683      0.00000
      8      12.6371      0.00000

 k-point    50 :      -0.2727    0.3636    0.0909
  band No.  band energies     occupation 
      1      -3.2353      2.00000
      2      -1.0672      2.00000
      3       1.3176      2.00000
      4       3.1661      2.00000
      5       7.8192      0.00000
      6      10.4883      0.00000
      7      11.1900      0.00000
      8      12.0762      0.00000

 k-point    51 :      -0.4545    0.4545    0.0909
  band No.  band energies     occupation 
      1      -2.8336      2.00000
      2      -1.5443      2.00000
      3       2.3494      2.00000
      4       2.4683      2.00000
      5       6.8482      0.00000
      6       7.1208      0.00000
      7      13.2123      0.00000
      8      14.5459      0.00000

 k-point    52 :      -0.3636    0.4545    0.0909
  band No.  band energies     occupation 
      1      -2.3511      2.00000
      2      -1.9757      2.00000
      3       1.7210      2.00000
      4       2.5379      2.00000
      5       7.1255      0.00000
      6       8.3447      0.00000
      7      12.7719      0.00000
      8      12.9966      0.00000

 k-point    53 :      -0.4545    0.3636    0.1818
  band No.  band energies     occupation 
      1      -3.6686      2.00000
      2      -0.5592      2.00000
      3       1.8076      2.00000
      4       2.9402      2.00000
      5       8.5246      0.00000
      6       9.1949      0.00000
      7       9.6693      0.00000
      8      13.0033      0.00000

 k-point    54 :      -0.3636    0.3636    0.1818
  band No.  band energies     occupation 
      1      -3.0592      2.00000
      2      -1.2376      2.00000
      3       1.5363      2.00000
      4       2.6330      2.00000
      5       8.9074      0.00000
      6       9.2285      0.00000
      7      10.4743      0.00000
      8      12.3004      0.00000

 k-point    55 :      -0.3636    0.4545    0.1818
  band No.  band energies     occupation 
      1      -2.6585      2.00000
      2      -1.5898      2.00000
      3       1.7630      2.00000
      4       2.1342      2.00000
      5       8.4512      0.00000
      6       8.6645      0.00000
      7      10.9704      0.00000
      8      12.5321      0.00000

 k-point    56 :      -0.2727    0.4545    0.1818
  band No.  band energies     occupation 
      1      -2.4689      2.00000
      2      -1.7482      2.00000
      3       1.4969      2.00000
      4       2.1691      2.00000
      5       8.7988      0.00000
      6      10.0828      0.00000
      7      10.7206      0.00000
      8      10.7515      0.00000


--------------------------------------------------------------------------------------------------------


 soft charge-density along one line, spin component           1
         0         1         2         3         4         5         6         7         8         9
 total charge-density along one line
 
 pseudopotential strength for first ion, spin component:           1
 18.459  25.753   0.000   0.000   0.000   0.000   0.000   0.000
 25.753  35.935   0.000   0.000   0.000   0.000   0.000   0.000
  0.000   0.000   4.183  -0.000  -0.000   7.796  -0.000  -0.000
  0.000   0.000  -0.000   4.183  -0.000  -0.000   7.796  -0.000
  0.000   0.000  -0.000  -0.000   4.183  -0.000  -0.000   7.796
  0.000   0.000   7.796  -0.000  -0.000  14.538  -0.000  -0.000
  0.000   0.000  -0.000   7.796  -0.000  -0.000  14.538  -0.000
  0.000   0.000  -0.000  -0.000   7.796  -0.000  -0.000  14.538
 total augmentation occupancy for first ion, spin component:           1
  5.838  -2.222   0.000  -0.000   0.000   0.000  -0.000   0.000
 -2.222   0.955  -0.000   0.000   0.000  -0.000   0.000  -0.000
  0.000  -0.000   3.280  -0.000   0.000  -0.799   0.000   0.000
 -0.000   0.000  -0.000   3.280   0.000   0.000  -0.799  -0.000
  0.000   0.000   0.000   0.000   3.280   0.000  -0.000  -0.799
  0.000  -0.000  -0.799   0.000   0.000   0.202   0.000  -0.000
 -0.000   0.000   0.000  -0.799  -0.000   0.000   0.202  -0.000
  0.000  -0.000  -0.000  -0.000  -0.799  -0.000  -0.000   0.202


------------------------ aborting loop because EDIFF is reached ----------------------------------------





 total charge

# of ion       s       p       d       tot
------------------------------------------
    1        0.755   0.930   0.000   1.685
    2        0.755   0.930   0.000   1.685
--------------------------------------------------
tot          1.511   1.860   0.000   3.371
 
    CHARGE:  cpu time      0.0030: real time      0.0030
    FORLOC:  cpu time      0.0003: real time      0.0003
    FORNL :  cpu time      0.0046: real time      0.0047
    STRESS:  cpu time      0.0759: real time      0.0769
    FORCOR:  cpu time      0.0037: real time      0.0037
    FORHAR:  cpu time      0.0008: real time      0.0008
    MIXING:  cpu time      0.0004: real time      0.0004
    OFIELD:  cpu time      0.0000: real time      0.0000

  FORCE on cell =-STRESS in cart. coord.  units (eV):
  Direction    XX          YY          ZZ          XY          YZ          ZX
  --------------------------------------------------------------------------------------
  Alpha Z     3.23733     3.23733     3.23733
  Ewald     -75.21821   -75.21821   -75.21821     0.00000     0.00000    -0.00000
  Hartree     5.12249     5.12249     5.12249    -0.00000    -0.00000    -0.00000
  E(xc)     -25.16989   -25.16989   -25.16989     0.00001     0.00001     0.00001
  Local     -29.89028   -29.89028   -29.89028     0.00005     0.00005     0.00005
  n-local    78.30798    79.68429    73.96829     2.16970    -1.26118     0.52921
  augment   -11.60580   -11.60580   -11.60580    -0.00005    -0.00005    -0.00005
  Kinetic    57.93196    55.49339    53.90943     3.56876    -0.70517     1.03096
  Fock        0.00000     0.00000     0.00000     0.00000     0.00000     0.00000
  -------------------------------------------------------------------------------------
  Total      -0.42592    -0.42592    -0.42592    -0.00000    -0.00000     0.00000
  in kB     -16.40624   -16.40624   -16.40624    -0.00000    -0.00000     0.00000
  external pressure =      -16.41 kB  Pullay stress =        0.00 kB


 VOLUME and BASIS-vectors are now :
 -----------------------------------------------------------------------------
  energy-cutoff  :      240.00
  volume of cell :       41.59
      direct lattice vectors                 reciprocal lattice vectors
     0.000000000  2.750000000  2.750000000    -0.181818182  0.181818182  0.181818182
     2.750000000  0.000000000  2.750000000     0.181818182 -0.181818182  0.181818182
     2.750000000  2.750000000  0.000000000     0.181818182  0.181818182 -0.181818182

  length of vectors
     3.889087297  3.889087297  3.889087297     0.314918329  0.314918329  0.314918329


 FORCES acting on ions
    electron-ion (+dipol)            ewald-force                    non-local-force                 convergence-correction
 -----------------------------------------------------------------------------------------------
   0.422E-05 0.422E-05 0.432E-05   -.386E-15 0.509E-15 0.564E-15   0.248E-15 0.154E-15 0.179E-15   0.570E-06 0.570E-06 0.570E-06
   -.422E-05 -.422E-05 -.432E-05   0.608E-15 -.112E-14 -.912E-15   -.268E-15 -.175E-15 -.236E-15   -.570E-06 -.570E-06 -.570E-06
 -----------------------------------------------------------------------------------------------
   -.131E-12 -.331E-13 0.302E-13   0.223E-15 -.610E-15 -.348E-15   -.204E-16 -.204E-16 -.577E-16   -.643E-15 -.310E-15 -.646E-15
 
 
 POSITION                                       TOTAL-FORCE (eV/Angst)
 -----------------------------------------------------------------------------------
      4.81250      4.81250      4.81250        -0.000000     -0.000000     -0.000000
      0.68750      0.68750      0.68750         0.000000      0.000000      0.000000
 -----------------------------------------------------------------------------------
    total drift:                               -0.000000     -0.000000      0.000000


--------------------------------------------------------------------------------------------------------



  FREE ENERGIE OF THE ION-ELECTRON SYSTEM (eV)
  ---------------------------------------------------
  free  energy   TOTEN  =       -10.82308462 eV

  energy  without entropy=      -10.82308462  energy(sigma->0) =      -10.82308462
 


--------------------------------------------------------------------------------------------------------


    POTLOK:  cpu time      0.0050: real time      0.0051


--------------------------------------------------------------------------------------------------------


 writing wavefunctions
     LOOP+:  cpu time      1.0969: real time      1.1174
    4ORBIT:  cpu time      0.0000: real time      0.0000



 total charge

# of ion       s       p       d       tot
------------------------------------------
    1        0.755   0.930   0.000   1.685
    2        0.755   0.930   0.000   1.685
--------------------------------------------------
tot          1.511   1.860   0.000   3.371
 
 BZINTS: Fermi energy:    5.459786;    8.000000 electrons
         Band energy: 0.398024E+01;  BLOECHL correction:    0.000000

 total amount of memory used by VASP MPI-rank0    32859. kBytes
=======================================================================

   base      :      30000. kBytes
   nonl-proj :       1301. kBytes
   fftplans  :        302. kBytes
   grid      :        577. kBytes
   one-center:          6. kBytes
   wavefun   :        673. kBytes
 
  
  
 General timing and accounting informations for this job:
 ========================================================
  
                  Total CPU time used (sec):        1.378
                            User time (sec):        1.241
                          System time (sec):        0.137
                         Elapsed time (sec):        1.391
  
                   Maximum memory used (kb):       48008.
                   Average memory used (kb):          N/A
  
                          Minor page faults:         9590
                          Major page faults:            0
                 Voluntary context switches:          159
