PROCAR lm decomposed
# of k-points:   56         # of bands:    8         # of ions:    2

 k-point     1 :    0.00000000 0.00000000 0.00000000     weight = 0.00075131

band     1 # energy   -6.25268055 # occ.  2.00000000
 
ion      s     py     pz     px    dxy    dyz    dz2    dxz  x2-y2    tot
    1  0.212  0.000  0.000  0.000  0.000  0.000  0.000  0.000  0.000  0.212
    2  0.212  0.000  0.000  0.000  0.000  0.000  0.000  0.000  0.000  0.212
tot    0.425  0.000  0.000  0.000  0.000  0.000  0.000  0.000  0.000  0.425
 
band     2 # energy    5.45947969 # occ.  2.00000000
 
ion      s     py     pz     px    dxy    dyz    dz2    dxz  x2-y2    tot
    1  0.000  0.072  0.072  0.072  0.000  0.000  0.000  0.000  0.000  0.215
    2  0.000  0.072  0.072  0.072  0.000  0.000  0.000  0.000  0.000  0.215
tot    0.000  0.144  0.144  0.144  0.000  0.000  0.000  0.000  0.000  0.431
 
band     3 # energy    5.45949852 # occ.  2.00000000
 
ion      s     py     pz     px    dxy    dyz    dz2    dxz  x2-y2    tot
    1  0.000  0.108  0.000  0.108  0.000  0.000  0.000  0.000  0.000  0.215
    2  0.000  0.108  0.000  0.108  0.000  0.000  0.000  0.000  0.000  0.215
tot    0.000  0.215  0.000  0.215  0.000  0.000  0.000  0.000  0.000  0.431
 
band     4 # energy    5.45949852 # occ.  2.00000000
 
ion      s     py     pz     px    dxy    dyz    dz2    dxz  x2-y2    tot
    1  0.000  0.036  0.144  0.036  0.000  0.000  0.000  0.000  0.000  0.215
    2  0.000  0.036  0.144  0.036  0.000  0.000  0.000  0.000  0.000  0.215
tot    0.000  0.072  0.287  0.072  0.000  0.000  0.000  0.000  0.000  0.431
 
band     5 # energy    8.01129007 # occ.  0.00000000
 
ion      s     py     pz     px    dxy    dyz    dz2    dxz  x2-y2    tot
    1  0.000  0.051  0.051  0.051  0.000  0.000  0.000  0.000  0.000  0.153
    2  0.000  0.051  0.051  0.051  0.000  0.000  0.000  0.000  0.000  0.153
tot    0.000  0.102  0.102  0.102  0.000  0.000  0.000  0.000  0.000  0.305
 
band     6 # energy    8.01130851 # occ.  0.00000000
 
ion      s     py     pz     px    dxy    dyz    dz2    dxz  x2-y2    tot
    1  0.000  0.089  0.004  0.059  0.000  0.000  0.000  0.000  0.000  0.153
    2  0.000  0.089  0.004  0.059  0.000  0.000  0.000  0.000  0.000  0.153
tot    0.000  0.179  0.008  0.119  0.000  0.000  0.000  0.000  0.000  0.305
 
band     7 # energy    8.01130851 # occ.  0.00000000
 
ion      s     py     pz     px    dxy    dyz    dz2    dxz  x2-y2    tot
    1  0.000  0.012  0.098  0.042  0.000  0.000  0.000  0.000  0.000  0.153
    2  0.000  0.012  0.098  0.042  0.000  0.000  0.000  0.000  0.000  0.153
tot    0.000  0.025  0.195  0.085  0.000  0.000  0.000  0.000  0.000  0.305
 
band     8 # energy    8.38781814 # occ.  0.00000000
 
ion      s     py     pz     px    dxy    dyz    dz2    dxz  x2-y2    tot
    1  0.361  0.000  0.000  0.000  0.000  0.000  0.000  0.000  0.000  0.361
    2  0.361  0.000  0.000  0.000  0.000  0.000  0.000  0.000  0.000  0.361
tot    0.722  0.000  0.000  0.000  0.000  0.000  0.000  0.000  0.000  0.722
 

 k-point     2 :    0.09090909 0.00000000 0.00000000     weight = 0.00601052

band     1 # energy   -6.14783757 # occ.  2.00000000
 
ion      s     py     pz     px    dxy    dyz    dz2    dxz  x2-y2    tot
    1  0.212  0.000  0.000  0.000  0.000  0.000  0.000  0.000  0.000  0.213
    2  0.212  0.000  0.000  0.000  0.000  0.000  0.000  0.000  0.000  0.213
tot    0.424  0.001  0.001  0.001  0.000  0.000  0.000  0.000  0.000  0.426
 
band     2 # energy    4.47146097 # occ.  2.00000000
 
ion      s     py     pz     px    dxy    dyz    dz2    dxz  x2-y2    tot
    1  0.051  0.057  0.057  0.057  0.000  0.000  0.000  0.000  0.000  0.222
    2  0.051  0.057  0.057  0.057  0.000  0.000  0.000  0.000  0.000  0.222
tot    0.103  0.114  0.114  0.114  0.000  0.000  0.000  0.000  0.000  0.444
 
band     3 # energy    5.29860912 # occ.  2.00000000
 
ion      s     py     pz     px    dxy    dyz    dz2    dxz  x2-y2    tot
    1  0.000  0.036  0.036  0.142  0.000  0.000  0.000  0.000  0.000  0.213
    2  0.000  0.036  0.036  0.142  0.000  0.000  0.000  0.000  0.000  0.213
tot    0.000  0.071  0.071  0.285  0.000  0.000  0.000  0.000  0.000  0.427
 
band     4 # energy    5.29862568 # occ.  2.00000000
 
ion      s     py     pz     px    dxy    dyz    dz2    dxz  x2-y2    tot
    1  0.000  0.107  0.107  0.000  0.000  0.000  0.000  0.000  0.000  0.213
    2  0.000  0.107  0.107  0.000  0.000  0.000  0.000  0.000  0.000  0.213
tot    0.000  0.213  0.213  0.000  0.000  0.000  0.000  0.000  0.000  0.427
 
band     5 # energy    7.95924589 # occ.  0.00000000
 
ion      s     py     pz     px    dxy    dyz    dz2    dxz  x2-y2    tot
    1  0.097  0.034  0.034  0.034  0.000  0.000  0.000  0.000  0.000  0.199
    2  0.097  0.034  0.034  0.034  0.000  0.000  0.000  0.000  0.000  0.199
tot    0.195  0.068  0.068  0.068  0.000  0.000  0.000  0.000  0.000  0.398
 
band     6 # energy    8.24999283 # occ.  0.00000000
 
ion      s     py     pz     px    dxy    dyz    dz2    dxz  x2-y2    tot
    1  0.000  0.026  0.026  0.104  0.000  0.000  0.000  0.000  0.000  0.155
    2  0.000  0.026  0.026  0.104  0.000  0.000  0.000  0.000  0.000  0.155
tot    0.000  0.052  0.052  0.207  0.000  0.000  0.000  0.000  0.000  0.311
 
band     7 # energy    8.25001029 # occ.  0.00000000
 
ion      s     py     pz     px    dxy    dyz    dz2    dxz  x2-y2    tot
    1  0.000  0.078  0.078  0.000  0.000  0.000  0.000  0.000  0.000  0.155
    2  0.000  0.078  0.078  0.000  0.000  0.000  0.000  0.000  0.000  0.155
tot    0.000  0.155  0.155  0.000  0.000  0.000  0.000  0.000  0.000  0.311
 
band     8 # energy    9.25913671 # occ.  0.00000000
 
ion      s     py     pz     px    dxy    dyz    dz2    dxz  x2-y2    tot
    1  0.220  0.027  0.027  0.027  0.000  0.000  0.000  0.000  0.000  0.302
    2  0.220  0.027  0.027  0.027  0.000  0.000  0.000  0.000  0.000  0.302
tot    0.439  0.055  0.055  0.055  0.000  0.000  0.000  0.000  0.000  0.604
 

 k-point     3 :    0.18181818-0.00000000 0.00000000     weight = 0.00601052

band     1 # energy   -5.83785260 # occ.  2.00000000
 
ion      s     py     pz     px    dxy    dyz    dz2    dxz  x2-y2    tot
    1  0.211  0.001  0.001  0.001  0.000  0.000  0.000  0.000  0.000  0.215
    2  0.211  0.001  0.001  0.001  0.000  0.000  0.000  0.000  0.000  0.215
tot    0.421  0.003  0.003  0.003  0.000  0.000  0.000  0.000  0.000  0.430
 
band     2 # energy    2.82202448 # occ.  2.00000000
 
ion      s     py     pz     px    dxy    dyz    dz2    dxz  x2-y2    tot
    1  0.086  0.045  0.045  0.045  0.000  0.000  0.000  0.000  0.000  0.220
    2  0.086  0.045  0.045  0.045  0.000  0.000  0.000  0.000  0.000  0.220
tot    0.172  0.090  0.090  0.090  0.000  0.000  0.000  0.000  0.000  0.441
 
band     3 # energy    4.96590420 # occ.  2.00000000
 
ion      s     py     pz     px    dxy    dyz    dz2    dxz  x2-y2    tot
    1  0.000  0.035  0.035  0.141  0.000  0.000  0.000  0.000  0.000  0.212
    2  0.000  0.035  0.035  0.141  0.000  0.000  0.000  0.000  0.000  0.212
tot    0.000  0.071  0.071  0.282  0.000  0.000  0.000  0.000  0.000  0.424
 
band     4 # energy    4.96592038 # occ.  2.00000000
 
ion      s     py     pz     px    dxy    dyz    dz2    dxz  x2-y2    tot
    1  0.000  0.106  0.106  0.000  0.000  0.000  0.000  0.000  0.000  0.212
    2  0.000  0.106  0.106  0.000  0.000  0.000  0.000  0.000  0.000  0.212
tot    0.000  0.212  0.212  0.000  0.000  0.000  0.000  0.000  0.000  0.424
 
band     5 # energy    7.62481063 # occ.  0.00000000
 
ion      s     py     pz     px    dxy    dyz    dz2    dxz  x2-y2    tot
    1  0.141  0.022  0.022  0.022  0.000  0.000  0.000  0.000  0.000  0.208
    2  0.141  0.022  0.022  0.022  0.000  0.000  0.000  0.000  0.000  0.208
tot    0.282  0.045  0.045  0.045  0.000  0.000  0.000  0.000  0.000  0.416
 
band     6 # energy    8.71362349 # occ.  0.00000000
 
ion      s     py     pz     px    dxy    dyz    dz2    dxz  x2-y2    tot
    1  0.000  0.026  0.026  0.103  0.000  0.000  0.000  0.000  0.000  0.154
    2  0.000  0.026  0.026  0.103  0.000  0.000  0.000  0.000  0.000  0.154
tot    0.000  0.051  0.051  0.205  0.000  0.000  0.000  0.000  0.000  0.308
 
band     7 # energy    8.71364488 # occ.  0.00000000
 
ion      s     py     pz     px    dxy    dyz    dz2    dxz  x2-y2    tot
    1  0.000  0.077  0.077  0.000  0.000  0.000  0.000  0.000  0.000  0.154
    2  0.000  0.077  0.077  0.000  0.000  0.000  0.000  0.000  0.000  0.154
tot    0.000  0.154  0.154  0.000  0.000  0.000  0.000  0.000  0.000  0.308
 
band     8 # energy   10.86535240 # occ.  0.00000000
 
ion      s     py     pz     px    dxy    dyz    dz2    dxz  x2-y2    tot
    1  0.150  0.043  0.043  0.043  0.000  0.000  0.000  0.000  0.000  0.278
    2  0.150  0.043  0.043  0.043  0.000  0.000  0.000  0.000  0.000  0.278
tot    0.299  0.086  0.086  0.086  0.000  0.000  0.000  0.000  0.000  0.557
 

 k-point     4 :    0.27272727 0.00000000-0.00000000     weight = 0.00601052

band     1 # energy   -5.33918683 # occ.  2.00000000
 
ion      s     py     pz     px    dxy    dyz    dz2    dxz  x2-y2    tot
    1  0.210  0.003  0.003  0.003  0.000  0.000  0.000  0.000  0.000  0.219
    2  0.210  0.003  0.003  0.003  0.000  0.000  0.000  0.000  0.000  0.219
tot    0.419  0.006  0.006  0.006  0.000  0.000  0.000  0.000  0.000  0.437
 
band     2 # energy    1.20356221 # occ.  2.00000000
 
ion      s     py     pz     px    dxy    dyz    dz2    dxz  x2-y2    tot
    1  0.103  0.037  0.037  0.037  0.000  0.000  0.000  0.000  0.000  0.214
    2  0.103  0.037  0.037  0.037  0.000  0.000  0.000  0.000  0.000  0.214
tot    0.205  0.074  0.074  0.074  0.000  0.000  0.000  0.000  0.000  0.429
 
band     3 # energy    4.64848451 # occ.  2.00000000
 
ion      s     py     pz     px    dxy    dyz    dz2    dxz  x2-y2    tot
    1  0.000  0.035  0.035  0.142  0.000  0.000  0.000  0.000  0.000  0.213
    2  0.000  0.035  0.035  0.142  0.000  0.000  0.000  0.000  0.000  0.213
tot    0.000  0.071  0.071  0.284  0.000  0.000  0.000  0.000  0.000  0.425
 
band     4 # energy    4.64850223 # occ.  2.00000000
 
ion      s     py     pz     px    dxy    dyz    dz2    dxz  x2-y2    tot
    1  0.000  0.106  0.106  0.000  0.000  0.000  0.000  0.000  0.000  0.213
    2  0.000  0.106  0.106  0.000  0.000  0.000  0.000  0.000  0.000  0.213
tot    0.000  0.213  0.213  0.000  0.000  0.000  0.000  0.000  0.000  0.425
 
band     5 # energy    7.27911864 # occ.  0.00000000
 
ion      s     py     pz     px    dxy    dyz    dz2    dxz  x2-y2    tot
    1  0.163  0.015  0.015  0.015  0.000  0.000  0.000  0.000  0.000  0.208
    2  0.163  0.015  0.015  0.015  0.000  0.000  0.000  0.000  0.000  0.208
tot    0.327  0.030  0.030  0.030  0.000  0.000  0.000  0.000  0.000  0.416
 
band     6 # energy    8.97438723 # occ.  0.00000000
 
ion      s     py     pz     px    dxy    dyz    dz2    dxz  x2-y2    tot
    1  0.000  0.022  0.022  0.090  0.000  0.000  0.000  0.000  0.000  0.135
    2  0.000  0.022  0.022  0.090  0.000  0.000  0.000  0.000  0.000  0.135
tot    0.000  0.045  0.045  0.180  0.000  0.000  0.000  0.000  0.000  0.270
 
band     7 # energy    8.97441563 # occ.  0.00000000
 
ion      s     py     pz     px    dxy    dyz    dz2    dxz  x2-y2    tot
    1  0.000  0.067  0.067  0.000  0.000  0.000  0.000  0.000  0.000  0.135
    2  0.000  0.067  0.067  0.000  0.000  0.000  0.000  0.000  0.000  0.135
tot    0.000  0.135  0.135  0.000  0.000  0.000  0.000  0.000  0.000  0.270
 
band     8 # energy   12.44390201 # occ.  0.00000000
 
ion      s     py     pz     px    dxy    dyz    dz2    dxz  x2-y2    tot
    1  0.092  0.054  0.054  0.054  0.000  0.000  0.000  0.000  0.000  0.253
    2  0.092  0.054  0.054  0.054  0.000  0.000  0.000  0.000  0.000  0.253
tot    0.184  0.107  0.107  0.107  0.000  0.000  0.000  0.000  0.000  0.506
 

 k-point     5 :    0.36363636-0.00000000 0.00000000     weight = 0.00601052

band     1 # energy   -4.70359019 # occ.  2.00000000
 
ion      s     py     pz     px    dxy    dyz    dz2    dxz  x2-y2    tot
    1  0.211  0.004  0.004  0.004  0.000  0.000  0.000  0.000  0.000  0.225
    2  0.211  0.004  0.004  0.004  0.000  0.000  0.000  0.000  0.000  0.225
tot    0.423  0.009  0.009  0.009  0.000  0.000  0.000  0.000  0.000  0.449
 
band     2 # energy   -0.21056402 # occ.  2.00000000
 
ion      s     py     pz     px    dxy    dyz    dz2    dxz  x2-y2    tot
    1  0.109  0.032  0.032  0.032  0.000  0.000  0.000  0.000  0.000  0.206
    2  0.109  0.032  0.032  0.032  0.000  0.000  0.000  0.000  0.000  0.206
tot    0.219  0.064  0.064  0.064  0.000  0.000  0.000  0.000  0.000  0.412
 
band     3 # energy    4.42063314 # occ.  2.00000000
 
ion      s     py     pz     px    dxy    dyz    dz2    dxz  x2-y2    tot
    1  0.000  0.036  0.036  0.143  0.000  0.000  0.000  0.000  0.000  0.215
    2  0.000  0.036  0.036  0.143  0.000  0.000  0.000  0.000  0.000  0.215
tot    0.000  0.072  0.072  0.286  0.000  0.000  0.000  0.000  0.000  0.429
 
band     4 # energy    4.42065096 # occ.  2.00000000
 
ion      s     py     pz     px    dxy    dyz    dz2    dxz  x2-y2    tot
    1  0.000  0.107  0.107  0.000  0.000  0.000  0.000  0.000  0.000  0.215
    2  0.000  0.107  0.107  0.000  0.000  0.000  0.000  0.000  0.000  0.215
tot    0.000  0.215  0.215  0.000  0.000  0.000  0.000  0.000  0.000  0.429
 
band     5 # energy    7.01954293 # occ.  0.00000000
 
ion      s     py     pz     px    dxy    dyz    dz2    dxz  x2-y2    tot
    1  0.178  0.010  0.010  0.010  0.000  0.000  0.000  0.000  0.000  0.208
    2  0.178  0.010  0.010  0.010  0.000  0.000  0.000  0.000  0.000  0.208
tot    0.355  0.020  0.020  0.020  0.000  0.000  0.000  0.000  0.000  0.416
 
band     6 # energy    8.93816047 # occ.  0.00000000
 
ion      s     py     pz     px    dxy    dyz    dz2    dxz  x2-y2    tot
    1  0.000  0.019  0.019  0.074  0.000  0.000  0.000  0.000  0.000  0.111
    2  0.000  0.019  0.019  0.074  0.000  0.000  0.000  0.000  0.000  0.111
tot    0.000  0.037  0.037  0.148  0.000  0.000  0.000  0.000  0.000  0.222
 
band     7 # energy    8.93819313 # occ.  0.00000000
 
ion      s     py     pz     px    dxy    dyz    dz2    dxz  x2-y2    tot
    1  0.000  0.056  0.056  0.000  0.000  0.000  0.000  0.000  0.000  0.111
    2  0.000  0.056  0.056  0.000  0.000  0.000  0.000  0.000  0.000  0.111
tot    0.000  0.111  0.111  0.000  0.000  0.000  0.000  0.000  0.000  0.222
 
band     8 # energy   13.25052916 # occ.  0.00000000
 
ion      s     py     pz     px    dxy    dyz    dz2    dxz  x2-y2    tot
    1  0.006  0.035  0.035  0.035  0.000  0.000  0.000  0.000  0.000  0.111
    2  0.006  0.035  0.035  0.035  0.000  0.000  0.000  0.000  0.000  0.111
tot    0.013  0.070  0.070  0.070  0.000  0.000  0.000  0.000  0.000  0.222
 

 k-point     6 :    0.45454545 0.00000000-0.00000000     weight = 0.00601052

band     1 # energy   -4.12144923 # occ.  2.00000000
 
ion      s     py     pz     px    dxy    dyz    dz2    dxz  x2-y2    tot
    1  0.220  0.005  0.005  0.005  0.000  0.000  0.000  0.000  0.000  0.234
    2  0.220  0.005  0.005  0.005  0.000  0.000  0.000  0.000  0.000  0.234
tot    0.441  0.009  0.009  0.009  0.000  0.000  0.000  0.000  0.000  0.468
 
band     2 # energy   -1.18827354 # occ.  2.00000000
 
ion      s     py     pz     px    dxy    dyz    dz2    dxz  x2-y2    tot
    1  0.104  0.030  0.030  0.030  0.000  0.000  0.000  0.000  0.000  0.196
    2  0.104  0.030  0.030  0.030  0.000  0.000  0.000  0.000  0.000  0.196
tot    0.209  0.061  0.061  0.061  0.000  0.000  0.000  0.000  0.000  0.392
 
band     3 # energy    4.30416361 # occ.  2.00000000
 
ion      s     py     pz     px    dxy    dyz    dz2    dxz  x2-y2    tot
    1  0.000  0.036  0.036  0.144  0.000  0.000  0.000  0.000  0.000  0.216
    2  0.000  0.036  0.036  0.144  0.000  0.000  0.000  0.000  0.000  0.216
tot    0.000  0.072  0.072  0.288  0.000  0.000  0.000  0.000  0.000  0.432
 
band     4 # energy    4.30418186 # occ.  2.00000000
 
ion      s     py     pz     px    dxy    dyz    dz2    dxz  x2-y2    tot
    1  0.000  0.108  0.108  0.000  0.000  0.000  0.000  0.000  0.000  0.216
    2  0.000  0.108  0.108  0.000  0.000  0.000  0.000  0.000  0.000  0.216
tot    0.000  0.216  0.216  0.000  0.000  0.000  0.000  0.000  0.000  0.432
 
band     5 # energy    6.88337337 # occ.  0.00000000
 
ion      s     py     pz     px    dxy    dyz    dz2    dxz  x2-y2    tot
    1  0.185  0.008  0.008  0.008  0.000  0.000  0.000  0.000  0.000  0.208
    2  0.185  0.008  0.008  0.008  0.000  0.000  0.000  0.000  0.000  0.208
tot    0.370  0.016  0.016  0.016  0.000  0.000  0.000  0.000  0.000  0.417
 
band     6 # energy    8.84356757 # occ.  0.00000000
 
ion      s     py     pz     px    dxy    dyz    dz2    dxz  x2-y2    tot
    1  0.000  0.017  0.017  0.066  0.000  0.000  0.000  0.000  0.000  0.099
    2  0.000  0.017  0.017  0.066  0.000  0.000  0.000  0.000  0.000  0.099
tot    0.000  0.033  0.033  0.132  0.000  0.000  0.000  0.000  0.000  0.198
 
band     7 # energy    8.84360101 # occ.  0.00000000
 
ion      s     py     pz     px    dxy    dyz    dz2    dxz  x2-y2    tot
    1  0.000  0.050  0.050  0.000  0.000  0.000  0.000  0.000  0.000  0.099
    2  0.000  0.050  0.050  0.000  0.000  0.000  0.000  0.000  0.000  0.099
tot    0.000  0.099  0.099  0.000  0.000  0.000  0.000  0.000  0.000  0.198
 
band     8 # energy   13.15757408 # occ.  0.00000000
 
ion      s     py     pz     px    dxy    dyz    dz2    dxz  x2-y2    tot
    1  0.005  0.020  0.020  0.020  0.000  0.000  0.000  0.000  0.000  0.064
    2  0.005  0.020  0.020  0.020  0.000  0.000  0.000  0.000  0.000  0.064
tot    0.009  0.040  0.040  0.040  0.000  0.000  0.000  0.000  0.000  0.129
 

 k-point     7 :    0.09090909 0.09090909-0.00000000     weight = 0.00450789

band     1 # energy   -6.11270618 # occ.  2.00000000
 
ion      s     py     pz     px    dxy    dyz    dz2    dxz  x2-y2    tot
    1  0.212  0.000  0.002  0.000  0.000  0.000  0.000  0.000  0.000  0.213
    2  0.212  0.000  0.002  0.000  0.000  0.000  0.000  0.000  0.000  0.213
tot    0.423  0.000  0.003  0.000  0.000  0.000  0.000  0.000  0.000  0.426
 
band     2 # energy    4.62282324 # occ.  2.00000000
 
ion      s     py     pz     px    dxy    dyz    dz2    dxz  x2-y2    tot
    1  0.077  0.000  0.162  0.000  0.000  0.000  0.000  0.000  0.000  0.239
    2  0.077  0.000  0.162  0.000  0.000  0.000  0.000  0.000  0.000  0.239
tot    0.154  0.000  0.324  0.000  0.000  0.000  0.000  0.000  0.000  0.478
 
band     3 # energy    4.98590143 # occ.  2.00000000
 
ion      s     py     pz     px    dxy    dyz    dz2    dxz  x2-y2    tot
    1  0.000  0.103  0.000  0.103  0.000  0.000  0.000  0.000  0.000  0.207
    2  0.000  0.103  0.000  0.103  0.000  0.000  0.000  0.000  0.000  0.207
tot    0.000  0.207  0.000  0.207  0.000  0.000  0.000  0.000  0.000  0.413
 
band     4 # energy    4.98591327 # occ.  2.00000000
 
ion      s     py     pz     px    dxy    dyz    dz2    dxz  x2-y2    tot
    1  0.000  0.103  0.000  0.103  0.000  0.000  0.000  0.000  0.000  0.207
    2  0.000  0.103  0.000  0.103  0.000  0.000  0.000  0.000  0.000  0.207
tot    0.000  0.207  0.000  0.207  0.000  0.000  0.000  0.000  0.000  0.413
 
band     5 # energy    7.70148677 # occ.  0.00000000
 
ion      s     py     pz     px    dxy    dyz    dz2    dxz  x2-y2    tot
    1  0.012  0.000  0.132  0.000  0.000  0.000  0.000  0.000  0.000  0.145
    2  0.012  0.000  0.132  0.000  0.000  0.000  0.000  0.000  0.000  0.145
tot    0.025  0.000  0.265  0.000  0.000  0.000  0.000  0.000  0.000  0.290
 
band     6 # energy    8.65900269 # occ.  0.00000000
 
ion      s     py     pz     px    dxy    dyz    dz2    dxz  x2-y2    tot
    1  0.000  0.081  0.000  0.081  0.000  0.000  0.000  0.000  0.000  0.162
    2  0.000  0.081  0.000  0.081  0.000  0.000  0.000  0.000  0.000  0.162
tot    0.000  0.162  0.000  0.162  0.000  0.000  0.000  0.000  0.000  0.323
 
band     7 # energy    8.65901518 # occ.  0.00000000
 
ion      s     py     pz     px    dxy    dyz    dz2    dxz  x2-y2    tot
    1  0.000  0.081  0.000  0.081  0.000  0.000  0.000  0.000  0.000  0.162
    2  0.000  0.081  0.000  0.081  0.000  0.000  0.000  0.000  0.000  0.162
tot    0.000  0.162  0.000  0.162  0.000  0.000  0.000  0.000  0.000  0.323
 
band     8 # energy    9.16027722 # occ.  0.00000000
 
ion      s     py     pz     px    dxy    dyz    dz2    dxz  x2-y2    tot
    1  0.276  0.000  0.060  0.000  0.000  0.000  0.000  0.000  0.000  0.336
    2  0.276  0.000  0.060  0.000  0.000  0.000  0.000  0.000  0.000  0.336
tot    0.551  0.000  0.120  0.000  0.000  0.000  0.000  0.000  0.000  0.671
 

 k-point     8 :    0.18181818 0.09090909 0.00000000     weight = 0.01803156

band     1 # energy   -5.87034303 # occ.  2.00000000
 
ion      s     py     pz     px    dxy    dyz    dz2    dxz  x2-y2    tot
    1  0.211  0.000  0.003  0.000  0.000  0.000  0.000  0.000  0.000  0.215
    2  0.211  0.000  0.003  0.000  0.000  0.000  0.000  0.000  0.000  0.215
tot    0.421  0.001  0.007  0.001  0.000  0.000  0.000  0.000  0.000  0.429
 
band     2 # energy    3.29687713 # occ.  2.00000000
 
ion      s     py     pz     px    dxy    dyz    dz2    dxz  x2-y2    tot
    1  0.093  0.033  0.071  0.033  0.000  0.000  0.000  0.000  0.000  0.230
    2  0.093  0.033  0.071  0.033  0.000  0.000  0.000  0.000  0.000  0.230
tot    0.186  0.067  0.141  0.067  0.000  0.000  0.000  0.000  0.000  0.461
 
band     3 # energy    4.59973224 # occ.  2.00000000
 
ion      s     py     pz     px    dxy    dyz    dz2    dxz  x2-y2    tot
    1  0.000  0.102  0.000  0.102  0.000  0.000  0.000  0.000  0.000  0.204
    2  0.000  0.102  0.000  0.102  0.000  0.000  0.000  0.000  0.000  0.204
tot    0.000  0.204  0.000  0.204  0.000  0.000  0.000  0.000  0.000  0.407
 
band     4 # energy    4.76337477 # occ.  2.00000000
 
ion      s     py     pz     px    dxy    dyz    dz2    dxz  x2-y2    tot
    1  0.018  0.056  0.083  0.056  0.000  0.000  0.000  0.000  0.000  0.213
    2  0.018  0.056  0.083  0.056  0.000  0.000  0.000  0.000  0.000  0.213
tot    0.037  0.111  0.167  0.111  0.000  0.000  0.000  0.000  0.000  0.425
 
band     5 # energy    7.73112594 # occ.  0.00000000
 
ion      s     py     pz     px    dxy    dyz    dz2    dxz  x2-y2    tot
    1  0.024  0.009  0.104  0.009  0.000  0.000  0.000  0.000  0.000  0.147
    2  0.024  0.009  0.104  0.009  0.000  0.000  0.000  0.000  0.000  0.147
tot    0.049  0.018  0.209  0.018  0.000  0.000  0.000  0.000  0.000  0.294
 
band     6 # energy    8.63808450 # occ.  0.00000000
 
ion      s     py     pz     px    dxy    dyz    dz2    dxz  x2-y2    tot
    1  0.091  0.052  0.017  0.052  0.000  0.000  0.000  0.000  0.000  0.210
    2  0.091  0.052  0.017  0.052  0.000  0.000  0.000  0.000  0.000  0.210
tot    0.181  0.103  0.033  0.103  0.000  0.000  0.000  0.000  0.000  0.421
 
band     7 # energy    9.23631059 # occ.  0.00000000
 
ion      s     py     pz     px    dxy    dyz    dz2    dxz  x2-y2    tot
    1  0.000  0.081  0.000  0.081  0.000  0.000  0.000  0.000  0.000  0.163
    2  0.000  0.081  0.000  0.081  0.000  0.000  0.000  0.000  0.000  0.163
tot    0.000  0.163  0.000  0.163  0.000  0.000  0.000  0.000  0.000  0.326
 
band     8 # energy   10.23329096 # occ.  0.00000000
 
ion      s     py     pz     px    dxy    dyz    dz2    dxz  x2-y2    tot
    1  0.113  0.026  0.059  0.026  0.000  0.000  0.000  0.000  0.000  0.224
    2  0.113  0.026  0.059  0.026  0.000  0.000  0.000  0.000  0.000  0.224
tot    0.225  0.053  0.118  0.053  0.000  0.000  0.000  0.000  0.000  0.448
 

 k-point     9 :    0.27272727 0.09090909 0.00000000     weight = 0.01803156

band     1 # energy   -5.43194183 # occ.  2.00000000
 
ion      s     py     pz     px    dxy    dyz    dz2    dxz  x2-y2    tot
    1  0.209  0.001  0.006  0.001  0.000  0.000  0.000  0.000  0.000  0.218
    2  0.209  0.001  0.006  0.001  0.000  0.000  0.000  0.000  0.000  0.218
tot    0.419  0.003  0.011  0.003  0.000  0.000  0.000  0.000  0.000  0.435
 
band     2 # energy    1.71819245 # occ.  2.00000000
 
ion      s     py     pz     px    dxy    dyz    dz2    dxz  x2-y2    tot
    1  0.107  0.035  0.044  0.035  0.000  0.000  0.000  0.000  0.000  0.222
    2  0.107  0.035  0.044  0.035  0.000  0.000  0.000  0.000  0.000  0.222
tot    0.214  0.071  0.089  0.071  0.000  0.000  0.000  0.000  0.000  0.445
 
band     3 # energy    4.28750577 # occ.  2.00000000
 
ion      s     py     pz     px    dxy    dyz    dz2    dxz  x2-y2    tot
    1  0.000  0.102  0.000  0.102  0.000  0.000  0.000  0.000  0.000  0.204
    2  0.000  0.102  0.000  0.102  0.000  0.000  0.000  0.000  0.000  0.204
tot    0.000  0.204  0.000  0.204  0.000  0.000  0.000  0.000  0.000  0.409
 
band     4 # energy    4.39678505 # occ.  2.00000000
 
ion      s     py     pz     px    dxy    dyz    dz2    dxz  x2-y2    tot
    1  0.026  0.038  0.109  0.038  0.000  0.000  0.000  0.000  0.000  0.212
    2  0.026  0.038  0.109  0.038  0.000  0.000  0.000  0.000  0.000  0.212
tot    0.052  0.077  0.219  0.077  0.000  0.000  0.000  0.000  0.000  0.424
 
band     5 # energy    7.81341566 # occ.  0.00000000
 
ion      s     py     pz     px    dxy    dyz    dz2    dxz  x2-y2    tot
    1  0.079  0.015  0.065  0.015  0.000  0.000  0.000  0.000  0.000  0.174
    2  0.079  0.015  0.065  0.015  0.000  0.000  0.000  0.000  0.000  0.174
tot    0.158  0.030  0.130  0.030  0.000  0.000  0.000  0.000  0.000  0.348
 
band     6 # energy    8.66818844 # occ.  0.00000000
 
ion      s     py     pz     px    dxy    dyz    dz2    dxz  x2-y2    tot
    1  0.054  0.042  0.039  0.042  0.000  0.000  0.000  0.000  0.000  0.178
    2  0.054  0.042  0.039  0.042  0.000  0.000  0.000  0.000  0.000  0.178
tot    0.107  0.085  0.079  0.085  0.000  0.000  0.000  0.000  0.000  0.356
 
band     7 # energy    9.59490290 # occ.  0.00000000
 
ion      s     py     pz     px    dxy    dyz    dz2    dxz  x2-y2    tot
    1  0.000  0.074  0.000  0.074  0.000  0.000  0.000  0.000  0.000  0.149
    2  0.000  0.074  0.000  0.074  0.000  0.000  0.000  0.000  0.000  0.149
tot    0.000  0.149  0.000  0.149  0.000  0.000  0.000  0.000  0.000  0.297
 
band     8 # energy   10.78063832 # occ.  0.00000000
 
ion      s     py     pz     px    dxy    dyz    dz2    dxz  x2-y2    tot
    1  0.036  0.021  0.026  0.021  0.000  0.000  0.000  0.000  0.000  0.103
    2  0.036  0.021  0.026  0.021  0.000  0.000  0.000  0.000  0.000  0.103
tot    0.071  0.041  0.052  0.041  0.000  0.000  0.000  0.000  0.000  0.206
 

 k-point    10 :    0.36363636 0.09090909-0.00000000     weight = 0.01803156

band     1 # energy   -4.83214140 # occ.  2.00000000
 
ion      s     py     pz     px    dxy    dyz    dz2    dxz  x2-y2    tot
    1  0.210  0.003  0.008  0.003  0.000  0.000  0.000  0.000  0.000  0.223
    2  0.210  0.003  0.008  0.003  0.000  0.000  0.000  0.000  0.000  0.223
tot    0.419  0.005  0.015  0.005  0.000  0.000  0.000  0.000  0.000  0.446
 
band     2 # energy    0.25335400 # occ.  2.00000000
 
ion      s     py     pz     px    dxy    dyz    dz2    dxz  x2-y2    tot
    1  0.115  0.033  0.033  0.033  0.000  0.000  0.000  0.000  0.000  0.214
    2  0.115  0.033  0.033  0.033  0.000  0.000  0.000  0.000  0.000  0.214
tot    0.229  0.066  0.066  0.066  0.000  0.000  0.000  0.000  0.000  0.427
 
band     3 # energy    4.02308264 # occ.  2.00000000
 
ion      s     py     pz     px    dxy    dyz    dz2    dxz  x2-y2    tot
    1  0.030  0.033  0.115  0.033  0.000  0.000  0.000  0.000  0.000  0.211
    2  0.030  0.033  0.115  0.033  0.000  0.000  0.000  0.000  0.000  0.211
tot    0.060  0.066  0.231  0.066  0.000  0.000  0.000  0.000  0.000  0.422
 
band     4 # energy    4.10291872 # occ.  2.00000000
 
ion      s     py     pz     px    dxy    dyz    dz2    dxz  x2-y2    tot
    1  0.000  0.103  0.000  0.103  0.000  0.000  0.000  0.000  0.000  0.207
    2  0.000  0.103  0.000  0.103  0.000  0.000  0.000  0.000  0.000  0.207
tot    0.000  0.207  0.000  0.207  0.000  0.000  0.000  0.000  0.000  0.414
 
band     5 # energy    7.63435164 # occ.  0.00000000
 
ion      s     py     pz     px    dxy    dyz    dz2    dxz  x2-y2    tot
    1  0.117  0.013  0.047  0.013  0.000  0.000  0.000  0.000  0.000  0.190
    2  0.117  0.013  0.047  0.013  0.000  0.000  0.000  0.000  0.000  0.190
tot    0.234  0.025  0.095  0.025  0.000  0.000  0.000  0.000  0.000  0.379
 
band     6 # energy    8.75515823 # occ.  0.00000000
 
ion      s     py     pz     px    dxy    dyz    dz2    dxz  x2-y2    tot
    1  0.024  0.032  0.046  0.032  0.000  0.000  0.000  0.000  0.000  0.133
    2  0.024  0.032  0.046  0.032  0.000  0.000  0.000  0.000  0.000  0.133
tot    0.048  0.063  0.091  0.063  0.000  0.000  0.000  0.000  0.000  0.265
 
band     7 # energy    9.54963766 # occ.  0.00000000
 
ion      s     py     pz     px    dxy    dyz    dz2    dxz  x2-y2    tot
    1  0.000  0.061  0.000  0.061  0.000  0.000  0.000  0.000  0.000  0.123
    2  0.000  0.061  0.000  0.061  0.000  0.000  0.000  0.000  0.000  0.123
tot    0.000  0.123  0.000  0.123  0.000  0.000  0.000  0.000  0.000  0.246
 
band     8 # energy   11.54055851 # occ.  0.00000000
 
ion      s     py     pz     px    dxy    dyz    dz2    dxz  x2-y2    tot
    1  0.020  0.029  0.020  0.029  0.000  0.000  0.000  0.000  0.000  0.099
    2  0.020  0.029  0.020  0.029  0.000  0.000  0.000  0.000  0.000  0.099
tot    0.041  0.059  0.040  0.059  0.000  0.000  0.000  0.000  0.000  0.198
 

 k-point    11 :    0.45454545 0.09090909 0.00000000     weight = 0.01803156

band     1 # energy   -4.19049361 # occ.  2.00000000
 
ion      s     py     pz     px    dxy    dyz    dz2    dxz  x2-y2    tot
    1  0.216  0.004  0.008  0.004  0.000  0.000  0.000  0.000  0.000  0.232
    2  0.216  0.004  0.008  0.004  0.000  0.000  0.000  0.000  0.000  0.232