mpprun info: Starting impi run on 1 node ( 4 rank X 1 th ) for job ID 18772321
 ----------------------------------------------------
    OOO  PPPP  EEEEE N   N M   M PPPP
   O   O P   P E     NN  N MM MM P   P
   O   O PPPP  EEEEE N N N M M M PPPP   -- VERSION
   O   O P     E     N  NN M   M P
    OOO  P     EEEEE N   N M   M P
 ----------------------------------------------------
 running    4 mpi-ranks, with    1 threads/rank
 distrk:  each k-point on    4 cores,    1 groups
 distr:  one band on    1 cores,    4 groups
 vasp.6.3.0 20Jan22 (build Feb 01 2022 16:52:37) complex                        
  
 POSCAR found type information on POSCAR Si
 POSCAR found :  1 types and       2 ions
 scaLAPACK will be used
 LDA part: xc-table for Pade appr. of Perdew
 POSCAR, INCAR and KPOINTS ok, starting setup
 FFT: planning ... GRIDC
 FFT: planning ... GRID_SOFT
 FFT: planning ... GRID
 WAVECAR not read
 entering main loop
       N       E                     dE             d eps       ncg     rms          rms(c)
DAV:   1    -0.185795080004E+01   -0.18580E+01   -0.20040E+03   904   0.422E+02
DAV:   2    -0.108926039335E+02   -0.90347E+01   -0.89778E+01  1440   0.557E+01
DAV:   3    -0.109805531666E+02   -0.87949E-01   -0.87949E-01  1208   0.675E+00
DAV:   4    -0.109807517982E+02   -0.19863E-03   -0.19863E-03  1368   0.313E-01
DAV:   5    -0.109807519113E+02   -0.11310E-06   -0.11310E-06  1256   0.684E-03    0.519E+00
DAV:   6    -0.108723496549E+02    0.10840E+00   -0.69164E-02  1064   0.137E+00    0.317E+00
DAV:   7    -0.108218097847E+02    0.50540E-01   -0.13575E-01  1120   0.205E+00    0.163E-01
DAV:   8    -0.108228444703E+02   -0.10347E-02   -0.32972E-03   944   0.419E-01    0.706E-02
DAV:   9    -0.108230614393E+02   -0.21697E-03   -0.22028E-04  1312   0.111E-01    0.557E-02
DAV:  10    -0.108230846184E+02   -0.23179E-04   -0.25743E-05   560   0.381E-02
   1 F= -.10823085E+02 E0= -.10823085E+02  d E =0.000000E+00
 writing wavefunctions
mpprun info: Elapsed time (h:m:s):  0:00:01.638793
