<?xml version="1.0" encoding="ISO-8859-1"?>
<modeling>
 <generator>
  <i name="program" type="string">vasp </i>
  <i name="version" type="string">6.3.0  </i>
  <i name="subversion" type="string">20Jan22 (build Feb 01 2022 16:52:37) complex                          parallel </i>
  <i name="platform" type="string">TETRA_NSC1 </i>
  <i name="date" type="string">2022 02 23 </i>
  <i name="time" type="string">07:23:25 </i>
 </generator>
 <incar>
  <i type="string" name="SYSTEM">diamond Si</i>
  <i type="int" name="ISTART">     0</i>
  <i type="int" name="ICHARG">     2</i>
  <i name="ENCUT">    240.00000000</i>
  <i type="int" name="ISMEAR">    -5</i>
  <i type="int" name="LORBIT">    11</i>
 </incar>
 <primitive_cell>
  <structure name="primitive_cell" >
   <crystal>
    <varray name="basis" >
     <v>       0.00000000       2.75000000       2.75000000 </v>
     <v>       2.75000000       0.00000000       2.75000000 </v>
     <v>       2.75000000       2.75000000       0.00000000 </v>
    </varray>
    <i name="volume">     41.59375000 </i>
    <varray name="rec_basis" >
     <v>      -0.18181818       0.18181818       0.18181818 </v>
     <v>       0.18181818      -0.18181818       0.18181818 </v>
     <v>       0.18181818       0.18181818      -0.18181818 </v>
    </varray>
   </crystal>
   <varray name="positions" >
    <v>       0.87500000       0.87500000       0.87500000 </v>
    <v>       0.12500000       0.12500000       0.12500000 </v>
   </varray>
  </structure>
  <varray name="primitive_index" >
   <v type="int" >        1 </v>
   <v type="int" >        2 </v>
  </varray>
 </primitive_cell>
 <kpoints>
  <generation param="Monkhorst-Pack">
   <v type="int" name="divisions">      11       11       11 </v>
   <v name="usershift">      0.00000000       0.00000000       0.00000000 </v>
   <v name="genvec1">      0.09090909       0.00000000       0.00000000 </v>
   <v name="genvec2">      0.00000000       0.09090909       0.00000000 </v>
   <v name="genvec3">      0.00000000       0.00000000       0.09090909 </v>
   <v name="shift">      0.00000000       0.00000000       0.00000000 </v>
  </generation>
  <varray name="kpointlist" >
   <v>       0.00000000       0.00000000       0.00000000 </v>
   <v>       0.09090909       0.00000000       0.00000000 </v>
   <v>       0.18181818      -0.00000000       0.00000000 </v>
   <v>       0.27272727       0.00000000      -0.00000000 </v>
   <v>       0.36363636      -0.00000000       0.00000000 </v>
   <v>       0.45454545       0.00000000      -0.00000000 </v>
   <v>       0.09090909       0.09090909      -0.00000000 </v>
   <v>       0.18181818       0.09090909       0.00000000 </v>
   <v>       0.27272727       0.09090909       0.00000000 </v>
   <v>       0.36363636       0.09090909      -0.00000000 </v>
   <v>       0.45454545       0.09090909       0.00000000 </v>
   <v>      -0.45454545       0.09090909       0.00000000 </v>
   <v>      -0.36363636       0.09090909      -0.00000000 </v>
   <v>      -0.27272727       0.09090909      -0.00000000 </v>
   <v>      -0.18181818       0.09090909       0.00000000 </v>
   <v>      -0.09090909       0.09090909      -0.00000000 </v>
   <v>       0.18181818       0.18181818      -0.00000000 </v>
   <v>       0.27272727       0.18181818       0.00000000 </v>
   <v>       0.36363636       0.18181818       0.00000000 </v>
   <v>       0.45454545       0.18181818       0.00000000 </v>
   <v>      -0.45454545       0.18181818       0.00000000 </v>
   <v>      -0.36363636       0.18181818       0.00000000 </v>
   <v>      -0.27272727       0.18181818       0.00000000 </v>
   <v>      -0.18181818       0.18181818      -0.00000000 </v>
   <v>       0.27272727       0.27272727      -0.00000000 </v>
   <v>       0.36363636       0.27272727       0.00000000 </v>
   <v>       0.45454545       0.27272727      -0.00000000 </v>
   <v>      -0.45454545       0.27272727       0.00000000 </v>
   <v>      -0.36363636       0.27272727       0.00000000 </v>
   <v>      -0.27272727       0.27272727       0.00000000 </v>
   <v>       0.36363636       0.36363636      -0.00000000 </v>
   <v>       0.45454545       0.36363636      -0.00000000 </v>
   <v>      -0.45454545       0.36363636      -0.00000000 </v>
   <v>      -0.36363636       0.36363636      -0.00000000 </v>
   <v>       0.45454545       0.45454545      -0.00000000 </v>
   <v>      -0.45454545       0.45454545       0.00000000 </v>
   <v>       0.27272727       0.18181818       0.09090909 </v>
   <v>       0.36363636       0.18181818       0.09090909 </v>
   <v>       0.45454545       0.18181818       0.09090909 </v>
   <v>      -0.45454545       0.18181818       0.09090909 </v>
   <v>       0.36363636       0.27272727       0.09090909 </v>
   <v>       0.45454545       0.27272727       0.09090909 </v>
   <v>      -0.45454545       0.27272727       0.09090909 </v>
   <v>      -0.36363636       0.27272727       0.09090909 </v>
   <v>      -0.27272727       0.27272727       0.09090909 </v>
   <v>      -0.18181818       0.27272727       0.09090909 </v>
   <v>       0.45454545       0.36363636       0.09090909 </v>
   <v>      -0.45454545       0.36363636       0.09090909 </v>
   <v>      -0.36363636       0.36363636       0.09090909 </v>
   <v>      -0.27272727       0.36363636       0.09090909 </v>
   <v>      -0.45454545       0.45454545       0.09090909 </v>
   <v>      -0.36363636       0.45454545       0.09090909 </v>
   <v>      -0.45454545       0.36363636       0.18181818 </v>
   <v>      -0.36363636       0.36363636       0.18181818 </v>
   <v>      -0.36363636       0.45454545       0.18181818 </v>
   <v>      -0.27272727       0.45454545       0.18181818 </v>
  </varray>
  <varray name="weights" >
   <v>       0.00075131 </v>
   <v>       0.00601052 </v>
   <v>       0.00601052 </v>
   <v>       0.00601052 </v>
   <v>       0.00601052 </v>
   <v>       0.00601052 </v>
   <v>       0.00450789 </v>
   <v>       0.01803156 </v>
   <v>       0.01803156 </v>
   <v>       0.01803156 </v>
   <v>       0.01803156 </v>
   <v>       0.01803156 </v>
   <v>       0.01803156 </v>
   <v>       0.01803156 </v>
   <v>       0.01803156 </v>
   <v>       0.00901578 </v>
   <v>       0.00450789 </v>
   <v>       0.01803156 </v>
   <v>       0.01803156 </v>
   <v>       0.01803156 </v>
   <v>       0.01803156 </v>
   <v>       0.01803156 </v>
   <v>       0.01803156 </v>
   <v>       0.00901578 </v>
   <v>       0.00450789 </v>
   <v>       0.01803156 </v>
   <v>       0.01803156 </v>
   <v>       0.01803156 </v>
   <v>       0.01803156 </v>
   <v>       0.00901578 </v>
   <v>       0.00450789 </v>
   <v>       0.01803156 </v>
   <v>       0.01803156 </v>
   <v>       0.00901578 </v>
   <v>       0.00450789 </v>
   <v>       0.00901578 </v>
   <v>       0.01803156 </v>
   <v>       0.03606311 </v>
   <v>       0.03606311 </v>
   <v>       0.03606311 </v>
   <v>       0.01803156 </v>
   <v>       0.03606311 </v>
   <v>       0.03606311 </v>
   <v>       0.03606311 </v>
   <v>       0.03606311 </v>
   <v>       0.01803156 </v>
   <v>       0.01803156 </v>
   <v>       0.03606311 </v>
   <v>       0.03606311 </v>
   <v>       0.01803156 </v>
   <v>       0.01803156 </v>
   <v>       0.01803156 </v>
   <v>       0.01803156 </v>
   <v>       0.03606311 </v>
   <v>       0.01803156 </v>
   <v>       0.01803156 </v>
  </varray>
  <varray name="tetrahedronlist"  type="int" >
   <v type="int" >       24        1        2        2        7 </v>
   <v type="int" >       48        2        7        8       16 </v>
   <v type="int" >       48        2        3        8       16 </v>
   <v type="int" >       24        2        2        7       16 </v>
   <v type="int" >       48        3        8        9       15 </v>
   <v type="int" >       48        3        4        9       15 </v>
   <v type="int" >       48        3        8       15       16 </v>
   <v type="int" >       48        4        9       10       14 </v>
   <v type="int" >       48        4        5       10       14 </v>
   <v type="int" >       48        4        9       14       15 </v>
   <v type="int" >       48        5       10       11       13 </v>
   <v type="int" >       48        5        6       11       13 </v>
   <v type="int" >       48        5       10       13       14 </v>
   <v type="int" >       48        6       11       12       12 </v>
   <v type="int" >       24        6        6       12       12 </v>
   <v type="int" >       48        6       11       12       13 </v>
   <v type="int" >       24        7        8        8       17 </v>
   <v type="int" >       24        7        8        8       16 </v>
   <v type="int" >       48        8       17       18       37 </v>
   <v type="int" >       48        8        9       18       37 </v>
   <v type="int" >       48        8        9       15       37 </v>
   <v type="int" >       24        8        8       17       37 </v>
   <v type="int" >       24        8        8       16       37 </v>
   <v type="int" >       48        8       15       16       37 </v>
   <v type="int" >       48        9       18       19       38 </v>
   <v type="int" >       48        9       10       19       38 </v>
   <v type="int" >       48        9       10       14       38 </v>
   <v type="int" >       48        9       18       37       38 </v>
   <v type="int" >       48        9       15       37       38 </v>
   <v type="int" >       48        9       14       15       38 </v>
   <v type="int" >       48       10       19       20       39 </v>
   <v type="int" >       48       10       11       20       39 </v>
   <v type="int" >       48       10       11       13       39 </v>
   <v type="int" >       48       10       19       38       39 </v>
   <v type="int" >       48       10       14       38       39 </v>
   <v type="int" >       48       10       13       14       39 </v>
   <v type="int" >       48       11       20       21       40 </v>
   <v type="int" >       48       11       12       21       40 </v>
   <v type="int" >       48       11       12       12       40 </v>
   <v type="int" >       48       11       20       39       40 </v>
   <v type="int" >       48       11       13       39       40 </v>
   <v type="int" >       48       11       12       13       40 </v>
   <v type="int" >       48       12       21       22       40 </v>
   <v type="int" >       48       12       13       22       40 </v>
   <v type="int" >       48       12       21       40       40 </v>
   <v type="int" >       24       12       12       40       40 </v>
   <v type="int" >       48       13       22       23       39 </v>
   <v type="int" >       48       13       14       23       39 </v>
   <v type="int" >       48       13       22       39       40 </v>
   <v type="int" >       48       14       23       24       38 </v>
   <v type="int" >       48       14       15       24       38 </v>
   <v type="int" >       48       14       23       38       39 </v>
   <v type="int" >       24       15       15       24       37 </v>
   <v type="int" >       24       15       15       16       37 </v>
   <v type="int" >       48       15       24       37       38 </v>
   <v type="int" >       24       17       18       18       25 </v>
   <v type="int" >       24       17       18       18       37 </v>
   <v type="int" >       48       18       25       26       41 </v>
   <v type="int" >       48       18       19       26       41 </v>
   <v type="int" >       48       18       19       38       41 </v>
   <v type="int" >       24       18       18       25       41 </v>
   <v type="int" >       24       18       18       37       41 </v>
   <v type="int" >       48       18       37       38       41 </v>
   <v type="int" >       48       19       26       27       42 </v>
   <v type="int" >       48       19       20       27       42 </v>
   <v type="int" >       48       19       20       39       42 </v>
   <v type="int" >       48       19       26       41       42 </v>
   <v type="int" >       48       19       38       41       42 </v>
   <v type="int" >       48       19       38       39       42 </v>
   <v type="int" >       48       20       27       28       43 </v>
   <v type="int" >       48       20       21       28       43 </v>
   <v type="int" >       48       20       21       40       43 </v>
   <v type="int" >       48       20       27       42       43 </v>
   <v type="int" >       48       20       39       42       43 </v>
   <v type="int" >       48       20       39       40       43 </v>
   <v type="int" >       48       21       28       29       44 </v>
   <v type="int" >       48       21       22       29       44 </v>
   <v type="int" >       48       21       22       40       44 </v>
   <v type="int" >       48       21       28       43       44 </v>
   <v type="int" >       48       21       40       43       44 </v>
   <v type="int" >       48       21       40       40       44 </v>
   <v type="int" >       48       22       29       30       45 </v>
   <v type="int" >       48       22       23       30       45 </v>
   <v type="int" >       48       22       23       39       45 </v>
   <v type="int" >       48       22       29       44       45 </v>
   <v type="int" >       48       22       40       44       45 </v>
   <v type="int" >       48       22       39       40       45 </v>
   <v type="int" >       24       23       23       30       46 </v>
   <v type="int" >       24       23       23       24       46 </v>
   <v type="int" >       48       23       24       38       46 </v>
   <v type="int" >       48       23       30       45       46 </v>
   <v type="int" >       48       23       39       45       46 </v>
   <v type="int" >       48       23       38       39       46 </v>
   <v type="int" >       24       24       38       38       46 </v>
   <v type="int" >       24       24       37       38       38 </v>
   <v type="int" >       24       25       26       26       31 </v>
   <v type="int" >       24       25       26       26       41 </v>
   <v type="int" >       48       26       31       32       47 </v>
   <v type="int" >       48       26       27       32       47 </v>
   <v type="int" >       48       26       27       42       47 </v>
   <v type="int" >       24       26       26       31       47 </v>
   <v type="int" >       24       26       26       41       47 </v>
   <v type="int" >       48       26       41       42       47 </v>
   <v type="int" >       48       27       32       33       48 </v>
   <v type="int" >       48       27       28       33       48 </v>
   <v type="int" >       48       27       28       43       48 </v>
   <v type="int" >       48       27       32       47       48 </v>
   <v type="int" >       48       27       42       47       48 </v>
   <v type="int" >       48       27       42       43       48 </v>
   <v type="int" >       48       28       33       34       49 </v>
   <v type="int" >       48       28       29       34       49 </v>
   <v type="int" >       48       28       29       44       49 </v>
   <v type="int" >       48       28       33       48       49 </v>
   <v type="int" >       48       28       43       48       49 </v>
   <v type="int" >       48       28       43       44       49 </v>
   <v type="int" >       24       29       29       34       50 </v>
   <v type="int" >       24       29       29       30       50 </v>
   <v type="int" >       48       29       30       45       50 </v>
   <v type="int" >       48       29       34       49       50 </v>
   <v type="int" >       48       29       44       49       50 </v>
   <v type="int" >       48       29       44       45       50 </v>
   <v type="int" >       24       30       45       45       50 </v>
   <v type="int" >       24       30       45       45       46 </v>
   <v type="int" >       24       31       32       32       35 </v>
   <v type="int" >       24       31       32       32       47 </v>
   <v type="int" >       48       32       35       36       51 </v>
   <v type="int" >       48       32       33       36       51 </v>
   <v type="int" >       48       32       33       48       51 </v>
   <v type="int" >       24       32       32       35       51 </v>
   <v type="int" >       24       32       32       47       51 </v>
   <v type="int" >       48       32       47       48       51 </v>
   <v type="int" >       24       33       33       36       52 </v>
   <v type="int" >       24       33       33       34       52 </v>
   <v type="int" >       48       33       34       49       52 </v>
   <v type="int" >       48       33       36       51       52 </v>
   <v type="int" >       48       33       48       51       52 </v>
   <v type="int" >       48       33       48       49       52 </v>
   <v type="int" >       24       34       49       49       52 </v>
   <v type="int" >       24       34       49       49       50 </v>
   <v type="int" >       12       35       35       36       36 </v>
   <v type="int" >       24       35       36       36       51 </v>
   <v type="int" >       12       36       36       51       51 </v>
   <v type="int" >       24       36       51       51       52 </v>
   <v type="int" >       24       37       38       38       41 </v>
   <v type="int" >       48       38       41       42       46 </v>
   <v type="int" >       48       38       39       42       46 </v>
   <v type="int" >       24       38       38       41       46 </v>
   <v type="int" >       48       39       42       43       45 </v>
   <v type="int" >       48       39       40       43       45 </v>
   <v type="int" >       48       39       42       45       46 </v>
   <v type="int" >       48       40       43       44       44 </v>
   <v type="int" >       24       40       40       44       44 </v>
   <v type="int" >       48       40       43       44       45 </v>
   <v type="int" >       24       41       42       42       47 </v>
   <v type="int" >       24       41       42       42       46 </v>
   <v type="int" >       48       42       47       48       53 </v>
   <v type="int" >       48       42       43       48       53 </v>
   <v type="int" >       48       42       43       45       53 </v>
   <v type="int" >       24       42       42       47       53 </v>
   <v type="int" >       24       42       42       46       53 </v>
   <v type="int" >       48       42       45       46       53 </v>
   <v type="int" >       48       43       48       49       54 </v>
   <v type="int" >       48       43       44       49       54 </v>
   <v type="int" >       48       43       44       44       54 </v>
   <v type="int" >       48       43       48       53       54 </v>
   <v type="int" >       48       43       45       53       54 </v>
   <v type="int" >       48       43       44       45       54 </v>
   <v type="int" >       48       44       49       50       54 </v>
   <v type="int" >       48       44       45       50       54 </v>
   <v type="int" >       48       44       49       54       54 </v>
   <v type="int" >       24       44       44       54       54 </v>
   <v type="int" >       24       45       45       50       53 </v>
   <v type="int" >       24       45       45       46       53 </v>
   <v type="int" >       48       45       50       53       54 </v>
   <v type="int" >       24       47       48       48       51 </v>
   <v type="int" >       24       47       48       48       53 </v>
   <v type="int" >       48       48       51       52       55 </v>
   <v type="int" >       48       48       49       52       55 </v>
   <v type="int" >       48       48       49       54       55 </v>
   <v type="int" >       24       48       48       51       55 </v>
   <v type="int" >       24       48       48       53       55 </v>
   <v type="int" >       48       48       53       54       55 </v>
   <v type="int" >       24       49       49       52       56 </v>
   <v type="int" >       24       49       49       50       56 </v>
   <v type="int" >       48       49       50       54       56 </v>
   <v type="int" >       48       49       52       55       56 </v>
   <v type="int" >       48       49       54       55       56 </v>
   <v type="int" >       48       49       54       54       56 </v>
   <v type="int" >       24       50       54       54       56 </v>
   <v type="int" >       24       50       53       54       54 </v>
   <v type="int" >       12       51       51       52       52 </v>
   <v type="int" >       24       51       52       52       55 </v>
   <v type="int" >       12       52       52       55       55 </v>
   <v type="int" >       24       52       55       55       56 </v>
   <v type="int" >       24       53       54       54       55 </v>
   <v type="int" >       48       54       55       56       56 </v>
   <v type="int" >       24       54       54       56       56 </v>
   <v type="int" >       24       54       54       55       56 </v>
   <v type="int" >       12       55       55       56       56 </v>
   <v type="int" >       24       55       56       56       56 </v>
   <v type="int" >        6       56       56       56       56 </v>
  </varray>
  <i name="volumeweight">      0.00012522 </i>
 </kpoints>
 <parameters>
  <separator name="general" >
   <i type="string" name="SYSTEM">diamond Si</i>
   <i type="logical" name="LCOMPAT"> F  </i>
  </separator>
  <separator name="electronic" >
   <i type="string" name="PREC">normal</i>
   <i name="ENMAX">    240.00000000</i>
   <i name="ENAUG">    322.06900000</i>
   <i name="EDIFF">      0.00010000</i>
   <i type="int" name="IALGO">    38</i>
   <i type="int" name="IWAVPR">    10</i>
   <i type="int" name="NBANDS">     8</i>
   <i type="int" name="NBANDSLOW">    -1</i>
   <i type="int" name="NBANDSHIGH">    -1</i>
   <i name="NELECT">      8.00000000</i>
   <i type="int" name="TURBO">     0</i>
   <i type="int" name="IRESTART">     0</i>
   <i type="int" name="NREBOOT">     0</i>
   <i type="int" name="NMIN">     0</i>
   <i name="EREF">      0.00000000</i>
   <separator name="electronic smearing" >
    <i type="int" name="ISMEAR">    -5</i>
    <i name="SIGMA">      0.20000000</i>
    <i name="KSPACING">      0.50000000</i>
    <i type="logical" name="KGAMMA"> T  </i>
    <i type="logical" name="KBLOWUP"> T  </i>
   </separator>
   <separator name="electronic projectors" >
    <i type="logical" name="LREAL"> F  </i>
    <v name="ROPT">      0.00000000</v>
    <i type="int" name="LMAXPAW">  -100</i>
    <i type="int" name="LMAXMIX">     2</i>
    <i type="logical" name="NLSPLINE"> F  </i>
   </separator>
   <separator name="electronic startup" >
    <i type="int" name="ISTART">     0</i>
    <i type="int" name="ICHARG">     2</i>
    <i type="int" name="INIWAV">     1</i>
   </separator>
   <separator name="electronic spin" >
    <i type="int" name="ISPIN">     1</i>
    <i type="logical" name="LNONCOLLINEAR"> F  </i>
    <v name="MAGMOM">      1.00000000      1.00000000</v>
    <i name="NUPDOWN">     -1.00000000</i>
    <i type="logical" name="LSORBIT"> F  </i>
    <v name="SAXIS">      0.00000000      0.00000000      1.00000000</v>
    <i type="logical" name="LSPIRAL"> F  </i>
    <v name="QSPIRAL">      0.00000000      0.00000000      0.00000000</v>
    <i type="logical" name="LZEROZ"> F  </i>
   </separator>
   <separator name="electronic exchange-correlation" >
    <i type="logical" name="LASPH"> F  </i>
    <i type="logical" name="LMETAGGA"> F  </i>
   </separator>
   <separator name="electronic convergence" >
    <i type="int" name="NELM">    60</i>
    <i type="int" name="NELMDL">    -5</i>
    <i type="int" name="NELMIN">     2</i>
    <i name="ENINI">    240.00000000</i>
    <separator name="electronic convergence detail" >
     <i type="logical" name="LDIAG"> T  </i>
     <i type="logical" name="LSUBROT"> F  </i>
     <i name="WEIMIN">      0.00000000</i>
     <i name="EBREAK">      0.00000313</i>
     <i name="DEPER">      0.30000000</i>
     <i type="int" name="NRMM">     4</i>
     <i name="TIME">      0.40000000</i>
    </separator>
   </separator>
   <separator name="electronic mixer" >
    <i name="AMIX">      0.40000000</i>
    <i name="BMIX">      1.00000000</i>
    <i name="AMIN">      0.10000000</i>
    <i name="AMIX_MAG">      1.60000000</i>
    <i name="BMIX_MAG">      1.00000000</i>
    <separator name="electronic mixer details" >
     <i type="int" name="IMIX">     4</i>
     <i type="logical" name="MIXFIRST"> F  </i>
     <i type="int" name="MAXMIX">   -45</i>
     <i name="WC">    100.00000000</i>
     <i type="int" name="INIMIX">     1</i>
     <i type="int" name="MIXPRE">     1</i>
     <i type="int" name="MREMOVE">     5</i>
    </separator>
   </separator>
   <separator name="electronic dipolcorrection" >
    <i type="logical" name="LDIPOL"> F  </i>
    <i type="logical" name="LMONO"> F  </i>
    <i type="int" name="IDIPOL">     0</i>
    <i name="EPSILON">      1.00000000</i>
    <v name="DIPOL">   -100.00000000   -100.00000000   -100.00000000</v>
    <i name="EFIELD">      0.00000000</i>
   </separator>
  </separator>
  <separator name="grids" >
   <i type="int" name="NGX">    16</i>
   <i type="int" name="NGY">    16</i>
   <i type="int" name="NGZ">    16</i>
   <i type="int" name="NGXF">    32</i>
   <i type="int" name="NGYF">    32</i>
   <i type="int" name="NGZF">    32</i>
   <i type="logical" name="ADDGRID"> F  </i>
  </separator>
  <separator name="ionic" >
   <i type="int" name="NSW">     0</i>
   <i type="int" name="IBRION">    -1</i>
   <i type="int" name="MDALGO">     0</i>
   <i type="int" name="ISIF">     2</i>
   <i name="PSTRESS">      0.00000000</i>
   <i name="EDIFFG">      0.00100000</i>
   <i type="int" name="NFREE">     0</i>
   <i name="POTIM">      0.50000000</i>
   <i name="SMASS">     -3.00000000</i>
   <i name="SCALEE">      1.00000000</i>
  </separator>
  <separator name="ionic md" >
   <i name="TEBEG">      0.00010000</i>
   <i name="TEEND">      0.00010000</i>
   <i type="int" name="NBLOCK">     1</i>
   <i type="int" name="KBLOCK">     1</i>
   <i type="int" name="NPACO">   256</i>
   <i name="APACO">     10.00000000</i>
  </separator>
  <separator name="symmetry" >
   <i type="int" name="ISYM">     2</i>
   <i name="SYMPREC">      0.00001000</i>
  </separator>
  <separator name="dos" >
   <i type="int" name="LORBIT">    11</i>
   <v name="RWIGS">     -1.00000000</v>
   <i type="int" name="NEDOS">   301</i>
   <i name="EMIN">     10.00000000</i>
   <i name="EMAX">    -10.00000000</i>
   <i name="EFERMI">      0.00000000</i>
  </separator>
  <separator name="writing" >
   <i type="int" name="NWRITE">     2</i>
   <i type="logical" name="LWAVE"> T  </i>
   <i type="logical" name="LDOWNSAMPLE"> F  </i>
   <i type="logical" name="LCHARG"> T  </i>
   <i type="logical" name="LPARD"> F  </i>
   <i type="logical" name="LVTOT"> F  </i>
   <i type="logical" name="LVHAR"> F  </i>
   <i type="logical" name="LELF"> F  </i>
   <i type="logical" name="LOPTICS"> F  </i>
   <v name="STM">      0.00000000      0.00000000      0.00000000      0.00000000      0.00000000      0.00000000      0.00000000</v>
  </separator>
  <separator name="performance" >
   <i type="int" name="NPAR">     4</i>
   <i type="int" name="NSIM">     4</i>
   <i type="int" name="NBLK">    -1</i>
   <i type="logical" name="LPLANE"> T  </i>
   <i type="logical" name="LSCALAPACK"> T  </i>
   <i type="logical" name="LSCAAWARE"> F  </i>
   <i type="logical" name="LSCALU"> F  </i>
   <i type="logical" name="LASYNC"> F  </i>
   <i type="logical" name="LORBITALREAL"> F  </i>
  </separator>
  <separator name="miscellaneous" >
   <i type="int" name="IDIOT">     3</i>
   <i type="int" name="PHON_NSTRUCT">    -1</i>
   <i type="logical" name="LMUSIC"> F  </i>
   <v name="POMASS">     28.08500000</v>
   <v name="DARWINR">      0.00000000</v>
   <v name="DARWINV">      1.00000000</v>
   <i type="logical" name="LCORR"> T  </i>
  </separator>
  <i type="logical" name="GGA_COMPAT"> T  </i>
  <i type="logical" name="LBERRY"> F  </i>
  <i type="int" name="ICORELEVEL">     0</i>
  <i type="logical" name="LDAU"> F  </i>
  <i type="int" name="I_CONSTRAINED_M">     0</i>
  <separator name="electronic exchange-correlation" >
   <i type="string" name="GGA">--</i>
   <i type="int" name="VOSKOWN">     0</i>
   <i type="logical" name="LHFCALC"> F  </i>
   <i type="string" name="PRECFOCK"></i>
   <i type="logical" name="LSYMGRAD"> F  </i>
   <i type="logical" name="LHFONE"> F  </i>
   <i type="logical" name="LRHFCALC"> F  </i>
   <i type="logical" name="LTHOMAS"> F  </i>
   <i type="logical" name="LMODELHF"> F  </i>
   <i type="logical" name="LFOCKACE"> F  </i>
   <i name="ENCUT4O">     -1.00000000</i>
   <i type="int" name="EXXOEP">     0</i>
   <i type="int" name="FOURORBIT">     0</i>
   <i name="AEXX">      0.00000000</i>
   <i name="HFALPHA">      0.00000000</i>
   <i name="MCALPHA">      0.00000000</i>
   <i name="ALDAX">      1.00000000</i>
   <i name="AGGAX">      1.00000000</i>
   <i name="ALDAC">      1.00000000</i>
   <i name="AGGAC">      1.00000000</i>
   <i type="int" name="NKREDX">     1</i>
   <i type="int" name="NKREDY">     1</i>
   <i type="int" name="NKREDZ">     1</i>
   <i type="logical" name="SHIFTRED"> F  </i>
   <i type="logical" name="ODDONLY"> F  </i>
   <i type="logical" name="EVENONLY"> F  </i>
   <i type="int" name="LMAXFOCK">     0</i>
   <i type="int" name="NMAXFOCKAE">     0</i>
   <i type="logical" name="LFOCKAEDFT"> F  </i>
   <i name="HFSCREEN">      0.00000000</i>
   <i name="HFSCREENC">      0.00000000</i>
   <i type="int" name="NBANDSGWLOW">     0</i>
  </separator>
  <separator name="vdW DFT" >
   <i type="logical" name="LUSE_VDW"> F  </i>
   <i name="Zab_VDW">     -0.84910000</i>
   <i name="PARAM1">      0.12340000</i>
   <i name="PARAM2">      1.00000000</i>
   <i name="PARAM3">      0.00000000</i>
  </separator>
  <separator name="model GW" >
   <i type="int" name="MODEL_GW">     0</i>
   <i name="MODEL_EPS0">     12.47812500</i>
   <i name="MODEL_ALPHA">      1.00000000</i>
  </separator>
  <separator name="linear response parameters" >
   <i type="logical" name="LEPSILON"> F  </i>
   <i type="logical" name="LRPA"> F  </i>
   <i type="logical" name="LNABLA"> F  </i>
   <i type="logical" name="LVEL"> F  </i>
   <i name="CSHIFT">      0.10000000</i>
   <i name="OMEGAMAX">     -1.00000000</i>
   <i name="DEG_THRESHOLD">      0.00200000</i>
   <i name="RTIME">     -0.10000000</i>
   <i name="WPLASMAI">      0.00000000</i>
   <v name="DFIELD">      0.00000000      0.00000000      0.00000000</v>
   <v name="WPLASMA">      0.00000000      0.00000000      0.00000000      0.00000000      0.00000000      0.00000000      0.00000000      0.00000000      0.00000000</v>
  </separator>
  <separator name="orbital magnetization" >
   <i type="logical" name="NUCIND"> F  </i>
   <v name="MAGPOS">      0.00000000      0.00000000      0.00000000</v>
   <i type="logical" name="LNICSALL"> T  </i>
   <i type="logical" name="ORBITALMAG"> F  </i>
   <i type="logical" name="LMAGBLOCH"> F  </i>
   <i type="logical" name="LCHIMAG"> F  </i>
   <i type="logical" name="LGAUGE"> T  </i>
   <i type="int" name="MAGATOM">     0</i>
   <v name="MAGDIPOL">      0.00000000      0.00000000      0.00000000</v>
   <v name="AVECCONST">      0.00000000      0.00000000      0.00000000</v>
  </separator>
  <separator name="response functions" >
   <i type="logical" name="LFINITE_TEMPERATURE"> F  </i>
   <i type="logical" name="LADDER"> F  </i>
   <i type="logical" name="LRPAFORCE"> F  </i>
   <i type="logical" name="LFXC"> F  </i>
   <i type="logical" name="LHARTREE"> T  </i>
   <i type="int" name="IBSE">     0</i>
   <v type="int" name="KPOINT">    -1     0     0     0</v>
   <i type="logical" name="LTCTC"> F  </i>
   <i type="logical" name="LTCTE"> F  </i>
   <i type="logical" name="LTETE"> F  </i>
   <i type="logical" name="LTRIPLET"> F  </i>
   <i type="logical" name="LFXCEPS"> F  </i>
   <i type="logical" name="LFXHEG"> F  </i>
   <i type="int" name="NATURALO">     2</i>
   <i type="logical" name="LHOLEGF"> F  </i>
   <i type="logical" name="L2ORDER"> F  </i>
   <i type="logical" name="LDMP1"> F  </i>
   <i type="logical" name="LMP2LT"> F  </i>
   <i type="logical" name="LSMP2LT"> F  </i>
   <i type="logical" name="LGWLF"> F  </i>
   <i name="ENCUTGW">     -2.00000000</i>
   <i name="ENCUTGWSOFT">     -2.00000000</i>
   <i name="ENCUTLF">     -1.00000000</i>
   <i type="logical" name="LESF_SPLINES"> F  </i>
   <i type="int" name="LMAXMP2">    -1</i>
   <i name="SCISSOR">      0.00000000</i>
   <i type="int" name="NOMEGA">     0</i>
   <i type="int" name="NOMEGAR">     0</i>
   <i type="int" name="NBANDSGW">    -1</i>
   <i type="int" name="NBANDSO">    -1</i>
   <i type="int" name="NBANDSV">    -1</i>
   <i type="int" name="NELMGW">     1</i>
   <i type="int" name="NELMHF">     1</i>
   <i type="int" name="DIM">     3</i>
   <i type="int" name="IESPILON">     4</i>
   <i type="int" name="ANTIRES">     0</i>
   <i name="OMEGAMAX">    -30.00000000</i>
   <i name="OMEGAMIN">    -30.00000000</i>
   <i name="OMEGATL">   -200.00000000</i>
   <i type="int" name="OMEGAGRID">     0</i>
   <i name="CSHIFT">     -0.10000000</i>
   <i type="logical" name="LSELFENERGY"> F  </i>
   <i type="logical" name="LSPECTRAL"> F  </i>
   <i type="logical" name="LSPECTRALGW"> F  </i>
   <i type="logical" name="LSINGLES"> F  </i>
   <i type="logical" name="LFERMIGW"> F  </i>
   <i type="logical" name="ODDONLYGW"> F  </i>
   <i type="logical" name="EVENONLYGW"> F  </i>
   <i type="int" name="NKREDLFX">     1</i>
   <i type="int" name="NKREDLFY">     1</i>
   <i type="int" name="NKREDLFZ">     1</i>
   <i type="int" name="MAXMEM">  2800</i>
   <i type="int" name="TELESCOPE">     0</i>
   <i type="int" name="NTAUPAR">    -1</i>
   <i type="int" name="NOMEGAPAR">    -1</i>
   <i name="DAMP_NEWTON">      0.80000001</i>
   <i name="LAMBDA">      1.00000000</i>
  </separator>
  <separator name="External order field" >
   <i name="OFIELD_KAPPA">      0.00000000</i>
   <v name="OFIELD_K">      0.00000000      0.00000000      0.00000000</v>
   <i name="OFIELD_Q6_NEAR">      0.00000000</i>
   <i name="OFIELD_Q6_FAR">      0.00000000</i>
   <i name="OFIELD_A">      0.00000000</i>
  </separator>
  <separator name="optional k-points parameters" >
   <i type="int" name="KPOINTS_OPT_MODE">     1</i>
   <i type="logical" name="LKPOINTS_OPT"> F  </i>
  </separator>
 </parameters>
 <atominfo>
  <atoms>       2 </atoms>
  <types>       1 </types>
  <array name="atoms" >
   <dimension dim="1">ion</dimension>
   <field type="string">element</field>
   <field type="int">atomtype</field>
   <set>
    <rc><c>Si</c><c>   1</c></rc>
    <rc><c>Si</c><c>   1</c></rc>
   </set>
  </array>
  <array name="atomtypes" >
   <dimension dim="1">type</dimension>
   <field type="int">atomspertype</field>
   <field type="string">element</field>
   <field>mass</field>
   <field>valence</field>
   <field type="string">pseudopotential</field>
   <set>
    <rc><c>   2</c><c>Si</c><c>     28.08500000</c><c>      4.00000000</c><c>  PAW_PBE Si 05Jan2001                  </c></rc>
   </set>
  </array>
 </atominfo>
 <structure name="initialpos" >
  <crystal>
   <varray name="basis" >
    <v>       0.00000000       2.75000000       2.75000000 </v>
    <v>       2.75000000       0.00000000       2.75000000 </v>
    <v>       2.75000000       2.75000000       0.00000000 </v>
   </varray>
   <i name="volume">     41.59375000 </i>
   <varray name="rec_basis" >
    <v>      -0.18181818       0.18181818       0.18181818 </v>
    <v>       0.18181818      -0.18181818       0.18181818 </v>
    <v>       0.18181818       0.18181818      -0.18181818 </v>
   </varray>
  </crystal>
  <varray name="positions" >
   <v>       0.87500000       0.87500000       0.87500000 </v>
   <v>       0.12500000       0.12500000       0.12500000 </v>
  </varray>
 </structure>
 <calculation>
  <scstep>
   <time name="dav">    0.07    0.07</time>
   <time name="total">    0.08    0.08</time>
   <energy>
    <i name="alphaZ">      3.23732588 </i>
    <i name="ewald">   -225.65453461 </i>
    <i name="hartreedc">    -11.58535014 </i>
    <i name="XCdc">    -18.75116554 </i>
    <i name="pawpsdc">    176.24759923 </i>
    <i name="pawaedc">   -141.06103558 </i>
    <i name="eentropy">      0.00000000 </i>
    <i name="bandstr">      9.58765681 </i>
    <i name="atom">    206.12155316 </i>
    <i name="e_fr_energy">     -1.85795080 </i>
    <i name="e_wo_entrp">     -1.85795080 </i>
    <i name="e_0_energy">     -1.85795080 </i>
   </energy>
  </scstep>
  <scstep>
   <time name="dav">    0.12    0.12</time>
   <time name="total">    0.12    0.12</time>
   <energy>
    <i name="e_fr_energy">    -10.89260393 </i>
    <i name="e_wo_entrp">    -10.89260393 </i>
    <i name="e_0_energy">    -10.89260393 </i>
   </energy>
  </scstep>
  <scstep>
   <time name="dav">    0.10    0.10</time>
   <time name="total">    0.10    0.10</time>
   <energy>
    <i name="e_fr_energy">    -10.98055317 </i>
    <i name="e_wo_entrp">    -10.98055317 </i>
    <i name="e_0_energy">    -10.98055317 </i>
   </energy>
  </scstep>
  <scstep>
   <time name="dav">    0.11    0.11</time>
   <time name="total">    0.11    0.11</time>
   <energy>
    <i name="e_fr_energy">    -10.98075180 </i>
    <i name="e_wo_entrp">    -10.98075180 </i>
    <i name="e_0_energy">    -10.98075180 </i>
   </energy>
  </scstep>
  <scstep>
   <time name="dav">    0.10    0.10</time>
   <time name="total">    0.10    0.11</time>
   <energy>
    <i name="e_fr_energy">    -10.98075191 </i>
    <i name="e_wo_entrp">    -10.98075191 </i>
    <i name="e_0_energy">    -10.98075191 </i>
   </energy>
  </scstep>
  <scstep>
   <time name="dav">    0.08    0.08</time>
   <time name="total">    0.09    0.09</time>
   <energy>
    <i name="e_fr_energy">    -10.87234965 </i>
    <i name="e_wo_entrp">    -10.87234965 </i>
    <i name="e_0_energy">    -10.87234965 </i>
   </energy>
  </scstep>
  <scstep>
   <time name="dav">    0.09    0.09</time>
   <time name="total">    0.10    0.10</time>
   <energy>
    <i name="e_fr_energy">    -10.82180978 </i>
    <i name="e_wo_entrp">    -10.82180978 </i>
    <i name="e_0_energy">    -10.82180978 </i>
   </energy>
  </scstep>
  <scstep>
   <time name="dav">    0.07    0.07</time>
   <time name="total">    0.08    0.08</time>
   <energy>
    <i name="e_fr_energy">    -10.82284447 </i>
    <i name="e_wo_entrp">    -10.82284447 </i>
    <i name="e_0_energy">    -10.82284447 </i>
   </energy>
  </scstep>
  <scstep>
   <time name="dav">    0.10    0.10</time>
   <time name="total">    0.11    0.11</time>
   <energy>
    <i name="e_fr_energy">    -10.82306144 </i>
    <i name="e_wo_entrp">    -10.82306144 </i>
    <i name="e_0_energy">    -10.82306144 </i>
   </energy>
  </scstep>
  <scstep>
   <time name="dav">    0.05    0.05</time>
   <time name="total">    0.05    0.05</time>
   <energy>
    <i name="alphaZ">      3.23732588 </i>
    <i name="ewald">   -225.65453461 </i>
    <i name="hartreedc">    -15.36738772 </i>
    <i name="XCdc">    -18.12795946 </i>
    <i name="pawpsdc">    964.60986453 </i>
    <i name="pawaedc">   -929.62218162 </i>
    <i name="eentropy">      0.00000000 </i>
    <i name="bandstr">      3.98023523 </i>
    <i name="atom">    206.12155316 </i>
    <i name="e_fr_energy">    -10.82308462 </i>
    <i name="e_wo_entrp">    -10.82308462 </i>
    <i name="e_0_energy">    -10.82308462 </i>
   </energy>
  </scstep>
  <structure>
   <crystal>
    <varray name="basis" >
     <v>       0.00000000       2.75000000       2.75000000 </v>
     <v>       2.75000000       0.00000000       2.75000000 </v>
     <v>       2.75000000       2.75000000       0.00000000 </v>
    </varray>
    <i name="volume">     41.59375000 </i>
    <varray name="rec_basis" >
     <v>      -0.18181818       0.18181818       0.18181818 </v>
     <v>       0.18181818      -0.18181818       0.18181818 </v>
     <v>       0.18181818       0.18181818      -0.18181818 </v>
    </varray>
   </crystal>
   <varray name="positions" >
    <v>       0.87500000       0.87500000       0.87500000 </v>
    <v>       0.12500000       0.12500000       0.12500000 </v>
   </varray>
  </structure>
  <varray name="forces" >
   <v>      -0.00000000      -0.00000000      -0.00000000 </v>
   <v>       0.00000000       0.00000000       0.00000000 </v>
  </varray>
  <varray name="stress" >
   <v>     -16.40624352       0.00000000       0.00000000 </v>
   <v>      -0.00000000     -16.40624352       0.00000000 </v>
   <v>      -0.00000000      -0.00000000     -16.40624352 </v>
  </varray>
  <energy>
   <i name="e_fr_energy">    -10.82308462 </i>
   <i name="e_wo_entrp">    -10.82308462 </i>
   <i name="e_0_energy">    -10.82308462 </i>
  </energy>
  <time name="totalsc">    1.10    1.12</time>
  <eigenvalues>
   <array>
    <dimension dim="1">band</dimension>
    <dimension dim="2">kpoint</dimension>
    <dimension dim="3">spin</dimension>
    <field>eigene</field>
    <field>occ</field>
    <set>
     <set comment="spin 1">
      <set comment="kpoint 1">
       <r>   -6.2527    1.0000 </r>
       <r>    5.4595    1.0000 </r>
       <r>    5.4595    1.0000 </r>
       <r>    5.4595    1.0000 </r>
       <r>    8.0113    0.0000 </r>
       <r>    8.0113    0.0000 </r>
       <r>    8.0113    0.0000 </r>
       <r>    8.3878    0.0000 </r>
      </set>
      <set comment="kpoint 2">
       <r>   -6.1478    1.0000 </r>
       <r>    4.4715    1.0000 </r>
       <r>    5.2986    1.0000 </r>
       <r>    5.2986    1.0000 </r>
       <r>    7.9592    0.0000 </r>
       <r>    8.2500    0.0000 </r>
       <r>    8.2500    0.0000 </r>
       <r>    9.2591    0.0000 </r>
      </set>
      <set comment="kpoint 3">
       <r>   -5.8379    1.0000 </r>
       <r>    2.8220    1.0000 </r>
       <r>    4.9659    1.0000 </r>
       <r>    4.9659    1.0000 </r>
       <r>    7.6248    0.0000 </r>
       <r>    8.7136    0.0000 </r>
       <r>    8.7136    0.0000 </r>
       <r>   10.8654    0.0000 </r>
      </set>
      <set comment="kpoint 4">
       <r>   -5.3392    1.0000 </r>
       <r>    1.2036    1.0000 </r>
       <r>    4.6485    1.0000 </r>
       <r>    4.6485    1.0000 </r>
       <r>    7.2791    0.0000 </r>
       <r>    8.9744    0.0000 </r>
       <r>    8.9744    0.0000 </r>
       <r>   12.4439    0.0000 </r>
      </set>
      <set comment="kpoint 5">
       <r>   -4.7036    1.0000 </r>
       <r>   -0.2106    1.0000 </r>
       <r>    4.4206    1.0000 </r>
       <r>    4.4207    1.0000 </r>
       <r>    7.0195    0.0000 </r>
       <r>    8.9382    0.0000 </r>
       <r>    8.9382    0.0000 </r>
       <r>   13.2505    0.0000 </r>
      </set>
      <set comment="kpoint 6">
       <r>   -4.1214    1.0000 </r>
       <r>   -1.1883    1.0000 </r>
       <r>    4.3042    1.0000 </r>
       <r>    4.3042    1.0000 </r>
       <r>    6.8834    0.0000 </r>
       <r>    8.8436    0.0000 </r>
       <r>    8.8436    0.0000 </r>
       <r>   13.1576    0.0000 </r>
      </set>
      <set comment="kpoint 7">
       <r>   -6.1127    1.0000 </r>
       <r>    4.6228    1.0000 </r>
       <r>    4.9859    1.0000 </r>
       <r>    4.9859    1.0000 </r>
       <r>    7.7015    0.0000 </r>
       <r>    8.6590    0.0000 </r>
       <r>    8.6590    0.0000 </r>
       <r>    9.1603    0.0000 </r>
      </set>
      <set comment="kpoint 8">
       <r>   -5.8703    1.0000 </r>
       <r>    3.2969    1.0000 </r>
       <r>    4.5997    1.0000 </r>
       <r>    4.7634    1.0000 </r>
       <r>    7.7311    0.0000 </r>
       <r>    8.6381    0.0000 </r>
       <r>    9.2363    0.0000 </r>
       <r>   10.2333    0.0000 </r>
      </set>
      <set comment="kpoint 9">
       <r>   -5.4319    1.0000 </r>
       <r>    1.7182    1.0000 </r>
       <r>    4.2875    1.0000 </r>
       <r>    4.3968    1.0000 </r>
       <r>    7.8134    0.0000 </r>
       <r>    8.6682    0.0000 </r>
       <r>    9.5949    0.0000 </r>
       <r>   10.7806    0.0000 </r>
      </set>
      <set comment="kpoint 10">
       <r>   -4.8321    1.0000 </r>
       <r>    0.2534    1.0000 </r>
       <r>    4.0231    1.0000 </r>
       <r>    4.1029    1.0000 </r>
       <r>    7.6344    0.0000 </r>
       <r>    8.7552    0.0000 </r>
       <r>    9.5496    0.0000 </r>
       <r>   11.5406    0.0000 </r>
      </set>
      <set comment="kpoint 11">
       <r>   -4.1905    1.0000 </r>
       <r>   -0.8990    1.0000 </r>
       <r>    3.7332    1.0000 </r>
       <r>    4.0611    1.0000 </r>
       <r>    7.4861    0.0000 </r>
       <r>    8.7393    0.0000 </r>
       <r>    9.3332    0.0000 </r>
       <r>   12.7473    0.0000 </r>
      </set>
      <set comment="kpoint 12">
       <r>   -3.9350    1.0000 </r>
       <r>   -1.2828    1.0000 </r>
       <r>    3.5621    1.0000 </r>
       <r>    4.1569    1.0000 </r>
       <r>    7.4509    0.0000 </r>
       <r>    8.8033    0.0000 </r>
       <r>    9.1542    0.0000 </r>
       <r>   13.4423    0.0000 </r>
      </set>
      <set comment="kpoint 13">
       <r>   -4.3945    1.0000 </r>
       <r>   -0.5646    1.0000 </r>
       <r>    3.5310    1.0000 </r>
       <r>    4.3767    1.0000 </r>
       <r>    7.5469    0.0000 </r>
       <r>    8.9885    0.0000 </r>
       <r>    9.0708    0.0000 </r>
       <r>   13.1033    0.0000 </r>
      </set>
      <set comment="kpoint 14">
       <r>   -5.0474    1.0000 </r>
       <r>    0.7218    1.0000 </r>
       <r>    3.6542    1.0000 </r>
       <r>    4.6918    1.0000 </r>
       <r>    7.7590    0.0000 </r>
       <r>    8.9874    0.0000 </r>
       <r>    9.1822    0.0000 </r>
       <r>   12.0353    0.0000 </r>
      </set>
      <set comment="kpoint 15">
       <r>   -5.5997    1.0000 </r>
       <r>    2.2280    1.0000 </r>
       <r>    3.9499    1.0000 </r>
       <r>    5.0470    1.0000 </r>
       <r>    8.0525    0.0000 </r>
       <r>    8.6949    0.0000 </r>
       <r>    9.0339    0.0000 </r>
       <r>   11.1179    0.0000 </r>
      </set>
      <set comment="kpoint 16">
       <r>   -5.9744    1.0000 </r>
       <r>    3.6654    1.0000 </r>
       <r>    4.5048    1.0000 </r>
       <r>    5.3165    1.0000 </r>
       <r>    8.2802    0.0000 </r>
       <r>    8.3010    0.0000 </r>
       <r>    8.4569    0.0000 </r>
       <r>   10.1749    0.0000 </r>
      </set>
      <set comment="kpoint 17">
       <r>   -5.6958    1.0000 </r>
       <r>    3.1221    1.0000 </r>
       <r>    4.1788    1.0000 </r>
       <r>    4.1788    1.0000 </r>
       <r>    7.0733    0.0000 </r>
       <r>    9.4773    0.0000 </r>
       <r>    9.9719    0.0000 </r>
       <r>    9.9719    0.0000 </r>
      </set>
      <set comment="kpoint 18">
       <r>   -5.3211    1.0000 </r>
       <r>    1.9985    1.0000 </r>
       <r>    3.7644    1.0000 </r>
       <r>    3.8444    1.0000 </r>
       <r>    7.1247    0.0000 </r>
       <r>    9.1174    0.0000 </r>
       <r>   10.2592    0.0000 </r>
       <r>   10.5490    0.0000 </r>
      </set>
      <set comment="kpoint 19">
       <r>   -4.7694    1.0000 </r>
       <r>    0.6713    1.0000 </r>
       <r>    3.2418    1.0000 </r>
       <r>    3.6516    1.0000 </r>
       <r>    7.3579    0.0000 </r>
       <r>    9.4679    0.0000 </r>
       <r>   10.0639    0.0000 </r>
       <r>   10.6491    0.0000 </r>
      </set>
      <set comment="kpoint 20">
       <r>   -4.1152    1.0000 </r>
       <r>   -0.5230    1.0000 </r>
       <r>    2.7768    1.0000 </r>
       <r>    3.6180    1.0000 </r>
       <r>    7.3971    0.0000 </r>
       <r>    9.8077    0.0000 </r>
       <r>   10.4166    0.0000 </r>
       <r>   10.6861    0.0000 </r>
      </set>
      <set comment="kpoint 21">
       <r>   -3.6564    1.0000 </r>
       <r>   -1.2026    1.0000 </r>
       <r>    2.4517    1.0000 </r>
       <r>    3.7430    1.0000 </r>
       <r>    7.4860    0.0000 </r>
       <r>    9.6913    0.0000 </r>
       <r>   10.1347    0.0000 </r>
       <r>   12.2707    0.0000 </r>
      </set>
      <set comment="kpoint 22">
       <r>   -3.9275    1.0000 </r>
       <r>   -0.8090    1.0000 </r>
       <r>    2.3075    1.0000 </r>
       <r>    4.0116    1.0000 </r>
       <r>    7.7187    0.0000 </r>
       <r>    9.6942    0.0000 </r>
       <r>    9.9083    0.0000 </r>
       <r>   13.0432    0.0000 </r>
      </set>
      <set comment="kpoint 23">
       <r>   -4.5719    1.0000 </r>
       <r>    0.2661    1.0000 </r>
       <r>    2.3955    1.0000 </r>
       <r>    4.3862    1.0000 </r>
       <r>    8.0586    0.0000 </r>
       <r>    9.6516    0.0000 </r>
       <r>    9.7574    0.0000 </r>
       <r>   11.6623    0.0000 </r>
      </set>
      <set comment="kpoint 24">
       <r>   -5.1668    1.0000 </r>
       <r>    1.4213    1.0000 </r>
       <r>    2.8735    1.0000 </r>
       <r>    4.7870    1.0000 </r>
       <r>    8.3511    0.0000 </r>
       <r>    9.1634    0.0000 </r>
       <r>    9.4516    0.0000 </r>
       <r>   11.0000    0.0000 </r>
      </set>
      <set comment="kpoint 25">
       <r>   -5.0098    1.0000 </r>
       <r>    1.5301    1.0000 </r>
       <r>    3.4775    1.0000 </r>
       <r>    3.4775    1.0000 </r>
       <r>    6.5032    0.0000 </r>
       <r>    8.2868    0.0000 </r>
       <r>   11.5013    0.0000 </r>
       <r>   11.5014    0.0000 </r>
      </set>
      <set comment="kpoint 26">
       <r>   -4.5129    1.0000 </r>
       <r>    0.6018    1.0000 </r>
       <r>    2.9585    1.0000 </r>
       <r>    3.2517    1.0000 </r>
       <r>    6.6359    0.0000 </r>
       <r>    8.0067    0.0000 </r>
       <r>   11.7675    0.0000 </r>
       <r>   11.9714    0.0000 </r>
      </set>
      <set comment="kpoint 27">
       <r>   -3.8766    1.0000 </r>
       <r>   -0.3940    1.0000 </r>
       <r>    2.2561    1.0000 </r>
       <r>    3.1906    1.0000 </r>
       <r>    6.8402    0.0000 </r>
       <r>    8.7307    0.0000 </r>
       <r>   11.5943    0.0000 </r>
       <r>   11.8576    0.0000 </r>
      </set>
      <set comment="kpoint 28">
       <r>   -3.2894    1.0000 </r>
       <r>   -1.1634    1.0000 </r>
       <r>    1.7015    1.0000 </r>
       <r>    3.2981    1.0000 </r>
       <r>    6.9702    0.0000 </r>
       <r>   10.1814    0.0000 </r>
       <r>   11.4156    0.0000 </r>
       <r>   11.5414    0.0000 </r>
      </set>
      <set comment="kpoint 29">
       <r>   -3.3450    1.0000 </r>
       <r>   -1.0857    1.0000 </r>
       <r>    1.4289    1.0000 </r>
       <r>    3.5634    1.0000 </r>
       <r>    7.2468    0.0000 </r>
       <r>   11.1849    0.0000 </r>
       <r>   11.2075    0.0000 </r>
       <r>   12.0529    0.0000 </r>
      </set>
      <set comment="kpoint 30">
       <r>   -3.9540    1.0000 </r>
       <r>   -0.3524    1.0000 </r>
       <r>    1.5876    1.0000 </r>
       <r>    3.9526    1.0000 </r>
       <r>    7.6676    0.0000 </r>
       <r>   10.5832    0.0000 </r>
       <r>   10.9444    0.0000 </r>
       <r>   11.6863    0.0000 </r>
      </set>
      <set comment="kpoint 31">
       <r>   -4.0703    1.0000 </r>
       <r>   -0.0461    1.0000 </r>
       <r>    2.9837    1.0000 </r>
       <r>    2.9837    1.0000 </r>
       <r>    6.1634    0.0000 </r>
       <r>    7.1846    0.0000 </r>
       <r>   13.1236    0.0000 </r>
       <r>   13.1236    0.0000 </r>
      </set>
      <set comment="kpoint 32">
       <r>   -3.4689    1.0000 </r>
       <r>   -0.8383    1.0000 </r>
       <r>    2.4729    1.0000 </r>
       <r>    2.8812    1.0000 </r>
       <r>    6.3726    0.0000 </r>
       <r>    7.1879    0.0000 </r>
       <r>   13.4295    0.0000 </r>
       <r>   13.4626    0.0000 </r>
      </set>
      <set comment="kpoint 33">
       <r>   -2.8208    1.0000 </r>
       <r>   -1.5334    1.0000 </r>
       <r>    1.7286    1.0000 </r>
       <r>    2.9513    1.0000 </r>
       <r>    6.5423    0.0000 </r>
       <r>    8.3345    0.0000 </r>
       <r>   13.1879    0.0000 </r>
       <r>   13.2859    0.0000 </r>
      </set>
      <set comment="kpoint 34">
       <r>   -2.7659    1.0000 </r>
       <r>   -1.5587    1.0000 </r>
       <r>    1.2639    1.0000 </r>
       <r>    3.1879    1.0000 </r>
       <r>    6.8102    0.0000 </r>
       <r>   10.0233    0.0000 </r>
       <r>   12.5081    0.0000 </r>
       <r>   13.0461    0.0000 </r>
      </set>
      <set comment="kpoint 35">
       <r>   -2.9027    1.0000 </r>
       <r>   -1.5444    1.0000 </r>
       <r>    2.7320    1.0000 </r>
       <r>    2.7320    1.0000 </r>
       <r>    6.1344    0.0000 </r>
       <r>    6.4628    0.0000 </r>
       <r>   14.7664    0.0000 </r>
       <r>   14.7664    0.0000 </r>
      </set>
      <set comment="kpoint 36">
       <r>   -2.2804    1.0000 </r>
       <r>   -2.1681    1.0000 </r>
       <r>    2.3124    1.0000 </r>
       <r>    2.7561    1.0000 </r>
       <r>    6.3156    0.0000 </r>
       <r>    6.8780    0.0000 </r>
       <r>   14.6771    0.0000 </r>
       <r>   14.8726    0.0000 </r>
      </set>
      <set comment="kpoint 37">
       <r>   -5.5623    1.0000 </r>
       <r>    2.4410    1.0000 </r>
       <r>    3.6913    1.0000 </r>
       <r>    4.6541    1.0000 </r>
       <r>    7.7923    0.0000 </r>
       <r>    8.9419    0.0000 </r>
       <r>    9.7712    0.0000 </r>
       <r>   10.2149    0.0000 </r>
      </set>
      <set comment="kpoint 38">
       <r>   -5.0664    1.0000 </r>
       <r>    1.1592    1.0000 </r>
       <r>    3.1374    1.0000 </r>
       <r>    4.3462    1.0000 </r>
       <r>    8.0874    0.0000 </r>
       <r>    8.9299    0.0000 </r>
       <r>   10.1121    0.0000 </r>
       <r>   10.3376    0.0000 </r>
      </set>
      <set comment="kpoint 39">
       <r>   -4.4320    1.0000 </r>
       <r>   -0.1395    1.0000 </r>
       <r>    2.8779    1.0000 </r>
       <r>    4.0155    1.0000 </r>
       <r>    8.0941    0.0000 </r>
       <r>    8.7958    0.0000 </r>
       <r>   10.1998    0.0000 </r>
       <r>   11.1573    0.0000 </r>
      </set>
      <set comment="kpoint 40">
       <r>   -3.8449    1.0000 </r>
       <r>   -1.0832    1.0000 </r>
       <r>    2.7753    1.0000 </r>
       <r>    3.8137    1.0000 </r>
       <r>    8.0495    0.0000 </r>
       <r>    8.6293    0.0000 </r>
       <r>   10.1423    0.0000 </r>
       <r>   12.5798    0.0000 </r>
      </set>
      <set comment="kpoint 41">
       <r>   -4.8864    1.0000 </r>
       <r>    1.1650    1.0000 </r>
       <r>    2.9965    1.0000 </r>
       <r>    3.6842    1.0000 </r>
       <r>    7.2497    0.0000 </r>
       <r>    8.7636    0.0000 </r>
       <r>   10.3591    0.0000 </r>
       <r>   11.3876    0.0000 </r>
      </set>
      <set comment="kpoint 42">
       <r>   -4.2899    1.0000 </r>
       <r>    0.1177    1.0000 </r>
       <r>    2.4344    1.0000 </r>
       <r>    3.3846    1.0000 </r>
       <r>    7.6076    0.0000 </r>
       <r>    9.1712    0.0000 </r>
       <r>   10.0483    0.0000 </r>
       <r>   11.7785    0.0000 </r>
      </set>
      <set comment="kpoint 43">
       <r>   -3.6439    1.0000 </r>
       <r>   -0.8529    1.0000 </r>
       <r>    2.0552    1.0000 </r>
       <r>    3.2357    1.0000 </r>
       <r>    7.7397    0.0000 </r>
       <r>    9.6882    0.0000 </r>
       <r>   10.4819    0.0000 </r>
       <r>   11.7365    0.0000 </r>
      </set>
      <set comment="kpoint 44">
       <r>   -3.3909    1.0000 </r>
       <r>   -1.1854    1.0000 </r>
       <r>    1.8329    1.0000 </r>
       <r>    3.3215    1.0000 </r>
       <r>    7.9425    0.0000 </r>
       <r>    9.4259    0.0000 </r>
       <r>   11.6164    0.0000 </r>
       <r>   12.1537    0.0000 </r>
      </set>
      <set comment="kpoint 45">
       <r>   -3.8744    1.0000 </r>
       <r>   -0.5260    1.0000 </r>
       <r>    1.8294    1.0000 </r>
       <r>    3.6054    1.0000 </r>
       <r>    8.2849    0.0000 </r>
       <r>    9.2437    0.0000 </r>
       <r>   10.9261    0.0000 </r>
       <r>   11.5747    0.0000 </r>
      </set>
      <set comment="kpoint 46">
       <r>   -4.5248    1.0000 </r>
       <r>    0.4238    1.0000 </r>
       <r>    2.2011    1.0000 </r>
       <r>    4.0041    1.0000 </r>
       <r>    8.6910    0.0000 </r>
       <r>    8.8309    0.0000 </r>
       <r>   10.0857    0.0000 </r>
       <r>   11.1072    0.0000 </r>
      </set>
      <set comment="kpoint 47">
       <r>   -3.9656    1.0000 </r>
       <r>   -0.1789    1.0000 </r>
       <r>    2.5352    1.0000 </r>
       <r>    2.9145    1.0000 </r>
       <r>    6.9088    0.0000 </r>
       <r>    7.7667    0.0000 </r>
       <r>   11.7107    0.0000 </r>
       <r>   13.0952    0.0000 </r>
      </set>
      <set comment="kpoint 48">
       <r>   -3.3097    1.0000 </r>
       <r>   -0.9781    1.0000 </r>
       <r>    1.9182    1.0000 </r>
       <r>    2.7431    1.0000 </r>
       <r>    7.2531    0.0000 </r>
       <r>    8.5510    0.0000 </r>
       <r>   11.3692    0.0000 </r>
       <r>   13.4423    0.0000 </r>
      </set>
      <set comment="kpoint 49">
       <r>   -2.8628    1.0000 </r>
       <r>   -1.4567    1.0000 </r>
       <r>    1.4179    1.0000 </r>
       <r>    2.8545    1.0000 </r>
       <r>    7.4617    0.0000 </r>
       <r>   10.0953    0.0000 </r>
       <r>   11.0683    0.0000 </r>
       <r>   12.6371    0.0000 </r>
      </set>
      <set comment="kpoint 50">
       <r>   -3.2353    1.0000 </r>
       <r>   -1.0672    1.0000 </r>
       <r>    1.3176    1.0000 </r>
       <r>    3.1661    1.0000 </r>
       <r>    7.8192    0.0000 </r>
       <r>   10.4883    0.0000 </r>
       <r>   11.1900    0.0000 </r>
       <r>   12.0762    0.0000 </r>
      </set>
      <set comment="kpoint 51">
       <r>   -2.8336    1.0000 </r>
       <r>   -1.5443    1.0000 </r>
       <r>    2.3494    1.0000 </r>
       <r>    2.4683    1.0000 </r>
       <r>    6.8482    0.0000 </r>
       <r>    7.1208    0.0000 </r>
       <r>   13.2123    0.0000 </r>
       <r>   14.5459    0.0000 </r>
      </set>
      <set comment="kpoint 52">
       <r>   -2.3511    1.0000 </r>
       <r>   -1.9757    1.0000 </r>
       <r>    1.7210    1.0000 </r>
       <r>    2.5379    1.0000 </r>
       <r>    7.1255    0.0000 </r>
       <r>    8.3447    0.0000 </r>
       <r>   12.7719    0.0000 </r>
       <r>   12.9966    0.0000 </r>
      </set>
      <set comment="kpoint 53">
       <r>   -3.6686    1.0000 </r>
       <r>   -0.5592    1.0000 </r>
       <r>    1.8076    1.0000 </r>
       <r>    2.9402    1.0000 </r>
       <r>    8.5246    0.0000 </r>
       <r>    9.1949    0.0000 </r>
       <r>    9.6693    0.0000 </r>
       <r>   13.0033    0.0000 </r>
      </set>
      <set comment="kpoint 54">
       <r>   -3.0592    1.0000 </r>
       <r>   -1.2376    1.0000 </r>
       <r>    1.5363    1.0000 </r>
       <r>    2.6330    1.0000 </r>
       <r>    8.9074    0.0000 </r>
       <r>    9.2285    0.0000 </r>
       <r>   10.4743    0.0000 </r>
       <r>   12.3004    0.0000 </r>
      </set>
      <set comment="kpoint 55">
       <r>   -2.6585    1.0000 </r>
       <r>   -1.5898    1.0000 </r>
       <r>    1.7630    1.0000 </r>
       <r>    2.1342    1.0000 </r>
       <r>    8.4512    0.0000 </r>
       <r>    8.6645    0.0000 </r>
       <r>   10.9704    0.0000 </r>
       <r>   12.5321    0.0000 </r>
      </set>
      <set comment="kpoint 56">
       <r>   -2.4689    1.0000 </r>
       <r>   -1.7482    1.0000 </r>
       <r>    1.4969    1.0000 </r>
       <r>    2.1691    1.0000 </r>
       <r>    8.7988    0.0000 </r>
       <r>   10.0828    0.0000 </r>
       <r>   10.7206    0.0000 </r>
       <r>   10.7515    0.0000 </r>
      </set>
     </set>
    </set>
   </array>
  </eigenvalues>
  <separator name="orbital magnetization" >
   <v name="MAGDIPOLOUT">      0.00000000      0.00000000      0.00000000</v>
  </separator>
  <dos>
   <i name="efermi">      5.45978613 </i>
   <total>
    <array>
     <dimension dim="1">gridpoints</dimension>
     <dimension dim="2">spin</dimension>
     <field>energy</field>
     <field>total</field>
     <field>integrated</field>
     <set>
      <set comment="spin 1">
       <r>    -8.2527     0.0000     0.0000 </r>
       <r>    -8.1689     0.0000     0.0000 </r>
       <r>    -8.0852     0.0000     0.0000 </r>
       <r>    -8.0014     0.0000     0.0000 </r>
       <r>    -7.9177     0.0000     0.0000 </r>
       <r>    -7.8339     0.0000     0.0000 </r>
       <r>    -7.7502     0.0000     0.0000 </r>
       <r>    -7.6664     0.0000     0.0000 </r>
       <r>    -7.5827     0.0000     0.0000 </r>
       <r>    -7.4989     0.0000     0.0000 </r>
       <r>    -7.4152     0.0000     0.0000 </r>
       <r>    -7.3314     0.0000     0.0000 </r>
       <r>    -7.2477     0.0000     0.0000 </r>
       <r>    -7.1639     0.0000     0.0000 </r>
       <r>    -7.0802     0.0000     0.0000 </r>
       <r>    -6.9964     0.0000     0.0000 </r>
       <r>    -6.9127     0.0000     0.0000 </r>
       <r>    -6.8289     0.0000     0.0000 </r>
       <r>    -6.7452     0.0000     0.0000 </r>
       <r>    -6.6614     0.0000     0.0000 </r>
       <r>    -6.5777     0.0000     0.0000 </r>
       <r>    -6.4939     0.0000     0.0000 </r>
       <r>    -6.4102     0.0000     0.0000 </r>
       <r>    -6.3264     0.0000     0.0000 </r>
       <r>    -6.2427     0.0012     0.0000 </r>
       <r>    -6.1589     0.1031     0.0032 </r>
       <r>    -6.0752     0.1304     0.0131 </r>
       <r>    -5.9914     0.1752     0.0259 </r>
       <r>    -5.9077     0.2116     0.0423 </r>
       <r>    -5.8239     0.2274     0.0605 </r>
       <r>    -5.7401     0.2547     0.0807 </r>
       <r>    -5.6564     0.2832     0.1032 </r>
       <r>    -5.5726     0.3057     0.1281 </r>
       <r>    -5.4889     0.3242     0.1545 </r>
       <r>    -5.4051     0.3425     0.1824 </r>
       <r>    -5.3214     0.3629     0.2119 </r>
       <r>    -5.2376     0.3860     0.2432 </r>
       <r>    -5.1539     0.4094     0.2766 </r>
       <r>    -5.0701     0.4267     0.3116 </r>
       <r>    -4.9864     0.4452     0.3481 </r>
       <r>    -4.9026     0.4652     0.3862 </r>
       <r>    -4.8189     0.4862     0.4261 </r>
       <r>    -4.7351     0.5093     0.4677 </r>
       <r>    -4.6514     0.5341     0.5114 </r>
       <r>    -4.5676     0.5598     0.5572 </r>
       <r>    -4.4839     0.5850     0.6051 </r>
       <r>    -4.4001     0.6138     0.6553 </r>
       <r>    -4.3164     0.6513     0.7082 </r>
       <r>    -4.2326     0.6964     0.7646 </r>
       <r>    -4.1489     0.7549     0.8251 </r>
       <r>    -4.0651     0.8799     0.8934 </r>
       <r>    -3.9814     0.9059     0.9692 </r>
       <r>    -3.8976     0.9533     1.0444 </r>
       <r>    -3.8139     0.8993     1.1234 </r>
       <r>    -3.7301     0.8391     1.1959 </r>
       <r>    -3.6464     0.8183     1.2651 </r>
       <r>    -3.5626     0.7895     1.3324 </r>
       <r>    -3.4789     0.7591     1.3973 </r>
       <r>    -3.3951     0.7269     1.4595 </r>
       <r>    -3.3114     0.6899     1.5190 </r>
       <r>    -3.2276     0.6719     1.5760 </r>
       <r>    -3.1439     0.6468     1.6313 </r>
       <r>    -3.0601     0.6152     1.6842 </r>
       <r>    -2.9764     0.5792     1.7342 </r>
       <r>    -2.8926     0.5516     1.7814 </r>
       <r>    -2.8089     0.5346     1.8265 </r>
       <r>    -2.7251     0.5100     1.8711 </r>
       <r>    -2.6414     0.4670     1.9114 </r>
       <r>    -2.5576     0.4411     1.9501 </r>
       <r>    -2.4739     0.3173     1.9825 </r>
       <r>    -2.3901     0.0997     1.9969 </r>
       <r>    -2.3064     0.0076     1.9999 </r>
       <r>    -2.2226     0.0000     2.0000 </r>
       <r>    -2.1389     0.0061     2.0001 </r>
       <r>    -2.0551     0.0310     2.0016 </r>
       <r>    -1.9714     0.0688     2.0056 </r>
       <r>    -1.8876     0.1529     2.0148 </r>
       <r>    -1.8039     0.2493     2.0315 </r>
       <r>    -1.7201     0.4919     2.0617 </r>
       <r>    -1.6363     0.5239     2.1042 </r>
       <r>    -1.5526     0.5299     2.1476 </r>
       <r>    -1.4688     0.5682     2.1925 </r>
       <r>    -1.3851     0.6253     2.2422 </r>
       <r>    -1.3013     0.7365     2.2988 </r>
       <r>    -1.2176     1.3301     2.3814 </r>
       <r>    -1.1338     1.8962     2.5236 </r>
       <r>    -1.0501     1.1994     2.6487 </r>
       <r>    -0.9663     0.9955     2.7402 </r>
       <r>    -0.8826     0.8621     2.8175 </r>
       <r>    -0.7988     0.7844     2.8862 </r>
       <r>    -0.7151     0.7199     2.9492 </r>
       <r>    -0.6313     0.6621     3.0070 </r>
       <r>    -0.5476     0.6093     3.0602 </r>
       <r>    -0.4638     0.5529     3.1085 </r>
       <r>    -0.3801     0.5197     3.1534 </r>
       <r>    -0.2963     0.4967     3.1959 </r>
       <r>    -0.2126     0.4754     3.2366 </r>
       <r>    -0.1288     0.4552     3.2756 </r>
       <r>    -0.0451     0.4347     3.3128 </r>
       <r>     0.0387     0.4129     3.3483 </r>
       <r>     0.1224     0.3901     3.3820 </r>
       <r>     0.2062     0.3681     3.4137 </r>
       <r>     0.2899     0.3448     3.4436 </r>
       <r>     0.3737     0.3211     3.4714 </r>
       <r>     0.4574     0.3091     3.4978 </r>
       <r>     0.5412     0.2994     3.5233 </r>
       <r>     0.6249     0.2899     3.5479 </r>
       <r>     0.7087     0.2795     3.5718 </r>
       <r>     0.7924     0.2689     3.5947 </r>
       <r>     0.8762     0.2583     3.6168 </r>
       <r>     0.9599     0.2476     3.6380 </r>
       <r>     1.0437     0.2368     3.6583 </r>
       <r>     1.1274     0.2259     3.6777 </r>
       <r>     1.2112     0.2027     3.6956 </r>
       <r>     1.2949     0.2497     3.7126 </r>
       <r>     1.3787     0.6844     3.7521 </r>
       <r>     1.4624     0.9904     3.8215 </r>
       <r>     1.5462     1.3671     3.9340 </r>
       <r>     1.6299     1.2372     4.0391 </r>
       <r>     1.7137     1.2243     4.1420 </r>
       <r>     1.7974     1.2034     4.2449 </r>
       <r>     1.8812     1.1131     4.3419 </r>
       <r>     1.9649     1.0036     4.4297 </r>
       <r>     2.0487     0.9609     4.5117 </r>
       <r>     2.1324     0.9394     4.5913 </r>
       <r>     2.2162     1.1948     4.6882 </r>
       <r>     2.3000     1.0975     4.7788 </r>
       <r>     2.3837     1.2218     4.8775 </r>
       <r>     2.4675     1.3177     4.9819 </r>
       <r>     2.5512     1.3486     5.0953 </r>
       <r>     2.6350     1.4147     5.2091 </r>
       <r>     2.7187     1.5690     5.3337 </r>
       <r>     2.8025     1.6197     5.4694 </r>
       <r>     2.8862     1.6153     5.6024 </r>
       <r>     2.9700     1.5352     5.7367 </r>
       <r>     3.0537     1.5037     5.8636 </r>
       <r>     3.1375     1.4838     5.9887 </r>
       <r>     3.2212     1.4421     6.1111 </r>
       <r>     3.3050     1.4441     6.2318 </r>
       <r>     3.3887     1.4304     6.3524 </r>
       <r>     3.4725     1.4018     6.4711 </r>
       <r>     3.5562     1.3661     6.5870 </r>
       <r>     3.6400     1.3404     6.7003 </r>
       <r>     3.7237     1.3363     6.8123 </r>
       <r>     3.8075     1.3515     6.9251 </r>
       <r>     3.8912     1.3311     7.0374 </r>
       <r>     3.9750     1.3043     7.1479 </r>
       <r>     4.0587     1.2647     7.2554 </r>
       <r>     4.1425     1.2527     7.3605 </r>
       <r>     4.2262     1.1699     7.4632 </r>
       <r>     4.3100     0.9615     7.5530 </r>
       <r>     4.3937     0.7832     7.6265 </r>
       <r>     4.4775     0.6884     7.6877 </r>
       <r>     4.5612     0.6164     7.7420 </r>
       <r>     4.6450     0.5512     7.7914 </r>
       <r>     4.7287     0.4810     7.8344 </r>
       <r>     4.8125     0.4153     7.8720 </r>
       <r>     4.8962     0.3536     7.9041 </r>
       <r>     4.9800     0.2978     7.9314 </r>
       <r>     5.0637     0.2380     7.9538 </r>
       <r>     5.1475     0.1875     7.9716 </r>
       <r>     5.2312     0.1537     7.9857 </r>
       <r>     5.3150     0.0623     7.9970 </r>
       <r>     5.3987     0.0109     7.9998 </r>
       <r>     5.4825     0.0000     8.0000 </r>
       <r>     5.5662     0.0000     8.0000 </r>
       <r>     5.6500     0.0000     8.0000 </r>
       <r>     5.7337     0.0000     8.0000 </r>
       <r>     5.8175     0.0000     8.0000 </r>
       <r>     5.9012     0.0000     8.0000 </r>
       <r>     5.9850     0.0000     8.0000 </r>
       <r>     6.0687     0.0000     8.0000 </r>
       <r>     6.1525     0.0133     8.0001 </r>
       <r>     6.2362     0.0949     8.0048 </r>
       <r>     6.3200     0.1439     8.0150 </r>
       <r>     6.4038     0.1982     8.0292 </r>
       <r>     6.4875     0.2636     8.0485 </r>
       <r>     6.5713     0.3307     8.0735 </r>
       <r>     6.6550     0.3927     8.1037 </r>
       <r>     6.7388     0.4590     8.1394 </r>
       <r>     6.8225     0.5260     8.1806 </r>
       <r>     6.9063     0.6018     8.2277 </r>
       <r>     6.9900     0.6818     8.2816 </r>
       <r>     7.0738     0.7496     8.3416 </r>
       <r>     7.1575     0.8148     8.4068 </r>
       <r>     7.2413     0.9091     8.4792 </r>
       <r>     7.3250     1.0077     8.5593 </r>
       <r>     7.4088     1.1282     8.6484 </r>
       <r>     7.4925     1.4163     8.7527 </r>
       <r>     7.5763     1.5839     8.8786 </r>
       <r>     7.6600     1.6961     9.0162 </r>
       <r>     7.7438     1.8563     9.1641 </r>
       <r>     7.8275     2.0118     9.3277 </r>
       <r>     7.9113     2.0413     9.4973 </r>
       <r>     7.9950     1.8862     9.6661 </r>
       <r>     8.0788     1.4403     9.8053 </r>
       <r>     8.1625     1.0996     9.9096 </r>
       <r>     8.2463     0.9229     9.9933 </r>
       <r>     8.3300     0.9067    10.0702 </r>
       <r>     8.4138     0.8693    10.1446 </r>
       <r>     8.4975     0.8259    10.2155 </r>
       <r>     8.5813     0.8085    10.2835 </r>
       <r>     8.6650     1.1343    10.3552 </r>
       <r>     8.7488     1.6604    10.4728 </r>
       <r>     8.8325     2.6136    10.6622 </r>
       <r>     8.9163     2.5737    10.8783 </r>
       <r>     9.0000     1.9168    11.0686 </r>
       <r>     9.0838     1.8849    11.2274 </r>
       <r>     9.1675     1.8281    11.3835 </r>
       <r>     9.2513     1.6818    11.5271 </r>
       <r>     9.3350     1.6296    11.6662 </r>
       <r>     9.4188     1.5076    11.7981 </r>
       <r>     9.5025     1.3113    11.9159 </r>
       <r>     9.5863     1.1771    12.0196 </r>
       <r>     9.6700     1.1163    12.1152 </r>
       <r>     9.7538     1.1306    12.2090 </r>
       <r>     9.8375     1.1105    12.3030 </r>
       <r>     9.9213     1.1020    12.3955 </r>
       <r>    10.0050     1.1167    12.4882 </r>
       <r>    10.0888     1.7718    12.5954 </r>
       <r>    10.1725     1.4328    12.7366 </r>
       <r>    10.2563     1.3224    12.8557 </r>
       <r>    10.3401     1.1539    12.9552 </r>
       <r>    10.4238     1.0867    13.0495 </r>
       <r>    10.5076     1.1226    13.1399 </r>
       <r>    10.5913     1.2327    13.2391 </r>
       <r>    10.6751     1.2353    13.3430 </r>
       <r>    10.7588     1.3153    13.4514 </r>
       <r>    10.8426     1.2263    13.5563 </r>
       <r>    10.9263     1.1723    13.6566 </r>
       <r>    11.0101     1.1962    13.7572 </r>
       <r>    11.0938     1.1512    13.8561 </r>
       <r>    11.1776     1.1659    13.9519 </r>
       <r>    11.2613     1.1107    14.0474 </r>
       <r>    11.3451     1.0558    14.1383 </r>
       <r>    11.4288     0.9783    14.2236 </r>
       <r>    11.5126     0.9185    14.3027 </r>
       <r>    11.5963     0.9005    14.3787 </r>
       <r>    11.6801     0.8625    14.4534 </r>
       <r>    11.7638     0.8947    14.5268 </r>
       <r>    11.8476     0.9570    14.6042 </r>
       <r>    11.9313     1.0318    14.6875 </r>
       <r>    12.0151     1.1083    14.7770 </r>
       <r>    12.0988     1.1464    14.8718 </r>
       <r>    12.1826     1.1576    14.9686 </r>
       <r>    12.2663     1.1113    15.0641 </r>
       <r>    12.3501     0.9996    15.1527 </r>
       <r>    12.4338     0.8874    15.2317 </r>
       <r>    12.5176     0.7820    15.3015 </r>
       <r>    12.6013     0.6972    15.3631 </r>
       <r>    12.6851     0.6651    15.4200 </r>
       <r>    12.7688     0.6426    15.4747 </r>
       <r>    12.8526     0.6310    15.5280 </r>
       <r>    12.9363     0.6255    15.5805 </r>
       <r>    13.0201     0.6270    15.6329 </r>
       <r>    13.1038     0.6285    15.6857 </r>
       <r>    13.1876     0.5244    15.7348 </r>
       <r>    13.2713     0.4232    15.7743 </r>
       <r>    13.3551     0.3378    15.8061 </r>
       <r>    13.4388     0.2379    15.8304 </r>
       <r>    13.5226     0.2136    15.8491 </r>
       <r>    13.6063     0.1952    15.8662 </r>
       <r>    13.6901     0.1778    15.8818 </r>
       <r>    13.7738     0.1615    15.8960 </r>
       <r>    13.8576     0.1462    15.9089 </r>
       <r>    13.9413     0.1320    15.9205 </r>
       <r>    14.0251     0.1188    15.9310 </r>
       <r>    14.1088     0.1067    15.9404 </r>
       <r>    14.1926     0.0956    15.9489 </r>
       <r>    14.2763     0.0856    15.9565 </r>
       <r>    14.3601     0.0767    15.9633 </r>
       <r>    14.4439     0.0688    15.9694 </r>
       <r>    14.5276     0.0619    15.9748 </r>
       <r>    14.6114     0.0629    15.9800 </r>
       <r>    14.6951     0.0949    15.9857 </r>
       <r>    14.7789     0.0774    15.9935 </r>
       <r>    14.8626     0.0260    15.9999 </r>
       <r>    14.9464     0.0000    16.0000 </r>
       <r>    15.0301     0.0000    16.0000 </r>
       <r>    15.1139     0.0000    16.0000 </r>
       <r>    15.1976     0.0000    16.0000 </r>
       <r>    15.2814     0.0000    16.0000 </r>
       <r>    15.3651     0.0000    16.0000 </r>
       <r>    15.4489     0.0000    16.0000 </r>
       <r>    15.5326     0.0000    16.0000 </r>
       <r>    15.6164     0.0000    16.0000 </r>
       <r>    15.7001     0.0000    16.0000 </r>
       <r>    15.7839     0.0000    16.0000 </r>
       <r>    15.8676     0.0000    16.0000 </r>
       <r>    15.9514     0.0000    16.0000 </r>
       <r>    16.0351     0.0000    16.0000 </r>
       <r>    16.1189     0.0000    16.0000 </r>
       <r>    16.2026     0.0000    16.0000 </r>
       <r>    16.2864     0.0000    16.0000 </r>
       <r>    16.3701     0.0000    16.0000 </r>
       <r>    16.4539     0.0000    16.0000 </r>
       <r>    16.5376     0.0000    16.0000 </r>
       <r>    16.6214     0.0000    16.0000 </r>
       <r>    16.7051     0.0000    16.0000 </r>
       <r>    16.7889     0.0000    16.0000 </r>
       <r>    16.8726     0.0000    16.0000 </r>
      </set>
     </set>
    </array>
   </total>
   <partial>
    <array>
     <dimension dim="1">gridpoints</dimension>
     <dimension dim="2">spin</dimension>
     <dimension dim="3">ion</dimension>
     <field>energy</field>
     <field>    s</field>
     <field>   py</field>
     <field>   pz</field>
     <field>   px</field>
     <field>  dxy</field>
     <field>  dyz</field>
     <field>  dz2</field>
     <field>  dxz</field>
     <field>x2-y2</field>
     <set>
      <set comment="ion 1">
       <set comment="spin 1">
        <r>    -8.2527     0.0000     0.0000     0.0000     0.0000     0.0000     0.0000     0.0000     0.0000     0.0000 </r>
        <r>    -8.1689     0.0000     0.0000     0.0000     0.0000     0.0000     0.0000     0.0000     0.0000     0.0000 </r>
        <r>    -8.0852     0.0000     0.0000     0.0000     0.0000     0.0000     0.0000     0.0000     0.0000     0.0000 </r>
        <r>    -8.0014     0.0000     0.0000     0.0000     0.0000     0.0000     0.0000     0.0000     0.0000     0.0000 </r>
        <r>    -7.9177     0.0000     0.0000     0.0000     0.0000     0.0000     0.0000     0.0000     0.0000     0.0000 </r>
        <r>    -7.8339     0.0000     0.0000     0.0000     0.0000     0.0000     0.0000     0.0000     0.0000     0.0000 </r>
        <r>    -7.7502     0.0000     0.0000     0.0000     0.0000     0.0000     0.0000     0.0000     0.0000     0.0000 </r>
        <r>    -7.6664     0.0000     0.0000     0.0000     0.0000     0.0000     0.0000     0.0000     0.0000     0.0000 </r>
        <r>    -7.5827     0.0000     0.0000     0.0000     0.0000     0.0000     0.0000     0.0000     0.0000     0.0000 </r>
        <r>    -7.4989     0.0000     0.0000     0.0000     0.0000     0.0000     0.0000     0.0000     0.0000     0.0000 </r>
        <r>    -7.4152     0.0000     0.0000     0.0000     0.0000     0.0000     0.0000     0.0000     0.0000     0.0000 </r>
        <r>    -7.3314     0.0000     0.0000     0.0000     0.0000     0.0000     0.0000     0.0000     0.0000     0.0000 </r>
        <r>    -7.2477     0.0000     0.0000     0.0000     0.0000     0.0000     0.0000     0.0000     0.0000     0.0000 </r>
        <r>    -7.1639     0.0000     0.0000     0.0000     0.0000     0.0000     0.0000     0.0000     0.0000     0.0000 </r>
        <r>    -7.0802     0.0000     0.0000     0.0000     0.0000     0.0000     0.0000     0.0000     0.0000     0.0000 </r>
        <r>    -6.9964     0.0000     0.0000     0.0000     0.0000     0.0000     0.0000     0.0000     0.0000     0.0000 </r>
        <r>    -6.9127     0.0000     0.0000     0.0000     0.0000     0.0000     0.0000     0.0000     0.0000     0.0000 </r>
        <r>    -6.8289     0.0000     0.0000     0.0000     0.0000     0.0000     0.0000     0.0000     0.0000     0.0000 </r>
        <r>    -6.7452     0.0000     0.0000     0.0000     0.0000     0.0000     0.0000     0.0000     0.0000     0.0000 </r>
        <r>    -6.6614     0.0000     0.0000     0.0000     0.0000     0.0000     0.0000     0.0000     0.0000     0.0000 </r>
        <r>    -6.5777     0.0000     0.0000     0.0000     0.0000     0.0000     0.0000     0.0000     0.0000     0.0000 </r>
        <r>    -6.4939     0.0000     0.0000     0.0000     0.0000     0.0000     0.0000     0.0000     0.0000     0.0000 </r>
        <r>    -6.4102     0.0000     0.0000     0.0000     0.0000     0.0000     0.0000     0.0000     0.0000     0.0000 </r>
        <r>    -6.3264     0.0000     0.0000     0.0000     0.0000     0.0000     0.0000     0.0000     0.0000     0.0000 </r>
        <r>    -6.2427     0.0002     0.0000     0.0000     0.0000     0.0000     0.0000     0.0000     0.0000     0.0000 </r>
        <r>    -6.1589     0.0218     0.0000     0.0000     0.0000     0.0000     0.0000     0.0000     0.0000     0.0000 </r>
        <r>    -6.0752     0.0276     0.0001     0.0001     0.0001     0.0000     0.0000     0.0000     0.0000     0.0000 </r>
        <r>    -5.9914     0.0370     0.0002     0.0002     0.0002     0.0000     0.0000     0.0000     0.0000     0.0000 </r>
        <r>    -5.9077     0.0446     0.0003     0.0003     0.0003     0.0000     0.0000     0.0000     0.0000     0.0000 </r>
        <r>    -5.8239     0.0478     0.0004     0.0004     0.0004     0.0000     0.0000     0.0000     0.0000     0.0000 </r>
        <r>    -5.7401     0.0535     0.0005     0.0005     0.0005     0.0000     0.0000     0.0000     0.0000     0.0000 </r>
        <r>    -5.6564     0.0594     0.0006     0.0006     0.0006     0.0000     0.0000     0.0000     0.0000     0.0000 </r>
        <r>    -5.5726     0.0641     0.0007     0.0007     0.0007     0.0000     0.0000     0.0000     0.0000     0.0000 </r>
        <r>    -5.4889     0.0678     0.0009     0.0009     0.0009     0.0000     0.0000     0.0000     0.0000     0.0000 </r>
[...]
       </set>
       <set comment="band 5">
        <r>  0.0663  0.0204  0.0642  0.0080  0.0000  0.0000  0.0000  0.0000  0.0000 </r>
        <r>  0.0663  0.0204  0.0642  0.0080  0.0000  0.0000  0.0000  0.0000  0.0000 </r>
       </set>
       <set comment="band 6">
        <r>  0.0218  0.0317  0.0335  0.0531  0.0000  0.0000  0.0000  0.0000  0.0000 </r>
        <r>  0.0218  0.0317  0.0335  0.0531  0.0000  0.0000  0.0000  0.0000  0.0000 </r>
       </set>
       <set comment="band 7">
        <r>  0.0387  0.0344  0.0082  0.0217  0.0000  0.0000  0.0000  0.0000  0.0000 </r>
        <r>  0.0387  0.0344  0.0082  0.0217  0.0000  0.0000  0.0000  0.0000  0.0000 </r>
       </set>
       <set comment="band 8">
        <r>  0.0110  0.0520  0.0768  0.0155  0.0000  0.0000  0.0000  0.0000  0.0000 </r>
        <r>  0.0110  0.0520  0.0768  0.0155  0.0000  0.0000  0.0000  0.0000  0.0000 </r>
       </set>
      </set>
      <set comment="kpoint 47">
       <set comment="band 1">
        <r>  0.2037  0.0007  0.0225  0.0007  0.0000  0.0000  0.0000  0.0000  0.0000 </r>
        <r>  0.2037  0.0007  0.0225  0.0007  0.0000  0.0000  0.0000  0.0000  0.0000 </r>
       </set>
       <set comment="band 2">
        <r>  0.1817  0.0019  0.0579  0.0083  0.0000  0.0000  0.0000  0.0000  0.0000 </r>
        <r>  0.1817  0.0019  0.0579  0.0083  0.0000  0.0000  0.0000  0.0000  0.0000 </r>
       </set>
       <set comment="band 3">
        <r>  0.0065  0.0692  0.0105  0.0959  0.0000  0.0000  0.0000  0.0000  0.0000 </r>
        <r>  0.0065  0.0692  0.0105  0.0959  0.0000  0.0000  0.0000  0.0000  0.0000 </r>
       </set>
       <set comment="band 4">
        <r>  0.0005  0.1023  0.0179  0.0671  0.0000  0.0000  0.0000  0.0000  0.0000 </r>
        <r>  0.0005  0.1023  0.0179  0.0671  0.0000  0.0000  0.0000  0.0000  0.0000 </r>
       </set>
       <set comment="band 5">
        <r>  0.0413  0.0160  0.0458  0.0153  0.0000  0.0000  0.0000  0.0000  0.0000 </r>
        <r>  0.0413  0.0160  0.0458  0.0153  0.0000  0.0000  0.0000  0.0000  0.0000 </r>
       </set>
       <set comment="band 6">
        <r>  0.0435  0.0120  0.0281  0.0067  0.0000  0.0000  0.0000  0.0000  0.0000 </r>
        <r>  0.0435  0.0120  0.0281  0.0067  0.0000  0.0000  0.0000  0.0000  0.0000 </r>
       </set>
       <set comment="band 7">
        <r>  0.0272  0.0682  0.0181  0.0468  0.0000  0.0000  0.0000  0.0000  0.0000 </r>
        <r>  0.0272  0.0682  0.0181  0.0468  0.0000  0.0000  0.0000  0.0000  0.0000 </r>
       </set>
       <set comment="band 8">
        <r>  0.0016  0.0625  0.0039  0.1019  0.0000  0.0000  0.0000  0.0000  0.0000 </r>
        <r>  0.0016  0.0625  0.0039  0.1019  0.0000  0.0000  0.0000  0.0000  0.0000 </r>
       </set>
      </set>
      <set comment="kpoint 48">
       <set comment="band 1">
        <r>  0.2049  0.0011  0.0254  0.0026  0.0000  0.0000  0.0000  0.0000  0.0000 </r>
        <r>  0.2049  0.0011  0.0254  0.0026  0.0000  0.0000  0.0000  0.0000  0.0000 </r>
       </set>
       <set comment="band 2">
        <r>  0.1867  0.0035  0.0426  0.0127  0.0000  0.0000  0.0000  0.0000  0.0000 </r>
        <r>  0.1867  0.0035  0.0426  0.0127  0.0000  0.0000  0.0000  0.0000  0.0000 </r>
       </set>
       <set comment="band 3">
        <r>  0.0073  0.0625  0.0305  0.0684  0.0000  0.0000  0.0000  0.0000  0.0000 </r>
        <r>  0.0073  0.0625  0.0305  0.0684  0.0000  0.0000  0.0000  0.0000  0.0000 </r>
       </set>
       <set comment="band 4">
        <r>  0.0009  0.0926  0.0154  0.0755  0.0000  0.0000  0.0000  0.0000  0.0000 </r>
        <r>  0.0009  0.0926  0.0154  0.0755  0.0000  0.0000  0.0000  0.0000  0.0000 </r>
       </set>
       <set comment="band 5">
        <r>  0.0427  0.0182  0.0371  0.0111  0.0000  0.0000  0.0000  0.0000  0.0000 </r>
        <r>  0.0427  0.0182  0.0371  0.0111  0.0000  0.0000  0.0000  0.0000  0.0000 </r>
       </set>
       <set comment="band 6">
        <r>  0.0332  0.0318  0.0223  0.0213  0.0000  0.0000  0.0000  0.0000  0.0000 </r>
        <r>  0.0332  0.0318  0.0223  0.0213  0.0000  0.0000  0.0000  0.0000  0.0000 </r>
       </set>
       <set comment="band 7">
        <r>  0.0327  0.0549  0.0249  0.0400  0.0000  0.0000  0.0000  0.0000  0.0000 </r>
        <r>  0.0327  0.0549  0.0249  0.0400  0.0000  0.0000  0.0000  0.0000  0.0000 </r>
       </set>
       <set comment="band 8">
        <r>  0.0120  0.0592  0.0144  0.0885  0.0000  0.0000  0.0000  0.0000  0.0000 </r>
        <r>  0.0120  0.0592  0.0144  0.0885  0.0000  0.0000  0.0000  0.0000  0.0000 </r>
       </set>
      </set>
      <set comment="kpoint 49">
       <set comment="band 1">
        <r>  0.2126  0.0020  0.0196  0.0080  0.0000  0.0000  0.0000  0.0000  0.0000 </r>
        <r>  0.2126  0.0020  0.0196  0.0080  0.0000  0.0000  0.0000  0.0000  0.0000 </r>
       </set>
       <set comment="band 2">
        <r>  0.1822  0.0056  0.0364  0.0143  0.0000  0.0000  0.0000  0.0000  0.0000 </r>
        <r>  0.1822  0.0056  0.0364  0.0143  0.0000  0.0000  0.0000  0.0000  0.0000 </r>
       </set>
       <set comment="band 3">
        <r>  0.0052  0.0551  0.0494  0.0492  0.0000  0.0000  0.0000  0.0000  0.0000 </r>
        <r>  0.0052  0.0551  0.0494  0.0492  0.0000  0.0000  0.0000  0.0000  0.0000 </r>
       </set>
       <set comment="band 4">
        <r>  0.0021  0.0904  0.0121  0.0817  0.0000  0.0000  0.0000  0.0000  0.0000 </r>
        <r>  0.0021  0.0904  0.0121  0.0817  0.0000  0.0000  0.0000  0.0000  0.0000 </r>
       </set>
       <set comment="band 5">
        <r>  0.0450  0.0206  0.0364  0.0073  0.0000  0.0000  0.0000  0.0000  0.0000 </r>
        <r>  0.0450  0.0206  0.0364  0.0073  0.0000  0.0000  0.0000  0.0000  0.0000 </r>
       </set>
       <set comment="band 6">
        <r>  0.0165  0.0551  0.0107  0.0221  0.0000  0.0000  0.0000  0.0000  0.0000 </r>
        <r>  0.0165  0.0551  0.0107  0.0221  0.0000  0.0000  0.0000  0.0000  0.0000 </r>
       </set>
       <set comment="band 7">
        <r>  0.0379  0.0353  0.0359  0.0473  0.0000  0.0000  0.0000  0.0000  0.0000 </r>
        <r>  0.0379  0.0353  0.0359  0.0473  0.0000  0.0000  0.0000  0.0000  0.0000 </r>
       </set>
       <set comment="band 8">
        <r>  0.0268  0.0612  0.0277  0.0454  0.0000  0.0000  0.0000  0.0000  0.0000 </r>
        <r>  0.0268  0.0612  0.0277  0.0454  0.0000  0.0000  0.0000  0.0000  0.0000 </r>
       </set>
      </set>
      <set comment="kpoint 50">
       <set comment="band 1">
        <r>  0.2120  0.0044  0.0088  0.0132  0.0000  0.0000  0.0000  0.0000  0.0000 </r>
        <r>  0.2120  0.0044  0.0088  0.0132  0.0000  0.0000  0.0000  0.0000  0.0000 </r>
       </set>
       <set comment="band 2">
        <r>  0.1791  0.0069  0.0373  0.0172  0.0000  0.0000  0.0000  0.0000  0.0000 </r>
        <r>  0.1791  0.0069  0.0373  0.0172  0.0000  0.0000  0.0000  0.0000  0.0000 </r>
       </set>
       <set comment="band 3">
        <r>  0.0052  0.0501  0.0640  0.0378  0.0000  0.0000  0.0000  0.0000  0.0000 </r>
        <r>  0.0052  0.0501  0.0640  0.0378  0.0000  0.0000  0.0000  0.0000  0.0000 </r>
       </set>
       <set comment="band 4">
        <r>  0.0029  0.0923  0.0118  0.0833  0.0000  0.0000  0.0000  0.0000  0.0000 </r>
        <r>  0.0029  0.0923  0.0118  0.0833  0.0000  0.0000  0.0000  0.0000  0.0000 </r>
       </set>
       <set comment="band 5">
        <r>  0.0468  0.0230  0.0402  0.0057  0.0000  0.0000  0.0000  0.0000  0.0000 </r>
        <r>  0.0468  0.0230  0.0402  0.0057  0.0000  0.0000  0.0000  0.0000  0.0000 </r>
       </set>
       <set comment="band 6">
        <r>  0.0136  0.0590  0.0265  0.0277  0.0000  0.0000  0.0000  0.0000  0.0000 </r>
        <r>  0.0136  0.0590  0.0265  0.0277  0.0000  0.0000  0.0000  0.0000  0.0000 </r>
       </set>
       <set comment="band 7">
        <r>  0.0419  0.0452  0.0246  0.0227  0.0000  0.0000  0.0000  0.0000  0.0000 </r>
        <r>  0.0419  0.0452  0.0246  0.0227  0.0000  0.0000  0.0000  0.0000  0.0000 </r>
       </set>
       <set comment="band 8">
        <r>  0.0193  0.0199  0.0181  0.0679  0.0000  0.0000  0.0000  0.0000  0.0000 </r>
        <r>  0.0193  0.0199  0.0181  0.0679  0.0000  0.0000  0.0000  0.0000  0.0000 </r>
       </set>
      </set>
      <set comment="kpoint 51">
       <set comment="band 1">
        <r>  0.1995  0.0002  0.0341  0.0016  0.0000  0.0000  0.0000  0.0000  0.0000 </r>
        <r>  0.1995  0.0002  0.0341  0.0016  0.0000  0.0000  0.0000  0.0000  0.0000 </r>
       </set>
       <set comment="band 2">
        <r>  0.1934  0.0000  0.0465  0.0036  0.0000  0.0000  0.0000  0.0000  0.0000 </r>
        <r>  0.1934  0.0000  0.0465  0.0036  0.0000  0.0000  0.0000  0.0000  0.0000 </r>
       </set>
       <set comment="band 3">
        <r>  0.0039  0.0794  0.0098  0.0878  0.0000  0.0000  0.0000  0.0000  0.0000 </r>
        <r>  0.0039  0.0794  0.0098  0.0878  0.0000  0.0000  0.0000  0.0000  0.0000 </r>
       </set>
       <set comment="band 4">
        <r>  0.0008  0.0905  0.0114  0.0793  0.0000  0.0000  0.0000  0.0000  0.0000 </r>
        <r>  0.0008  0.0905  0.0114  0.0793  0.0000  0.0000  0.0000  0.0000  0.0000 </r>
       </set>
       <set comment="band 5">
        <r>  0.0440  0.0162  0.0349  0.0122  0.0000  0.0000  0.0000  0.0000  0.0000 </r>
        <r>  0.0440  0.0162  0.0349  0.0122  0.0000  0.0000  0.0000  0.0000  0.0000 </r>
       </set>
       <set comment="band 6">
        <r>  0.0440  0.0149  0.0290  0.0092  0.0000  0.0000  0.0000  0.0000  0.0000 </r>
        <r>  0.0440  0.0149  0.0290  0.0092  0.0000  0.0000  0.0000  0.0000  0.0000 </r>
       </set>
       <set comment="band 7">
        <r>  0.0193  0.0730  0.0223  0.0425  0.0000  0.0000  0.0000  0.0000  0.0000 </r>
        <r>  0.0193  0.0730  0.0223  0.0425  0.0000  0.0000  0.0000  0.0000  0.0000 </r>
       </set>
       <set comment="band 8">
        <r>  0.0073  0.1010  0.0048  0.1089  0.0000  0.0000  0.0000  0.0000  0.0000 </r>
        <r>  0.0073  0.1010  0.0048  0.1089  0.0000  0.0000  0.0000  0.0000  0.0000 </r>
       </set>
      </set>
      <set comment="kpoint 52">
       <set comment="band 1">
        <r>  0.2061  0.0004  0.0313  0.0056  0.0000  0.0000  0.0000  0.0000  0.0000 </r>
        <r>  0.2061  0.0004  0.0313  0.0056  0.0000  0.0000  0.0000  0.0000  0.0000 </r>
       </set>
       <set comment="band 2">
        <r>  0.1933  0.0010  0.0396  0.0058  0.0000  0.0000  0.0000  0.0000  0.0000 </r>
        <r>  0.1933  0.0010  0.0396  0.0058  0.0000  0.0000  0.0000  0.0000  0.0000 </r>
       </set>
       <set comment="band 3">
        <r>  0.0011  0.0691  0.0284  0.0646  0.0000  0.0000  0.0000  0.0000  0.0000 </r>
        <r>  0.0011  0.0691  0.0284  0.0646  0.0000  0.0000  0.0000  0.0000  0.0000 </r>
       </set>
       <set comment="band 4">
        <r>  0.0024  0.0863  0.0105  0.0837  0.0000  0.0000  0.0000  0.0000  0.0000 </r>
        <r>  0.0024  0.0863  0.0105  0.0837  0.0000  0.0000  0.0000  0.0000  0.0000 </r>
       </set>
       <set comment="band 5">
        <r>  0.0444  0.0185  0.0327  0.0085  0.0000  0.0000  0.0000  0.0000  0.0000 </r>
        <r>  0.0444  0.0185  0.0327  0.0085  0.0000  0.0000  0.0000  0.0000  0.0000 </r>
       </set>
       <set comment="band 6">
        <r>  0.0332  0.0334  0.0222  0.0236  0.0000  0.0000  0.0000  0.0000  0.0000 </r>
        <r>  0.0332  0.0334  0.0222  0.0236  0.0000  0.0000  0.0000  0.0000  0.0000 </r>
       </set>
       <set comment="band 7">
        <r>  0.0188  0.0590  0.0307  0.0433  0.0000  0.0000  0.0000  0.0000  0.0000 </r>
        <r>  0.0188  0.0590  0.0307  0.0433  0.0000  0.0000  0.0000  0.0000  0.0000 </r>
       </set>
       <set comment="band 8">
        <r>  0.0270  0.0637  0.0278  0.0337  0.0000  0.0000  0.0000  0.0000  0.0000 </r>
        <r>  0.0270  0.0637  0.0278  0.0337  0.0000  0.0000  0.0000  0.0000  0.0000 </r>
       </set>
      </set>
      <set comment="kpoint 53">
       <set comment="band 1">
        <r>  0.2071  0.0024  0.0192  0.0031  0.0000  0.0000  0.0000  0.0000  0.0000 </r>
        <r>  0.2071  0.0024  0.0192  0.0031  0.0000  0.0000  0.0000  0.0000  0.0000 </r>
       </set>
       <set comment="band 2">
        <r>  0.1799  0.0055  0.0351  0.0252  0.0000  0.0000  0.0000  0.0000  0.0000 </r>
        <r>  0.1799  0.0055  0.0351  0.0252  0.0000  0.0000  0.0000  0.0000  0.0000 </r>
       </set>
       <set comment="band 3">
        <r>  0.0092  0.0551  0.0241  0.0783  0.0000  0.0000  0.0000  0.0000  0.0000 </r>
        <r>  0.0092  0.0551  0.0241  0.0783  0.0000  0.0000  0.0000  0.0000  0.0000 </r>
       </set>
       <set comment="band 4">
        <r>  0.0028  0.0903  0.0524  0.0365  0.0000  0.0000  0.0000  0.0000  0.0000 </r>
        <r>  0.0028  0.0903  0.0524  0.0365  0.0000  0.0000  0.0000  0.0000  0.0000 </r>
       </set>
       <set comment="band 5">
        <r>  0.0285  0.0353  0.0372  0.0283  0.0000  0.0000  0.0000  0.0000  0.0000 </r>
        <r>  0.0285  0.0353  0.0372  0.0283  0.0000  0.0000  0.0000  0.0000  0.0000 </r>
       </set>
       <set comment="band 6">
        <r>  0.0211  0.0484  0.0125  0.0056  0.0000  0.0000  0.0000  0.0000  0.0000 </r>
        <r>  0.0211  0.0484  0.0125  0.0056  0.0000  0.0000  0.0000  0.0000  0.0000 </r>
       </set>
       <set comment="band 7">
        <r>  0.0606  0.0257  0.0262  0.0519  0.0000  0.0000  0.0000  0.0000  0.0000 </r>
        <r>  0.0606  0.0257  0.0262  0.0519  0.0000  0.0000  0.0000  0.0000  0.0000 </r>
       </set>
       <set comment="band 8">
        <r>  0.0058  0.0532  0.0148  0.0888  0.0000  0.0000  0.0000  0.0000  0.0000 </r>
        <r>  0.0059  0.0532  0.0148  0.0888  0.0000  0.0000  0.0000  0.0000  0.0000 </r>
       </set>
      </set>
      <set comment="kpoint 54">
       <set comment="band 1">
        <r>  0.2114  0.0019  0.0180  0.0085  0.0000  0.0000  0.0000  0.0000  0.0000 </r>
        <r>  0.2114  0.0019  0.0180  0.0085  0.0000  0.0000  0.0000  0.0000  0.0000 </r>
       </set>
       <set comment="band 2">
        <r>  0.1813  0.0055  0.0262  0.0270  0.0000  0.0000  0.0000  0.0000  0.0000 </r>
        <r>  0.1813  0.0055  0.0262  0.0270  0.0000  0.0000  0.0000  0.0000  0.0000 </r>
       </set>
       <set comment="band 3">
        <r>  0.0101  0.0530  0.0390  0.0612  0.0000  0.0000  0.0000  0.0000  0.0000 </r>
        <r>  0.0101  0.0530  0.0390  0.0612  0.0000  0.0000  0.0000  0.0000  0.0000 </r>
       </set>
       <set comment="band 4">
        <r>  0.0014  0.0856  0.0497  0.0393  0.0000  0.0000  0.0000  0.0000  0.0000 </r>
        <r>  0.0014  0.0856  0.0497  0.0393  0.0000  0.0000  0.0000  0.0000  0.0000 </r>
       </set>
       <set comment="band 5">
        <r>  0.0217  0.0494  0.0236  0.0150  0.0000  0.0000  0.0000  0.0000  0.0000 </r>
        <r>  0.0217  0.0494  0.0236  0.0150  0.0000  0.0000  0.0000  0.0000  0.0000 </r>
       </set>
       <set comment="band 6">
        <r>  0.0419  0.0394  0.0200  0.0328  0.0000  0.0000  0.0000  0.0000  0.0000 </r>
        <r>  0.0419  0.0394  0.0200  0.0328  0.0000  0.0000  0.0000  0.0000  0.0000 </r>
       </set>
       <set comment="band 7">
        <r>  0.0365  0.0361  0.0252  0.0348  0.0000  0.0000  0.0000  0.0000  0.0000 </r>
        <r>  0.0365  0.0361  0.0252  0.0348  0.0000  0.0000  0.0000  0.0000  0.0000 </r>
       </set>
       <set comment="band 8">
        <r>  0.0248  0.0400  0.0457  0.0316  0.0000  0.0000  0.0000  0.0000  0.0000 </r>
        <r>  0.0248  0.0400  0.0457  0.0316  0.0000  0.0000  0.0000  0.0000  0.0000 </r>
       </set>
      </set>
      <set comment="kpoint 55">
       <set comment="band 1">
        <r>  0.2052  0.0006  0.0272  0.0071  0.0000  0.0000  0.0000  0.0000  0.0000 </r>
        <r>  0.2052  0.0006  0.0272  0.0071  0.0000  0.0000  0.0000  0.0000  0.0000 </r>
       </set>
       <set comment="band 2">
        <r>  0.1980  0.0003  0.0331  0.0148  0.0000  0.0000  0.0000  0.0000  0.0000 </r>
        <r>  0.1980  0.0003  0.0331  0.0148  0.0000  0.0000  0.0000  0.0000  0.0000 </r>
       </set>
       <set comment="band 3">
        <r>  0.0036  0.0663  0.0259  0.0686  0.0000  0.0000  0.0000  0.0000  0.0000 </r>
        <r>  0.0036  0.0663  0.0259  0.0686  0.0000  0.0000  0.0000  0.0000  0.0000 </r>
       </set>
       <set comment="band 4">
        <r>  0.0000  0.0784  0.0345  0.0550  0.0000  0.0000  0.0000  0.0000  0.0000 </r>
        <r>  0.0000  0.0784  0.0345  0.0550  0.0000  0.0000  0.0000  0.0000  0.0000 </r>
       </set>
       <set comment="band 5">
        <r>  0.0316  0.0383  0.0265  0.0223  0.0000  0.0000  0.0000  0.0000  0.0000 </r>
        <r>  0.0316  0.0383  0.0265  0.0223  0.0000  0.0000  0.0000  0.0000  0.0000 </r>
       </set>
       <set comment="band 6">
        <r>  0.0314  0.0403  0.0195  0.0160  0.0000  0.0000  0.0000  0.0000  0.0000 </r>
        <r>  0.0314  0.0403  0.0195  0.0160  0.0000  0.0000  0.0000  0.0000  0.0000 </r>
       </set>
       <set comment="band 7">
        <r>  0.0369  0.0437  0.0303  0.0364  0.0000  0.0000  0.0000  0.0000  0.0000 </r>
        <r>  0.0369  0.0437  0.0303  0.0364  0.0000  0.0000  0.0000  0.0000  0.0000 </r>
       </set>
       <set comment="band 8">
        <r>  0.0245  0.0504  0.0370  0.0331  0.0000  0.0000  0.0000  0.0000  0.0000 </r>
        <r>  0.0245  0.0504  0.0370  0.0331  0.0000  0.0000  0.0000  0.0000  0.0000 </r>
       </set>
      </set>
      <set comment="kpoint 56">
       <set comment="band 1">
        <r>  0.2096  0.0006  0.0181  0.0162  0.0000  0.0000  0.0000  0.0000  0.0000 </r>
        <r>  0.2096  0.0006  0.0181  0.0162  0.0000  0.0000  0.0000  0.0000  0.0000 </r>
       </set>
       <set comment="band 2">
        <r>  0.1971  0.0009  0.0294  0.0169  0.0000  0.0000  0.0000  0.0000  0.0000 </r>
        <r>  0.1971  0.0009  0.0294  0.0169  0.0000  0.0000  0.0000  0.0000  0.0000 </r>
       </set>
       <set comment="band 3">
        <r>  0.0003  0.0632  0.0491  0.0447  0.0000  0.0000  0.0000  0.0000  0.0000 </r>
        <r>  0.0003  0.0632  0.0491  0.0447  0.0000  0.0000  0.0000  0.0000  0.0000 </r>
       </set>
       <set comment="band 4">
        <r>  0.0014  0.0766  0.0306  0.0601  0.0000  0.0000  0.0000  0.0000  0.0000 </r>
        <r>  0.0014  0.0766  0.0306  0.0601  0.0000  0.0000  0.0000  0.0000  0.0000 </r>
       </set>
       <set comment="band 5">
        <r>  0.0288  0.0470  0.0228  0.0147  0.0000  0.0000  0.0000  0.0000  0.0000 </r>
        <r>  0.0288  0.0470  0.0228  0.0147  0.0000  0.0000  0.0000  0.0000  0.0000 </r>
       </set>
       <set comment="band 6">
        <r>  0.0018  0.0845  0.0005  0.0021  0.0000  0.0000  0.0000  0.0000  0.0000 </r>
        <r>  0.0018  0.0845  0.0005  0.0021  0.0000  0.0000  0.0000  0.0000  0.0000 </r>
       </set>
       <set comment="band 7">
        <r>  0.0526  0.0033  0.0541  0.0615  0.0000  0.0000  0.0000  0.0000  0.0000 </r>
        <r>  0.0526  0.0033  0.0541  0.0615  0.0000  0.0000  0.0000  0.0000  0.0000 </r>
       </set>
       <set comment="band 8">
        <r>  0.0410  0.0358  0.0337  0.0299  0.0000  0.0000  0.0000  0.0000  0.0000 </r>
        <r>  0.0410  0.0358  0.0337  0.0299  0.0000  0.0000  0.0000  0.0000  0.0000 </r>
       </set>
      </set>
     </set>
    </set>
   </array>
  </projected>
 </calculation>
 <structure name="finalpos" >
  <crystal>
   <varray name="basis" >
    <v>       0.00000000       2.75000000       2.75000000 </v>
    <v>       2.75000000       0.00000000       2.75000000 </v>
    <v>       2.75000000       2.75000000       0.00000000 </v>
   </varray>
   <i name="volume">     41.59375000 </i>
   <varray name="rec_basis" >
    <v>      -0.18181818       0.18181818       0.18181818 </v>
    <v>       0.18181818      -0.18181818       0.18181818 </v>
    <v>       0.18181818       0.18181818      -0.18181818 </v>
   </varray>
  </crystal>
  <varray name="positions" >
   <v>       0.87500000       0.87500000       0.87500000 </v>
   <v>       0.12500000       0.12500000       0.12500000 </v>
  </varray>
 </structure>
</modeling>
