fcc Si                                  
   3.70000000000000     
     0.500000    0.500000    0.000000
     0.000000    0.500000    0.500000
     0.500000    0.000000    0.500000
   Si
     1
Direct
  0.000000  0.000000  0.000000
 
   20   20   20
 -2.2437     -1.6186     0.22270E-01  2.0873      3.9047      5.0138      5.3231      5.0741      4.6608      4.3527    
  4.2405      4.3527      4.6608      5.0741      5.3231      5.0138      3.9047      2.0873     0.22270E-01 -1.6186    
 -1.6186     -.48746      1.3507      3.2515      4.6457      5.2682      5.2145      4.8239      4.4476      4.2321    
  4.2322      4.4477      4.8238      5.2144      5.2682      4.6458      3.2516      1.3505     -.48780     -1.6187    
 0.22270E-01  1.3507      2.9923      4.3833      5.1535      5.2561      4.9260      4.5099      4.2110      4.1032    
  4.2110      4.5099      4.9260      5.2560      5.1535      4.3833      2.9923      1.3506     0.22241E-01 -.48780    
  2.0873      3.2515      4.3833      5.0982      5.2533      4.9733      4.5430      4.1859      3.9872      3.9872    
  4.1858      4.5430      4.9733      5.2533      5.0981      4.3833      3.2516      2.0875      1.3506      1.3505    
  3.9047      4.6457      5.1535      5.2533      4.9855      4.5560      4.1661      3.9017      3.8085      3.9017    
  4.1661      4.5560      4.9856      5.2533      5.1535      4.6457      3.9047      3.2516      2.9923      3.2516    
  5.0138      5.2682      5.2561      4.9733      4.5560      4.1588      3.8570      3.6956      3.6956      3.8570    
  4.1588      4.5560      4.9733      5.2561      5.2682      5.0137      4.6457      4.3833      4.3833      4.6458    
  5.3231      5.2145      4.9260      4.5430      4.1661      3.8570      3.6573      3.5886      3.6573      3.8570    
  4.1661      4.5430      4.9260      5.2145      5.3232      5.2682      5.1535      5.0981      5.1535      5.2682    
  5.0741      4.8239      4.5099      4.1859      3.9017      3.6956      3.5886      3.5887      3.6956      3.9017    
  4.1858      4.5098      4.8238      5.0741      5.2145      5.2561      5.2533      5.2533      5.2560      5.2144    
  4.6608      4.4476      4.2110      3.9872      3.8085      3.6956      3.6573      3.6956      3.8085      3.9872    
  4.2110      4.4476      4.6608      4.8238      4.9260      4.9733      4.9856      4.9733      4.9260      4.8238    
  4.3527      4.2321      4.1032      3.9872      3.9017      3.8570      3.8570      3.9017      3.9872      4.1033    
  4.2322      4.3527      4.4476      4.5098      4.5430      4.5560      4.5560      4.5430      4.5099      4.4477    
  4.2405      4.2322      4.2110      4.1858      4.1661      4.1588      4.1661      4.1858      4.2110      4.2322    
  4.2405      4.2322      4.2110      4.1858      4.1661      4.1588      4.1661      4.1858      4.2110      4.2322    
  4.3527      4.4477      4.5099      4.5430      4.5560      4.5560      4.5430      4.5098      4.4476      4.3527    
  4.2322      4.1033      3.9872      3.9017      3.8570      3.8570      3.9017      3.9872      4.1032      4.2321    
  4.6608      4.8238      4.9260      4.9733      4.9856      4.9733      4.9260      4.8238      4.6608      4.4476    
  4.2110      3.9872      3.8085      3.6956      3.6573      3.6956      3.8085      3.9872      4.2110      4.4476    
  5.0741      5.2144      5.2560      5.2533      5.2533      5.2561      5.2145      5.0741      4.8238      4.5098    
  4.1858      3.9017      3.6956      3.5887      3.5886      3.6956      3.9017      4.1859      4.5099      4.8239    
  5.3231      5.2682      5.1535      5.0981      5.1535      5.2682      5.3232      5.2145      4.9260      4.5430    
  4.1661      3.8570      3.6573      3.5886      3.6573      3.8570      4.1661      4.5430      4.9260      5.2145    
  5.0138      4.6458      4.3833      4.3833      4.6457      5.0137      5.2682      5.2561      4.9733      4.5560    
  4.1588      3.8570      3.6956      3.6956      3.8570      4.1588      4.5560      4.9733      5.2561      5.2682    
  3.9047      3.2516      2.9923      3.2516      3.9047      4.6457      5.1535      5.2533      4.9856      4.5560    
  4.1661      3.9017      3.8085      3.9017      4.1661      4.5560      4.9855      5.2533      5.1535      4.6457    
  2.0873      1.3505      1.3506      2.0875      3.2516      4.3833      5.0981      5.2533      4.9733      4.5430    
  4.1858      3.9872      3.9872      4.1859      4.5430      4.9733      5.2533      5.0982      4.3833      3.2515    
 0.22270E-01 -.48780     0.22241E-01  1.3506      2.9923      4.3833      5.1535      5.2560      4.9260      4.5099    
  4.2110      4.1032      4.2110      4.5099      4.9260      5.2561      5.1535      4.3833      2.9923      1.3507    
 -1.6186     -1.6187     -.48780      1.3505      3.2516      4.6458      5.2682      5.2144      4.8238      4.4477    
  4.2322      4.2321      4.4476      4.8239      5.2145      5.2682      4.6457      3.2515      1.3507     -.48746    
 -1.6186     -.48748      1.3506      3.2515      4.6457      5.2681      5.2145      4.8239      4.4476      4.2321    
  4.2322      4.4477      4.8238      5.2144      5.2682      4.6459      3.2516      1.3505     -.48779     -1.6187    
 -.48748     0.94318      2.7223      4.2504      5.1282      5.2953      4.9895      4.5734      4.2712      4.1618    
  4.2712      4.5733      4.9895      5.2954      5.1284      4.2505      2.7221     0.94277     -.48782     -1.0355    
  1.3506      2.7223      4.0880      5.0059      5.2970      5.0790      4.6559      4.2918      4.0874      4.0874    
  4.2917      4.6558      5.0791      5.2971      5.0060      4.0879      2.7221      1.3506     0.49156     0.49158    
  3.2515      4.2504      5.0059      5.2874      5.1126      4.6997      4.2993      4.0234      3.9255      4.0234    
  4.2993      4.6996      5.1126      5.2874      5.0059      4.2504      3.2516      2.4030      2.0705      2.4028    
  4.6457      5.1282      5.2970      5.1126      4.7131      4.3009      3.9811      3.8081      3.8082      3.9812    
  4.3008      4.7130      5.1126      5.2971      5.1283      4.6457      4.0656      3.6751      3.6752      4.0656    
  5.2681      5.2953      5.0790      4.6997      4.3009      3.9666      3.7475      3.6716      3.7475      3.9666    
  4.3008      4.6997      5.0791      5.2954      5.2681      5.0517      4.8063      4.7007      4.8063      5.0518    
  5.2145      4.9895      4.6559      4.2993      3.9811      3.7475      3.6253      3.6253      3.7475      3.9811    
  4.2993      4.6558      4.9894      5.2145      5.2856      5.2454      5.1880      5.1879      5.2453      5.2855    
  4.8239      4.5734      4.2918      4.0234      3.8081      3.6716      3.6253      3.6717      3.8082      4.0234    
  4.2917      4.5733      4.8238      5.0060      5.0991      5.1260      5.1284      5.1259      5.0989      5.0059    
  4.4476      4.2712      4.0874      3.9255      3.8082      3.7475      3.7475      3.8082      3.9255      4.0874    
  4.2712      4.4476      4.5907      4.6874      4.7403      4.7609      4.7609      4.7403      4.6874      4.5906    
  4.2321      4.1618      4.0874      4.0234      3.9812      3.9666      3.9811      4.0234      4.0874      4.1619    
  4.2322      4.2856      4.3165      4.3284      4.3299      4.3292      4.3299      4.3285      4.3166      4.2856    
  4.2322      4.2712      4.2917      4.2993      4.3008      4.3008      4.2993      4.2917      4.2712      4.2322    
  4.1748      4.1065      4.0401      3.9884      3.9605      3.9605      3.9884      4.0401      4.1065      4.1748    
  4.4477      4.5733      4.6558      4.6996      4.7130      4.6997      4.6558      4.5733      4.4476      4.2856    
  4.1065      3.9370      3.8015      3.7159      3.6868      3.7159      3.8015      3.9370      4.1065      4.2856    
  4.8238      4.9895      5.0791      5.1126      5.1126      5.0791      4.9894      4.8238      4.5907      4.3165    
  4.0401      3.8015      3.6306      3.5426      3.5426      3.6306      3.8016      4.0401      4.3165      4.5906    
  5.2144      5.2954      5.2971      5.2874      5.2971      5.2954      5.2145      5.0060      4.6874      4.3284    
  3.9884      3.7159      3.5426      3.4835      3.5425      3.7159      3.9885      4.3285      4.6874      5.0059    
  5.2682      5.1284      5.0060      5.0059      5.1283      5.2681      5.2856      5.0991      4.7403      4.3299    
  3.9605      3.6868      3.5426      3.5425      3.6867      3.9604      4.3299      4.7403      5.0990      5.2855    
  4.6459      4.2505      4.0879      4.2504      4.6457      5.0517      5.2454      5.1260      4.7609      4.3292    
  3.9605      3.7159      3.6306      3.7159      3.9604      4.3292      4.7609      5.1260      5.2454      5.0518    
  3.2516      2.7221      2.7221      3.2516      4.0656      4.8063      5.1880      5.1284      4.7609      4.3299    
  3.9884      3.8015      3.8016      3.9885      4.3299      4.7609      5.1283      5.1880      4.8063      4.0656    
  1.3505     0.94277      1.3506      2.4030      3.6751      4.7007      5.1879      5.1259      4.7403      4.3285    
  4.0401      3.9370      4.0401      4.3285      4.7403      5.1260      5.1880      4.7007      3.6751      2.4028    
 -.48779     -.48782     0.49156      2.0705      3.6752      4.8063      5.2453      5.0989      4.6874      4.3166    
  4.1065      4.1065      4.3165      4.6874      5.0990      5.2454      4.8063      3.6751      2.0704     0.49160    
 -1.6187     -1.0355     0.49158      2.4028      4.0656      5.0518      5.2855      5.0059      4.5906      4.2856    
  4.1748      4.2856      4.5906      5.0059      5.2855      5.0518      4.0656      2.4028     0.49160     -1.0355    
 0.22241E-01  1.3506      2.9923      4.3834      5.1535      5.2561      4.9260      4.5099      4.2110      4.1032    
  4.2110      4.5099      4.9260      5.2560      5.1535      4.3833      2.9923      1.3506     0.22238E-01 -.48781    
  1.3506      2.7223      4.0880      5.0059      5.2970      5.0790      4.6559      4.2918      4.0874      4.0874    
  4.2917      4.6558      5.0791      5.2971      5.0060      4.0879      2.7221      1.3505     0.49155     0.49157    
  2.9923      4.0880      4.9375      5.2893      5.1525      4.7487      4.3454      4.0659      3.9664      4.0659    
  4.3454      4.7487      5.1525      5.2893      4.9375      4.0879      2.9923      2.0704      1.7107      2.0704    
  4.3834      5.0059      5.2893      5.1725      4.7925      4.3747      4.0467      3.8681      3.8681      4.0468    
  4.3748      4.7924      5.1724      5.2893      5.0060      4.3834      3.6752      3.2079      3.2078      3.6751    
  5.1535      5.2970      5.1525      4.7925      4.3839      4.0359      3.8056      3.7255      3.8056      4.0359    
  4.3839      4.7925      5.1525      5.2970      5.1535      4.8064      4.4576      4.3127      4.4576      4.8063    
  5.2561      5.0790      4.7487      4.3747      4.0359      3.7845      3.6520      3.6519      3.7844      4.0359    
  4.3748      4.7488      5.0791      5.2560      5.2453      5.1193      5.0072      5.0072      5.1193      5.2454    
  4.9260      4.6559      4.3454      4.0467      3.8056      3.6520      3.5996      3.6520      3.8056      4.0467    
  4.3454      4.6558      4.9260      5.0990      5.1586      5.1503      5.1378      5.1503      5.1587      5.0990    
  4.5099      4.2918      4.0659      3.8681      3.7255      3.6519      3.6520      3.7255      3.8681      4.0659    
  4.2917      4.5098      4.6874      4.8062      4.8648      4.8832      4.8831      4.8647      4.8061      4.6874    
  4.2110      4.0874      3.9664      3.8681      3.8056      3.7844      3.8056      3.8681      3.9664      4.0874    
  4.2111      4.3165      4.3907      4.4324      4.4503      4.4547      4.4503      4.4324      4.3907      4.3165    
  4.1032      4.0874      4.0659      4.0468      4.0359      4.0359      4.0467      4.0659      4.0874      4.1033    
  4.1065      4.0954      4.0747      4.0533      4.0401      4.0401      4.0534      4.0748      4.0954      4.1065    
  4.2110      4.2917      4.3454      4.3748      4.3839      4.3748      4.3454      4.2917      4.2111      4.1065    
  3.9893      3.8760      3.7837      3.7244      3.7041      3.7244      3.7837      3.8760      3.9893      4.1065    
  4.5099      4.6558      4.7487      4.7924      4.7925      4.7488      4.6558      4.5098      4.3165      4.0954    
  3.8760      3.6885      3.5551      3.4868      3.4868      3.5551      3.6885      3.8759      4.0954      4.3166    
  4.9260      5.0791      5.1525      5.1724      5.1525      5.0791      4.9260      4.6874      4.3907      4.0747    
  3.7837      3.5551      3.4120      3.3635      3.4120      3.5552      3.7837      4.0747      4.3907      4.6874    
  5.2560      5.2971      5.2893      5.2893      5.2970      5.2560      5.0990      4.8062      4.4324      4.0533    
  3.7244      3.4868      3.3635      3.3635      3.4868      3.7244      4.0534      4.4324      4.8061      5.0989    
  5.1535      5.0060      4.9375      5.0060      5.1535      5.2453      5.1586      4.8648      4.4503      4.0401    
  3.7041      3.4868      3.4120      3.4868      3.7041      4.0401      4.4503      4.8648      5.1587      5.2453    
  4.3833      4.0879      4.0879      4.3834      4.8064      5.1193      5.1503      4.8832      4.4547      4.0401    
  3.7244      3.5551      3.5552      3.7244      4.0401      4.4546      4.8831      5.1503      5.1194      4.8064    
  2.9923      2.7221      2.9923      3.6752      4.4576      5.0072      5.1378      4.8831      4.4503      4.0534    
  3.7837      3.6885      3.7837      4.0534      4.4503      4.8831      5.1377      5.0072      4.4576      3.6752    
  1.3506      1.3505      2.0704      3.2079      4.3127      5.0072      5.1503      4.8647      4.4324      4.0748    
  3.8760      3.8759      4.0747      4.4324      4.8648      5.1503      5.0072      4.3126      3.2078      2.0705    
 0.22238E-01 0.49155      1.7107      3.2078      4.4576      5.1193      5.1587      4.8061      4.3907      4.0954    
  3.9893      4.0954      4.3907      4.8061      5.1587      5.1194      4.4576      3.2078      1.7107     0.49157    
 -.48781     0.49157      2.0704      3.6751      4.8063      5.2454      5.0990      4.6874      4.3165      4.1065    
  4.1065      4.3166      4.6874      5.0989      5.2453      4.8064      3.6752      2.0705     0.49157     -.48781    
  2.0873      3.2515      4.3834      5.0982      5.2533      4.9733      4.5430      4.1859      3.9872      3.9871    
  4.1858      4.5430      4.9733      5.2533      5.0981      4.3833      3.2516      2.0875      1.3506      1.3505    
  3.2515      4.2504      5.0060      5.2874      5.1126      4.6997      4.2993      4.0234      3.9255      4.0234    
  4.2993      4.6996      5.1126      5.2874      5.0059      4.2504      3.2516      2.4029      2.0705      2.4028    
  4.3834      5.0060      5.2893      5.1725      4.7925      4.3747      4.0467      3.8681      3.8681      4.0468    
  4.3748      4.7924      5.1724      5.2893      5.0060      4.3834      3.6751      3.2079      3.2078      3.6751    
  5.0982      5.2874      5.1725      4.8227      4.4118      4.0597      3.8258      3.7442      3.8258      4.0597    
  4.4119      4.8227      5.1724      5.2873      5.0983      4.7009      4.3128      4.1529      4.3126      4.7007    
  5.2533      5.1126      4.7925      4.4118      4.0638      3.8039      3.6665      3.6665      3.8039      4.0638    
  4.4119      4.7925      5.1126      5.2532      5.1880      5.0073      4.8609      4.8609      5.0072      5.1879    
  4.9733      4.6997      4.3747      4.0597      3.8039      3.6403      3.5844      3.6403      3.8039      4.0597    
  4.3748      4.6997      4.9733      5.1259      5.1502      5.1092      5.0835      5.1093      5.1503      5.1260    
  4.5430      4.2993      4.0467      3.8258      3.6665      3.5844      3.5844      3.6665      3.8258      4.0467    
  4.2993      4.5430      4.7403      4.8647      4.9157      4.9256      4.9256      4.9158      4.8648      4.7403    
  4.1859      4.0234      3.8681      3.7442      3.6665      3.6403      3.6665      3.7443      3.8681      4.0234    
  4.1858      4.3284      4.4324      4.4938      4.5217      4.5288      4.5216      4.4938      4.4325      4.3285    
  3.9872      3.9255      3.8681      3.8258      3.8039      3.8039      3.8258      3.8681      3.9255      3.9872    
  4.0401      4.0747      4.0895      4.0910      4.0884      4.0884      4.0910      4.0896      4.0747      4.0401    
  3.9871      4.0234      4.0468      4.0597      4.0638      4.0597      4.0467      4.0234      3.9872      3.9371    
  3.8760      3.8121      3.7563      3.7186      3.7053      3.7186      3.7563      3.8121      3.8759      3.9370    
  4.1858      4.2993      4.3748      4.4119      4.4119      4.3748      4.2993      4.1858      4.0401      3.8760    
  3.7138      3.5747      3.4753      3.4240      3.4240      3.4753      3.5748      3.7138      3.8760      4.0401    
  4.5430      4.6996      4.7924      4.8227      4.7925      4.6997      4.5430      4.3284      4.0747      3.8121    
  3.5747      3.3907      3.2765      3.2380      3.2764      3.3907      3.5747      3.8121      4.0748      4.3285    
  4.9733      5.1126      5.1724      5.1724      5.1126      4.9733      4.7403      4.4324      4.0895      3.7563    
  3.4753      3.2765      3.1747      3.1747      3.2764      3.4753      3.7563      4.0896      4.4324      4.7403    
  5.2533      5.2874      5.2893      5.2873      5.2532      5.1259      4.8647      4.4938      4.0910      3.7186    
  3.4240      3.2380      3.1747      3.2380      3.4241      3.7186      4.0910      4.4938      4.8647      5.1259    
  5.0981      5.0059      5.0060      5.0983      5.1880      5.1502      4.9157      4.5217      4.0884      3.7053    
  3.4240      3.2764      3.2764      3.4241      3.7053      4.0884      4.5217      4.9158      5.1503      5.1879    
  4.3833      4.2504      4.3834      4.7009      5.0073      5.1092      4.9256      4.5288      4.0884      3.7186    
  3.4753      3.3907      3.4753      3.7186      4.0884      4.5288      4.9257      5.1093      5.0072      4.7007    
  3.2516      3.2516      3.6751      4.3128      4.8609      5.0835      4.9256      4.5216      4.0910      3.7563    
  3.5748      3.5747      3.7563      4.0910      4.5217      4.9257      5.0835      4.8609      4.3127      3.6751    
  2.0875      2.4029      3.2079      4.1529      4.8609      5.1093      4.9158      4.4938      4.0896      3.8121    
  3.7138      3.8121      4.0896      4.4938      4.9158      5.1093      4.8609      4.1529      3.2079      2.4029    
  1.3506      2.0705      3.2078      4.3126      5.0072      5.1503      4.8648      4.4325      4.0747      3.8759    
  3.8760      4.0748      4.4324      4.8647      5.1503      5.0072      4.3127      3.2079      2.0704      1.3506    
  1.3505      2.4028      3.6751      4.7007      5.1879      5.1260      4.7403      4.3285      4.0401      3.9370    
  4.0401      4.3285      4.7403      5.1259      5.1879      4.7007      3.6751      2.4029      1.3506     0.94278    
  3.9046      4.6457      5.1535      5.2533      4.9855      4.5560      4.1661      3.9017      3.8085      3.9017    
  4.1661      4.5560      4.9855      5.2533      5.1536      4.6457      3.9047      3.2516      2.9923      3.2516    
  4.6457      5.1282      5.2970      5.1127      4.7130      4.3009      3.9811      3.8081      3.8082      3.9812    
  4.3009      4.7130      5.1126      5.2971      5.1283      4.6457      4.0656      3.6751      3.6752      4.0656    
  5.1535      5.2970      5.1525      4.7925      4.3839      4.0359      3.8056      3.7255      3.8056      4.0359    
  4.3839      4.7925      5.1525      5.2970      5.1535      4.8063      4.4576      4.3127      4.4576      4.8063    
  5.2533      5.1127      4.7925      4.4118      4.0637      3.8039      3.6665      3.6665      3.8039      4.0638    
  4.4119      4.7925      5.1126      5.2532      5.1880      5.0073      4.8609      4.8609      5.0072      5.1880    
  4.9855      4.7130      4.3839      4.0637      3.8034      3.6366      3.5795      3.6366      3.8034      4.0638    
  4.3839      4.7130      4.9855      5.1283      5.1377      5.0835      5.0526      5.0835      5.1377      5.1283    
  4.5560      4.3009      4.0359      3.8039      3.6366      3.5503      3.5503      3.6366      3.8039      4.0359    
  4.3009      4.5560      4.7609      4.8831      4.9256      4.9285      4.9286      4.9257      4.8831      4.7608    
  4.1661      3.9811      3.8056      3.6665      3.5795      3.5503      3.5795      3.6665      3.8056      3.9812    
  4.1661      4.3299      4.4503      4.5217      4.5528      4.5603      4.5528      4.5217      4.4503      4.3299    
  3.9017      3.8081      3.7255      3.6665      3.6366      3.6366      3.6665      3.7255      3.8082      3.9017    
  3.9884      4.0534      4.0910      4.1064      4.1100      4.1099      4.1063      4.0910      4.0534      3.9885    
  3.8085      3.8082      3.8056      3.8039      3.8034      3.8039      3.8056      3.8082      3.8085      3.8015    
  3.7837      3.7563      3.7263      3.7032      3.6945      3.7032      3.7263      3.7563      3.7837      3.8015    
  3.9017      3.9812      4.0359      4.0638      4.0638      4.0359      3.9812      3.9017      3.8015      3.6885    
  3.5747      3.4745      3.4008      3.3620      3.3621      3.4009      3.4746      3.5747      3.6885      3.8015    
  4.1661      4.3009      4.3839      4.4119      4.3839      4.3009      4.1661      3.9884      3.7837      3.5747    
  3.3867      3.2408      3.1498      3.1190      3.1498      3.2408      3.3868      3.5748      3.7837      3.9884    
  4.5560      4.7130      4.7925      4.7925      4.7130      4.5560      4.3299      4.0534      3.7563      3.4745    
  3.2408      3.0771      2.9939      2.9938      3.0771      3.2408      3.4746      3.7564      4.0534      4.3299    
  4.9855      5.1126      5.1525      5.1126      4.9855      4.7609      4.4503      4.0910      3.7263      3.4008    
  3.1498      2.9939      2.9413      2.9939      3.1498      3.4008      3.7263      4.0910      4.4503      4.7609    
  5.2533      5.2971      5.2970      5.2532      5.1283      4.8831      4.5217      4.1064      3.7032      3.3620    
  3.1190      2.9938      2.9939      3.1191      3.3621      3.7031      4.1063      4.5216      4.8831      5.1284    
  5.1536      5.1283      5.1535      5.1880      5.1377      4.9256      4.5528      4.1100      3.6945      3.3621    
  3.1498      3.0771      3.1498      3.3621      3.6945      4.1100      4.5528      4.9256      5.1378      5.1880    
  4.6457      4.6457      4.8063      5.0073      5.0835      4.9285      4.5603      4.1099      3.7032      3.4009    
  3.2408      3.2408      3.4008      3.7031      4.1100      4.5603      4.9286      5.0835      5.0072      4.8063    
  3.9047      4.0656      4.4576      4.8609      5.0526      4.9286      4.5528      4.1063      3.7263      3.4746    
  3.3868      3.4746      3.7263      4.1063      4.5528      4.9286      5.0526      4.8609      4.4576      4.0656    
  3.2516      3.6751      4.3127      4.8609      5.0835      4.9257      4.5217      4.0910      3.7563      3.5747    
  3.5748      3.7564      4.0910      4.5216      4.9256      5.0835      4.8609      4.3127      3.6751      3.2516    
  2.9923      3.6752      4.4576      5.0072      5.1377      4.8831      4.4503      4.0534      3.7837      3.6885    
  3.7837      4.0534      4.4503      4.8831      5.1378      5.0072      4.4576      3.6751      2.9923      2.7222    
  3.2516      4.0656      4.8063      5.1880      5.1283      4.7608      4.3299      3.9885      3.8015      3.8015    
  3.9884      4.3299      4.7609      5.1284      5.1880      4.8063      4.0656      3.2516      2.7222      2.7221    
  5.0138      5.2681      5.2561      4.9733      4.5560      4.1588      3.8570      3.6956      3.6956      3.8570    
  4.1588      4.5560      4.9733      5.2561      5.2682      5.0137      4.6457      4.3833      4.3833      4.6458    
  5.2681      5.2953      5.0790      4.6996      4.3009      3.9666      3.7475      3.6716      3.7475      3.9666    
  4.3009      4.6997      5.0791      5.2954      5.2681      5.0517      4.8063      4.7007      4.8064      5.0518    
  5.2561      5.0790      4.7487      4.3747      4.0359      3.7845      3.6520      3.6519      3.7844      4.0359    
  4.3748      4.7488      5.0791      5.2560      5.2453      5.1193      5.0072      5.0072      5.1194      5.2454    
  4.9733      4.6996      4.3747      4.0596      3.8039      3.6403      3.5844      3.6403      3.8039      4.0597    
  4.3748      4.6997      4.9733      5.1259      5.1502      5.1092      5.0835      5.1093      5.1503      5.1260    
  4.5560      4.3009      4.0359      3.8039      3.6366      3.5503      3.5503      3.6366      3.8039      4.0359    
  4.3009      4.5560      4.7609      4.8831      4.9256      4.9286      4.9286      4.9257      4.8831      4.7608    
  4.1588      3.9666      3.7845      3.6403      3.5503      3.5200      3.5503      3.6403      3.7844      3.9665    
  4.1588      4.3293      4.4547      4.5288      4.5603      4.5676      4.5603      4.5288      4.4546      4.3292    
  3.8570      3.7475      3.6520      3.5844      3.5503      3.5503      3.5844      3.6519      3.7475      3.8570    
  3.9605      4.0401      4.0884      4.1100      4.1163      4.1163      4.1100      4.0884      4.0401      3.9605    
  3.6956      3.6716      3.6519      3.6403      3.6366      3.6403      3.6519      3.6717      3.6956      3.7158    
  3.7244      3.7186      3.7032      3.6878      3.6815      3.6878      3.7031      3.7186      3.7244      3.7159    
  3.6956      3.7475      3.7844      3.8039      3.8039      3.7844      3.7475      3.6956      3.6306      3.5551    
  3.4753      3.4008      3.3432      3.3117      3.3117      3.3431      3.4008      3.4753      3.5551      3.6306    
  3.8570      3.9666      4.0359      4.0597      4.0359      3.9665      3.8570      3.7158      3.5551      3.3907    
  3.2408      3.1221      3.0467      3.0209      3.0467      3.1221      3.2408      3.3907      3.5551      3.7159    
  4.1588      4.3009      4.3748      4.3748      4.3009      4.1588      3.9605      3.7244      3.4753      3.2408    
  3.0462      2.9094      2.8394      2.8394      2.9094      3.0462      3.2408      3.4753      3.7244      3.9605    
  4.5560      4.6997      4.7488      4.6997      4.5560      4.3293      4.0401      3.7186      3.4008      3.1221    
  2.9094      2.7780      2.7339      2.7780      2.9094      3.1221      3.4009      3.7186      4.0401      4.3292    
  4.9733      5.0791      5.0791      4.9733      4.7609      4.4547      4.0884      3.7032      3.3432      3.0467    
  2.8394      2.7339      2.7339      2.8395      3.0467      3.3431      3.7032      4.0884      4.4547      4.7609    
  5.2561      5.2954      5.2560      5.1259      4.8831      4.5288      4.1100      3.6878      3.3117      3.0209    
  2.8394      2.7780      2.8395      3.0209      3.3117      3.6878      4.1099      4.5288      4.8832      5.1260    
  5.2682      5.2681      5.2453      5.1502      4.9256      4.5603      4.1163      3.6815      3.3117      3.0467    
  2.9094      2.9094      3.0467      3.3117      3.6815      4.1163      4.5603      4.9256      5.1503      5.2454    
  5.0137      5.0517      5.1193      5.1092      4.9286      4.5676      4.1163      3.6878      3.3431      3.1221    
  3.0462      3.1221      3.3431      3.6878      4.1163      4.5676      4.9286      5.1092      5.1193      5.0517    
  4.6457      4.8063      5.0072      5.0835      4.9286      4.5603      4.1100      3.7031      3.4008      3.2408    
  3.2408      3.4009      3.7032      4.1099      4.5603      4.9286      5.0835      5.0073      4.8064      4.6457    
  4.3833      4.7007      5.0072      5.1093      4.9257      4.5288      4.0884      3.7186      3.4753      3.3907    
  3.4753      3.7186      4.0884      4.5288      4.9256      5.1092      5.0073      4.7008      4.3834      4.2504    
  4.3833      4.8064      5.1194      5.1503      4.8831      4.4546      4.0401      3.7244      3.5551      3.5551    
  3.7244      4.0401      4.4547      4.8832      5.1503      5.1193      4.8064      4.3834      4.0880      4.0879    
  4.6458      5.0518      5.2454      5.1260      4.7608      4.3292      3.9605      3.7159      3.6306      3.7159    
  3.9605      4.3292      4.7609      5.1260      5.2454      5.0517      4.6457      4.2504      4.0879      4.2505    
  5.3231      5.2145      4.9260      4.5430      4.1661      3.8570      3.6573      3.5886      3.6573      3.8570    
  4.1661      4.5430      4.9260      5.2145      5.3232      5.2682      5.1535      5.0981      5.1535      5.2681    
  5.2145      4.9895      4.6559      4.2993      3.9811      3.7475      3.6253      3.6253      3.7475      3.9811    
  4.2993      4.6558      4.9894      5.2145      5.2856      5.2454      5.1880      5.1879      5.2453      5.2855    
  4.9260      4.6559      4.3454      4.0467      3.8056      3.6520      3.5996      3.6520      3.8056      4.0467    