fcc Si                                  
   3.70000000000000     
     0.500000    0.500000    0.000000
     0.000000    0.500000    0.500000
     0.500000    0.000000    0.500000
   Si
     1
Direct
  0.000000  0.000000  0.000000
 
   20   20   20
 -.22437322711E+01 -.16185613799E+01 0.22270217110E-01 0.20872760935E+01 0.39046526245E+01
 0.50137994772E+01 0.53231498196E+01 0.50741229652E+01 0.46608318210E+01 0.43527214220E+01
 0.42404566232E+01 0.43527214220E+01 0.46608318210E+01 0.50741229652E+01 0.53231498196E+01
 0.50137994772E+01 0.39046526245E+01 0.20872760935E+01 0.22270217110E-01 -.16185613799E+01
 -.16185613799E+01 -.48746316351E+00 0.13506540035E+01 0.32515344450E+01 0.46456953913E+01
 0.52681528918E+01 0.52145405305E+01 0.48238627727E+01 0.44476046567E+01 0.42321447562E+01
 0.42321975567E+01 0.44476715304E+01 0.48238176564E+01 0.52144351038E+01 0.52681591844E+01
 0.46458374895E+01 0.32516067401E+01 0.13504708440E+01 -.48779794762E+00 -.16187302778E+01
 0.22270217110E-01 0.13506540035E+01 0.29923258813E+01 0.43833495634E+01 0.51535109144E+01
 0.52560524201E+01 0.49260299621E+01 0.45099207175E+01 0.42110445845E+01 0.41032017363E+01
 0.42110352868E+01 0.45098979570E+01 0.49260070292E+01 0.52560472835E+01 0.51535119216E+01
 0.43833245361E+01 0.29922711090E+01 0.13505998304E+01 0.22241404316E-01 -.48779794762E+00
 0.20872760935E+01 0.32515344450E+01 0.43833495634E+01 0.50982313148E+01 0.52532735781E+01
 0.49732649350E+01 0.45429867858E+01 0.41858607706E+01 0.39871935557E+01 0.39871539870E+01
 0.41857967732E+01 0.45429861787E+01 0.49733185259E+01 0.52532709256E+01 0.50981253652E+01
 0.43832684495E+01 0.32516397953E+01 0.20875180163E+01 0.13505998304E+01 0.13504708440E+01
 0.39046526245E+01 0.46456953913E+01 0.51535109144E+01 0.52532735781E+01 0.49855378269E+01
 0.45559907721E+01 0.41661202432E+01 0.39016822678E+01 0.38085113218E+01 0.39016920494E+01
 0.41661191483E+01 0.45559837209E+01 0.49855529315E+01 0.52533114932E+01 0.51535450483E+01
 0.46457219301E+01 0.39046874801E+01 0.32516397953E+01 0.29922711090E+01 0.32516067401E+01
 0.50137994772E+01 0.52681528918E+01 0.52560524201E+01 0.49732649350E+01 0.45559907721E+01
 0.41587745578E+01 0.38569932165E+01 0.36955835344E+01 0.36956113411E+01 0.38570336105E+01
 0.41587744442E+01 0.45559798119E+01 0.49733102213E+01 0.52561410072E+01 0.52681910900E+01
 0.50137331611E+01 0.46457219301E+01 0.43832684495E+01 0.43833245361E+01 0.46458374895E+01
 0.53231498196E+01 0.52145405305E+01 0.49260299621E+01 0.45429867858E+01 0.41661202432E+01
 0.38569932165E+01 0.36572878621E+01 0.35886389273E+01 0.36573106896E+01 0.38570120399E+01
 0.41661155808E+01 0.45429633400E+01 0.49260003676E+01 0.52145206748E+01 0.53231540012E+01
 0.52681910900E+01 0.51535450483E+01 0.50981253652E+01 0.51535119216E+01 0.52681591844E+01
 0.50741229652E+01 0.48238627727E+01 0.45099207175E+01 0.41858607706E+01 0.39016822678E+01
 0.36955835344E+01 0.35886389273E+01 0.35886521785E+01 0.36956024793E+01 0.39016681838E+01
 0.41858005175E+01 0.45098449901E+01 0.48238202342E+01 0.50741480939E+01 0.52145206748E+01
 0.52561410072E+01 0.52533114932E+01 0.52532709256E+01 0.52560472835E+01 0.52144351038E+01
 0.46608318210E+01 0.44476046567E+01 0.42110445845E+01 0.39871935557E+01 0.38085113218E+01
 0.36956113411E+01 0.36573106896E+01 0.36956024793E+01 0.38085014276E+01 0.39871896476E+01
 0.42110466278E+01 0.44476120906E+01 0.46608411459E+01 0.48238202342E+01 0.49260003676E+01
 0.49733102213E+01 0.49855529315E+01 0.49733185259E+01 0.49260070292E+01 0.48238176564E+01
 0.43527214220E+01 0.42321447562E+01 0.41032017363E+01 0.39871539870E+01 0.39016920494E+01
 0.38570336105E+01 0.38570120399E+01 0.39016681838E+01 0.39871896476E+01 0.41032878600E+01
 0.42322068298E+01 0.43527099250E+01 0.44476120906E+01 0.45098449901E+01 0.45429633400E+01
 0.45559798119E+01 0.45559837209E+01 0.45429861787E+01 0.45098979570E+01 0.44476715304E+01
 0.42404566232E+01 0.42321975567E+01 0.42110352868E+01 0.41857967732E+01 0.41661191483E+01
 0.41587744442E+01 0.41661155808E+01 0.41858005175E+01 0.42110466278E+01 0.42322068298E+01
 0.42404623322E+01 0.42322068298E+01 0.42110466278E+01 0.41858005175E+01 0.41661155808E+01
 0.41587744442E+01 0.41661191483E+01 0.41857967732E+01 0.42110352868E+01 0.42321975567E+01
 0.43527214220E+01 0.44476715304E+01 0.45098979570E+01 0.45429861787E+01 0.45559837209E+01
 0.45559798119E+01 0.45429633400E+01 0.45098449901E+01 0.44476120906E+01 0.43527099250E+01
 0.42322068298E+01 0.41032878600E+01 0.39871896476E+01 0.39016681838E+01 0.38570120399E+01
 0.38570336105E+01 0.39016920494E+01 0.39871539870E+01 0.41032017363E+01 0.42321447562E+01
 0.46608318210E+01 0.48238176564E+01 0.49260070292E+01 0.49733185259E+01 0.49855529315E+01
 0.49733102213E+01 0.49260003676E+01 0.48238202342E+01 0.46608411459E+01 0.44476120906E+01
 0.42110466278E+01 0.39871896476E+01 0.38085014276E+01 0.36956024793E+01 0.36573106896E+01
 0.36956113411E+01 0.38085113218E+01 0.39871935557E+01 0.42110445845E+01 0.44476046567E+01
 0.50741229652E+01 0.52144351038E+01 0.52560472835E+01 0.52532709256E+01 0.52533114932E+01
 0.52561410072E+01 0.52145206748E+01 0.50741480939E+01 0.48238202342E+01 0.45098449901E+01
 0.41858005175E+01 0.39016681838E+01 0.36956024793E+01 0.35886521785E+01 0.35886389273E+01
 0.36955835344E+01 0.39016822678E+01 0.41858607706E+01 0.45099207175E+01 0.48238627727E+01
 0.53231498196E+01 0.52681591844E+01 0.51535119216E+01 0.50981253652E+01 0.51535450483E+01
 0.52681910900E+01 0.53231540012E+01 0.52145206748E+01 0.49260003676E+01 0.45429633400E+01
 0.41661155808E+01 0.38570120399E+01 0.36573106896E+01 0.35886389273E+01 0.36572878621E+01
 0.38569932165E+01 0.41661202432E+01 0.45429867858E+01 0.49260299621E+01 0.52145405305E+01
 0.50137994772E+01 0.46458374895E+01 0.43833245361E+01 0.43832684495E+01 0.46457219301E+01
 0.50137331611E+01 0.52681910900E+01 0.52561410072E+01 0.49733102213E+01 0.45559798119E+01
 0.41587744442E+01 0.38570336105E+01 0.36956113411E+01 0.36955835344E+01 0.38569932165E+01
 0.41587745578E+01 0.45559907721E+01 0.49732649350E+01 0.52560524201E+01 0.52681528918E+01
 0.39046526245E+01 0.32516067401E+01 0.29922711090E+01 0.32516397953E+01 0.39046874801E+01
 0.46457219301E+01 0.51535450483E+01 0.52533114932E+01 0.49855529315E+01 0.45559837209E+01
 0.41661191483E+01 0.39016920494E+01 0.38085113218E+01 0.39016822678E+01 0.41661202432E+01
 0.45559907721E+01 0.49855378269E+01 0.52532735781E+01 0.51535109144E+01 0.46456953913E+01
 0.20872760935E+01 0.13504708440E+01 0.13505998304E+01 0.20875180163E+01 0.32516397953E+01
 0.43832684495E+01 0.50981253652E+01 0.52532709256E+01 0.49733185259E+01 0.45429861787E+01
 0.41857967732E+01 0.39871539870E+01 0.39871935557E+01 0.41858607706E+01 0.45429867858E+01
 0.49732649350E+01 0.52532735781E+01 0.50982313148E+01 0.43833495634E+01 0.32515344450E+01
 0.22270217110E-01 -.48779794762E+00 0.22241404316E-01 0.13505998304E+01 0.29922711090E+01
 0.43833245361E+01 0.51535119216E+01 0.52560472835E+01 0.49260070292E+01 0.45098979570E+01
 0.42110352868E+01 0.41032017363E+01 0.42110445845E+01 0.45099207175E+01 0.49260299621E+01
 0.52560524201E+01 0.51535109144E+01 0.43833495634E+01 0.29923258813E+01 0.13506540035E+01
 -.16185613799E+01 -.16187302778E+01 -.48779794762E+00 0.13504708440E+01 0.32516067401E+01
 0.46458374895E+01 0.52681591844E+01 0.52144351038E+01 0.48238176564E+01 0.44476715304E+01
 0.42321975567E+01 0.42321447562E+01 0.44476046567E+01 0.48238627727E+01 0.52145405305E+01
 0.52681528918E+01 0.46456953913E+01 0.32515344450E+01 0.13506540035E+01 -.48746316351E+00
 -.16185745505E+01 -.48748432004E+00 0.13506419153E+01 0.32515315213E+01 0.46456903823E+01
 0.52681474354E+01 0.52145438708E+01 0.48238698813E+01 0.44476039383E+01 0.42321407931E+01
 0.42322025670E+01 0.44476812841E+01 0.48238195357E+01 0.52144328978E+01 0.52681660124E+01
 0.46458509773E+01 0.32516146404E+01 0.13504739727E+01 -.48779191961E+00 -.16187280510E+01
 -.48748432004E+00 0.94317569548E+00 0.27222868338E+01 0.42503621446E+01 0.51282106588E+01
 0.52953448451E+01 0.49895310586E+01 0.45734079370E+01 0.42712152347E+01 0.41618173868E+01
 0.42711906152E+01 0.45733265789E+01 0.49894550786E+01 0.52954062798E+01 0.51284056330E+01
 0.42504738567E+01 0.27221094548E+01 0.94276643310E+00 -.48782486055E+00 -.10355253009E+01
 0.13506419153E+01 0.27222868338E+01 0.40879911313E+01 0.50059364848E+01 0.52969935928E+01
 0.50790261723E+01 0.46558816287E+01 0.42918246699E+01 0.40874211634E+01 0.40873634458E+01
 0.42917051947E+01 0.46558200383E+01 0.50790937710E+01 0.52971177810E+01 0.50059671690E+01
 0.40878780046E+01 0.27221317127E+01 0.13505524398E+01 0.49156188055E+00 0.49158328916E+00
 0.32515315213E+01 0.42503621446E+01 0.50059364848E+01 0.52873852029E+01 0.51126442142E+01
 0.46996501539E+01 0.42992824762E+01 0.40234096000E+01 0.39255122859E+01 0.40234288727E+01
 0.42992865315E+01 0.46996281911E+01 0.51126163388E+01 0.52873593160E+01 0.50059220764E+01
 0.42504006101E+01 0.32516433973E+01 0.24029523679E+01 0.20704855561E+01 0.24028423697E+01
 0.46456903823E+01 0.51282106588E+01 0.52969935928E+01 0.51126442142E+01 0.47130503328E+01
 0.43008676790E+01 0.39811356497E+01 0.38081310936E+01 0.38081817196E+01 0.39812078587E+01
 0.43008463919E+01 0.47129594990E+01 0.51126112535E+01 0.52970701382E+01 0.51283217070E+01
 0.46457471961E+01 0.40656267517E+01 0.36751420515E+01 0.36751528823E+01 0.40656302745E+01
 0.52681474354E+01 0.52953448451E+01 0.50790261723E+01 0.46996501539E+01 0.43008676790E+01
 0.39665848888E+01 0.37475152995E+01 0.36716335749E+01 0.37475026956E+01 0.39665541504E+01
 0.43008412374E+01 0.46996642839E+01 0.50790786230E+01 0.52953844883E+01 0.52681355089E+01
 0.50517238254E+01 0.48062989365E+01 0.47006852668E+01 0.48063375605E+01 0.50517711026E+01
 0.52145438708E+01 0.49895310586E+01 0.46558816287E+01 0.42992824762E+01 0.39811356497E+01
 0.37475152995E+01 0.36252666039E+01 0.36252544932E+01 0.37474989462E+01 0.39811375488E+01
 0.42992822203E+01 0.46558313775E+01 0.49894348878E+01 0.52144848465E+01 0.52855642961E+01
 0.52453857368E+01 0.51879752995E+01 0.51879130713E+01 0.52452675215E+01 0.52855150159E+01
 0.48238698813E+01 0.45734079370E+01 0.42918246699E+01 0.40234096000E+01 0.38081310936E+01
 0.36716335749E+01 0.36252544932E+01 0.36716815042E+01 0.38081753292E+01 0.40233860668E+01
 0.42917155028E+01 0.45732742178E+01 0.48238090956E+01 0.50059551206E+01 0.50990745614E+01
 0.51260492306E+01 0.51283690351E+01 0.51259262762E+01 0.50989221929E+01 0.50058875888E+01
 0.44476039383E+01 0.42712152347E+01 0.40874211634E+01 0.39255122859E+01 0.38081817196E+01
 0.37475026956E+01 0.37474989462E+01 0.38081753292E+01 0.39255090026E+01 0.40874175460E+01
 0.42712085500E+01 0.44476036531E+01 0.45906528310E+01 0.46873670721E+01 0.47402930069E+01
 0.47609406670E+01 0.47609398155E+01 0.47402869092E+01 0.46873533876E+01 0.45906409683E+01
 0.42321407931E+01 0.41618173868E+01 0.40873634458E+01 0.40234288727E+01 0.39812078587E+01
 0.39665541504E+01 0.39811375488E+01 0.40233860668E+01 0.40874175460E+01 0.41619278243E+01
 0.42322118385E+01 0.42855561206E+01 0.43165433290E+01 0.43284393002E+01 0.43298780545E+01
 0.43292390777E+01 0.43299120838E+01 0.43285026825E+01 0.43166081623E+01 0.42855691786E+01
 0.42322025670E+01 0.42711906152E+01 0.42917051947E+01 0.42992865315E+01 0.43008463919E+01
 0.43008412374E+01 0.42992822203E+01 0.42917155028E+01 0.42712085500E+01 0.42322118385E+01
 0.41748063133E+01 0.41065381048E+01 0.40401072150E+01 0.39883993159E+01 0.39604551746E+01
 0.39604523134E+01 0.39883921512E+01 0.40401019413E+01 0.41065393619E+01 0.41748077390E+01
 0.44476812841E+01 0.45733265789E+01 0.46558200383E+01 0.46996281911E+01 0.47129594990E+01
 0.46996642839E+01 0.46558313775E+01 0.45732742178E+01 0.44476036531E+01 0.42855561206E+01
 0.41065381048E+01 0.39370482882E+01 0.38015469472E+01 0.37158637163E+01 0.36868022001E+01
 0.37158630304E+01 0.38015123663E+01 0.39369780000E+01 0.41064895609E+01 0.42855826575E+01
 0.48238195357E+01 0.49894550786E+01 0.50790937710E+01 0.51126163388E+01 0.51126112535E+01
 0.50790786230E+01 0.49894348878E+01 0.48238090956E+01 0.45906528310E+01 0.43165433290E+01
 0.40401072150E+01 0.38015469472E+01 0.36305764224E+01 0.35425688013E+01 0.35425769866E+01
 0.36305932634E+01 0.38015547686E+01 0.40400973059E+01 0.43165243467E+01 0.45906432356E+01
 0.52144328978E+01 0.52954062798E+01 0.52971177810E+01 0.52873593160E+01 0.52970701382E+01
 0.52953844883E+01 0.52144848465E+01 0.50059551206E+01 0.46873670721E+01 0.43284393002E+01
 0.39883993159E+01 0.37158637163E+01 0.35425688013E+01 0.34834721347E+01 0.35425334787E+01
 0.37158643192E+01 0.39884659683E+01 0.43285033887E+01 0.46873520330E+01 0.50058778774E+01
 0.52681660124E+01 0.51284056330E+01 0.50059671690E+01 0.50059220764E+01 0.51283217070E+01
 0.52681355089E+01 0.52855642961E+01 0.50990745614E+01 0.47402930069E+01 0.43298780545E+01
 0.39604551746E+01 0.36868022001E+01 0.35425769866E+01 0.35425334787E+01 0.36867299891E+01
 0.39604439830E+01 0.43299212977E+01 0.47403071329E+01 0.50990249369E+01 0.52855179471E+01
 0.46458509773E+01 0.42504738567E+01 0.40878780046E+01 0.42504006101E+01 0.46457471961E+01
 0.50517238254E+01 0.52453857368E+01 0.51260492306E+01 0.47609406670E+01 0.43292390777E+01
 0.39604523134E+01 0.37158630304E+01 0.36305932634E+01 0.37158643192E+01 0.39604439830E+01
 0.43291981420E+01 0.47608602106E+01 0.51259683451E+01 0.52453681059E+01 0.50517893815E+01
 0.32516146404E+01 0.27221094548E+01 0.27221317127E+01 0.32516433973E+01 0.40656267517E+01
 0.48062989365E+01 0.51879752995E+01 0.51283690351E+01 0.47609398155E+01 0.43299120838E+01
 0.39883921512E+01 0.38015123663E+01 0.38015547686E+01 0.39884659683E+01 0.43299212977E+01
 0.47608602106E+01 0.51282774023E+01 0.51879529846E+01 0.48063331982E+01 0.40656426004E+01
 0.13504739727E+01 0.94276643310E+00 0.13505524398E+01 0.24029523679E+01 0.36751420515E+01
 0.47006852668E+01 0.51879130713E+01 0.51259262762E+01 0.47402869092E+01 0.43285026825E+01
 0.40401019413E+01 0.39369780000E+01 0.40400973059E+01 0.43285033887E+01 0.47403071329E+01
 0.51259683451E+01 0.51879529846E+01 0.47006818240E+01 0.36750751012E+01 0.24028479818E+01
 -.48779191961E+00 -.48782486055E+00 0.49156188055E+00 0.20704855561E+01 0.36751528823E+01
 0.48063375605E+01 0.52452675215E+01 0.50989221929E+01 0.46873533876E+01 0.43166081623E+01
 0.41065393619E+01 0.41064895609E+01 0.43165243467E+01 0.46873520330E+01 0.50990249369E+01
 0.52453681059E+01 0.48063331982E+01 0.36750751012E+01 0.20704488475E+01 0.49160103135E+00
 -.16187280510E+01 -.10355253009E+01 0.49158328916E+00 0.24028423697E+01 0.40656302745E+01
 0.50517711026E+01 0.52855150159E+01 0.50058875888E+01 0.45906409683E+01 0.42855691786E+01
 0.41748077390E+01 0.42855826575E+01 0.45906432356E+01 0.50058778774E+01 0.52855179471E+01
 0.50517893815E+01 0.40656426004E+01 0.24028479818E+01 0.49160103135E+00 -.10355021823E+01
 0.22241350791E-01 0.13506256883E+01 0.29923222711E+01 0.43833588159E+01 0.51535107961E+01
 0.52560506859E+01 0.49260423400E+01 0.45099345838E+01 0.42110428059E+01 0.41031979695E+01
 0.42110478387E+01 0.45099131158E+01 0.49260057062E+01 0.52560431010E+01 0.51535250726E+01
 0.43833423273E+01 0.29922718079E+01 0.13505911057E+01 0.22238321244E-01 -.48780729296E+00
 0.13506256883E+01 0.27222790073E+01 0.40879989981E+01 0.50059481903E+01 0.52969980774E+01
 0.50790295691E+01 0.46558905690E+01 0.42918315815E+01 0.40874203679E+01 0.40873639717E+01
 0.42917132239E+01 0.46558260676E+01 0.50790911528E+01 0.52971162752E+01 0.50059739250E+01
 0.40878826769E+01 0.27221246523E+01 0.13505404594E+01 0.49155250475E+00 0.49157136044E+00
 0.29923222711E+01 0.40879989981E+01 0.49375379971E+01 0.52893007167E+01 0.51524902169E+01
 0.47487197752E+01 0.43454300158E+01 0.40659027288E+01 0.39664298225E+01 0.40658903716E+01
 0.43453987617E+01 0.47486981648E+01 0.51525145543E+01 0.52893436303E+01 0.49375354779E+01
 0.40879411322E+01 0.29922646878E+01 0.20704169062E+01 0.17107489974E+01 0.20704401797E+01
 0.43833588159E+01 0.50059481903E+01 0.52893007167E+01 0.51724810504E+01 0.47924750573E+01
 0.43747438686E+01 0.40467391855E+01 0.38680934173E+01 0.38681414933E+01 0.40468227719E+01
 0.43747649590E+01 0.47924233649E+01 0.51724241930E+01 0.52892904137E+01 0.50059903989E+01
 0.43834375467E+01 0.36751643761E+01 0.32078826512E+01 0.32078462475E+01 0.36750821683E+01
 0.51535107961E+01 0.52969980774E+01 0.51524902169E+01 0.47924750573E+01 0.43839468436E+01
 0.40359380516E+01 0.38056224066E+01 0.37254596023E+01 0.38056359892E+01 0.40359428752E+01
 0.43839385167E+01 0.47924737197E+01 0.51525083453E+01 0.52970248222E+01 0.51535398320E+01
 0.48063591899E+01 0.44576199522E+01 0.43127166736E+01 0.44575938620E+01 0.48063263457E+01
 0.52560506859E+01 0.50790295691E+01 0.47487197752E+01 0.43747438686E+01 0.40359380516E+01
 0.37844747926E+01 0.36519737542E+01 0.36519414606E+01 0.37844068554E+01 0.40358955080E+01
 0.43747662966E+01 0.47487861602E+01 0.50790783146E+01 0.52560326539E+01 0.52452742870E+01
 0.51192601217E+01 0.50071994251E+01 0.50072363243E+01 0.51193471861E+01 0.52453541728E+01
 0.49260423400E+01 0.46558905690E+01 0.43454300158E+01 0.40467391855E+01 0.38056224066E+01
 0.36519737542E+01 0.35995897895E+01 0.36519762218E+01 0.38056260014E+01 0.40467328410E+01
 0.43454015010E+01 0.46558425101E+01 0.49259933239E+01 0.50989990191E+01 0.51586472651E+01
 0.51502676852E+01 0.51377521473E+01 0.51502746142E+01 0.51586637706E+01 0.50990314241E+01
 0.45099345838E+01 0.42918315815E+01 0.40659027288E+01 0.38680934173E+01 0.37254596023E+01
 0.36519414606E+01 0.36519762218E+01 0.37255325109E+01 0.38681333393E+01 0.40658560348E+01
 0.42917168391E+01 0.45098342724E+01 0.46873514411E+01 0.48061927932E+01 0.48647895829E+01
 0.48831854062E+01 0.48831490232E+01 0.48647060756E+01 0.48061287818E+01 0.46873685919E+01
 0.42110428059E+01 0.40874203679E+01 0.39664298225E+01 0.38681414933E+01 0.38056359892E+01
 0.37844068554E+01 0.38056260014E+01 0.38681333393E+01 0.39664303526E+01 0.40874262830E+01
 0.42110511246E+01 0.43165322181E+01 0.43906914715E+01 0.44324278468E+01 0.44502637732E+01
 0.44546866014E+01 0.44502732887E+01 0.44324324935E+01 0.43906839130E+01 0.43165210439E+01
 0.41031979695E+01 0.40873639717E+01 0.40658903716E+01 0.40468227719E+01 0.40359428752E+01
 0.40358955080E+01 0.40467328410E+01 0.40658560348E+01 0.40874262830E+01 0.41033074089E+01
 0.41065489576E+01 0.40954102483E+01 0.40746987985E+01 0.40533356870E+01 0.40400872447E+01
 0.40401189346E+01 0.40534109304E+01 0.40747671361E+01 0.40954176875E+01 0.41064762578E+01
 0.42110478387E+01 0.42917132239E+01 0.43453987617E+01 0.43747649590E+01 0.43839385167E+01
 0.43747662966E+01 0.43454015010E+01 0.42917168391E+01 0.42110511246E+01 0.41065489576E+01
 0.39892715987E+01 0.38759949858E+01 0.37836708227E+01 0.37243955023E+01 0.37041154688E+01
 0.37243924438E+01 0.37836672155E+01 0.38759931578E+01 0.39892701301E+01 0.41065466127E+01
 0.45099131158E+01 0.46558260676E+01 0.47486981648E+01 0.47924233649E+01 0.47924737197E+01
 0.47487861602E+01 0.46558425101E+01 0.45098342724E+01 0.43165322181E+01 0.40954102483E+01
 0.38759949858E+01 0.36885444618E+01 0.35551461512E+01 0.34868028967E+01 0.34867957321E+01
 0.35551149711E+01 0.36884863064E+01 0.38759496523E+01 0.40954356823E+01 0.43166264912E+01
 0.49260057062E+01 0.50790911528E+01 0.51525145543E+01 0.51724241930E+01 0.51525083453E+01
 0.50790783146E+01 0.49259933239E+01 0.46873514411E+01 0.43906914715E+01 0.40746987985E+01
 0.37836708227E+01 0.35551461512E+01 0.34119644468E+01 0.33635491095E+01 0.34119653576E+01
 0.35551520299E+01 0.37836771379E+01 0.40746971262E+01 0.43906834574E+01 0.46873519074E+01
 0.52560431010E+01 0.52971162752E+01 0.52893436303E+01 0.52892904137E+01 0.52970248222E+01
 0.52560326539E+01 0.50989990191E+01 0.48061927932E+01 0.44324278468E+01 0.40533356870E+01
 0.37243955023E+01 0.34868028967E+01 0.33635491095E+01 0.33635234378E+01 0.34867762227E+01
 0.37244392050E+01 0.40534176601E+01 0.44324434281E+01 0.48061099101E+01 0.50989100337E+01
 0.51535250726E+01 0.50059739250E+01 0.49375354779E+01 0.50059903989E+01 0.51535398320E+01
 0.52452742870E+01 0.51586472651E+01 0.48647895829E+01 0.44502637732E+01 0.40400872447E+01
 0.37041154688E+01 0.34867957321E+01 0.34119653576E+01 0.34867762227E+01 0.37040932257E+01
 0.40400780917E+01 0.44502720169E+01 0.48648079380E+01 0.51586629976E+01 0.52452761929E+01
 0.43833423273E+01 0.40878826769E+01 0.40879411322E+01 0.43834375467E+01 0.48063591899E+01
 0.51192601217E+01 0.51502676852E+01 0.48831854062E+01 0.44546866014E+01 0.40401189346E+01
 0.37243924438E+01 0.35551149711E+01 0.35551520299E+01 0.37244392050E+01 0.40400780917E+01
 0.44545820863E+01 0.48831428382E+01 0.51503464849E+01 0.51193645812E+01 0.48063594874E+01
 0.29922718079E+01 0.27221246523E+01 0.29922646878E+01 0.36751643761E+01 0.44576199522E+01
 0.50071994251E+01 0.51377521473E+01 0.48831490232E+01 0.44502732887E+01 0.40534109304E+01
 0.37836672155E+01 0.36884863064E+01 0.37836771379E+01 0.40534176601E+01 0.44502720169E+01
 0.48831428382E+01 0.51377379286E+01 0.50071721305E+01 0.44575930448E+01 0.36751575748E+01
 0.13505911057E+01 0.13505404594E+01 0.20704169062E+01 0.32078826512E+01 0.43127166736E+01
 0.50072363243E+01 0.51502746142E+01 0.48647060756E+01 0.44324324935E+01 0.40747671361E+01
 0.38759931578E+01 0.38759496523E+01 0.40746971262E+01 0.44324434281E+01 0.48648079380E+01
 0.51503464849E+01 0.50071721305E+01 0.43125780644E+01 0.32078273043E+01 0.20704791737E+01
 0.22238321244E-01 0.49155250475E+00 0.17107489974E+01 0.32078462475E+01 0.44575938620E+01
 0.51193471861E+01 0.51586637706E+01 0.48061287818E+01 0.43906839130E+01 0.40954176875E+01
 0.39892701301E+01 0.40954356823E+01 0.43906834574E+01 0.48061099101E+01 0.51586629976E+01
 0.51193645812E+01 0.44575930448E+01 0.32078273043E+01 0.17107484702E+01 0.49157045536E+00
 -.48780729296E+00 0.49157136044E+00 0.20704401797E+01 0.36750821683E+01 0.48063263457E+01
 0.52453541728E+01 0.50990314241E+01 0.46873685919E+01 0.43165210439E+01 0.41064762578E+01
 0.41065466127E+01 0.43166264912E+01 0.46873519074E+01 0.50989100337E+01 0.52452761929E+01
 0.48063594874E+01 0.36751575748E+01 0.20704791737E+01 0.49157045536E+00 -.48781329376E+00
 0.20872541115E+01 0.32515215882E+01 0.43833646365E+01 0.50982492389E+01 0.52532716654E+01
 0.49732624724E+01 0.45430020116E+01 0.41858729837E+01 0.39871855342E+01 0.39871479800E+01
 0.41858106183E+01 0.45429972760E+01 0.49733087015E+01 0.52532631636E+01 0.50981384576E+01
 0.43832789203E+01 0.32516264117E+01 0.20875007343E+01 0.13505977183E+01 0.13504655091E+01
 0.32515215882E+01 0.42503690982E+01 0.50059625518E+01 0.52874053918E+01 0.51126468127E+01
 0.46996527763E+01 0.42992944736E+01 0.40234153505E+01 0.39255057618E+01 0.40234275966E+01
 0.42992963929E+01 0.46996308056E+01 0.51126057024E+01 0.52873544506E+01 0.50059289169E+01
 0.42503980592E+01 0.32516220767E+01 0.24029313382E+01 0.20704766054E+01 0.24028339619E+01
 0.43833646365E+01 0.50059625518E+01 0.52893187037E+01 0.51724895809E+01 0.47924733585E+01
 0.43747433591E+01 0.40467426649E+01 0.38680928324E+01 0.38681363327E+01 0.40468214426E+01
 0.43747672378E+01 0.47924203686E+01 0.51724164148E+01 0.52892870505E+01 0.50059903397E+01
 0.43834300856E+01 0.36751496938E+01 0.32078729987E+01 0.32078460609E+01 0.36750851730E+01
 0.50982492389E+01 0.52874053918E+01 0.51724895809E+01 0.48226523772E+01 0.44118265959E+01
 0.40596567906E+01 0.38257779237E+01 0.37442232161E+01 0.38257920179E+01 0.40597134383E+01
 0.44119088539E+01 0.48226773537E+01 0.51724075499E+01 0.52872931027E+01 0.50982525163E+01
 0.47008520752E+01 0.43127670123E+01 0.41528999234E+01 0.43126048301E+01 0.47006974320E+01
 0.52532716654E+01 0.51126468127E+01 0.47924733585E+01 0.44118265959E+01 0.40637594534E+01
 0.38039127624E+01 0.36665025426E+01 0.36664800224E+01 0.38038922424E+01 0.40638064743E+01
 0.44119136012E+01 0.47925038064E+01 0.51125883269E+01 0.52532039109E+01 0.51879597286E+01
 0.50072545219E+01 0.48609304341E+01 0.48608827092E+01 0.50071705781E+01 0.51879443154E+01
 0.49732624724E+01 0.46996527763E+01 0.43747433591E+01 0.40596567906E+01 0.38039127624E+01
 0.36402920094E+01 0.35843730659E+01 0.36402718117E+01 0.38038894256E+01 0.40596517224E+01
 0.43747729772E+01 0.46997093300E+01 0.49733005405E+01 0.51259117695E+01 0.51502021931E+01
 0.51091509132E+01 0.50834968451E+01 0.51092667191E+01 0.51503281824E+01 0.51259538167E+01
 0.45430020116E+01 0.42992944736E+01 0.40467426649E+01 0.38257779237E+01 0.36665025426E+01
 0.35843730659E+01 0.35843748734E+01 0.36665083229E+01 0.38257856269E+01 0.40467456084E+01
 0.42992934142E+01 0.45429964161E+01 0.47402855768E+01 0.48647355309E+01 0.49156861058E+01
 0.49256020642E+01 0.49256470298E+01 0.49157811869E+01 0.48648112101E+01 0.47403164634E+01
 0.41858729837E+01 0.40234153505E+01 0.38680928324E+01 0.37442232161E+01 0.36664800224E+01
 0.36402718117E+01 0.36665083229E+01 0.37442727478E+01 0.38681317061E+01 0.40234023972E+01
 0.41858058418E+01 0.43284471630E+01 0.44324361148E+01 0.44938209609E+01 0.45216574231E+01
 0.45287639260E+01 0.45216248933E+01 0.44937958919E+01 0.44324600955E+01 0.43285181116E+01
 0.39871855342E+01 0.39255057618E+01 0.38681363327E+01 0.38257920179E+01 0.38038922424E+01
 0.38038894256E+01 0.38257856269E+01 0.38681317061E+01 0.39255107611E+01 0.39872049814E+01
 0.40401147921E+01 0.40747077935E+01 0.40895449199E+01 0.40909713188E+01 0.40883972493E+01
 0.40884099455E+01 0.40909949146E+01 0.40895529414E+01 0.40746912194E+01 0.40400877006E+01
 0.39871479800E+01 0.40234275966E+01 0.40468214426E+01 0.40597134383E+01 0.40638064743E+01
 0.40596517224E+01 0.40467456084E+01 0.40234023972E+01 0.39872049814E+01 0.39370672587E+01
 0.38760034064E+01 0.38120889234E+01 0.37562678807E+01 0.37185508590E+01 0.37053137593E+01
 0.37186227764E+01 0.37563467740E+01 0.38121005678E+01 0.38759298029E+01 0.39369625700E+01
 0.41858106183E+01 0.42992963929E+01 0.43747672378E+01 0.44119088539E+01 0.44119136012E+01
 0.43747729772E+01 0.42992934142E+01 0.41858058418E+01 0.40401147921E+01 0.38760034064E+01
 0.37137645489E+01 0.35747433867E+01 0.34752596689E+01 0.34240436457E+01 0.34240465181E+01
 0.34752677982E+01 0.35747519305E+01 0.37137642705E+01 0.38759947198E+01 0.40401104766E+01
 0.45429972760E+01 0.46996308056E+01 0.47924203686E+01 0.48226773537E+01 0.47925038064E+01
 0.46997093300E+01 0.45429964161E+01 0.43284471630E+01 0.40747077935E+01 0.38120889234E+01
 0.35747433867E+01 0.33907441459E+01 0.32764505661E+01 0.32379704273E+01 0.32764178140E+01
 0.33907011173E+01 0.35747225845E+01 0.38121164427E+01 0.40747811305E+01 0.43285167739E+01
 0.49733087015E+01 0.51126057024E+01 0.51724164148E+01 0.51724075499E+01 0.51125883269E+01
 0.49733005405E+01 0.47402855768E+01 0.44324361148E+01 0.40895449199E+01 0.37562678807E+01
 0.34752596689E+01 0.32764505661E+01 0.31746938236E+01 0.31746856565E+01 0.32764416208E+01
 0.34752694103E+01 0.37562883770E+01 0.40895510964E+01 0.44324239691E+01 0.47402768816E+01
 0.52532631636E+01 0.52873544506E+01 0.52892870505E+01 0.52872931027E+01 0.52532039109E+01
 0.51259117695E+01 0.48647355309E+01 0.44938209609E+01 0.40909713188E+01 0.37185508590E+01
 0.34240436457E+01 0.32379704273E+01 0.31746856565E+01 0.32379843434E+01 0.34240764547E+01
 0.37185870336E+01 0.40909736534E+01 0.44937770591E+01 0.48646844540E+01 0.51259106682E+01
 0.50981384576E+01 0.50059289169E+01 0.50059903397E+01 0.50982525163E+01 0.51879597286E+01
 0.51502021931E+01 0.49156861058E+01 0.45216574231E+01 0.40883972493E+01 0.37053137593E+01
 0.34240465181E+01 0.32764178140E+01 0.32764416208E+01 0.34240764547E+01 0.37052941085E+01
 0.40883559416E+01 0.45216772003E+01 0.49157789612E+01 0.51502743478E+01 0.51879216963E+01
 0.43832789203E+01 0.42503980592E+01 0.43834300856E+01 0.47008520752E+01 0.50072545219E+01
 0.51091509132E+01 0.49256020642E+01 0.45287639260E+01 0.40884099455E+01 0.37186227764E+01
 0.34752677982E+01 0.33907011173E+01 0.34752694103E+01 0.37185870336E+01 0.40883559416E+01
 0.45287815231E+01 0.49257252280E+01 0.51092783302E+01 0.50072465810E+01 0.47006997236E+01
 0.32516264117E+01 0.32516220767E+01 0.36751496938E+01 0.43127670123E+01 0.48609304341E+01
 0.50834968451E+01 0.49256470298E+01 0.45216248933E+01 0.40909949146E+01 0.37563467740E+01
 0.35747519305E+01 0.35747225845E+01 0.37562883770E+01 0.40909736534E+01 0.45216772003E+01
 0.49257252280E+01 0.50835147035E+01 0.48608711161E+01 0.43127021377E+01 0.36751326495E+01
 0.20875007343E+01 0.24029313382E+01 0.32078729987E+01 0.41528999234E+01 0.48608827092E+01
 0.51092667191E+01 0.49157811869E+01 0.44937958919E+01 0.40895529414E+01 0.38121005678E+01
 0.37137642705E+01 0.38121164427E+01 0.40895510964E+01 0.44937770591E+01 0.49157789612E+01
 0.51092783302E+01 0.48608711161E+01 0.41528658113E+01 0.32078557231E+01 0.24029376008E+01
 0.13505977183E+01 0.20704766054E+01 0.32078460609E+01 0.43126048301E+01 0.50071705781E+01
 0.51503281824E+01 0.48648112101E+01 0.44324600955E+01 0.40746912194E+01 0.38759298029E+01
 0.38759947198E+01 0.40747811305E+01 0.44324239691E+01 0.48646844540E+01 0.51502743478E+01
 0.50072465810E+01 0.43127021377E+01 0.32078557231E+01 0.20704174891E+01 0.13505620450E+01
 0.13504655091E+01 0.24028339619E+01 0.36750851730E+01 0.47006974320E+01 0.51879443154E+01
 0.51259538167E+01 0.47403164634E+01 0.43285181116E+01 0.40400877006E+01 0.39369625700E+01
 0.40401104766E+01 0.43285167739E+01 0.47402768816E+01 0.51259106682E+01 0.51879216963E+01
 0.47006997236E+01 0.36751326495E+01 0.24029376008E+01 0.13505620450E+01 0.94278190725E+00
 0.39046393030E+01 0.46456891513E+01 0.51535251358E+01 0.52532802624E+01 0.49855235611E+01
 0.45559835753E+01 0.41661335952E+01 0.39016882490E+01 0.38084965714E+01 0.39016846138E+01
 0.41661325140E+01 0.45559899609E+01 0.49855386660E+01 0.52533047373E+01 0.51535592426E+01
 0.46457290827E+01 0.39046741282E+01 0.32516338583E+01 0.29922859309E+01 0.32516142473E+01
 0.46456891513E+01 0.51282241155E+01 0.52970188060E+01 0.51126533543E+01 0.47130406856E+01
 0.43008654953E+01 0.39811457834E+01 0.38081307861E+01 0.38081685331E+01 0.39812050260E+01