   1   1   0   0
  0.1266325E+02  0.2616295E-09  0.2616295E-09  0.2616295E-09  0.5000000E-15
  1.000000000000000E-004
  CAR 
 fcc Si                                  
     42.72042213     -5.93083740  301     12.05410049      1.00000000
     -5.931  0.0000E+00  0.0000E+00
     -5.769  0.0000E+00  0.0000E+00
     -5.606  0.0000E+00  0.0000E+00
     -5.444  0.0000E+00  0.0000E+00
     -5.282  0.0000E+00  0.0000E+00
     -5.120  0.0000E+00  0.0000E+00
     -4.958  0.0000E+00  0.0000E+00
     -4.796  0.0000E+00  0.0000E+00
     -4.633  0.0000E+00  0.0000E+00
     -4.471  0.0000E+00  0.0000E+00
     -4.309  0.5144E-18  0.8341E-19
     -4.147  0.6864E-11  0.1113E-11
     -3.985  0.8098E-06  0.1313E-06
     -3.823  0.6684E-03  0.1085E-03
     -3.660  0.6867E-02  0.1222E-02
     -3.498  0.2399E-01  0.5112E-02
     -3.336  0.8614E-01  0.1908E-01
     -3.174  0.2267E-01  0.2276E-01
     -3.012  0.5808E-01  0.3218E-01
     -2.850  0.7137E-01  0.4375E-01
     -2.687  0.1941E+00  0.7523E-01
     -2.525  0.8111E-01  0.8839E-01
     -2.363  0.1638E-01  0.9104E-01
     -2.201  0.4289E-01  0.9800E-01
     -2.039  0.1678E+00  0.1252E+00
     -1.877  0.2529E+00  0.1662E+00
     -1.714  0.4288E-01  0.1732E+00
     -1.552  0.1660E+00  0.2001E+00
     -1.390  0.1362E+00  0.2222E+00
     -1.228  0.1869E+00  0.2525E+00
     -1.066  0.1167E-01  0.2544E+00
     -0.904  0.6758E-01  0.2654E+00
     -0.741  0.1095E+00  0.2831E+00
     -0.579  0.4712E+00  0.3595E+00
     -0.417  0.1811E+00  0.3889E+00
     -0.255  0.8948E-01  0.4034E+00
     -0.093  0.1417E+00  0.4264E+00
      0.069  0.2225E+00  0.4625E+00
      0.232  0.2057E+00  0.4958E+00
      0.394  0.2426E-01  0.4998E+00
      0.556  0.6036E-01  0.5095E+00
      0.718  0.2693E+00  0.5532E+00
      0.880  0.3666E+00  0.6127E+00
      1.043  0.6743E-01  0.6236E+00
      1.205  0.3295E+00  0.6770E+00
      1.367  0.3034E+00  0.7262E+00
      1.529  0.4216E+00  0.7946E+00
      1.691  0.2212E-01  0.7982E+00
      1.853  0.3609E-01  0.8041E+00
      2.016  0.6639E-01  0.8148E+00
      2.178  0.4130E+00  0.8818E+00
      2.340  0.2060E+00  0.9152E+00
      2.502  0.1633E+00  0.9417E+00
      2.664  0.2115E+00  0.9760E+00
      2.826  0.4715E+00  0.1052E+01
      2.989  0.2233E+00  0.1089E+01
      3.151  0.7805E-01  0.1101E+01
      3.313  0.1723E+00  0.1129E+01
      3.475  0.5721E+00  0.1222E+01
      3.637  0.4932E+00  0.1302E+01
      3.799  0.6775E-01  0.1313E+01
      3.962  0.1730E+00  0.1341E+01
      4.124  0.2873E+00  0.1388E+01
      4.286  0.1604E+00  0.1414E+01
      4.448  0.2858E-01  0.1418E+01
      4.610  0.1710E+00  0.1446E+01
      4.772  0.3378E+00  0.1501E+01
      4.935  0.5761E+00  0.1594E+01
      5.097  0.1423E+00  0.1617E+01
      5.259  0.4732E+00  0.1694E+01
      5.421  0.3787E+00  0.1755E+01
      5.583  0.6309E+00  0.1858E+01
      5.745  0.6124E-01  0.1868E+01
      5.908  0.1028E-02  0.1868E+01
      6.070  0.1610E+00  0.1894E+01
      6.232  0.8124E+00  0.2026E+01
      6.394  0.3024E+00  0.2075E+01
      6.556  0.3357E+00  0.2129E+01
      6.718  0.9692E-01  0.2145E+01
      6.881  0.3283E+00  0.2198E+01
      7.043  0.7581E-01  0.2211E+01
      7.205  0.5348E-01  0.2219E+01
      7.367  0.1623E+00  0.2245E+01
      7.529  0.8544E+00  0.2384E+01
      7.692  0.3745E+00  0.2445E+01
      7.854  0.2470E+00  0.2485E+01
      8.016  0.2616E+00  0.2527E+01
      8.178  0.8128E+00  0.2659E+01
      8.340  0.4188E+00  0.2727E+01
      8.502  0.1078E+00  0.2744E+01
      8.665  0.1609E+00  0.2771E+01
      8.827  0.2496E+00  0.2811E+01
      8.989  0.1964E+00  0.2843E+01
      9.151  0.4602E+00  0.2918E+01
      9.313  0.2431E+00  0.2957E+01
      9.475  0.4578E+00  0.3031E+01
      9.638  0.3216E+00  0.3083E+01
      9.800  0.8261E-01  0.3097E+01
      9.962  0.3453E-01  0.3102E+01
     10.124  0.6748E+00  0.3212E+01
     10.286  0.6330E+00  0.3314E+01
     10.448  0.6326E+00  0.3417E+01
     10.611  0.3751E+00  0.3478E+01
     10.773  0.4029E+00  0.3543E+01
     10.935  0.3484E+00  0.3600E+01
     11.097  0.1210E+00  0.3619E+01
     11.259  0.1721E-01  0.3622E+01
     11.421  0.4853E+00  0.3701E+01
     11.584  0.7559E+00  0.3823E+01
     11.746  0.5315E+00  0.3910E+01
     11.908  0.1214E+00  0.3929E+01
     12.070  0.5172E+00  0.4013E+01
     12.232  0.5742E+00  0.4106E+01
     12.394  0.2300E+00  0.4144E+01
     12.557  0.6306E-01  0.4154E+01
     12.719  0.1149E+00  0.4172E+01
     12.881  0.3279E+00  0.4226E+01
     13.043  0.8413E+00  0.4362E+01
     13.205  0.4860E+00  0.4441E+01
     13.367  0.4449E+00  0.4513E+01
     13.530  0.5698E+00  0.4605E+01
     13.692  0.4652E+00  0.4681E+01
     13.854  0.9875E-01  0.4697E+01
     14.016  0.5094E+00  0.4779E+01
     14.178  0.3548E+00  0.4837E+01
     14.341  0.6546E+00  0.4943E+01
     14.503  0.2055E+00  0.4977E+01
     14.665  0.7837E+00  0.5104E+01
     14.827  0.7205E+00  0.5220E+01
     14.989  0.1562E+00  0.5246E+01
     15.151  0.1666E+00  0.5273E+01
     15.314  0.4836E+00  0.5351E+01
     15.476  0.7031E+00  0.5465E+01
     15.638  0.3236E+00  0.5518E+01
     15.800  0.3831E+00  0.5580E+01
     15.962  0.4911E+00  0.5660E+01
     16.124  0.7043E+00  0.5774E+01
     16.287  0.5174E+00  0.5858E+01
     16.449  0.2866E+00  0.5904E+01
     16.611  0.3649E+00  0.5963E+01
     16.773  0.8454E+00  0.6100E+01
     16.935  0.4088E+00  0.6167E+01
     17.097  0.7429E+00  0.6287E+01
     17.260  0.3037E+00  0.6336E+01
     17.422  0.4384E+00  0.6408E+01
     17.584  0.1245E+00  0.6428E+01
     17.746  0.2739E+00  0.6472E+01
     17.908  0.3463E+00  0.6528E+01
     18.070  0.5588E+00  0.6619E+01
     18.233  0.8327E+00  0.6754E+01
     18.395  0.4359E+00  0.6825E+01
     18.557  0.5238E+00  0.6910E+01
     18.719  0.3706E+00  0.6970E+01
     18.881  0.4472E+00  0.7042E+01
     19.043  0.3763E+00  0.7103E+01
     19.206  0.5454E+00  0.7192E+01
     19.368  0.5130E+00  0.7275E+01
     19.530  0.2714E+00  0.7319E+01
     19.692  0.2000E+00  0.7351E+01
     19.854  0.4707E+00  0.7428E+01
     20.017  0.8096E+00  0.7559E+01
     20.179  0.3866E+00  0.7622E+01
     20.341  0.1534E+00  0.7646E+01
     20.503  0.1069E+00  0.7664E+01
     20.665  0.5909E+00  0.7760E+01
     20.827  0.6994E+00  0.7873E+01
     20.990  0.6436E+00  0.7977E+01
     21.152  0.4177E+00  0.8045E+01
     21.314  0.4291E+00  0.8115E+01
     21.476  0.4043E+00  0.8180E+01
     21.638  0.5497E+00  0.8269E+01
     21.800  0.6042E+00  0.8367E+01
     21.963  0.5547E+00  0.8457E+01
     22.125  0.3352E+00  0.8512E+01
     22.287  0.6053E+00  0.8610E+01
     22.449  0.7576E+00  0.8733E+01
     22.611  0.8614E+00  0.8872E+01
     22.773  0.5091E+00  0.8955E+01
     22.936  0.6871E+00  0.9066E+01
     23.098  0.2961E+00  0.9114E+01
     23.260  0.2701E+00  0.9158E+01
     23.422  0.2458E+00  0.9198E+01
     23.584  0.4410E+00  0.9270E+01
     23.746  0.4496E+00  0.9343E+01
     23.909  0.8388E+00  0.9479E+01
     24.071  0.9252E+00  0.9629E+01
     24.233  0.6897E+00  0.9741E+01
     24.395  0.2254E+00  0.9777E+01
     24.557  0.2474E+00  0.9817E+01
     24.719  0.8377E+00  0.9953E+01
     24.882  0.4348E+00  0.1002E+02
     25.044  0.4970E+00  0.1010E+02
     25.206  0.5419E+00  0.1019E+02
     25.368  0.7002E+00  0.1031E+02
     25.530  0.5041E+00  0.1039E+02
     25.692  0.2096E+00  0.1042E+02
     25.855  0.5059E+00  0.1050E+02
     26.017  0.1201E+01  0.1070E+02
     26.179  0.7061E+00  0.1081E+02
     26.341  0.3417E+00  0.1087E+02
     26.503  0.6264E+00  0.1097E+02
     26.666  0.6402E+00  0.1107E+02
     26.828  0.5941E-01  0.1108E+02
     26.990  0.2988E+00  0.1113E+02
     27.152  0.8392E+00  0.1127E+02
     27.314  0.6048E+00  0.1137E+02
     27.476  0.5200E+00  0.1145E+02
     27.639  0.6968E+00  0.1156E+02
     27.801  0.7434E+00  0.1168E+02
     27.963  0.4530E+00  0.1176E+02
     28.125  0.4029E+00  0.1182E+02
     28.287  0.5227E+00  0.1191E+02
     28.449  0.5135E+00  0.1199E+02
     28.612  0.8001E+00  0.1212E+02
     28.774  0.9105E+00  0.1227E+02
     28.936  0.8331E+00  0.1240E+02
     29.098  0.4816E+00  0.1248E+02
     29.260  0.2926E+00  0.1253E+02
     29.422  0.4385E+00  0.1260E+02
     29.585  0.1737E+00  0.1263E+02
     29.747  0.5486E+00  0.1272E+02
     29.909  0.9181E+00  0.1287E+02
     30.071  0.8271E+00  0.1300E+02
     30.233  0.6261E+00  0.1310E+02
     30.395  0.4444E+00  0.1317E+02
     30.558  0.3846E+00  0.1324E+02
     30.720  0.6927E+00  0.1335E+02
     30.882  0.6589E+00  0.1345E+02
     31.044  0.7844E+00  0.1358E+02
     31.206  0.6612E+00  0.1369E+02
     31.368  0.7358E+00  0.1381E+02
     31.531  0.5405E+00  0.1390E+02
     31.693  0.4035E+00  0.1396E+02
     31.855  0.5090E+00  0.1404E+02
     32.017  0.5347E+00  0.1413E+02
     32.179  0.3868E+00  0.1419E+02
     32.341  0.1818E+00  0.1422E+02
     32.504  0.3351E+00  0.1428E+02
     32.666  0.1591E+00  0.1430E+02
     32.828  0.6070E+00  0.1440E+02
     32.990  0.6068E+00  0.1450E+02
     33.152  0.3512E+00  0.1456E+02
     33.315  0.3558E+00  0.1461E+02
     33.477  0.1993E+00  0.1465E+02
     33.639  0.1478E+00  0.1467E+02
     33.801  0.5190E+00  0.1476E+02
     33.963  0.6136E+00  0.1485E+02
     34.125  0.6748E+00  0.1496E+02
     34.288  0.6448E+00  0.1507E+02
     34.450  0.5353E+00  0.1516E+02
     34.612  0.1069E+00  0.1517E+02
     34.774  0.2086E+00  0.1521E+02
     34.936  0.5270E+00  0.1529E+02
     35.098  0.3123E+00  0.1534E+02
     35.261  0.4953E+00  0.1542E+02
     35.423  0.5161E+00  0.1551E+02
     35.585  0.1445E+00  0.1553E+02
     35.747  0.3871E-01  0.1554E+02
     35.909  0.1657E+00  0.1556E+02
     36.071  0.3971E-01  0.1557E+02
     36.234  0.2669E+00  0.1561E+02
     36.396  0.2001E+00  0.1565E+02
     36.558  0.1663E+00  0.1567E+02
     36.720  0.8853E-01  0.1569E+02
     36.882  0.1447E+00  0.1571E+02
     37.044  0.4056E-01  0.1572E+02
     37.207  0.4151E-01  0.1572E+02
     37.369  0.3041E+00  0.1577E+02
     37.531  0.1200E+00  0.1579E+02
     37.693  0.6468E-01  0.1580E+02
     37.855  0.1489E+00  0.1583E+02
     38.017  0.1266E-01  0.1583E+02
     38.180  0.1278E+00  0.1585E+02
     38.342  0.2000E+00  0.1588E+02
     38.504  0.1347E+00  0.1590E+02
     38.666  0.1747E+00  0.1593E+02
     38.828  0.1998E+00  0.1597E+02
     38.990  0.4880E-01  0.1597E+02
     39.153  0.2252E-03  0.1597E+02
     39.315  0.8245E-08  0.1597E+02
     39.477  0.2674E-08  0.1597E+02
     39.639  0.8629E-04  0.1597E+02
     39.801  0.2124E-01  0.1598E+02
     39.964  0.8125E-01  0.1599E+02
     40.126  0.8605E-02  0.1599E+02
     40.288  0.6029E-04  0.1599E+02
     40.450  0.1119E-01  0.1599E+02
     40.612  0.4034E-01  0.1600E+02
     40.774  0.4010E-02  0.1600E+02
     40.937  0.4859E-05  0.1600E+02
     41.099  0.4119E-10  0.1600E+02
     41.261  0.0000E+00  0.1600E+02
     41.423  0.0000E+00  0.1600E+02
     41.585  0.0000E+00  0.1600E+02
     41.747  0.0000E+00  0.1600E+02
     41.910  0.0000E+00  0.1600E+02
     42.072  0.0000E+00  0.1600E+02
     42.234  0.0000E+00  0.1600E+02
     42.396  0.0000E+00  0.1600E+02
     42.558  0.0000E+00  0.1600E+02
     42.720  0.0000E+00  0.1600E+02
