    1    1    1    1
  0.1266325E+02  0.2616295E-09  0.2616295E-09  0.2616295E-09  0.5000000E-15
  1.000000000000000E-004
  CAR 
 fcc Si                                  
      4     56      8
 
  0.0000000E+00  0.0000000E+00  0.0000000E+00  0.7513148E-03
      1         -3.719417   1.000000
      2         24.631154   0.000000
      3         24.631213   0.000000
      4         24.631213   0.000000
      5         24.887294   0.000000
      6         24.887445   0.000000
      7         24.887445   0.000000
      8         30.165394   0.000000
 
  0.9090909E-01  0.1365189E-17  0.1365189E-17  0.6010518E-02
      1         -3.456118   1.000000
      2         20.796849   0.000000
      3         23.345149   0.000000
      4         23.345273   0.000000
      5         26.511516   0.000000
      6         26.511700   0.000000
      7         26.530031   0.000000
      8         31.144096   0.000000
 
  0.1818182E+00  0.5852880E-17  0.5852880E-17  0.6010518E-02
      1         -2.667805   1.000000
      2         16.506873   0.000000
      3         22.367515   0.000000
      4         22.367726   0.000000
      5         26.579735   0.000000
      6         27.595160   0.000000
      7         27.595969   0.000000
      8         30.223408   0.000000
 
  0.2727273E+00  0.7995924E-18  0.7995924E-18  0.6010518E-02
      1         -1.360721   1.000000
      2         12.469167   0.000000
      3         21.820733   0.000000
      4         21.820993   0.000000
      5         26.187149   0.000000
      6         26.187815   0.000000
      7         26.485177   0.000000
      8         31.703431   0.000000
 
  0.3636364E+00 -0.4253695E-17 -0.4253695E-17  0.6010518E-02
      1          0.453635   1.000000
      2          8.795211   1.000000
      3         21.680669   0.000000
      4         21.680906   0.000000
      5         24.638386   0.000000
      6         24.639020   0.000000
      7         26.583540   0.000000
      8         29.985101   0.000000
 
  0.4545455E+00 -0.1902143E-16  0.8734141E-17  0.6010518E-02
      1          2.761041   1.000000
      2          5.552704   1.000000
      3         21.839077   0.000000
      4         21.839225   0.000000
      5         23.585308   0.000000
      6         23.586015   0.000000
      7         26.915570   0.000000
      8         28.794677   0.000000
 
  0.9090909E-01  0.9090909E-01 -0.1281330E-19  0.4507889E-02
      1         -3.368419   1.000000
      2         21.788059   0.000000
      3         21.788117   0.000000
      4         22.930361   0.000000
      5         24.160121   0.000000
      6         28.192976   0.000000
      7         28.193070   0.000000
      8         29.034395   0.000000
 
  0.1818182E+00  0.9090909E-01  0.3967274E-17  0.1803156E-01
      1         -2.755143   1.000000
      2         18.085609   0.000000
      3         20.664469   0.000000
      4         22.584563   0.000000
      5         24.653117   0.000000
      6         26.927561   0.000000
      7         29.020708   0.000000
      8         29.776249   0.000000
 
  0.2727273E+00  0.9090909E-01  0.6893714E-17  0.1803156E-01
      1         -1.621285   1.000000
      2         13.977730   0.000000
      3         19.976499   0.000000
      4         21.940364   0.000000
      5         23.687517   0.000000
      6         27.809237   0.000000
      7         28.998222   0.000000
      8         29.353814   0.000000
 
  0.3636364E+00  0.9090909E-01  0.7995924E-18  0.1803156E-01
      1          0.023064   1.000000
      2         10.185204   1.000000
      3         19.741842   0.000000
      4         21.185261   0.000000
      5         22.429649   0.000000
      6         27.392769   0.000000
      7         28.511334   0.000000
      8         31.243303   0.000000
 
  0.4545455E+00  0.9090909E-01  0.1378743E-16  0.1803156E-01
      1          2.165647   1.000000
      2          6.804364   1.000000
      3         19.959837   0.000000
      4         20.006613   0.000000
      5         22.440338   0.000000
      6         26.053597   0.000000
      7         28.647576   0.000000
      8         31.056872   0.000000
 
 -0.4545455E+00  0.9090909E-01 -0.1599185E-17  0.1803156E-01
      1          3.858821   1.000000
      2          4.799681   1.000000
      3         19.044575   0.000000
      4         20.612999   0.000000
      5         23.109304   0.000000
      6         25.131105   0.000000
      7         28.438216   0.000000
      8         30.992117   0.000000
 
 -0.3636364E+00  0.9090909E-01  0.1138865E-16  0.1803156E-01
      1          1.397268   1.000000
      2          7.881470   1.000000
      3         18.513077   0.000000
      4         21.649769   0.000000
      5         24.270061   0.000000
      6         24.709622   0.000000
      7         28.034357   0.000000
      8         31.838668   0.000000
 
 -0.2727273E+00  0.9090909E-01  0.4253695E-17  0.1803156E-01
      1         -0.581236   1.000000
      2         11.400375   1.000000
      3         18.439033   0.000000
      4         22.922023   0.000000
      5         24.916032   0.000000
      6         25.865256   0.000000
      7         27.792045   0.000000
      8         31.309500   0.000000
 
 -0.1818182E+00  0.9090909E-01 -0.7995924E-18  0.1803156E-01
      1         -2.056484   1.000000
      2         15.297027   0.000000
      3         18.838642   0.000000
      4         24.065678   0.000000
      5         25.861787   0.000000
      6         27.694669   0.000000
      7         27.736111   0.000000
      8         28.699705   0.000000
 
 -0.9090909E-01  0.9090909E-01 -0.2730378E-17  0.9015778E-02
      1         -3.017837   1.000000
      2         19.179296   0.000000
      3         19.972351   0.000000
      4         25.051775   0.000000
      5         25.316168   0.000000
      6         27.283941   0.000000
      7         28.494231   0.000000
      8         28.925066   0.000000
 
  0.1818182E+00  0.1818182E+00 -0.6270631E-17  0.4507889E-02
      1         -2.318660   1.000000
      2         19.369983   0.000000
      3         19.370042   0.000000
      4         20.440749   0.000000
      5         22.157778   0.000000
      6         24.120973   0.000000
      7         31.861075   0.000000
      8         31.861223   0.000000
 
  0.2727273E+00  0.1818182E+00  0.1885606E-17  0.1803156E-01
      1         -1.360956   1.000000
      2         15.869606   0.000000
      3         18.539300   0.000000
      4         20.212806   0.000000
      5         20.909301   0.000000
      6         24.037822   0.000000
      7         32.089765   0.000000
      8         32.804006   0.000000
 
  0.3636364E+00  0.1818182E+00  0.3771212E-17  0.1803156E-01
      1          0.109084   1.000000
      2         12.036332   0.599201
      3         18.158415   0.000000
      4         18.336416   0.000000
      5         20.641335   0.000000
      6         26.504759   0.000000
      7         30.661762   0.000000
      8         32.900458   0.000000
 
  0.4545455E+00  0.1818182E+00  0.7995924E-18  0.1803156E-01
      1          2.079292   1.000000
      2          8.537140   1.000000
      3         16.698598   0.000000
      4         18.231551   0.000000
      5         20.773277   0.000000
      6         29.251841   0.000000
      7         29.373700   0.000000
      8         32.882497   0.000000
 
 -0.4545455E+00  0.1818182E+00  0.1316855E-16  0.1803156E-01
      1          4.531015   1.000000
      2          5.468267   1.000000
      3         15.519135   0.000000
      4         18.759960   0.000000
      5         21.393886   0.000000
      6         28.197513   0.000000
      7         30.841740   0.000000
      8         34.142870   0.000000
 
 -0.3636364E+00  0.1818182E+00 -0.1599185E-17  0.1803156E-01
      1          2.846599   1.000000
      2          7.450579   1.000000
      3         14.805878   0.000000
      4         19.726875   0.000000
      5         22.461134   0.000000
      6         27.553480   0.000000
      7         30.538516   0.000000
      8         34.165207   0.000000
 
 -0.2727273E+00  0.1818182E+00 -0.8734141E-17  0.1803156E-01
      1          0.711490   1.000000
      2         10.769410   1.000000
      3         14.615757   0.000000
      4         21.125771   0.000000
      5         23.986712   0.000000
      6         27.394207   0.000000
      7         30.015240   0.000000
      8         30.727818   0.000000
 
 -0.1818182E+00  0.1818182E+00 -0.1170576E-16  0.9015778E-02
      1         -0.927229   1.000000
      2         14.028190   0.000000
      3         15.362689   0.000000
      4         22.867280   0.000000
      5         25.855945   0.000000
      6         27.382977   0.000000
      7         28.030508   0.000000
      8         29.191057   0.000000
 
  0.2727273E+00  0.2727273E+00  0.6553509E-17  0.4507889E-02
      1         -0.581233   1.000000
      2         17.553378   0.000000
      3         17.553441   0.000000
      4         17.721720   0.000000
      5         18.426595   0.000000
      6         21.715105   0.000000
      7         35.183617   0.000000
      8         35.480466   0.000000
 
  0.3636364E+00  0.2727273E+00  0.1524298E-16  0.1803156E-01
      1          0.710031   1.000000
      2         14.267303   0.000000
      3         15.454791   0.000000
      4         17.017483   0.000000
      5         19.104041   0.000000
      6         22.550690   0.000000
      7         34.208115   0.000000
      8         36.234954   0.000000
 
  0.4545455E+00  0.2727273E+00  0.5852880E-17  0.1803156E-01
      1          2.502078   1.000000
      2         10.724882   1.000000
      3         13.613983   0.000000
      4         16.941192   0.000000
      5         19.345347   0.000000
      6         25.426046   0.000000
      7         32.862619   0.000000
      8         35.819874   0.000000
 
 -0.4545455E+00  0.2727273E+00  0.2238518E-16  0.1803156E-01
      1          4.772794   1.000000
      2          7.541657   1.000000
      3         12.249746   0.002830
      4         17.322510   0.000000
      5         19.857486   0.000000
      6         28.861667   0.000000
      7         31.734770   0.000000
      8         34.903072   0.000000
 
 -0.3636364E+00  0.2727273E+00  0.3454103E-17  0.1803156E-01
      1          4.790299   1.000000
      2          7.473485   1.000000
      3         11.413287   1.000000
      4         18.154537   0.000000
      5         20.812595   0.000000
      6         30.938780   0.000000
      7         32.171972   0.000000
      8         33.875425   0.000000
 
 -0.2727273E+00  0.2727273E+00 -0.1599185E-17  0.9015778E-02
      1          2.506630   1.000000
      2         10.097522   1.000000
      3         11.589249   1.000000
      4         19.428011   0.000000
      5         22.205987   0.000000
      6         30.492055   0.000000
      7         30.730795   0.000000
      8         32.063752   0.000000
 
  0.3636364E+00  0.3636364E+00  0.1937765E-16  0.4507889E-02
      1          1.820283   1.000000
      2         12.967746   0.000000
      3         16.328577   0.000000
      4         16.328699   0.000000
      5         17.009342   0.000000
      6         20.488075   0.000000
      7         37.023148   0.000000
      8         38.418238   0.000000
 
  0.4545455E+00  0.3636364E+00  0.1472256E-16  0.1803156E-01
      1          3.423463   1.000000
      2         10.942315   1.000000
      3         13.296807   0.000000
      4         16.099931   0.000000
      5         18.100928   0.000000
      6         21.667220   0.000000
      7         36.458258   0.000000
      8         38.772179   0.000000
 
 -0.4545455E+00  0.3636364E+00  0.7878628E-16  0.1803156E-01
      1          5.475501   1.000000
      2          9.435220   1.000000
      3         10.069878   1.000000
      4         16.330270   0.000000
      5         18.692090   0.000000
      6         24.865365   0.000000
      7         35.404634   0.000000
      8         37.732380   0.000000
 
 -0.3636364E+00  0.3636364E+00  0.8507391E-17  0.9015778E-02
      1          7.207371   1.000000
      2          7.475651   1.000000
      3          8.949798   1.000000
      4         17.017700   0.000000
      5         19.548755   0.000000
      6         28.644542   0.000000
      7         34.231597   0.000000
      8         35.228406   0.000000
 
  0.4545455E+00  0.4545455E+00  0.2828782E-18  0.4507889E-02
      1          4.806554   1.000000
      2          8.768948   1.000000
      3         15.719074   0.000000
      4         15.719199   0.000000
      5         16.316364   0.000000
      6         19.870801   0.000000
      7         38.692394   0.000000
      8         40.509001   0.000000
 
 -0.4545455E+00  0.4545455E+00 -0.1330495E-16  0.9015778E-02
      1          6.165004   1.000000
      2          7.593250   1.000000
      3         12.976011   0.000000
      4         15.795549   0.000000
      5         17.783162   0.000000
      6         21.374966   0.000000
      7         38.152318   0.000000
      8         39.862957   0.000000
 
  0.2727273E+00  0.1818182E+00  0.9090909E-01  0.1803156E-01
      1         -1.969783   1.000000
      2         16.620071   0.000000
      3         17.673593   0.000000
      4         22.883785   0.000000
      5         23.754751   0.000000
      6         25.617855   0.000000
      7         29.865885   0.000000
      8         30.577482   0.000000
 
  0.3636364E+00  0.1818182E+00  0.9090909E-01  0.3606311E-01
      1         -0.667511   1.000000
      2         13.049298   0.000000
      3         16.743809   0.000000
      4         20.948451   0.000000
      5         23.927549   0.000000
      6         27.115359   0.000000
      7         28.508635   0.000000
      8         31.196430   0.000000
 
  0.4545455E+00  0.1818182E+00  0.9090909E-01  0.3606311E-01
      1          1.140140   1.000000
      2          9.434402   1.000000
      3         16.635991   0.000000
      4         19.217982   0.000000
      5         23.871564   0.000000
      6         26.521169   0.000000
      7         29.990218   0.000000
      8         31.903228   0.000000
 
 -0.4545455E+00  0.1818182E+00  0.9090909E-01  0.3606311E-01
      1          3.438971   1.000000
      2          6.216104   1.000000
      3         17.012249   0.000000
      4         17.910106   0.000000
      5         24.153999   0.000000
      6         25.389796   0.000000
      7         30.916160   0.000000
      8         33.986720   0.000000
 
  0.3636364E+00  0.2727273E+00  0.9090909E-01  0.1803156E-01
      1         -0.235941   1.000000
      2         14.676973   0.000000
      3         15.841222   0.000000
      4         18.064353   0.000000
      5         21.901566   0.000000
      6         23.834073   0.000000
      7         31.520737   0.000000
      8         34.716607   0.000000
 
  0.4545455E+00  0.2727273E+00  0.9090909E-01  0.3606311E-01
      1          1.395947   1.000000
      2         11.417313   1.000000
      3         15.175698   0.000000
      4         16.100939   0.000000
      5         22.448839   0.000000
      6         26.042006   0.000000
      7         30.090180   0.000000
      8         35.241489   0.000000
 
 -0.4545455E+00  0.2727273E+00  0.9090909E-01  0.3606311E-01
      1          3.520549   1.000000
      2          8.111905   1.000000
      3         14.560851   0.000000
      4         15.396830   0.000000
      5         22.786368   0.000000
      6         28.278824   0.000000
      7         29.785161   0.000000
      8         34.868964   0.000000
 
 -0.3636364E+00  0.2727273E+00  0.9090909E-01  0.3606311E-01
      1          5.205090   1.000000
      2          6.118234   1.000000
      3         13.532462   0.000000
      4         16.102476   0.000000
      5         23.514826   0.000000
      6         27.601495   0.000000
      7         32.722263   0.000000
      8         33.305956   0.000000
 
 -0.2727273E+00  0.2727273E+00  0.9090909E-01  0.3606311E-01
      1          2.760753   1.000000
      2          9.125936   1.000000
      3         13.022997   0.000000
      4         17.284358   0.000000
      5         24.634460   0.000000
      6         27.066290   0.000000
      7         30.319011   0.000000
      8         33.953828   0.000000
 
 -0.1818182E+00  0.2727273E+00  0.9090909E-01  0.1803156E-01
      1          0.797211   1.000000
      2         12.071111   0.404945
      3         13.496591   0.000000
      4         18.920295   0.000000
      5         25.991699   0.000000
      6         26.373230   0.000000
      7         27.947578   0.000000
      8         33.129634   0.000000
 
  0.4545455E+00  0.3636364E+00  0.9090909E-01  0.1803156E-01
      1          2.161512   1.000000
      2         13.289567   0.000000
      3         13.381045   0.000000
      4         14.610283   0.000000
      5         20.641611   0.000000
      6         22.714375   0.000000
      7         33.703868   0.000000
      8         38.224017   0.000000
 
 -0.4545455E+00  0.3636364E+00  0.9090909E-01  0.3606311E-01
      1          4.099300   1.000000
      2         10.433611   1.000000
      3         11.598343   1.000000
      4         14.234057   0.000000
      5         21.512263   0.000000
      6         25.259732   0.000000
      7         32.424616   0.000000
      8         37.325579   0.000000
 
 -0.3636364E+00  0.3636364E+00  0.9090909E-01  0.3606311E-01
      1          6.474899   1.000000
      2          7.447454   1.000000
      3         10.428782   1.000000
      4         14.753406   0.000000
      5         22.194405   0.000000
      6         28.751571   0.000000
      7         31.436440   0.000000
      8         34.342510   0.000000
 
 -0.2727273E+00  0.3636364E+00  0.9090909E-01  0.1803156E-01
      1          4.870919   1.000000
      2          8.786781   1.000000
      3         10.278413   1.000000
      4         15.777708   0.000000
      5         23.241867   0.000000
      6         30.182853   0.000000
      7         30.694220   0.000000
      8         33.083208   0.000000
 
 -0.4545455E+00  0.4545455E+00  0.9090909E-01  0.1803156E-01
      1          5.141347   1.000000
      2          9.103511   1.000000
      3         12.722818   0.000000
      4         13.974283   0.000000
      5         19.989210   0.000000
      6         22.135776   0.000000
      7         36.178293   0.000000
      8         38.526932   0.000000
 
 -0.3636364E+00  0.4545455E+00  0.9090909E-01  0.1803156E-01
      1          6.820340   1.000000
      2          8.272698   1.000000
      3         10.106344   1.000000
      4         13.914862   0.000000
      5         21.198313   0.000000
      6         24.986113   0.000000
      7         35.062423   0.000000
      8         35.314561   0.000000
 
 -0.4545455E+00  0.3636364E+00  0.1818182E+00  0.1803156E-01
      1          3.181804   1.000000
      2         10.755366   1.000000
      3         12.212336   0.012617
      4         14.252744   0.000000
      5         25.160392   0.000000
      6         26.281118   0.000000
      7         28.807794   0.000000
      8         36.752813   0.000000
 
 -0.3636364E+00  0.3636364E+00  0.1818182E+00  0.3606311E-01
      1          5.444766   1.000000
      2          8.134985   1.000000
      3         12.052144   0.511038
      4         12.894963   0.000000
      5         25.950693   0.000000
      6         27.178036   0.000000
      7         29.756588   0.000000
      8         33.689620   0.000000
 
 -0.3636364E+00  0.4545455E+00  0.1818182E+00  0.1803156E-01
      1          6.142778   1.000000
      2         10.097418   1.000000
      3         10.100623   1.000000
      4         11.567835   1.000000
      5         24.536155   0.000000
      6         25.950295   0.000000
      7         31.232020   0.000000
      8         34.409105   0.000000
 
 -0.2727273E+00  0.4545455E+00  0.1818182E+00  0.1803156E-01
      1          7.802882   1.000000
      2          8.131453   1.000000
      3          9.614014   1.000000
      4         11.730697   0.999998
      5         25.804245   0.000000
      6         28.798203   0.000000
      7         29.612941   0.000000
      8         31.612408   0.000000
