       N       E                     dE             d eps       ncg     rms          rms(c)
DAV:   1    -0.415045838088E+01   -0.41505E+01   -0.12138E+03  1080   0.215E+02
DAV:   2    -0.482383996151E+01   -0.67338E+00   -0.66887E+00  1392   0.160E+01
DAV:   3    -0.482509595123E+01   -0.12560E-02   -0.12556E-02   952   0.631E-01
DAV:   4    -0.482509638440E+01   -0.43317E-06   -0.43329E-06  1480   0.113E-02
DAV:   5    -0.482509638420E+01    0.19524E-09   -0.40630E-10   856   0.625E-05    0.384E+00
DAV:   6    -0.480810795529E+01    0.16988E-01   -0.37597E-03  1096   0.275E-01    0.214E+00
DAV:   7    -0.479807131151E+01    0.10037E-01   -0.77769E-03  1104   0.397E-01    0.149E-01
DAV:   8    -0.479801215826E+01    0.59153E-04   -0.19957E-05  1000   0.311E-02
   1 F= -.47980122E+01 E0= -.47959555E+01  d E =-.411323E-02
