 vasp.6.3.0 20Jan22 (build Feb 01 2022 16:52:37) complex                        
  
 executed on           TETRA_NSC1 date 2022.02.22  16:07:13
 running    4 mpi-ranks, with    1 threads/rank
 distrk:  each k-point on    4 cores,    1 groups
 distr:  one band on NCORE=   1 cores,    4 groups


--------------------------------------------------------------------------------------------------------


 INCAR:
   SYSTEM = fcc Si
   ISTART = 0
   ICHARG = 2
   ENCUT = 240
   ISMEAR = 0
   SIGMA = 0.1

 POTCAR:    PAW_PBE Si 05Jan2001                  
 POTCAR:    PAW_PBE Si 05Jan2001                  
   VRHFIN =Si: s2p2                                                                                 
   LEXCH  = PE                                                                                      
   EATOM  =   103.0669 eV,    7.5752 Ry                                                             
                                                                                                    
   TITEL  = PAW_PBE Si 05Jan2001                                                                    
   LULTRA =        F    use ultrasoft PP ?                                                          
   IUNSCR =        1    unscreen: 0-lin 1-nonlin 2-no                                               
   RPACOR =    1.500    partial core radius                                                         
   POMASS =   28.085; ZVAL   =    4.000    mass and valenz                                          
   RCORE  =    1.900    outmost cutoff radius                                                       
   RWIGS  =    2.480; RWIGS  =    1.312    wigner-seitz radius (au A)                               
   ENMAX  =  245.345; ENMIN  =  184.009 eV                                                          
   ICORE  =        2    local potential                                                             
   LCOR   =        T    correct aug charges                                                         
   LPAW   =        T    paw PP                                                                      
   EAUG   =  322.069                                                                                
   DEXC   =    0.000                                                                                
   RMAX   =    1.950    core radius for proj-oper                                                   
   RAUG   =    1.300    factor for augmentation sphere                                              
   RDEP   =    1.993    radius for radial grids                                                     
   RDEPT  =    1.837    core radius for aug-charge                                                  
                                                                                                    
   Atomic configuration                                                                             
    6 entries                                                                                       
     n  l   j            E        occ.                                                              
     1  0  0.50     -1785.8828   2.0000                                                             
     2  0  0.50      -139.4969   2.0000                                                             
     2  1  1.50       -95.5546   6.0000                                                             
     3  0  0.50       -10.8127   2.0000                                                             
     3  1  0.50        -4.0811   2.0000                                                             
     3  2  1.50        -4.0817   0.0000                                                             
   Description                                                                                      
     l       E           TYP  RCUT    TYP  RCUT                                                     
     0    -10.8127223     23  1.900                                                                 
     0     -7.6451159     23  1.900                                                                 
     1     -4.0811372     23  1.900                                                                 
     1      2.4879257     23  1.900                                                                 
     2     -4.0817478      7  1.900                                                                 
  local pseudopotential read in
  partial core-charges read in
  partial kinetic energy density read in
  atomic valenz-charges read in
  non local Contribution for L=           0  read in
    real space projection operators read in
  non local Contribution for L=           0  read in
    real space projection operators read in
  non local Contribution for L=           1  read in
    real space projection operators read in
  non local Contribution for L=           1  read in
    real space projection operators read in
    PAW grid and wavefunctions read in
 
   number of l-projection  operators is LMAX  =           4
   number of lm-projection operators is LMMAX =           8
 
  PAW_PBE Si 05Jan2001                  :
 energy of atom  1       EATOM= -103.0669
 kinetic energy error for atom=    0.0061 (will be added to EATOM!!)
 
 
 POSCAR: fcc:
  positions in cartesian coordinates
  No initial velocities read in
 exchange correlation table for  LEXCH =        8
   RHO(1)=    0.500       N(1)  =     2000
   RHO(2)=  100.500       N(2)  =     4000
 


--------------------------------------------------------------------------------------------------------


 ion  position               nearest neighbor table
   1  0.000  0.000  0.000-
 
  LATTYP: Found a face centered cubic cell.
 ALAT       =     3.7000000000
  
  Lattice vectors:
  
 A1 = (   1.8500000000,   1.8500000000,   0.0000000000)
 A2 = (   0.0000000000,   1.8500000000,   1.8500000000)
 A3 = (   1.8500000000,   0.0000000000,   1.8500000000)


Analysis of symmetry for initial positions (statically):
=====================================================================
 Subroutine PRICEL returns:
 Original cell was already a primitive cell.
 

 Routine SETGRP: Setting up the symmetry group for a 
 face centered cubic supercell.


 Subroutine GETGRP returns: Found 48 space group operations
 (whereof 48 operations were pure point group operations)
 out of a pool of 48 trial point group operations.


The static configuration has the point symmetry O_h .


Analysis of symmetry for dynamics (positions and initial velocities):
=====================================================================
 Subroutine PRICEL returns:
 Original cell was already a primitive cell.
 

 Routine SETGRP: Setting up the symmetry group for a 
 face centered cubic supercell.


 Subroutine GETGRP returns: Found 48 space group operations
 (whereof 48 operations were pure point group operations)
 out of a pool of 48 trial point group operations.


The dynamic configuration has the point symmetry O_h .


 Subroutine INISYM returns: Found 48 space group operations
 (whereof 48 operations are pure point group operations),
 and found     1 'primitive' translations


----------------------------------------------------------------------------------------

                                     Primitive cell                                     

  volume of cell :      12.6633

  direct lattice vectors                    reciprocal lattice vectors
     1.850000000  1.850000000  0.000000000     0.270270270  0.270270270 -0.270270270
     0.000000000  1.850000000  1.850000000    -0.270270270  0.270270270  0.270270270
     1.850000000  0.000000000  1.850000000     0.270270270 -0.270270270  0.270270270

  length of vectors
     2.616295090  2.616295090  2.616295090     0.468121840  0.468121840  0.468121840

  position of ions in fractional coordinates (direct lattice)
     0.000000000  0.000000000  0.000000000

  ion indices of the primitive-cell ions
   primitive index   ion index
                 1           1

----------------------------------------------------------------------------------------

 
 
 KPOINTS: k-points                                

Automatic generation of k-mesh.
 Grid dimensions read from file:
 generate k-points for:   11   11   11

 Generating k-lattice:

  Cartesian coordinates                     Fractional coordinates (reciprocal lattice)
     0.024570025  0.024570025 -0.024570025     0.090909091  0.000000000  0.000000000
    -0.024570025  0.024570025  0.024570025     0.000000000  0.090909091 -0.000000000
     0.024570025 -0.024570025  0.024570025    -0.000000000 -0.000000000  0.090909091

  Length of vectors
     0.042556531  0.042556531  0.042556531

  Shift w.r.t. Gamma in fractional coordinates (k-lattice)
     0.000000000  0.000000000  0.000000000

 
 Subroutine IBZKPT returns following result:
 ===========================================
 
 Found     56 irreducible k-points:
 
 Following reciprocal coordinates:
            Coordinates               Weight
  0.000000  0.000000  0.000000      1.000000
  0.090909  0.000000  0.000000      8.000000
  0.181818  0.000000  0.000000      8.000000
  0.272727  0.000000  0.000000      8.000000
  0.363636 -0.000000 -0.000000      8.000000
  0.454545 -0.000000  0.000000      8.000000
  0.090909  0.090909 -0.000000      6.000000
  0.181818  0.090909  0.000000     24.000000
  0.272727  0.090909  0.000000     24.000000
  0.363636  0.090909  0.000000     24.000000
  0.454545  0.090909  0.000000     24.000000
 -0.454545  0.090909 -0.000000     24.000000
 -0.363636  0.090909  0.000000     24.000000
 -0.272727  0.090909  0.000000     24.000000
 -0.181818  0.090909 -0.000000     24.000000
 -0.090909  0.090909 -0.000000     12.000000
  0.181818  0.181818 -0.000000      6.000000
  0.272727  0.181818  0.000000     24.000000
  0.363636  0.181818  0.000000     24.000000
  0.454545  0.181818  0.000000     24.000000
 -0.454545  0.181818  0.000000     24.000000
 -0.363636  0.181818 -0.000000     24.000000
 -0.272727  0.181818 -0.000000     24.000000
 -0.181818  0.181818 -0.000000     12.000000
  0.272727  0.272727  0.000000      6.000000
  0.363636  0.272727  0.000000     24.000000
  0.454545  0.272727  0.000000     24.000000
 -0.454545  0.272727  0.000000     24.000000
 -0.363636  0.272727  0.000000     24.000000
 -0.272727  0.272727 -0.000000     12.000000
  0.363636  0.363636  0.000000      6.000000
  0.454545  0.363636  0.000000     24.000000
 -0.454545  0.363636  0.000000     24.000000
 -0.363636  0.363636  0.000000     12.000000
  0.454545  0.454545  0.000000      6.000000
 -0.454545  0.454545 -0.000000     12.000000
  0.272727  0.181818  0.090909     24.000000
  0.363636  0.181818  0.090909     48.000000
  0.454545  0.181818  0.090909     48.000000
 -0.454545  0.181818  0.090909     48.000000
  0.363636  0.272727  0.090909     24.000000
  0.454545  0.272727  0.090909     48.000000
 -0.454545  0.272727  0.090909     48.000000
 -0.363636  0.272727  0.090909     48.000000
 -0.272727  0.272727  0.090909     48.000000
 -0.181818  0.272727  0.090909     24.000000
  0.454545  0.363636  0.090909     24.000000
 -0.454545  0.363636  0.090909     48.000000
 -0.363636  0.363636  0.090909     48.000000
 -0.272727  0.363636  0.090909     24.000000
 -0.454545  0.454545  0.090909     24.000000
 -0.363636  0.454545  0.090909     24.000000
 -0.454545  0.363636  0.181818     24.000000
 -0.363636  0.363636  0.181818     48.000000
 -0.363636  0.454545  0.181818     24.000000
 -0.272727  0.454545  0.181818     24.000000
 
 Following cartesian coordinates:
            Coordinates               Weight
  0.000000  0.000000  0.000000      1.000000
  0.090909  0.090909 -0.090909      8.000000
  0.181818  0.181818 -0.181818      8.000000
  0.272727  0.272727 -0.272727      8.000000
  0.363636  0.363636 -0.363636      8.000000
  0.454545  0.454545 -0.454545      8.000000
  0.000000  0.181818 -0.000000      6.000000
  0.090909  0.272727 -0.090909     24.000000
  0.181818  0.363636 -0.181818     24.000000
  0.272727  0.454545 -0.272727     24.000000
  0.363636  0.545455 -0.363636     24.000000
 -0.545455 -0.363636  0.545455     24.000000
 -0.454545 -0.272727  0.454545     24.000000
 -0.363636 -0.181818  0.363636     24.000000
 -0.272727 -0.090909  0.272727     24.000000
 -0.181818  0.000000  0.181818     12.000000
  0.000000  0.363636 -0.000000      6.000000
  0.090909  0.454545 -0.090909     24.000000
  0.181818  0.545455 -0.181818     24.000000
  0.272727  0.636364 -0.272727     24.000000
 -0.636364 -0.272727  0.636364     24.000000
 -0.545455 -0.181818  0.545455     24.000000
 -0.454545 -0.090909  0.454545     24.000000
 -0.363636  0.000000  0.363636     12.000000
  0.000000  0.545455  0.000000      6.000000
  0.090909  0.636364 -0.090909     24.000000
  0.181818  0.727273 -0.181818     24.000000
 -0.727273 -0.181818  0.727273     24.000000
 -0.636364 -0.090909  0.636364     24.000000
 -0.545455  0.000000  0.545455     12.000000
  0.000000  0.727273  0.000000      6.000000
  0.090909  0.818182 -0.090909     24.000000
 -0.818182 -0.090909  0.818182     24.000000
 -0.727273  0.000000  0.727273     12.000000
  0.000000  0.909091 -0.000000      6.000000
 -0.909091  0.000000  0.909091     12.000000
  0.181818  0.363636  0.000000     24.000000
  0.272727  0.454545 -0.090909     48.000000
  0.363636  0.545455 -0.181818     48.000000
 -0.545455 -0.363636  0.727273     48.000000
  0.181818  0.545455  0.000000     24.000000
  0.272727  0.636364 -0.090909     48.000000
 -0.636364 -0.272727  0.818182     48.000000
 -0.545455 -0.181818  0.727273     48.000000
 -0.454545 -0.090909  0.636364     48.000000
 -0.363636  0.000000  0.545455     24.000000
  0.181818  0.727273  0.000000     24.000000
 -0.727273 -0.181818  0.909091     48.000000
 -0.636364 -0.090909  0.818182     48.000000
 -0.545455 -0.000000  0.727273     24.000000
 -0.818182 -0.090909  1.000000     24.000000
 -0.727273 -0.000000  0.909091     24.000000
 -0.636364 -0.272727  1.000000     24.000000
 -0.545455 -0.181818  0.909091     48.000000
 -0.636364 -0.090909  1.000000     24.000000
 -0.545455 -0.000000  0.909091     24.000000
 


--------------------------------------------------------------------------------------------------------




 Dimension of arrays:
   k-points           NKPTS =     56   k-points in BZ     NKDIM =     56   number of bands    NBANDS=      8
   number of dos      NEDOS =    301   number of ions     NIONS =      1
   non local maximal  LDIM  =      4   non local SUM 2l+1 LMDIM =      8
   total plane-waves  NPLWV =   1000
   max r-space proj   IRMAX =      1   max aug-charges    IRDMAX=   2840
   dimension x,y,z NGX =    10 NGY =   10 NGZ =   10
   dimension x,y,z NGXF=    20 NGYF=   20 NGZF=   20
   support grid    NGXF=    20 NGYF=   20 NGZF=   20
   ions per type =               1
   NGX,Y,Z   is equivalent  to a cutoff of   6.35,  6.35,  6.35 a.u.
   NGXF,Y,Z  is equivalent  to a cutoff of  12.71, 12.71, 12.71 a.u.

 SYSTEM =  fcc Si                                  
 POSCAR =  fcc:                                    

 Startparameter for this run:
   NWRITE =      2    write-flag & timer
   PREC   = normal    normal or accurate (medium, high low for compatibility)
   ISTART =      0    job   : 0-new  1-cont  2-samecut
   ICHARG =      2    charge: 1-file 2-atom 10-const
   ISPIN  =      1    spin polarized calculation?
   LNONCOLLINEAR =      F non collinear calculations
   LSORBIT =      F    spin-orbit coupling
   INIWAV =      1    electr: 0-lowe 1-rand  2-diag
   LASPH  =      F    aspherical Exc in radial PAW
 Electronic Relaxation 1
   ENCUT  =  240.0 eV  17.64 Ry    4.20 a.u.   3.30  3.30  3.30*2*pi/ulx,y,z
   ENINI  =  240.0     initial cutoff
   ENAUG  =  322.1 eV  augmentation charge cutoff
   NELM   =     60;   NELMIN=  2; NELMDL= -5     # of ELM steps 
   EDIFF  = 0.1E-03   stopping-criterion for ELM
   LREAL  =      F    real-space projection
   NLSPLINE    = F    spline interpolate recip. space projectors
   LCOMPAT=      F    compatible to vasp.4.4
   GGA_COMPAT  = T    GGA compatible to vasp.4.4-vasp.4.6
   LMAXPAW     = -100 max onsite density
   LMAXMIX     =    2 max onsite mixed and CHGCAR
   VOSKOWN=      0    Vosko Wilk Nusair interpolation
   ROPT   =    0.00000
 Ionic relaxation
   EDIFFG = 0.1E-02   stopping-criterion for IOM
   NSW    =      0    number of steps for IOM
   NBLOCK =      1;   KBLOCK =      1    inner block; outer block 
   IBRION =     -1    ionic relax: 0-MD 1-quasi-New 2-CG
   NFREE  =      0    steps in history (QN), initial steepest desc. (CG)
   ISIF   =      2    stress and relaxation
   IWAVPR =     10    prediction:  0-non 1-charg 2-wave 3-comb
   ISYM   =      2    0-nonsym 1-usesym 2-fastsym
   LCORR  =      T    Harris-Foulkes like correction to forces

   POTIM  = 0.5000    time-step for ionic-motion
   TEIN   =    0.0    initial temperature
   TEBEG  =    0.0;   TEEND  =   0.0 temperature during run
   SMASS  =  -3.00    Nose mass-parameter (am)
   estimated Nose-frequenzy (Omega)   =  0.10E-29 period in steps = 0.13E+47 mass=  -0.156E-27a.u.
   SCALEE = 1.0000    scale energy and forces
   NPACO  =    256;   APACO  = 10.0  distance and # of slots for P.C.
   PSTRESS=    0.0 pullay stress

  Mass of Ions in am
   POMASS =  28.09
  Ionic Valenz
   ZVAL   =   4.00
  Atomic Wigner-Seitz radii
   RWIGS  =  -1.00
  virtual crystal weights 
   VCA    =   1.00
   NELECT =       4.0000    total number of electrons
   NUPDOWN=      -1.0000    fix difference up-down

 DOS related values:
   EMIN   =  10.00;   EMAX   =-10.00  energy-range for DOS
   EFERMI =   0.00
   ISMEAR =     0;   SIGMA  =   0.10  broadening in eV -4-tet -1-fermi 0-gaus

 Electronic relaxation 2 (details)
   IALGO  =     38    algorithm
   LDIAG  =      T    sub-space diagonalisation (order eigenvalues)
   LSUBROT=      F    optimize rotation matrix (better conditioning)
   TURBO    =      0    0=normal 1=particle mesh
   IRESTART =      0    0=no restart 2=restart with 2 vectors
   NREBOOT  =      0    no. of reboots
   NMIN     =      0    reboot dimension
   EREF     =   0.00    reference energy to select bands
   IMIX   =      4    mixing-type and parameters
     AMIX     =   0.40;   BMIX     =  1.00
     AMIX_MAG =   1.60;   BMIX_MAG =  1.00
     AMIN     =   0.10
     WC   =   100.;   INIMIX=   1;  MIXPRE=   1;  MAXMIX= -45

 Intra band minimization:
   WEIMIN = 0.0000     energy-eigenvalue tresh-hold
   EBREAK =  0.31E-05  absolut break condition
   DEPER  =   0.30     relativ break condition  

   TIME   =   0.40     timestep for ELM

  volume/ion in A,a.u.               =      12.66        85.46
  Fermi-wavevector in a.u.,A,eV,Ry     =   1.114927  2.106907 16.912888  1.243062
  Thomas-Fermi vector in A             =   2.251527
 
 Write flags
   LWAVE        =      T    write WAVECAR
   LDOWNSAMPLE  =      F    k-point downsampling of WAVECAR
   LCHARG       =      T    write CHGCAR
   LVTOT        =      F    write LOCPOT, total local potential
   LVHAR        =      F    write LOCPOT, Hartree potential only
   LELF         =      F    write electronic localiz. function (ELF)
   LORBIT       =      0    0 simple, 1 ext, 2 COOP (PROOUT), +10 PAW based schemes


 Dipole corrections
   LMONO  =      F    monopole corrections only (constant potential shift)
   LDIPOL =      F    correct potential (dipole corrections)
   IDIPOL =      0    1-x, 2-y, 3-z, 4-all directions 
   EPSILON=  1.0000000 bulk dielectric constant

 Exchange correlation treatment:
   GGA     =    --    GGA type
   LEXCH   =     8    internal setting for exchange type
   LIBXC   =     F    Libxc                    
   VOSKOWN =     0    Vosko Wilk Nusair interpolation
   LHFCALC =     F    Hartree Fock is set to
   LHFONE  =     F    Hartree Fock one center treatment
   AEXX    =    0.0000 exact exchange contribution

 Linear response parameters
   LEPSILON=     F    determine dielectric tensor
   LRPA    =     F    only Hartree local field effects (RPA)
   LNABLA  =     F    use nabla operator in PAW spheres
   LVEL    =     F    velocity operator in full k-point grid
   CSHIFT  =0.1000    complex shift for real part using Kramers Kronig
   OMEGAMAX=  -1.0    maximum frequency
   DEG_THRESHOLD= 0.2000000E-02 threshold for treating states as degnerate
   RTIME   =   -0.100 relaxation time in fs
  (WPLASMAI=    0.000 imaginary part of plasma frequency in eV, 0.658/RTIME)
   DFIELD  = 0.0000000 0.0000000 0.0000000 field for delta impulse in time
 
  Optional k-point grid parameters
   LKPOINTS_OPT  =     F    use optional k-point grid
   KPOINTS_OPT_MODE=     1    mode for optional k-point grid
 
 Orbital magnetization related:
   ORBITALMAG=     F  switch on orbital magnetization
   LCHIMAG   =     F  perturbation theory with respect to B field
   DQ        =  0.001000  dq finite difference perturbation B field
   LLRAUG    =     F  two centre corrections for induced B field



--------------------------------------------------------------------------------------------------------


 Static calculation
 charge density and potential will be updated during run
 non-spin polarized calculation
 Variant of blocked Davidson
 Davidson routine will perform the subspace rotation
 perform sub-space diagonalisation
    after iterative eigenvector-optimisation
 modified Broyden-mixing scheme, WC =      100.0
 initial mixing is a Kerker type mixing with AMIX =  0.4000 and BMIX =      1.0000
 Hartree-type preconditioning will be used
 using additional bands            6
 reciprocal scheme for non local part
 use partial core corrections
 calculate Harris-corrections to forces 
   (improved forces if not selfconsistent)
 use gradient corrections 
 use of overlap-Matrix (Vanderbilt PP)
 Gauss-broadening in eV      SIGMA  =   0.10


--------------------------------------------------------------------------------------------------------


  energy-cutoff  :      240.00
  volume of cell :       12.66
      direct lattice vectors                 reciprocal lattice vectors
     1.850000000  1.850000000  0.000000000     0.270270270  0.270270270 -0.270270270
     0.000000000  1.850000000  1.850000000    -0.270270270  0.270270270  0.270270270
     1.850000000  0.000000000  1.850000000     0.270270270 -0.270270270  0.270270270

  length of vectors
     2.616295090  2.616295090  2.616295090     0.468121840  0.468121840  0.468121840


 
 k-points in units of 2pi/SCALE and weight: k-points                                
   0.00000000  0.00000000  0.00000000       0.001
   0.09090909  0.09090909 -0.09090909       0.006
   0.18181818  0.18181818 -0.18181818       0.006
   0.27272727  0.27272727 -0.27272727       0.006
   0.36363636  0.36363636 -0.36363636       0.006
   0.45454545  0.45454545 -0.45454545       0.006
   0.00000000  0.18181818 -0.00000000       0.005
   0.09090909  0.27272727 -0.09090909       0.018
   0.18181818  0.36363636 -0.18181818       0.018
   0.27272727  0.45454545 -0.27272727       0.018
   0.36363636  0.54545455 -0.36363636       0.018
  -0.54545455 -0.36363636  0.54545455       0.018
  -0.45454545 -0.27272727  0.45454545       0.018
  -0.36363636 -0.18181818  0.36363636       0.018
  -0.27272727 -0.09090909  0.27272727       0.018
  -0.18181818  0.00000000  0.18181818       0.009
   0.00000000  0.36363636 -0.00000000       0.005
   0.09090909  0.45454545 -0.09090909       0.018
   0.18181818  0.54545455 -0.18181818       0.018
   0.27272727  0.63636364 -0.27272727       0.018
  -0.63636364 -0.27272727  0.63636364       0.018
  -0.54545455 -0.18181818  0.54545455       0.018
  -0.45454545 -0.09090909  0.45454545       0.018
  -0.36363636  0.00000000  0.36363636       0.009
   0.00000000  0.54545455  0.00000000       0.005
   0.09090909  0.63636364 -0.09090909       0.018
   0.18181818  0.72727273 -0.18181818       0.018
  -0.72727273 -0.18181818  0.72727273       0.018
  -0.63636364 -0.09090909  0.63636364       0.018
  -0.54545455  0.00000000  0.54545455       0.009
   0.00000000  0.72727273  0.00000000       0.005
   0.09090909  0.81818182 -0.09090909       0.018
  -0.81818182 -0.09090909  0.81818182       0.018
  -0.72727273  0.00000000  0.72727273       0.009
   0.00000000  0.90909091 -0.00000000       0.005
  -0.90909091  0.00000000  0.90909091       0.009
   0.18181818  0.36363636  0.00000000       0.018
   0.27272727  0.45454545 -0.09090909       0.036
   0.36363636  0.54545455 -0.18181818       0.036
  -0.54545455 -0.36363636  0.72727273       0.036
   0.18181818  0.54545455  0.00000000       0.018
   0.27272727  0.63636364 -0.09090909       0.036
  -0.63636364 -0.27272727  0.81818182       0.036
  -0.54545455 -0.18181818  0.72727273       0.036
  -0.45454545 -0.09090909  0.63636364       0.036
  -0.36363636  0.00000000  0.54545455       0.018
   0.18181818  0.72727273  0.00000000       0.018
  -0.72727273 -0.18181818  0.90909091       0.036
  -0.63636364 -0.09090909  0.81818182       0.036
  -0.54545455 -0.00000000  0.72727273       0.018
  -0.81818182 -0.09090909  1.00000000       0.018
  -0.72727273 -0.00000000  0.90909091       0.018
  -0.63636364 -0.27272727  1.00000000       0.018
  -0.54545455 -0.18181818  0.90909091       0.036
  -0.63636364 -0.09090909  1.00000000       0.018
  -0.54545455 -0.00000000  0.90909091       0.018
 
 k-points in reciprocal lattice and weights: k-points                                
   0.00000000  0.00000000  0.00000000       0.001
   0.09090909  0.00000000  0.00000000       0.006
   0.18181818  0.00000000  0.00000000       0.006
   0.27272727  0.00000000  0.00000000       0.006
   0.36363636 -0.00000000 -0.00000000       0.006
   0.45454545 -0.00000000  0.00000000       0.006
   0.09090909  0.09090909 -0.00000000       0.005
   0.18181818  0.09090909  0.00000000       0.018
   0.27272727  0.09090909  0.00000000       0.018
   0.36363636  0.09090909  0.00000000       0.018
   0.45454545  0.09090909  0.00000000       0.018
  -0.45454545  0.09090909 -0.00000000       0.018
  -0.36363636  0.09090909  0.00000000       0.018
  -0.27272727  0.09090909  0.00000000       0.018
  -0.18181818  0.09090909 -0.00000000       0.018
  -0.09090909  0.09090909 -0.00000000       0.009
   0.18181818  0.18181818 -0.00000000       0.005
   0.27272727  0.18181818  0.00000000       0.018
   0.36363636  0.18181818  0.00000000       0.018
   0.45454545  0.18181818  0.00000000       0.018
  -0.45454545  0.18181818  0.00000000       0.018
  -0.36363636  0.18181818 -0.00000000       0.018
  -0.27272727  0.18181818 -0.00000000       0.018
  -0.18181818  0.18181818 -0.00000000       0.009
   0.27272727  0.27272727  0.00000000       0.005
   0.36363636  0.27272727  0.00000000       0.018
   0.45454545  0.27272727  0.00000000       0.018
  -0.45454545  0.27272727  0.00000000       0.018
  -0.36363636  0.27272727  0.00000000       0.018
  -0.27272727  0.27272727 -0.00000000       0.009
   0.36363636  0.36363636  0.00000000       0.005
   0.45454545  0.36363636  0.00000000       0.018
  -0.45454545  0.36363636  0.00000000       0.018
  -0.36363636  0.36363636  0.00000000       0.009
   0.45454545  0.45454545  0.00000000       0.005
  -0.45454545  0.45454545 -0.00000000       0.009
   0.27272727  0.18181818  0.09090909       0.018
   0.36363636  0.18181818  0.09090909       0.036
   0.45454545  0.18181818  0.09090909       0.036
  -0.45454545  0.18181818  0.09090909       0.036
   0.36363636  0.27272727  0.09090909       0.018
   0.45454545  0.27272727  0.09090909       0.036
  -0.45454545  0.27272727  0.09090909       0.036
  -0.36363636  0.27272727  0.09090909       0.036
  -0.27272727  0.27272727  0.09090909       0.036
  -0.18181818  0.27272727  0.09090909       0.018
   0.45454545  0.36363636  0.09090909       0.018
  -0.45454545  0.36363636  0.09090909       0.036
  -0.36363636  0.36363636  0.09090909       0.036
  -0.27272727  0.36363636  0.09090909       0.018
  -0.45454545  0.45454545  0.09090909       0.018
  -0.36363636  0.45454545  0.09090909       0.018
  -0.45454545  0.36363636  0.18181818       0.018
  -0.36363636  0.36363636  0.18181818       0.036
  -0.36363636  0.45454545  0.18181818       0.018
  -0.27272727  0.45454545  0.18181818       0.018
 
 position of ions in fractional coordinates (direct lattice) 
   0.00000000  0.00000000  0.00000000
 
 position of ions in cartesian coordinates  (Angst):
   0.00000000  0.00000000  0.00000000
 


--------------------------------------------------------------------------------------------------------


 k-point   1 :   0.0000 0.0000 0.0000  plane waves:     113
 k-point   2 :   0.0909 0.0000 0.0000  plane waves:     113
 k-point   3 :   0.1818 0.0000 0.0000  plane waves:     110
 k-point   4 :   0.2727 0.0000 0.0000  plane waves:     104
 k-point   5 :   0.3636-0.0000-0.0000  plane waves:     105
 k-point   6 :   0.4545-0.0000 0.0000  plane waves:     108
 k-point   7 :   0.0909 0.0909-0.0000  plane waves:     113
 k-point   8 :   0.1818 0.0909 0.0000  plane waves:     108
 k-point   9 :   0.2727 0.0909 0.0000  plane waves:     105
 k-point  10 :   0.3636 0.0909 0.0000  plane waves:     109
 k-point  11 :   0.4545 0.0909 0.0000  plane waves:     106
 k-point  12 :  -0.4545 0.0909-0.0000  plane waves:     107
 k-point  13 :  -0.3636 0.0909 0.0000  plane waves:     107
 k-point  14 :  -0.2727 0.0909 0.0000  plane waves:     107
 k-point  15 :  -0.1818 0.0909-0.0000  plane waves:     106
 k-point  16 :  -0.0909 0.0909-0.0000  plane waves:     111
 k-point  17 :   0.1818 0.1818-0.0000  plane waves:     113
 k-point  18 :   0.2727 0.1818 0.0000  plane waves:     109
 k-point  19 :   0.3636 0.1818 0.0000  plane waves:     107
 k-point  20 :   0.4545 0.1818 0.0000  plane waves:     110
 k-point  21 :  -0.4545 0.1818 0.0000  plane waves:     105
 k-point  22 :  -0.3636 0.1818-0.0000  plane waves:     108
 k-point  23 :  -0.2727 0.1818-0.0000  plane waves:     106
 k-point  24 :  -0.1818 0.1818-0.0000  plane waves:     107
 k-point  25 :   0.2727 0.2727 0.0000  plane waves:     105
 k-point  26 :   0.3636 0.2727 0.0000  plane waves:     109
 k-point  27 :   0.4545 0.2727 0.0000  plane waves:     106
 k-point  28 :  -0.4545 0.2727 0.0000  plane waves:     104
 k-point  29 :  -0.3636 0.2727 0.0000  plane waves:     103
 k-point  30 :  -0.2727 0.2727-0.0000  plane waves:     107
 k-point  31 :   0.3636 0.3636 0.0000  plane waves:     112
 k-point  32 :   0.4545 0.3636 0.0000  plane waves:     110
 k-point  33 :  -0.4545 0.3636 0.0000  plane waves:     106
 k-point  34 :  -0.3636 0.3636 0.0000  plane waves:     102
 k-point  35 :   0.4545 0.4545 0.0000  plane waves:     112
 k-point  36 :  -0.4545 0.4545-0.0000  plane waves:     106
 k-point  37 :   0.2727 0.1818 0.0909  plane waves:     110
 k-point  38 :   0.3636 0.1818 0.0909  plane waves:     104
 k-point  39 :   0.4545 0.1818 0.0909  plane waves:     107
 k-point  40 :  -0.4545 0.1818 0.0909  plane waves:     108
 k-point  41 :   0.3636 0.2727 0.0909  plane waves:     110
 k-point  42 :   0.4545 0.2727 0.0909  plane waves:     106
 k-point  43 :  -0.4545 0.2727 0.0909  plane waves:     107
 k-point  44 :  -0.3636 0.2727 0.0909  plane waves:     106
 k-point  45 :  -0.2727 0.2727 0.0909  plane waves:     108
 k-point  46 :  -0.1818 0.2727 0.0909  plane waves:     104
 k-point  47 :   0.4545 0.3636 0.0909  plane waves:     104
 k-point  48 :  -0.4545 0.3636 0.0909  plane waves:     107
 k-point  49 :  -0.3636 0.3636 0.0909  plane waves:     107
 k-point  50 :  -0.2727 0.3636 0.0909  plane waves:     108
 k-point  51 :  -0.4545 0.4545 0.0909  plane waves:     106
 k-point  52 :  -0.3636 0.4545 0.0909  plane waves:     106
 k-point  53 :  -0.4545 0.3636 0.1818  plane waves:     107
 k-point  54 :  -0.3636 0.3636 0.1818  plane waves:     106
 k-point  55 :  -0.3636 0.4545 0.1818  plane waves:     105
 k-point  56 :  -0.2727 0.4545 0.1818  plane waves:     107

 maximum and minimum number of plane-waves per node :       113      102

 maximum number of plane-waves:       113
 maximum index in each direction: 
   IXMAX=    3   IYMAX=    3   IZMAX=    3
   IXMIN=   -3   IYMIN=   -3   IZMIN=   -3


 serial   3D FFT for wavefunctions
 parallel 3D FFT for charge:
    minimum data exchange during FFTs selected (reduces bandwidth)


 total amount of memory used by VASP MPI-rank0    30857. kBytes
=======================================================================

   base      :      30000. kBytes
   nonl-proj :        417. kBytes
   fftplans  :         71. kBytes
   grid      :        144. kBytes
   one-center:          3. kBytes
   wavefun   :        222. kBytes
 
     INWAV:  cpu time      0.0000: real time      0.0001
 Broyden mixing: mesh for mixing (old mesh)
   NGX =  7   NGY =  7   NGZ =  7
  (NGX  = 20   NGY  = 20   NGZ  = 20)
  gives a total of    343 points

 initial charge density was supplied:
 charge density of overlapping atoms calculated
 number of electron       4.0000000 magnetization 
 keeping initial charge density in first step


--------------------------------------------------------------------------------------------------------


 Maximum index for augmentation-charges          667 (set IRDMAX)


--------------------------------------------------------------------------------------------------------


 First call to EWALD:  gamma=   0.760
 Maximum number of real-space cells 3x 3x 3
 Maximum number of reciprocal cells 3x 3x 3

    FEWALD:  cpu time      0.0012: real time      0.0012


--------------------------------------- Iteration      1(   1)  ---------------------------------------


    POTLOK:  cpu time      0.0012: real time      0.0013
    SETDIJ:  cpu time      0.0010: real time      0.0010
     EDDAV:  cpu time      0.0396: real time      0.0397
       DOS:  cpu time      0.0003: real time      0.0004
    --------------------------------------------
      LOOP:  cpu time      0.0421: real time      0.0424

 eigenvalue-minimisations  :  1080
 total energy-change (2. order) :-0.4150458E+01  (-0.1213829E+03)
 number of electron       4.0000000 magnetization 
 augmentation part        4.0000000 magnetization 

 Free energy of the ion-electron system (eV)
  ---------------------------------------------------
  alpha Z        PSCENC =         2.65833264
  Ewald energy   TEWEN  =      -142.74819037
  -Hartree energ DENC   =        -0.36576913
  -exchange      EXHF   =         0.00000000
  -V(xc)+E(xc)   XCENC  =        -8.43869577
  PAW double counting   =        88.12379961      -70.53051779
  entropy T*S    EENTRO =        -0.00064079
  eigenvalues    EBANDS =        24.09044664
  atomic energy  EATOM  =       103.06077658
  Solvation  Ediel_sol  =         0.00000000
  ---------------------------------------------------
  free energy    TOTEN  =        -4.15045838 eV

  energy without entropy =       -4.14981759  energy(sigma->0) =       -4.15013799


--------------------------------------------------------------------------------------------------------




--------------------------------------- Iteration      1(   2)  ---------------------------------------


     EDDAV:  cpu time      0.0509: real time      0.0510
       DOS:  cpu time      0.0003: real time      0.0003
    --------------------------------------------
      LOOP:  cpu time      0.0512: real time      0.0513

 eigenvalue-minimisations  :  1392
 total energy-change (2. order) :-0.6733816E+00  (-0.6688739E+00)
 number of electron       4.0000000 magnetization 
 augmentation part        4.0000000 magnetization 

 Free energy of the ion-electron system (eV)
  ---------------------------------------------------
  alpha Z        PSCENC =         2.65833264
  Ewald energy   TEWEN  =      -142.74819037
  -Hartree energ DENC   =        -0.36576913
  -exchange      EXHF   =         0.00000000
  -V(xc)+E(xc)   XCENC  =        -8.43869577
  PAW double counting   =        88.12379961      -70.53051779
  entropy T*S    EENTRO =        -0.00407749
  eigenvalues    EBANDS =        23.42050177
  atomic energy  EATOM  =       103.06077658
  Solvation  Ediel_sol  =         0.00000000
  ---------------------------------------------------
  free energy    TOTEN  =        -4.82383996 eV

  energy without entropy =       -4.81976247  energy(sigma->0) =       -4.82180122


--------------------------------------------------------------------------------------------------------




--------------------------------------- Iteration      1(   3)  ---------------------------------------


     EDDAV:  cpu time      0.0307: real time      0.0308
       DOS:  cpu time      0.0003: real time      0.0003
    --------------------------------------------
      LOOP:  cpu time      0.0309: real time      0.0311

 eigenvalue-minimisations  :   952
 total energy-change (2. order) :-0.1255990E-02  (-0.1255577E-02)
 number of electron       4.0000000 magnetization 
 augmentation part        4.0000000 magnetization 

 Free energy of the ion-electron system (eV)
  ---------------------------------------------------
  alpha Z        PSCENC =         2.65833264
  Ewald energy   TEWEN  =      -142.74819037
  -Hartree energ DENC   =        -0.36576913
  -exchange      EXHF   =         0.00000000
  -V(xc)+E(xc)   XCENC  =        -8.43869577
  PAW double counting   =        88.12379961      -70.53051779
  entropy T*S    EENTRO =        -0.00407920
  eigenvalues    EBANDS =        23.41924749
  atomic energy  EATOM  =       103.06077658
  Solvation  Ediel_sol  =         0.00000000
  ---------------------------------------------------
  free energy    TOTEN  =        -4.82509595 eV

  energy without entropy =       -4.82101675  energy(sigma->0) =       -4.82305635


--------------------------------------------------------------------------------------------------------




--------------------------------------- Iteration      1(   4)  ---------------------------------------


     EDDAV:  cpu time      0.0563: real time      0.0565
       DOS:  cpu time      0.0004: real time      0.0004
    --------------------------------------------
      LOOP:  cpu time      0.0567: real time      0.0568

 eigenvalue-minimisations  :  1480
 total energy-change (2. order) :-0.4331692E-06  (-0.4332890E-06)
 number of electron       4.0000000 magnetization 
 augmentation part        4.0000000 magnetization 

 Free energy of the ion-electron system (eV)
  ---------------------------------------------------
  alpha Z        PSCENC =         2.65833264
  Ewald energy   TEWEN  =      -142.74819037
  -Hartree energ DENC   =        -0.36576913
  -exchange      EXHF   =         0.00000000
  -V(xc)+E(xc)   XCENC  =        -8.43869577
  PAW double counting   =        88.12379961      -70.53051779
  entropy T*S    EENTRO =        -0.00407920
  eigenvalues    EBANDS =        23.41924706
  atomic energy  EATOM  =       103.06077658
  Solvation  Ediel_sol  =         0.00000000
  ---------------------------------------------------
  free energy    TOTEN  =        -4.82509638 eV

  energy without entropy =       -4.82101718  energy(sigma->0) =       -4.82305678


--------------------------------------------------------------------------------------------------------




--------------------------------------- Iteration      1(   5)  ---------------------------------------


     EDDAV:  cpu time      0.0292: real time      0.0293
       DOS:  cpu time      0.0003: real time      0.0003
    CHARGE:  cpu time      0.0007: real time      0.0008
    MIXING:  cpu time      0.0002: real time      0.0002
    --------------------------------------------
      LOOP:  cpu time      0.0304: real time      0.0305

 eigenvalue-minimisations  :   856
 total energy-change (2. order) : 0.1952429E-09  (-0.4062965E-10)
 number of electron       3.9999993 magnetization 
 augmentation part       -0.2358530 magnetization 

 Broyden mixing:
  rms(total) = 0.38396E+00    rms(broyden)= 0.38396E+00
  rms(prec ) = 0.51257E+00
  weight for this iteration     100.00

 Free energy of the ion-electron system (eV)
  ---------------------------------------------------
  alpha Z        PSCENC =         2.65833264
  Ewald energy   TEWEN  =      -142.74819037
  -Hartree energ DENC   =        -0.36576913
  -exchange      EXHF   =         0.00000000
  -V(xc)+E(xc)   XCENC  =        -8.43869577
  PAW double counting   =        88.12379961      -70.53051779
  entropy T*S    EENTRO =        -0.00407920
  eigenvalues    EBANDS =        23.41924706
  atomic energy  EATOM  =       103.06077658
  Solvation  Ediel_sol  =         0.00000000
  ---------------------------------------------------
  free energy    TOTEN  =        -4.82509638 eV

  energy without entropy =       -4.82101718  energy(sigma->0) =       -4.82305678


--------------------------------------------------------------------------------------------------------




--------------------------------------- Iteration      1(   6)  ---------------------------------------


    POTLOK:  cpu time      0.0010: real time      0.0010
    SETDIJ:  cpu time      0.0007: real time      0.0007
     EDDAV:  cpu time      0.0362: real time      0.0363
       DOS:  cpu time      0.0004: real time      0.0004
    CHARGE:  cpu time      0.0008: real time      0.0008
    MIXING:  cpu time      0.0002: real time      0.0002
    --------------------------------------------
      LOOP:  cpu time      0.0391: real time      0.0392

 eigenvalue-minimisations  :  1096
 total energy-change (2. order) : 0.1698843E-01  (-0.3759746E-03)
 number of electron       3.9999993 magnetization 
 augmentation part       -0.2380131 magnetization 

 Broyden mixing:
  rms(total) = 0.21429E+00    rms(broyden)= 0.21429E+00
  rms(prec ) = 0.29576E+00
  weight for this iteration     100.00

 eigenvalues of (default mixing * dielectric matrix)
  average eigenvalue GAMMA=   2.2555
  2.2555

 Free energy of the ion-electron system (eV)
  ---------------------------------------------------
  alpha Z        PSCENC =         2.65833264
  Ewald energy   TEWEN  =      -142.74819037
  -Hartree energ DENC   =        -0.32426283
  -exchange      EXHF   =         0.00000000
  -V(xc)+E(xc)   XCENC  =        -8.40231651
  PAW double counting   =       216.84202717     -199.25965791
  entropy T*S    EENTRO =        -0.00409880
  eigenvalues    EBANDS =        23.36928208
  atomic energy  EATOM  =       103.06077658
  Solvation  Ediel_sol  =         0.00000000
  ---------------------------------------------------
  free energy    TOTEN  =        -4.80810796 eV

  energy without entropy =       -4.80400916  energy(sigma->0) =       -4.80605856


--------------------------------------------------------------------------------------------------------




--------------------------------------- Iteration      1(   7)  ---------------------------------------


    POTLOK:  cpu time      0.0009: real time      0.0009
    SETDIJ:  cpu time      0.0006: real time      0.0006
     EDDAV:  cpu time      0.0367: real time      0.0368
       DOS:  cpu time      0.0003: real time      0.0003
    CHARGE:  cpu time      0.0005: real time      0.0005
    MIXING:  cpu time      0.0001: real time      0.0001
    --------------------------------------------
      LOOP:  cpu time      0.0392: real time      0.0393

 eigenvalue-minimisations  :  1104
 total energy-change (2. order) : 0.1003664E-01  (-0.7776927E-03)
 number of electron       3.9999993 magnetization 
 augmentation part       -0.2411886 magnetization 

 Broyden mixing:
  rms(total) = 0.14919E-01    rms(broyden)= 0.14918E-01
  rms(prec ) = 0.20025E-01
  weight for this iteration     100.00

 eigenvalues of (default mixing * dielectric matrix)
  average eigenvalue GAMMA=   2.4388
  2.4388  2.4388

 Free energy of the ion-electron system (eV)
  ---------------------------------------------------
  alpha Z        PSCENC =         2.65833264
  Ewald energy   TEWEN  =      -142.74819037
  -Hartree energ DENC   =        -0.29721599
  -exchange      EXHF   =         0.00000000
  -V(xc)+E(xc)   XCENC  =        -8.34528845
  PAW double counting   =       492.67884758     -475.11623064
  entropy T*S    EENTRO =        -0.00411301
  eigenvalues    EBANDS =        23.31501036
  atomic energy  EATOM  =       103.06077658
  Solvation  Ediel_sol  =         0.00000000
  ---------------------------------------------------
  free energy    TOTEN  =        -4.79807131 eV

  energy without entropy =       -4.79395831  energy(sigma->0) =       -4.79601481


--------------------------------------------------------------------------------------------------------




--------------------------------------- Iteration      1(   8)  ---------------------------------------


    POTLOK:  cpu time      0.0009: real time      0.0010
    SETDIJ:  cpu time      0.0006: real time      0.0006
     EDDAV:  cpu time      0.0352: real time      0.0353
       DOS:  cpu time      0.0003: real time      0.0003
    --------------------------------------------
      LOOP:  cpu time      0.0370: real time      0.0372

 eigenvalue-minimisations  :  1000
 total energy-change (2. order) : 0.5915325E-04  (-0.1995664E-05)
 number of electron       3.9999993 magnetization 
 augmentation part       -0.2411886 magnetization 

 Free energy of the ion-electron system (eV)
  ---------------------------------------------------
  alpha Z        PSCENC =         2.65833264
  Ewald energy   TEWEN  =      -142.74819037
  -Hartree energ DENC   =        -0.30076094
  -exchange      EXHF   =         0.00000000
  -V(xc)+E(xc)   XCENC  =        -8.33953463
  PAW double counting   =       475.50273459     -457.94746299
  entropy T*S    EENTRO =        -0.00411323
  eigenvalues    EBANDS =        23.32020619
  atomic energy  EATOM  =       103.06077658
  Solvation  Ediel_sol  =         0.00000000
  ---------------------------------------------------
  free energy    TOTEN  =        -4.79801216 eV

  energy without entropy =       -4.79389893  energy(sigma->0) =       -4.79595554


--------------------------------------------------------------------------------------------------------




 average (electrostatic) potential at core
  the test charge radii are     0.9892
  (the norm of the test charge is              1.0000)
       1 -78.0291
 
 
 
 E-fermi :  12.0541     XC(G=0): -11.7437     alpha+bet :-18.9402

 Fermi energy:        12.0541004854

 k-point     1 :       0.0000    0.0000    0.0000
  band No.  band energies     occupation 
      1      -3.7194      2.00000
      2      24.6312      0.00000
      3      24.6312      0.00000
      4      24.6312      0.00000
      5      24.8873      0.00000
      6      24.8874      0.00000
      7      24.8874      0.00000
      8      30.1654      0.00000

 k-point     2 :       0.0909    0.0000    0.0000
  band No.  band energies     occupation 
      1      -3.4561      2.00000
      2      20.7968      0.00000
      3      23.3451      0.00000
      4      23.3453      0.00000
      5      26.5115      0.00000
      6      26.5117      0.00000
      7      26.5300      0.00000
      8      31.1441      0.00000

 k-point     3 :       0.1818    0.0000    0.0000
  band No.  band energies     occupation 
      1      -2.6678      2.00000
      2      16.5069      0.00000
      3      22.3675      0.00000
      4      22.3677      0.00000
      5      26.5797      0.00000
      6      27.5952      0.00000
      7      27.5960      0.00000
      8      30.2234      0.00000

 k-point     4 :       0.2727    0.0000    0.0000
  band No.  band energies     occupation 
      1      -1.3607      2.00000
      2      12.4692      0.00000
      3      21.8207      0.00000
      4      21.8210      0.00000
      5      26.1871      0.00000
      6      26.1878      0.00000
      7      26.4852      0.00000
      8      31.7034      0.00000

 k-point     5 :       0.3636   -0.0000   -0.0000
  band No.  band energies     occupation 
      1       0.4536      2.00000
      2       8.7952      2.00000
      3      21.6807      0.00000
      4      21.6809      0.00000
      5      24.6384      0.00000
      6      24.6390      0.00000
      7      26.5835      0.00000
      8      29.9851      0.00000

 k-point     6 :       0.4545   -0.0000    0.0000
  band No.  band energies     occupation 
      1       2.7610      2.00000
      2       5.5527      2.00000
      3      21.8391      0.00000
      4      21.8392      0.00000
      5      23.5853      0.00000
      6      23.5860      0.00000
      7      26.9156      0.00000
      8      28.7947      0.00000

 k-point     7 :       0.0909    0.0909   -0.0000
  band No.  band energies     occupation 
      1      -3.3684      2.00000
      2      21.7881      0.00000
      3      21.7881      0.00000
      4      22.9304      0.00000
      5      24.1601      0.00000
      6      28.1930      0.00000
      7      28.1931      0.00000
      8      29.0344      0.00000

 k-point     8 :       0.1818    0.0909    0.0000
  band No.  band energies     occupation 
      1      -2.7551      2.00000
      2      18.0856      0.00000
      3      20.6645      0.00000
      4      22.5846      0.00000
      5      24.6531      0.00000
      6      26.9276      0.00000
      7      29.0207      0.00000
      8      29.7762      0.00000

 k-point     9 :       0.2727    0.0909    0.0000
  band No.  band energies     occupation 
      1      -1.6213      2.00000
      2      13.9777      0.00000
      3      19.9765      0.00000
      4      21.9404      0.00000
      5      23.6875      0.00000
      6      27.8092      0.00000
      7      28.9982      0.00000
      8      29.3538      0.00000

 k-point    10 :       0.3636    0.0909    0.0000
  band No.  band energies     occupation 
      1       0.0231      2.00000
      2      10.1852      2.00000
      3      19.7418      0.00000
      4      21.1853      0.00000
      5      22.4296      0.00000
      6      27.3928      0.00000
      7      28.5113      0.00000
      8      31.2433      0.00000

 k-point    11 :       0.4545    0.0909    0.0000
  band No.  band energies     occupation 
      1       2.1656      2.00000
      2       6.8044      2.00000
      3      19.9598      0.00000
      4      20.0066      0.00000
      5      22.4403      0.00000
      6      26.0536      0.00000
      7      28.6476      0.00000
      8      31.0569      0.00000

 k-point    12 :      -0.4545    0.0909   -0.0000
  band No.  band energies     occupation 
      1       3.8588      2.00000
      2       4.7997      2.00000
      3      19.0446      0.00000
      4      20.6130      0.00000
      5      23.1093      0.00000
      6      25.1311      0.00000
      7      28.4382      0.00000
      8      30.9921      0.00000

 k-point    13 :      -0.3636    0.0909    0.0000
  band No.  band energies     occupation 
      1       1.3973      2.00000
      2       7.8815      2.00000
      3      18.5131      0.00000
      4      21.6498      0.00000
      5      24.2701      0.00000
      6      24.7096      0.00000
      7      28.0344      0.00000
      8      31.8387      0.00000

 k-point    14 :      -0.2727    0.0909    0.0000
  band No.  band energies     occupation 
      1      -0.5812      2.00000
      2      11.4004      2.00000
      3      18.4390      0.00000
      4      22.9220      0.00000
      5      24.9160      0.00000
      6      25.8653      0.00000
      7      27.7920      0.00000
      8      31.3095      0.00000

 k-point    15 :      -0.1818    0.0909   -0.0000
  band No.  band energies     occupation 
      1      -2.0565      2.00000
      2      15.2970      0.00000
      3      18.8386      0.00000
      4      24.0657      0.00000
      5      25.8618      0.00000
      6      27.6947      0.00000
      7      27.7361      0.00000
      8      28.6997      0.00000

 k-point    16 :      -0.0909    0.0909   -0.0000
  band No.  band energies     occupation 
      1      -3.0178      2.00000
      2      19.1793      0.00000
      3      19.9724      0.00000
      4      25.0518      0.00000
      5      25.3162      0.00000
      6      27.2839      0.00000
      7      28.4942      0.00000
      8      28.9251      0.00000

 k-point    17 :       0.1818    0.1818   -0.0000
  band No.  band energies     occupation 
      1      -2.3187      2.00000
      2      19.3700      0.00000
      3      19.3700      0.00000
      4      20.4407      0.00000
      5      22.1578      0.00000
      6      24.1210      0.00000
      7      31.8611      0.00000
      8      31.8612      0.00000

 k-point    18 :       0.2727    0.1818    0.0000
  band No.  band energies     occupation 
      1      -1.3610      2.00000
      2      15.8696      0.00000
      3      18.5393      0.00000
      4      20.2128      0.00000
      5      20.9093      0.00000
      6      24.0378      0.00000
      7      32.0898      0.00000
      8      32.8040      0.00000

 k-point    19 :       0.3636    0.1818    0.0000
  band No.  band energies     occupation 
      1       0.1091      2.00000
      2      12.0363      1.19840
      3      18.1584      0.00000
      4      18.3364      0.00000
      5      20.6413      0.00000
      6      26.5048      0.00000
      7      30.6618      0.00000
      8      32.9005      0.00000

 k-point    20 :       0.4545    0.1818    0.0000
  band No.  band energies     occupation 
      1       2.0793      2.00000
      2       8.5371      2.00000
      3      16.6986      0.00000
      4      18.2316      0.00000
      5      20.7733      0.00000
      6      29.2518      0.00000
      7      29.3737      0.00000
      8      32.8825      0.00000

 k-point    21 :      -0.4545    0.1818    0.0000
  band No.  band energies     occupation 
      1       4.5310      2.00000
      2       5.4683      2.00000
      3      15.5191      0.00000
      4      18.7600      0.00000
      5      21.3939      0.00000
      6      28.1975      0.00000
      7      30.8417      0.00000
      8      34.1429      0.00000

 k-point    22 :      -0.3636    0.1818   -0.0000
  band No.  band energies     occupation 
      1       2.8466      2.00000
      2       7.4506      2.00000
      3      14.8059      0.00000
      4      19.7269      0.00000
      5      22.4611      0.00000
      6      27.5535      0.00000
      7      30.5385      0.00000
      8      34.1652      0.00000

 k-point    23 :      -0.2727    0.1818   -0.0000
  band No.  band energies     occupation 
      1       0.7115      2.00000
      2      10.7694      2.00000
      3      14.6158      0.00000
      4      21.1258      0.00000
      5      23.9867      0.00000
      6      27.3942      0.00000
      7      30.0152      0.00000
      8      30.7278      0.00000

 k-point    24 :      -0.1818    0.1818   -0.0000
  band No.  band energies     occupation 
      1      -0.9272      2.00000
      2      14.0282      0.00000
      3      15.3627      0.00000
      4      22.8673      0.00000
      5      25.8559      0.00000
      6      27.3830      0.00000
      7      28.0305      0.00000
      8      29.1911      0.00000

 k-point    25 :       0.2727    0.2727    0.0000
  band No.  band energies     occupation 
      1      -0.5812      2.00000
      2      17.5534      0.00000
      3      17.5534      0.00000
      4      17.7217      0.00000
      5      18.4266      0.00000
      6      21.7151      0.00000
      7      35.1836      0.00000
      8      35.4805      0.00000

 k-point    26 :       0.3636    0.2727    0.0000
  band No.  band energies     occupation 
      1       0.7100      2.00000
      2      14.2673      0.00000
      3      15.4548      0.00000
      4      17.0175      0.00000
      5      19.1040      0.00000
      6      22.5507      0.00000
      7      34.2081      0.00000
      8      36.2350      0.00000

 k-point    27 :       0.4545    0.2727    0.0000
  band No.  band energies     occupation 
      1       2.5021      2.00000
      2      10.7249      2.00000
      3      13.6140      0.00000
      4      16.9412      0.00000
      5      19.3453      0.00000
      6      25.4260      0.00000
      7      32.8626      0.00000
      8      35.8199      0.00000

 k-point    28 :      -0.4545    0.2727    0.0000
  band No.  band energies     occupation 
      1       4.7728      2.00000
      2       7.5417      2.00000
      3      12.2497      0.00566
      4      17.3225      0.00000
      5      19.8575      0.00000
      6      28.8617      0.00000
      7      31.7348      0.00000
      8      34.9031      0.00000

 k-point    29 :      -0.3636    0.2727    0.0000
  band No.  band energies     occupation 
      1       4.7903      2.00000
      2       7.4735      2.00000
      3      11.4133      2.00000
      4      18.1545      0.00000
      5      20.8126      0.00000
      6      30.9388      0.00000
      7      32.1720      0.00000
      8      33.8754      0.00000

 k-point    30 :      -0.2727    0.2727   -0.0000
  band No.  band energies     occupation 
      1       2.5066      2.00000
      2      10.0975      2.00000
      3      11.5892      2.00000
      4      19.4280      0.00000
      5      22.2060      0.00000
      6      30.4921      0.00000
      7      30.7308      0.00000
      8      32.0638      0.00000

 k-point    31 :       0.3636    0.3636    0.0000
  band No.  band energies     occupation 
      1       1.8203      2.00000
      2      12.9677      0.00000
      3      16.3286      0.00000
      4      16.3287      0.00000
      5      17.0093      0.00000
      6      20.4881      0.00000
      7      37.0231      0.00000
      8      38.4182      0.00000

 k-point    32 :       0.4545    0.3636    0.0000
  band No.  band energies     occupation 
      1       3.4235      2.00000
      2      10.9423      2.00000
      3      13.2968      0.00000
      4      16.0999      0.00000
      5      18.1009      0.00000
      6      21.6672      0.00000
      7      36.4583      0.00000
      8      38.7722      0.00000

 k-point    33 :      -0.4545    0.3636    0.0000
  band No.  band energies     occupation 
      1       5.4755      2.00000
      2       9.4352      2.00000
      3      10.0699      2.00000
      4      16.3303      0.00000
      5      18.6921      0.00000
      6      24.8654      0.00000
      7      35.4046      0.00000
      8      37.7324      0.00000

 k-point    34 :      -0.3636    0.3636    0.0000
  band No.  band energies     occupation 
      1       7.2074      2.00000
      2       7.4757      2.00000
      3       8.9498      2.00000
      4      17.0177      0.00000
      5      19.5488      0.00000
      6      28.6445      0.00000
      7      34.2316      0.00000
      8      35.2284      0.00000

 k-point    35 :       0.4545    0.4545    0.0000
  band No.  band energies     occupation 
      1       4.8066      2.00000
      2       8.7689      2.00000
      3      15.7191      0.00000
      4      15.7192      0.00000
      5      16.3164      0.00000
      6      19.8708      0.00000
      7      38.6924      0.00000
      8      40.5090      0.00000

 k-point    36 :      -0.4545    0.4545   -0.0000
  band No.  band energies     occupation 
      1       6.1650      2.00000
      2       7.5932      2.00000
      3      12.9760      0.00000
      4      15.7955      0.00000
      5      17.7832      0.00000
      6      21.3750      0.00000
      7      38.1523      0.00000
      8      39.8630      0.00000

 k-point    37 :       0.2727    0.1818    0.0909
  band No.  band energies     occupation 
      1      -1.9698      2.00000
      2      16.6201      0.00000
      3      17.6736      0.00000
      4      22.8838      0.00000
      5      23.7548      0.00000
      6      25.6179      0.00000
      7      29.8659      0.00000
      8      30.5775      0.00000

 k-point    38 :       0.3636    0.1818    0.0909
  band No.  band energies     occupation 
      1      -0.6675      2.00000
      2      13.0493      0.00000
      3      16.7438      0.00000
      4      20.9485      0.00000
      5      23.9275      0.00000
      6      27.1154      0.00000
      7      28.5086      0.00000
      8      31.1964      0.00000

 k-point    39 :       0.4545    0.1818    0.0909
  band No.  band energies     occupation 
      1       1.1401      2.00000
      2       9.4344      2.00000
      3      16.6360      0.00000
      4      19.2180      0.00000
      5      23.8716      0.00000
      6      26.5212      0.00000
      7      29.9902      0.00000
      8      31.9032      0.00000

 k-point    40 :      -0.4545    0.1818    0.0909
  band No.  band energies     occupation 
      1       3.4390      2.00000
      2       6.2161      2.00000
      3      17.0122      0.00000
      4      17.9101      0.00000
      5      24.1540      0.00000
      6      25.3898      0.00000
      7      30.9162      0.00000
      8      33.9867      0.00000

 k-point    41 :       0.3636    0.2727    0.0909
  band No.  band energies     occupation 
      1      -0.2359      2.00000
      2      14.6770      0.00000
      3      15.8412      0.00000
      4      18.0644      0.00000
      5      21.9016      0.00000
      6      23.8341      0.00000
      7      31.5207      0.00000
      8      34.7166      0.00000

 k-point    42 :       0.4545    0.2727    0.0909
  band No.  band energies     occupation 
      1       1.3959      2.00000
      2      11.4173      2.00000
      3      15.1757      0.00000
      4      16.1009      0.00000
      5      22.4488      0.00000
      6      26.0420      0.00000
      7      30.0902      0.00000
      8      35.2415      0.00000

 k-point    43 :      -0.4545    0.2727    0.0909
  band No.  band energies     occupation 
      1       3.5205      2.00000
      2       8.1119      2.00000
      3      14.5609      0.00000
      4      15.3968      0.00000
      5      22.7864      0.00000
      6      28.2788      0.00000
      7      29.7852      0.00000
      8      34.8690      0.00000

 k-point    44 :      -0.3636    0.2727    0.0909
  band No.  band energies     occupation 
      1       5.2051      2.00000
      2       6.1182      2.00000
      3      13.5325      0.00000
      4      16.1025      0.00000
      5      23.5148      0.00000
      6      27.6015      0.00000
      7      32.7223      0.00000
      8      33.3060      0.00000

 k-point    45 :      -0.2727    0.2727    0.0909
  band No.  band energies     occupation 
      1       2.7608      2.00000
      2       9.1259      2.00000
      3      13.0230      0.00000
      4      17.2844      0.00000
      5      24.6345      0.00000
      6      27.0663      0.00000
      7      30.3190      0.00000
      8      33.9538      0.00000

 k-point    46 :      -0.1818    0.2727    0.0909
  band No.  band energies     occupation 
      1       0.7972      2.00000
      2      12.0711      0.80989
      3      13.4966      0.00000
      4      18.9203      0.00000
      5      25.9917      0.00000
      6      26.3732      0.00000
      7      27.9476      0.00000
      8      33.1296      0.00000

 k-point    47 :       0.4545    0.3636    0.0909
  band No.  band energies     occupation 
      1       2.1615      2.00000
      2      13.2896      0.00000
      3      13.3810      0.00000
      4      14.6103      0.00000
      5      20.6416      0.00000
      6      22.7144      0.00000
      7      33.7039      0.00000
      8      38.2240      0.00000

 k-point    48 :      -0.4545    0.3636    0.0909
  band No.  band energies     occupation 
      1       4.0993      2.00000
      2      10.4336      2.00000
      3      11.5983      2.00000
      4      14.2341      0.00000
      5      21.5123      0.00000
      6      25.2597      0.00000
      7      32.4246      0.00000
      8      37.3256      0.00000

 k-point    49 :      -0.3636    0.3636    0.0909
  band No.  band energies     occupation 
      1       6.4749      2.00000
      2       7.4475      2.00000
      3      10.4288      2.00000
      4      14.7534      0.00000
      5      22.1944      0.00000
      6      28.7516      0.00000
      7      31.4364      0.00000
      8      34.3425      0.00000

 k-point    50 :      -0.2727    0.3636    0.0909
  band No.  band energies     occupation 
      1       4.8709      2.00000
      2       8.7868      2.00000
      3      10.2784      2.00000
      4      15.7777      0.00000
      5      23.2419      0.00000
      6      30.1829      0.00000
      7      30.6942      0.00000
      8      33.0832      0.00000

 k-point    51 :      -0.4545    0.4545    0.0909
  band No.  band energies     occupation 
      1       5.1413      2.00000
      2       9.1035      2.00000
      3      12.7228      0.00000
      4      13.9743      0.00000
      5      19.9892      0.00000
      6      22.1358      0.00000
      7      36.1783      0.00000
      8      38.5269      0.00000

 k-point    52 :      -0.3636    0.4545    0.0909
  band No.  band energies     occupation 
      1       6.8203      2.00000
      2       8.2727      2.00000
      3      10.1063      2.00000
      4      13.9149      0.00000
      5      21.1983      0.00000
      6      24.9861      0.00000
      7      35.0624      0.00000
      8      35.3146      0.00000

 k-point    53 :      -0.4545    0.3636    0.1818
  band No.  band energies     occupation 
      1       3.1818      2.00000
      2      10.7554      2.00000
      3      12.2123      0.02523
      4      14.2527      0.00000
      5      25.1604      0.00000
      6      26.2811      0.00000
      7      28.8078      0.00000
      8      36.7528      0.00000

 k-point    54 :      -0.3636    0.3636    0.1818
  band No.  band energies     occupation 
      1       5.4448      2.00000
      2       8.1350      2.00000
      3      12.0521      1.02208
      4      12.8950      0.00000
      5      25.9507      0.00000
      6      27.1780      0.00000
      7      29.7566      0.00000
      8      33.6896      0.00000

 k-point    55 :      -0.3636    0.4545    0.1818
  band No.  band energies     occupation 
      1       6.1428      2.00000
      2      10.0974      2.00000
      3      10.1006      2.00000
      4      11.5678      2.00000
      5      24.5362      0.00000
      6      25.9503      0.00000
      7      31.2320      0.00000
      8      34.4091      0.00000

 k-point    56 :      -0.2727    0.4545    0.1818
  band No.  band energies     occupation 
      1       7.8029      2.00000
      2       8.1315      2.00000
      3       9.6140      2.00000
      4      11.7307      2.00000
      5      25.8042      0.00000
      6      28.7982      0.00000
      7      29.6129      0.00000
      8      31.6124      0.00000


--------------------------------------------------------------------------------------------------------


 soft charge-density along one line, spin component           1
         0         1         2         3         4         5         6         7         8         9
 total charge-density along one line
 
 pseudopotential strength for first ion, spin component:           1
 17.759  24.774   0.000   0.000  -0.000   0.000   0.000  -0.000
 24.774  34.564   0.000   0.000  -0.000   0.000   0.000  -0.000
  0.000   0.000   4.069  -0.000  -0.000   7.577  -0.000  -0.000
  0.000   0.000  -0.000   4.069  -0.000  -0.000   7.577  -0.000
 -0.000  -0.000  -0.000  -0.000   4.069  -0.000  -0.000   7.577
  0.000   0.000   7.577  -0.000  -0.000  14.124  -0.000  -0.000
  0.000   0.000  -0.000   7.577  -0.000  -0.000  14.124  -0.000
 -0.000  -0.000  -0.000  -0.000   7.577  -0.000  -0.000  14.124
 total augmentation occupancy for first ion, spin component:           1
  6.588  -3.008   0.000   0.000   0.000   0.000   0.000   0.000
 -3.008   1.790   0.000   0.000   0.000   0.000   0.000   0.000
  0.000   0.000   3.117   0.000  -0.000  -0.843  -0.000   0.000
  0.000   0.000   0.000   3.117   0.000  -0.000  -0.843  -0.000
  0.000   0.000  -0.000   0.000   3.117   0.000  -0.000  -0.843
  0.000   0.000  -0.843  -0.000   0.000   0.247   0.000  -0.000
  0.000   0.000  -0.000  -0.843  -0.000   0.000   0.247   0.000
  0.000   0.000   0.000  -0.000  -0.843  -0.000   0.000   0.247


------------------------ aborting loop because EDIFF is reached ----------------------------------------


    CHARGE:  cpu time      0.0006: real time      0.0006
    FORLOC:  cpu time      0.0000: real time      0.0000
    FORNL :  cpu time      0.0007: real time      0.0007
    STRESS:  cpu time      0.0156: real time      0.0156
    FORCOR:  cpu time      0.0007: real time      0.0007
    FORHAR:  cpu time      0.0002: real time      0.0002
    MIXING:  cpu time      0.0001: real time      0.0001
    OFIELD:  cpu time      0.0000: real time      0.0000

  FORCE on cell =-STRESS in cart. coord.  units (eV):
  Direction    XX          YY          ZZ          XY          YZ          ZX
  --------------------------------------------------------------------------------------
  Alpha Z     2.65833     2.65833     2.65833
  Ewald     -47.58273   -47.58273   -47.58273    -0.00000    -0.00000     0.00000
  Hartree     0.10038     0.10038     0.10038    -0.00000    -0.00000    -0.00000
  E(xc)     -13.16518   -13.16518   -13.16518    -0.00001    -0.00001    -0.00001
  Local      -3.96734    -3.96735    -3.96734     0.00004     0.00004     0.00004
  n-local    39.38765    36.80484    39.61481    -1.25238     1.02617     1.72263
  augment    -6.13031    -6.13031    -6.13031    -0.00004    -0.00004    -0.00004
  Kinetic    22.37414    42.19761    27.33819    11.55142    -9.54807   -17.21219
  Fock        0.00000     0.00000     0.00000     0.00000     0.00000     0.00000
  -------------------------------------------------------------------------------------
  Total       1.15222     1.15222     1.15222     0.00000    -0.00000     0.00000
  in kB     145.78125   145.78125   145.78125     0.00000    -0.00000     0.00000
  external pressure =      145.78 kB  Pullay stress =        0.00 kB


 VOLUME and BASIS-vectors are now :
 -----------------------------------------------------------------------------
  energy-cutoff  :      240.00
  volume of cell :       12.66
      direct lattice vectors                 reciprocal lattice vectors
     1.850000000  1.850000000  0.000000000     0.270270270  0.270270270 -0.270270270
     0.000000000  1.850000000  1.850000000    -0.270270270  0.270270270  0.270270270
     1.850000000  0.000000000  1.850000000     0.270270270 -0.270270270  0.270270270

  length of vectors
     2.616295090  2.616295090  2.616295090     0.468121840  0.468121840  0.468121840


 FORCES acting on ions
    electron-ion (+dipol)            ewald-force                    non-local-force                 convergence-correction
 -----------------------------------------------------------------------------------------------
   0.218E-15 0.169E-14 0.145E-14   0.130E-15 0.287E-15 -.265E-15   0.457E-23 0.666E-23 0.431E-24   -.560E-17 0.740E-16 -.376E-17
 -----------------------------------------------------------------------------------------------
   0.218E-15 0.169E-14 0.145E-14   0.130E-15 0.287E-15 -.265E-15   0.457E-23 0.666E-23 0.431E-24   -.560E-17 0.740E-16 -.376E-17
 
 
 POSITION                                       TOTAL-FORCE (eV/Angst)
 -----------------------------------------------------------------------------------
      0.00000      0.00000      0.00000         0.000000      0.000000     -0.000000
 -----------------------------------------------------------------------------------
    total drift:                                0.000000      0.000000      0.000000


--------------------------------------------------------------------------------------------------------



  FREE ENERGIE OF THE ION-ELECTRON SYSTEM (eV)
  ---------------------------------------------------
  free  energy   TOTEN  =        -4.79801216 eV

  energy  without entropy=       -4.79389893  energy(sigma->0) =       -4.79595554
 


--------------------------------------------------------------------------------------------------------


    POTLOK:  cpu time      0.0017: real time      0.0017


--------------------------------------------------------------------------------------------------------


 writing wavefunctions
     LOOP+:  cpu time      0.3608: real time      0.3648
    4ORBIT:  cpu time      0.0000: real time      0.0000

 total amount of memory used by VASP MPI-rank0    30857. kBytes
=======================================================================

   base      :      30000. kBytes
   nonl-proj :        417. kBytes
   fftplans  :         71. kBytes
   grid      :        144. kBytes
   one-center:          3. kBytes
   wavefun   :        222. kBytes
 
  
  
 General timing and accounting informations for this job:
 ========================================================
  
                  Total CPU time used (sec):        0.486
                            User time (sec):        0.422
                          System time (sec):        0.064
                         Elapsed time (sec):        0.476
  
                   Maximum memory used (kb):       54760.
                   Average memory used (kb):          N/A
  
                          Minor page faults:         8707
                          Major page faults:            0
                 Voluntary context switches:          164
