<?xml version="1.0" encoding="ISO-8859-1"?>
<modeling>
 <generator>
  <i name="program" type="string">vasp </i>
  <i name="version" type="string">6.3.0  </i>
  <i name="subversion" type="string">20Jan22 (build Feb 01 2022 16:52:37) complex                          parallel </i>
  <i name="platform" type="string">TETRA_NSC1 </i>
  <i name="date" type="string">2022 02 22 </i>
  <i name="time" type="string">16:07:13 </i>
 </generator>
 <incar>
  <i type="string" name="SYSTEM">fcc Si</i>
  <i type="int" name="ISTART">     0</i>
  <i type="int" name="ICHARG">     2</i>
  <i name="ENCUT">    240.00000000</i>
  <i type="int" name="ISMEAR">     0</i>
  <i name="SIGMA">      0.10000000</i>
 </incar>
 <primitive_cell>
  <structure name="primitive_cell" >
   <crystal>
    <varray name="basis" >
     <v>       1.85000000       1.85000000       0.00000000 </v>
     <v>       0.00000000       1.85000000       1.85000000 </v>
     <v>       1.85000000       0.00000000       1.85000000 </v>
    </varray>
    <i name="volume">     12.66325000 </i>
    <varray name="rec_basis" >
     <v>       0.27027027       0.27027027      -0.27027027 </v>
     <v>      -0.27027027       0.27027027       0.27027027 </v>
     <v>       0.27027027      -0.27027027       0.27027027 </v>
    </varray>
   </crystal>
   <varray name="positions" >
    <v>       0.00000000       0.00000000       0.00000000 </v>
   </varray>
  </structure>
  <varray name="primitive_index" >
   <v type="int" >        1 </v>
  </varray>
 </primitive_cell>
 <kpoints>
  <generation param="Monkhorst-Pack">
   <v type="int" name="divisions">      11       11       11 </v>
   <v name="usershift">      0.00000000       0.00000000       0.00000000 </v>
   <v name="genvec1">      0.09090909       0.00000000       0.00000000 </v>
   <v name="genvec2">      0.00000000       0.09090909      -0.00000000 </v>
   <v name="genvec3">     -0.00000000      -0.00000000       0.09090909 </v>
   <v name="shift">      0.00000000       0.00000000       0.00000000 </v>
  </generation>
  <varray name="kpointlist" >
   <v>       0.00000000       0.00000000       0.00000000 </v>
   <v>       0.09090909       0.00000000       0.00000000 </v>
   <v>       0.18181818       0.00000000       0.00000000 </v>
   <v>       0.27272727       0.00000000       0.00000000 </v>
   <v>       0.36363636      -0.00000000      -0.00000000 </v>
   <v>       0.45454545      -0.00000000       0.00000000 </v>
   <v>       0.09090909       0.09090909      -0.00000000 </v>
   <v>       0.18181818       0.09090909       0.00000000 </v>
   <v>       0.27272727       0.09090909       0.00000000 </v>
   <v>       0.36363636       0.09090909       0.00000000 </v>
   <v>       0.45454545       0.09090909       0.00000000 </v>
   <v>      -0.45454545       0.09090909      -0.00000000 </v>
   <v>      -0.36363636       0.09090909       0.00000000 </v>
   <v>      -0.27272727       0.09090909       0.00000000 </v>
   <v>      -0.18181818       0.09090909      -0.00000000 </v>
   <v>      -0.09090909       0.09090909      -0.00000000 </v>
   <v>       0.18181818       0.18181818      -0.00000000 </v>
   <v>       0.27272727       0.18181818       0.00000000 </v>
   <v>       0.36363636       0.18181818       0.00000000 </v>
   <v>       0.45454545       0.18181818       0.00000000 </v>
   <v>      -0.45454545       0.18181818       0.00000000 </v>
   <v>      -0.36363636       0.18181818      -0.00000000 </v>
   <v>      -0.27272727       0.18181818      -0.00000000 </v>
   <v>      -0.18181818       0.18181818      -0.00000000 </v>
   <v>       0.27272727       0.27272727       0.00000000 </v>
   <v>       0.36363636       0.27272727       0.00000000 </v>
   <v>       0.45454545       0.27272727       0.00000000 </v>
   <v>      -0.45454545       0.27272727       0.00000000 </v>
   <v>      -0.36363636       0.27272727       0.00000000 </v>
   <v>      -0.27272727       0.27272727      -0.00000000 </v>
   <v>       0.36363636       0.36363636       0.00000000 </v>
   <v>       0.45454545       0.36363636       0.00000000 </v>
   <v>      -0.45454545       0.36363636       0.00000000 </v>
   <v>      -0.36363636       0.36363636       0.00000000 </v>
   <v>       0.45454545       0.45454545       0.00000000 </v>
   <v>      -0.45454545       0.45454545      -0.00000000 </v>
   <v>       0.27272727       0.18181818       0.09090909 </v>
   <v>       0.36363636       0.18181818       0.09090909 </v>
   <v>       0.45454545       0.18181818       0.09090909 </v>
   <v>      -0.45454545       0.18181818       0.09090909 </v>
   <v>       0.36363636       0.27272727       0.09090909 </v>
   <v>       0.45454545       0.27272727       0.09090909 </v>
   <v>      -0.45454545       0.27272727       0.09090909 </v>
   <v>      -0.36363636       0.27272727       0.09090909 </v>
   <v>      -0.27272727       0.27272727       0.09090909 </v>
   <v>      -0.18181818       0.27272727       0.09090909 </v>
   <v>       0.45454545       0.36363636       0.09090909 </v>
   <v>      -0.45454545       0.36363636       0.09090909 </v>
   <v>      -0.36363636       0.36363636       0.09090909 </v>
   <v>      -0.27272727       0.36363636       0.09090909 </v>
   <v>      -0.45454545       0.45454545       0.09090909 </v>
   <v>      -0.36363636       0.45454545       0.09090909 </v>
   <v>      -0.45454545       0.36363636       0.18181818 </v>
   <v>      -0.36363636       0.36363636       0.18181818 </v>
   <v>      -0.36363636       0.45454545       0.18181818 </v>
   <v>      -0.27272727       0.45454545       0.18181818 </v>
  </varray>
  <varray name="weights" >
   <v>       0.00075131 </v>
   <v>       0.00601052 </v>
   <v>       0.00601052 </v>
   <v>       0.00601052 </v>
   <v>       0.00601052 </v>
   <v>       0.00601052 </v>
   <v>       0.00450789 </v>
   <v>       0.01803156 </v>
   <v>       0.01803156 </v>
   <v>       0.01803156 </v>
   <v>       0.01803156 </v>
   <v>       0.01803156 </v>
   <v>       0.01803156 </v>
   <v>       0.01803156 </v>
   <v>       0.01803156 </v>
   <v>       0.00901578 </v>
   <v>       0.00450789 </v>
   <v>       0.01803156 </v>
   <v>       0.01803156 </v>
   <v>       0.01803156 </v>
   <v>       0.01803156 </v>
   <v>       0.01803156 </v>
   <v>       0.01803156 </v>
   <v>       0.00901578 </v>
   <v>       0.00450789 </v>
   <v>       0.01803156 </v>
   <v>       0.01803156 </v>
   <v>       0.01803156 </v>
   <v>       0.01803156 </v>
   <v>       0.00901578 </v>
   <v>       0.00450789 </v>
   <v>       0.01803156 </v>
   <v>       0.01803156 </v>
   <v>       0.00901578 </v>
   <v>       0.00450789 </v>
   <v>       0.00901578 </v>
   <v>       0.01803156 </v>
   <v>       0.03606311 </v>
   <v>       0.03606311 </v>
   <v>       0.03606311 </v>
   <v>       0.01803156 </v>
   <v>       0.03606311 </v>
   <v>       0.03606311 </v>
   <v>       0.03606311 </v>
   <v>       0.03606311 </v>
   <v>       0.01803156 </v>
   <v>       0.01803156 </v>
   <v>       0.03606311 </v>
   <v>       0.03606311 </v>
   <v>       0.01803156 </v>
   <v>       0.01803156 </v>
   <v>       0.01803156 </v>
   <v>       0.01803156 </v>
   <v>       0.03606311 </v>
   <v>       0.01803156 </v>
   <v>       0.01803156 </v>
  </varray>
 </kpoints>
 <parameters>
  <separator name="general" >
   <i type="string" name="SYSTEM">fcc Si</i>
   <i type="logical" name="LCOMPAT"> F  </i>
  </separator>
  <separator name="electronic" >
   <i type="string" name="PREC">normal</i>
   <i name="ENMAX">    240.00000000</i>
   <i name="ENAUG">    322.06900000</i>
   <i name="EDIFF">      0.00010000</i>
   <i type="int" name="IALGO">    38</i>
   <i type="int" name="IWAVPR">    10</i>
   <i type="int" name="NBANDS">     8</i>
   <i type="int" name="NBANDSLOW">    -1</i>
   <i type="int" name="NBANDSHIGH">    -1</i>
   <i name="NELECT">      4.00000000</i>
   <i type="int" name="TURBO">     0</i>
   <i type="int" name="IRESTART">     0</i>
   <i type="int" name="NREBOOT">     0</i>
   <i type="int" name="NMIN">     0</i>
   <i name="EREF">      0.00000000</i>
   <separator name="electronic smearing" >
    <i type="int" name="ISMEAR">     0</i>
    <i name="SIGMA">      0.10000000</i>
    <i name="KSPACING">      0.50000000</i>
    <i type="logical" name="KGAMMA"> T  </i>
    <i type="logical" name="KBLOWUP"> T  </i>
   </separator>
   <separator name="electronic projectors" >
    <i type="logical" name="LREAL"> F  </i>
    <v name="ROPT">      0.00000000</v>
    <i type="int" name="LMAXPAW">  -100</i>
    <i type="int" name="LMAXMIX">     2</i>
    <i type="logical" name="NLSPLINE"> F  </i>
   </separator>
   <separator name="electronic startup" >
    <i type="int" name="ISTART">     0</i>
    <i type="int" name="ICHARG">     2</i>
    <i type="int" name="INIWAV">     1</i>
   </separator>
   <separator name="electronic spin" >
    <i type="int" name="ISPIN">     1</i>
    <i type="logical" name="LNONCOLLINEAR"> F  </i>
    <v name="MAGMOM">      1.00000000</v>
    <i name="NUPDOWN">     -1.00000000</i>
    <i type="logical" name="LSORBIT"> F  </i>
    <v name="SAXIS">      0.00000000      0.00000000      1.00000000</v>
    <i type="logical" name="LSPIRAL"> F  </i>
    <v name="QSPIRAL">      0.00000000      0.00000000      0.00000000</v>
    <i type="logical" name="LZEROZ"> F  </i>
   </separator>
   <separator name="electronic exchange-correlation" >
    <i type="logical" name="LASPH"> F  </i>
    <i type="logical" name="LMETAGGA"> F  </i>
   </separator>
   <separator name="electronic convergence" >
    <i type="int" name="NELM">    60</i>
    <i type="int" name="NELMDL">    -5</i>
    <i type="int" name="NELMIN">     2</i>
    <i name="ENINI">    240.00000000</i>
    <separator name="electronic convergence detail" >
     <i type="logical" name="LDIAG"> T  </i>
     <i type="logical" name="LSUBROT"> F  </i>
     <i name="WEIMIN">      0.00000000</i>
     <i name="EBREAK">      0.00000313</i>
     <i name="DEPER">      0.30000000</i>
     <i type="int" name="NRMM">     4</i>
     <i name="TIME">      0.40000000</i>
    </separator>
   </separator>
   <separator name="electronic mixer" >
    <i name="AMIX">      0.40000000</i>
    <i name="BMIX">      1.00000000</i>
    <i name="AMIN">      0.10000000</i>
    <i name="AMIX_MAG">      1.60000000</i>
    <i name="BMIX_MAG">      1.00000000</i>
    <separator name="electronic mixer details" >
     <i type="int" name="IMIX">     4</i>
     <i type="logical" name="MIXFIRST"> F  </i>
     <i type="int" name="MAXMIX">   -45</i>
     <i name="WC">    100.00000000</i>
     <i type="int" name="INIMIX">     1</i>
     <i type="int" name="MIXPRE">     1</i>
     <i type="int" name="MREMOVE">     5</i>
    </separator>
   </separator>
   <separator name="electronic dipolcorrection" >
    <i type="logical" name="LDIPOL"> F  </i>
    <i type="logical" name="LMONO"> F  </i>
    <i type="int" name="IDIPOL">     0</i>
    <i name="EPSILON">      1.00000000</i>
    <v name="DIPOL">   -100.00000000   -100.00000000   -100.00000000</v>
    <i name="EFIELD">      0.00000000</i>
   </separator>
  </separator>
  <separator name="grids" >
   <i type="int" name="NGX">    10</i>
   <i type="int" name="NGY">    10</i>
   <i type="int" name="NGZ">    10</i>
   <i type="int" name="NGXF">    20</i>
   <i type="int" name="NGYF">    20</i>
   <i type="int" name="NGZF">    20</i>
   <i type="logical" name="ADDGRID"> F  </i>
  </separator>
  <separator name="ionic" >
   <i type="int" name="NSW">     0</i>
   <i type="int" name="IBRION">    -1</i>
   <i type="int" name="MDALGO">     0</i>
   <i type="int" name="ISIF">     2</i>
   <i name="PSTRESS">      0.00000000</i>
   <i name="EDIFFG">      0.00100000</i>
   <i type="int" name="NFREE">     0</i>
   <i name="POTIM">      0.50000000</i>
   <i name="SMASS">     -3.00000000</i>
   <i name="SCALEE">      1.00000000</i>
  </separator>
  <separator name="ionic md" >
   <i name="TEBEG">      0.00010000</i>
   <i name="TEEND">      0.00010000</i>
   <i type="int" name="NBLOCK">     1</i>
   <i type="int" name="KBLOCK">     1</i>
   <i type="int" name="NPACO">   256</i>
   <i name="APACO">     10.00000000</i>
  </separator>
  <separator name="symmetry" >
   <i type="int" name="ISYM">     2</i>
   <i name="SYMPREC">      0.00001000</i>
  </separator>
  <separator name="dos" >
   <i type="int" name="LORBIT">     0</i>
   <v name="RWIGS">     -1.00000000</v>
   <i type="int" name="NEDOS">   301</i>
   <i name="EMIN">     10.00000000</i>
   <i name="EMAX">    -10.00000000</i>
   <i name="EFERMI">      0.00000000</i>
  </separator>
  <separator name="writing" >
   <i type="int" name="NWRITE">     2</i>
   <i type="logical" name="LWAVE"> T  </i>
   <i type="logical" name="LDOWNSAMPLE"> F  </i>
   <i type="logical" name="LCHARG"> T  </i>
   <i type="logical" name="LPARD"> F  </i>
   <i type="logical" name="LVTOT"> F  </i>
   <i type="logical" name="LVHAR"> F  </i>
   <i type="logical" name="LELF"> F  </i>
   <i type="logical" name="LOPTICS"> F  </i>
   <v name="STM">      0.00000000      0.00000000      0.00000000      0.00000000      0.00000000      0.00000000      0.00000000</v>
  </separator>
  <separator name="performance" >
   <i type="int" name="NPAR">     4</i>
   <i type="int" name="NSIM">     4</i>
   <i type="int" name="NBLK">    -1</i>
   <i type="logical" name="LPLANE"> T  </i>
   <i type="logical" name="LSCALAPACK"> T  </i>
   <i type="logical" name="LSCAAWARE"> F  </i>
   <i type="logical" name="LSCALU"> F  </i>
   <i type="logical" name="LASYNC"> F  </i>
   <i type="logical" name="LORBITALREAL"> F  </i>
  </separator>
  <separator name="miscellaneous" >
   <i type="int" name="IDIOT">     3</i>
   <i type="int" name="PHON_NSTRUCT">    -1</i>
   <i type="logical" name="LMUSIC"> F  </i>
   <v name="POMASS">     28.08500000</v>
   <v name="DARWINR">      0.00000000</v>
   <v name="DARWINV">      1.00000000</v>
   <i type="logical" name="LCORR"> T  </i>
  </separator>
  <i type="logical" name="GGA_COMPAT"> T  </i>
  <i type="logical" name="LBERRY"> F  </i>
  <i type="int" name="ICORELEVEL">     0</i>
  <i type="logical" name="LDAU"> F  </i>
  <i type="int" name="I_CONSTRAINED_M">     0</i>
  <separator name="electronic exchange-correlation" >
   <i type="string" name="GGA">--</i>
   <i type="int" name="VOSKOWN">     0</i>
   <i type="logical" name="LHFCALC"> F  </i>
   <i type="string" name="PRECFOCK"></i>
   <i type="logical" name="LSYMGRAD"> F  </i>
   <i type="logical" name="LHFONE"> F  </i>
   <i type="logical" name="LRHFCALC"> F  </i>
   <i type="logical" name="LTHOMAS"> F  </i>
   <i type="logical" name="LMODELHF"> F  </i>
   <i type="logical" name="LFOCKACE"> F  </i>
   <i name="ENCUT4O">     -1.00000000</i>
   <i type="int" name="EXXOEP">     0</i>
   <i type="int" name="FOURORBIT">     0</i>
   <i name="AEXX">      0.00000000</i>
   <i name="HFALPHA">      0.00000000</i>
   <i name="MCALPHA">      0.00000000</i>
   <i name="ALDAX">      1.00000000</i>
   <i name="AGGAX">      1.00000000</i>
   <i name="ALDAC">      1.00000000</i>
   <i name="AGGAC">      1.00000000</i>
   <i type="int" name="NKREDX">     1</i>
   <i type="int" name="NKREDY">     1</i>
   <i type="int" name="NKREDZ">     1</i>
   <i type="logical" name="SHIFTRED"> F  </i>
   <i type="logical" name="ODDONLY"> F  </i>
   <i type="logical" name="EVENONLY"> F  </i>
   <i type="int" name="LMAXFOCK">     0</i>
   <i type="int" name="NMAXFOCKAE">     0</i>
   <i type="logical" name="LFOCKAEDFT"> F  </i>
   <i name="HFSCREEN">      0.00000000</i>
   <i name="HFSCREENC">      0.00000000</i>
   <i type="int" name="NBANDSGWLOW">     0</i>
  </separator>
  <separator name="vdW DFT" >
   <i type="logical" name="LUSE_VDW"> F  </i>
   <i name="Zab_VDW">     -0.84910000</i>
   <i name="PARAM1">      0.12340000</i>
   <i name="PARAM2">      1.00000000</i>
   <i name="PARAM3">      0.00000000</i>
  </separator>
  <separator name="model GW" >
   <i type="int" name="MODEL_GW">     0</i>
   <i name="MODEL_EPS0">      7.59795000</i>
   <i name="MODEL_ALPHA">      1.00000000</i>
  </separator>
  <separator name="linear response parameters" >
   <i type="logical" name="LEPSILON"> F  </i>
   <i type="logical" name="LRPA"> F  </i>
   <i type="logical" name="LNABLA"> F  </i>
   <i type="logical" name="LVEL"> F  </i>
   <i name="CSHIFT">      0.10000000</i>
   <i name="OMEGAMAX">     -1.00000000</i>
   <i name="DEG_THRESHOLD">      0.00200000</i>
   <i name="RTIME">     -0.10000000</i>
   <i name="WPLASMAI">      0.00000000</i>
   <v name="DFIELD">      0.00000000      0.00000000      0.00000000</v>
   <v name="WPLASMA">      0.00000000      0.00000000      0.00000000      0.00000000      0.00000000      0.00000000      0.00000000      0.00000000      0.00000000</v>
  </separator>
  <separator name="orbital magnetization" >
   <i type="logical" name="NUCIND"> F  </i>
   <v name="MAGPOS">      0.00000000      0.00000000      0.00000000</v>
   <i type="logical" name="LNICSALL"> T  </i>
   <i type="logical" name="ORBITALMAG"> F  </i>
   <i type="logical" name="LMAGBLOCH"> F  </i>
   <i type="logical" name="LCHIMAG"> F  </i>
   <i type="logical" name="LGAUGE"> T  </i>
   <i type="int" name="MAGATOM">     0</i>
   <v name="MAGDIPOL">      0.00000000      0.00000000      0.00000000</v>
   <v name="AVECCONST">      0.00000000      0.00000000      0.00000000</v>
  </separator>
  <separator name="response functions" >
   <i type="logical" name="LFINITE_TEMPERATURE"> F  </i>
   <i type="logical" name="LADDER"> F  </i>
   <i type="logical" name="LRPAFORCE"> F  </i>
   <i type="logical" name="LFXC"> F  </i>
   <i type="logical" name="LHARTREE"> T  </i>
   <i type="int" name="IBSE">     0</i>
   <v type="int" name="KPOINT">    -1     0     0     0</v>
   <i type="logical" name="LTCTC"> F  </i>
   <i type="logical" name="LTCTE"> F  </i>
   <i type="logical" name="LTETE"> F  </i>
   <i type="logical" name="LTRIPLET"> F  </i>
   <i type="logical" name="LFXCEPS"> F  </i>
   <i type="logical" name="LFXHEG"> F  </i>
   <i type="int" name="NATURALO">     2</i>
   <i type="logical" name="LHOLEGF"> F  </i>
   <i type="logical" name="L2ORDER"> F  </i>
   <i type="logical" name="LDMP1"> F  </i>
   <i type="logical" name="LMP2LT"> F  </i>
   <i type="logical" name="LSMP2LT"> F  </i>
   <i type="logical" name="LGWLF"> F  </i>
   <i name="ENCUTGW">     -2.00000000</i>
   <i name="ENCUTGWSOFT">     -2.00000000</i>
   <i name="ENCUTLF">     -1.00000000</i>
   <i type="logical" name="LESF_SPLINES"> F  </i>
   <i type="int" name="LMAXMP2">    -1</i>
   <i name="SCISSOR">      0.00000000</i>
   <i type="int" name="NOMEGA">     0</i>
   <i type="int" name="NOMEGAR">     0</i>
   <i type="int" name="NBANDSGW">    -1</i>
   <i type="int" name="NBANDSO">    -1</i>
   <i type="int" name="NBANDSV">    -1</i>
   <i type="int" name="NELMGW">     1</i>
   <i type="int" name="NELMHF">     1</i>
   <i type="int" name="DIM">     3</i>
   <i type="int" name="IESPILON">     4</i>
   <i type="int" name="ANTIRES">     0</i>
   <i name="OMEGAMAX">    -30.00000000</i>
   <i name="OMEGAMIN">    -30.00000000</i>
   <i name="OMEGATL">   -200.00000000</i>
   <i type="int" name="OMEGAGRID">     0</i>
   <i name="CSHIFT">     -0.10000000</i>
   <i type="logical" name="LSELFENERGY"> F  </i>
   <i type="logical" name="LSPECTRAL"> F  </i>
   <i type="logical" name="LSPECTRALGW"> F  </i>
   <i type="logical" name="LSINGLES"> F  </i>
   <i type="logical" name="LFERMIGW"> F  </i>
   <i type="logical" name="ODDONLYGW"> F  </i>
   <i type="logical" name="EVENONLYGW"> F  </i>
   <i type="int" name="NKREDLFX">     1</i>
   <i type="int" name="NKREDLFY">     1</i>
   <i type="int" name="NKREDLFZ">     1</i>
   <i type="int" name="MAXMEM">  2800</i>
   <i type="int" name="TELESCOPE">     0</i>
   <i type="int" name="NTAUPAR">    -1</i>
   <i type="int" name="NOMEGAPAR">    -1</i>
   <i name="DAMP_NEWTON">      0.80000001</i>
   <i name="LAMBDA">      1.00000000</i>
  </separator>
  <separator name="External order field" >
   <i name="OFIELD_KAPPA">      0.00000000</i>
   <v name="OFIELD_K">      0.00000000      0.00000000      0.00000000</v>
   <i name="OFIELD_Q6_NEAR">      0.00000000</i>
   <i name="OFIELD_Q6_FAR">      0.00000000</i>
   <i name="OFIELD_A">      0.00000000</i>
  </separator>
  <separator name="optional k-points parameters" >
   <i type="int" name="KPOINTS_OPT_MODE">     1</i>
   <i type="logical" name="LKPOINTS_OPT"> F  </i>
  </separator>
 </parameters>
 <atominfo>
  <atoms>       1 </atoms>
  <types>       1 </types>
  <array name="atoms" >
   <dimension dim="1">ion</dimension>
   <field type="string">element</field>
   <field type="int">atomtype</field>
   <set>
    <rc><c>Si</c><c>   1</c></rc>
   </set>
  </array>
  <array name="atomtypes" >
   <dimension dim="1">type</dimension>
   <field type="int">atomspertype</field>
   <field type="string">element</field>
   <field>mass</field>
   <field>valence</field>
   <field type="string">pseudopotential</field>
   <set>
    <rc><c>   1</c><c>Si</c><c>     28.08500000</c><c>      4.00000000</c><c>  PAW_PBE Si 05Jan2001                  </c></rc>
   </set>
  </array>
 </atominfo>
 <structure name="initialpos" >
  <crystal>
   <varray name="basis" >
    <v>       1.85000000       1.85000000       0.00000000 </v>
    <v>       0.00000000       1.85000000       1.85000000 </v>
    <v>       1.85000000       0.00000000       1.85000000 </v>
   </varray>
   <i name="volume">     12.66325000 </i>
   <varray name="rec_basis" >
    <v>       0.27027027       0.27027027      -0.27027027 </v>
    <v>      -0.27027027       0.27027027       0.27027027 </v>
    <v>       0.27027027      -0.27027027       0.27027027 </v>
   </varray>
  </crystal>
  <varray name="positions" >
   <v>       0.00000000       0.00000000       0.00000000 </v>
  </varray>
 </structure>
 <calculation>
  <scstep>
   <time name="dav">    0.04    0.04</time>
   <time name="total">    0.04    0.04</time>
   <energy>
    <i name="alphaZ">      2.65833264 </i>
    <i name="ewald">   -142.74819037 </i>
    <i name="hartreedc">     -0.36576913 </i>
    <i name="XCdc">     -8.43869577 </i>
    <i name="pawpsdc">     88.12379961 </i>
    <i name="pawaedc">    -70.53051779 </i>
    <i name="eentropy">     -0.00064079 </i>
    <i name="bandstr">     24.09044664 </i>
    <i name="atom">    103.06077658 </i>
    <i name="e_fr_energy">     -4.15045838 </i>
    <i name="e_wo_entrp">     -4.14981759 </i>
    <i name="e_0_energy">     -4.15013799 </i>
   </energy>
  </scstep>
  <scstep>
   <time name="dav">    0.05    0.05</time>
   <time name="total">    0.05    0.05</time>
   <energy>
    <i name="e_fr_energy">     -4.82383996 </i>
    <i name="e_wo_entrp">     -4.81976247 </i>
    <i name="e_0_energy">     -4.82180122 </i>
   </energy>
  </scstep>
  <scstep>
   <time name="dav">    0.03    0.03</time>
   <time name="total">    0.03    0.03</time>
   <energy>
    <i name="e_fr_energy">     -4.82509595 </i>
    <i name="e_wo_entrp">     -4.82101675 </i>
    <i name="e_0_energy">     -4.82305635 </i>
   </energy>
  </scstep>
  <scstep>
   <time name="dav">    0.06    0.06</time>
   <time name="total">    0.06    0.06</time>
   <energy>
    <i name="e_fr_energy">     -4.82509638 </i>
    <i name="e_wo_entrp">     -4.82101718 </i>
    <i name="e_0_energy">     -4.82305678 </i>
   </energy>
  </scstep>
  <scstep>
   <time name="dav">    0.03    0.03</time>
   <time name="total">    0.03    0.03</time>
   <energy>
    <i name="e_fr_energy">     -4.82509638 </i>
    <i name="e_wo_entrp">     -4.82101718 </i>
    <i name="e_0_energy">     -4.82305678 </i>
   </energy>
  </scstep>
  <scstep>
   <time name="dav">    0.04    0.04</time>
   <time name="total">    0.04    0.04</time>
   <energy>
    <i name="e_fr_energy">     -4.80810796 </i>
    <i name="e_wo_entrp">     -4.80400916 </i>
    <i name="e_0_energy">     -4.80605856 </i>
   </energy>
  </scstep>
  <scstep>
   <time name="dav">    0.04    0.04</time>
   <time name="total">    0.04    0.04</time>
   <energy>
    <i name="e_fr_energy">     -4.79807131 </i>
    <i name="e_wo_entrp">     -4.79395831 </i>
    <i name="e_0_energy">     -4.79601481 </i>
   </energy>
  </scstep>
  <scstep>
   <time name="dav">    0.04    0.04</time>
   <time name="total">    0.04    0.04</time>
   <energy>
    <i name="alphaZ">      2.65833264 </i>
    <i name="ewald">   -142.74819037 </i>
    <i name="hartreedc">     -0.30076094 </i>
    <i name="XCdc">     -8.33953463 </i>
    <i name="pawpsdc">    475.50273459 </i>
    <i name="pawaedc">   -457.94746299 </i>
    <i name="eentropy">     -0.00411323 </i>
    <i name="bandstr">     23.32020619 </i>
    <i name="atom">    103.06077658 </i>
    <i name="e_fr_energy">     -4.79801216 </i>
    <i name="e_wo_entrp">     -4.79389893 </i>
    <i name="e_0_energy">     -4.79595554 </i>
   </energy>
  </scstep>
  <structure>
   <crystal>
    <varray name="basis" >
     <v>       1.85000000       1.85000000       0.00000000 </v>
     <v>       0.00000000       1.85000000       1.85000000 </v>
     <v>       1.85000000       0.00000000       1.85000000 </v>
    </varray>
    <i name="volume">     12.66325000 </i>
    <varray name="rec_basis" >
     <v>       0.27027027       0.27027027      -0.27027027 </v>
     <v>      -0.27027027       0.27027027       0.27027027 </v>
     <v>       0.27027027      -0.27027027       0.27027027 </v>
    </varray>
   </crystal>
   <varray name="positions" >
    <v>       0.00000000       0.00000000       0.00000000 </v>
   </varray>
  </structure>
  <varray name="forces" >
   <v>       0.00000000       0.00000000      -0.00000000 </v>
  </varray>
  <varray name="stress" >
   <v>     145.78124713       0.00000000       0.00000000 </v>
   <v>       0.00000000     145.78124713      -0.00000000 </v>
   <v>       0.00000000      -0.00000000     145.78124713 </v>
  </varray>
  <energy>
   <i name="e_fr_energy">     -4.79801216 </i>
   <i name="e_wo_entrp">     -4.79389893 </i>
   <i name="e_0_energy">     -4.79595554 </i>
  </energy>
  <time name="totalsc">    0.36    0.36</time>
  <eigenvalues>
   <array>
    <dimension dim="1">band</dimension>
    <dimension dim="2">kpoint</dimension>
    <dimension dim="3">spin</dimension>
    <field>eigene</field>
    <field>occ</field>
    <set>
     <set comment="spin 1">
      <set comment="kpoint 1">
       <r>   -3.7194    1.0000 </r>
       <r>   24.6312    0.0000 </r>
       <r>   24.6312    0.0000 </r>
       <r>   24.6312    0.0000 </r>
       <r>   24.8873    0.0000 </r>
       <r>   24.8874    0.0000 </r>
       <r>   24.8874    0.0000 </r>
       <r>   30.1654    0.0000 </r>
      </set>
      <set comment="kpoint 2">
       <r>   -3.4561    1.0000 </r>
       <r>   20.7968    0.0000 </r>
       <r>   23.3451    0.0000 </r>
       <r>   23.3453    0.0000 </r>
       <r>   26.5115    0.0000 </r>
       <r>   26.5117    0.0000 </r>
       <r>   26.5300    0.0000 </r>
       <r>   31.1441    0.0000 </r>
      </set>
      <set comment="kpoint 3">
       <r>   -2.6678    1.0000 </r>
       <r>   16.5069    0.0000 </r>
       <r>   22.3675    0.0000 </r>
       <r>   22.3677    0.0000 </r>
       <r>   26.5797    0.0000 </r>
       <r>   27.5952    0.0000 </r>
       <r>   27.5960    0.0000 </r>
       <r>   30.2234    0.0000 </r>
      </set>
      <set comment="kpoint 4">
       <r>   -1.3607    1.0000 </r>
       <r>   12.4692    0.0000 </r>
       <r>   21.8207    0.0000 </r>
       <r>   21.8210    0.0000 </r>
       <r>   26.1871    0.0000 </r>
       <r>   26.1878    0.0000 </r>
       <r>   26.4852    0.0000 </r>
       <r>   31.7034    0.0000 </r>
      </set>
      <set comment="kpoint 5">
       <r>    0.4536    1.0000 </r>
       <r>    8.7952    1.0000 </r>
       <r>   21.6807    0.0000 </r>
       <r>   21.6809    0.0000 </r>
       <r>   24.6384    0.0000 </r>
       <r>   24.6390    0.0000 </r>
       <r>   26.5835    0.0000 </r>
       <r>   29.9851    0.0000 </r>
      </set>
      <set comment="kpoint 6">
       <r>    2.7610    1.0000 </r>
       <r>    5.5527    1.0000 </r>
       <r>   21.8391    0.0000 </r>
       <r>   21.8392    0.0000 </r>
       <r>   23.5853    0.0000 </r>
       <r>   23.5860    0.0000 </r>
       <r>   26.9156    0.0000 </r>
       <r>   28.7947    0.0000 </r>
      </set>
      <set comment="kpoint 7">
       <r>   -3.3684    1.0000 </r>
       <r>   21.7881    0.0000 </r>
       <r>   21.7881    0.0000 </r>
       <r>   22.9304    0.0000 </r>
       <r>   24.1601    0.0000 </r>
       <r>   28.1930    0.0000 </r>
       <r>   28.1931    0.0000 </r>
       <r>   29.0344    0.0000 </r>
      </set>
      <set comment="kpoint 8">
       <r>   -2.7551    1.0000 </r>
       <r>   18.0856    0.0000 </r>
       <r>   20.6645    0.0000 </r>
       <r>   22.5846    0.0000 </r>
       <r>   24.6531    0.0000 </r>
       <r>   26.9276    0.0000 </r>
       <r>   29.0207    0.0000 </r>
       <r>   29.7762    0.0000 </r>
      </set>
      <set comment="kpoint 9">
       <r>   -1.6213    1.0000 </r>
       <r>   13.9777    0.0000 </r>
       <r>   19.9765    0.0000 </r>
       <r>   21.9404    0.0000 </r>
       <r>   23.6875    0.0000 </r>
       <r>   27.8092    0.0000 </r>
       <r>   28.9982    0.0000 </r>
       <r>   29.3538    0.0000 </r>
      </set>
      <set comment="kpoint 10">
       <r>    0.0231    1.0000 </r>
       <r>   10.1852    1.0000 </r>
       <r>   19.7418    0.0000 </r>
       <r>   21.1853    0.0000 </r>
       <r>   22.4296    0.0000 </r>
       <r>   27.3928    0.0000 </r>
       <r>   28.5113    0.0000 </r>
       <r>   31.2433    0.0000 </r>
      </set>
      <set comment="kpoint 11">
       <r>    2.1656    1.0000 </r>
       <r>    6.8044    1.0000 </r>
       <r>   19.9598    0.0000 </r>
       <r>   20.0066    0.0000 </r>
       <r>   22.4403    0.0000 </r>
       <r>   26.0536    0.0000 </r>
       <r>   28.6476    0.0000 </r>
       <r>   31.0569    0.0000 </r>
      </set>
      <set comment="kpoint 12">
       <r>    3.8588    1.0000 </r>
       <r>    4.7997    1.0000 </r>
       <r>   19.0446    0.0000 </r>
       <r>   20.6130    0.0000 </r>
       <r>   23.1093    0.0000 </r>
       <r>   25.1311    0.0000 </r>
       <r>   28.4382    0.0000 </r>
       <r>   30.9921    0.0000 </r>
      </set>
      <set comment="kpoint 13">
       <r>    1.3973    1.0000 </r>
       <r>    7.8815    1.0000 </r>
       <r>   18.5131    0.0000 </r>
       <r>   21.6498    0.0000 </r>
       <r>   24.2701    0.0000 </r>
       <r>   24.7096    0.0000 </r>
       <r>   28.0344    0.0000 </r>
       <r>   31.8387    0.0000 </r>
      </set>
      <set comment="kpoint 14">
       <r>   -0.5812    1.0000 </r>
       <r>   11.4004    1.0000 </r>
       <r>   18.4390    0.0000 </r>
       <r>   22.9220    0.0000 </r>
       <r>   24.9160    0.0000 </r>
       <r>   25.8653    0.0000 </r>
       <r>   27.7920    0.0000 </r>
       <r>   31.3095    0.0000 </r>
      </set>
      <set comment="kpoint 15">
       <r>   -2.0565    1.0000 </r>
       <r>   15.2970    0.0000 </r>
       <r>   18.8386    0.0000 </r>
       <r>   24.0657    0.0000 </r>
       <r>   25.8618    0.0000 </r>
       <r>   27.6947    0.0000 </r>
       <r>   27.7361    0.0000 </r>
       <r>   28.6997    0.0000 </r>
      </set>
      <set comment="kpoint 16">
       <r>   -3.0178    1.0000 </r>
       <r>   19.1793    0.0000 </r>
       <r>   19.9724    0.0000 </r>
       <r>   25.0518    0.0000 </r>
       <r>   25.3162    0.0000 </r>
       <r>   27.2839    0.0000 </r>
       <r>   28.4942    0.0000 </r>
       <r>   28.9251    0.0000 </r>
      </set>
      <set comment="kpoint 17">
       <r>   -2.3187    1.0000 </r>
       <r>   19.3700    0.0000 </r>
       <r>   19.3700    0.0000 </r>
       <r>   20.4407    0.0000 </r>
       <r>   22.1578    0.0000 </r>
       <r>   24.1210    0.0000 </r>
       <r>   31.8611    0.0000 </r>
       <r>   31.8612    0.0000 </r>
      </set>
      <set comment="kpoint 18">
       <r>   -1.3610    1.0000 </r>
       <r>   15.8696    0.0000 </r>
       <r>   18.5393    0.0000 </r>
       <r>   20.2128    0.0000 </r>
       <r>   20.9093    0.0000 </r>
       <r>   24.0378    0.0000 </r>
       <r>   32.0898    0.0000 </r>
       <r>   32.8040    0.0000 </r>
      </set>
      <set comment="kpoint 19">
       <r>    0.1091    1.0000 </r>
       <r>   12.0363    0.5992 </r>
       <r>   18.1584    0.0000 </r>
       <r>   18.3364    0.0000 </r>
       <r>   20.6413    0.0000 </r>
       <r>   26.5048    0.0000 </r>
       <r>   30.6618    0.0000 </r>
       <r>   32.9005    0.0000 </r>
      </set>
      <set comment="kpoint 20">
       <r>    2.0793    1.0000 </r>
       <r>    8.5371    1.0000 </r>
       <r>   16.6986    0.0000 </r>
       <r>   18.2316    0.0000 </r>
       <r>   20.7733    0.0000 </r>
       <r>   29.2518    0.0000 </r>
       <r>   29.3737    0.0000 </r>
       <r>   32.8825    0.0000 </r>
      </set>
      <set comment="kpoint 21">
       <r>    4.5310    1.0000 </r>
       <r>    5.4683    1.0000 </r>
       <r>   15.5191    0.0000 </r>
       <r>   18.7600    0.0000 </r>
       <r>   21.3939    0.0000 </r>
       <r>   28.1975    0.0000 </r>
       <r>   30.8417    0.0000 </r>
       <r>   34.1429    0.0000 </r>
      </set>
      <set comment="kpoint 22">
       <r>    2.8466    1.0000 </r>
       <r>    7.4506    1.0000 </r>
       <r>   14.8059    0.0000 </r>
       <r>   19.7269    0.0000 </r>
       <r>   22.4611    0.0000 </r>
       <r>   27.5535    0.0000 </r>
       <r>   30.5385    0.0000 </r>
       <r>   34.1652    0.0000 </r>
      </set>
      <set comment="kpoint 23">
       <r>    0.7115    1.0000 </r>
       <r>   10.7694    1.0000 </r>
       <r>   14.6158    0.0000 </r>
       <r>   21.1258    0.0000 </r>
       <r>   23.9867    0.0000 </r>
       <r>   27.3942    0.0000 </r>
       <r>   30.0152    0.0000 </r>
       <r>   30.7278    0.0000 </r>
      </set>
      <set comment="kpoint 24">
       <r>   -0.9272    1.0000 </r>
       <r>   14.0282    0.0000 </r>
       <r>   15.3627    0.0000 </r>
       <r>   22.8673    0.0000 </r>
       <r>   25.8559    0.0000 </r>
       <r>   27.3830    0.0000 </r>
       <r>   28.0305    0.0000 </r>
       <r>   29.1911    0.0000 </r>
      </set>
      <set comment="kpoint 25">
       <r>   -0.5812    1.0000 </r>
       <r>   17.5534    0.0000 </r>
       <r>   17.5534    0.0000 </r>
       <r>   17.7217    0.0000 </r>
       <r>   18.4266    0.0000 </r>
       <r>   21.7151    0.0000 </r>
       <r>   35.1836    0.0000 </r>
       <r>   35.4805    0.0000 </r>
      </set>
      <set comment="kpoint 26">
       <r>    0.7100    1.0000 </r>
       <r>   14.2673    0.0000 </r>
       <r>   15.4548    0.0000 </r>
       <r>   17.0175    0.0000 </r>
       <r>   19.1040    0.0000 </r>
       <r>   22.5507    0.0000 </r>
       <r>   34.2081    0.0000 </r>
       <r>   36.2350    0.0000 </r>
      </set>
      <set comment="kpoint 27">
       <r>    2.5021    1.0000 </r>
       <r>   10.7249    1.0000 </r>
       <r>   13.6140    0.0000 </r>
       <r>   16.9412    0.0000 </r>
       <r>   19.3453    0.0000 </r>
       <r>   25.4260    0.0000 </r>
       <r>   32.8626    0.0000 </r>
       <r>   35.8199    0.0000 </r>
      </set>
      <set comment="kpoint 28">
       <r>    4.7728    1.0000 </r>
       <r>    7.5417    1.0000 </r>
       <r>   12.2497    0.0028 </r>
       <r>   17.3225    0.0000 </r>
       <r>   19.8575    0.0000 </r>
       <r>   28.8617    0.0000 </r>
       <r>   31.7348    0.0000 </r>
       <r>   34.9031    0.0000 </r>
      </set>
      <set comment="kpoint 29">
       <r>    4.7903    1.0000 </r>
       <r>    7.4735    1.0000 </r>
       <r>   11.4133    1.0000 </r>
       <r>   18.1545    0.0000 </r>
       <r>   20.8126    0.0000 </r>
       <r>   30.9388    0.0000 </r>
       <r>   32.1720    0.0000 </r>
       <r>   33.8754    0.0000 </r>
      </set>
      <set comment="kpoint 30">
       <r>    2.5066    1.0000 </r>
       <r>   10.0975    1.0000 </r>
       <r>   11.5892    1.0000 </r>
       <r>   19.4280    0.0000 </r>
       <r>   22.2060    0.0000 </r>
       <r>   30.4921    0.0000 </r>
       <r>   30.7308    0.0000 </r>
       <r>   32.0638    0.0000 </r>
      </set>
      <set comment="kpoint 31">
       <r>    1.8203    1.0000 </r>
       <r>   12.9677    0.0000 </r>
       <r>   16.3286    0.0000 </r>
       <r>   16.3287    0.0000 </r>
       <r>   17.0093    0.0000 </r>
       <r>   20.4881    0.0000 </r>
       <r>   37.0231    0.0000 </r>
       <r>   38.4182    0.0000 </r>
      </set>
      <set comment="kpoint 32">
       <r>    3.4235    1.0000 </r>
       <r>   10.9423    1.0000 </r>
       <r>   13.2968    0.0000 </r>
       <r>   16.0999    0.0000 </r>
       <r>   18.1009    0.0000 </r>
       <r>   21.6672    0.0000 </r>
       <r>   36.4583    0.0000 </r>
       <r>   38.7722    0.0000 </r>
      </set>
      <set comment="kpoint 33">
       <r>    5.4755    1.0000 </r>
       <r>    9.4352    1.0000 </r>
       <r>   10.0699    1.0000 </r>
       <r>   16.3303    0.0000 </r>
       <r>   18.6921    0.0000 </r>
       <r>   24.8654    0.0000 </r>
       <r>   35.4046    0.0000 </r>
       <r>   37.7324    0.0000 </r>
      </set>
      <set comment="kpoint 34">
       <r>    7.2074    1.0000 </r>
       <r>    7.4757    1.0000 </r>
       <r>    8.9498    1.0000 </r>
       <r>   17.0177    0.0000 </r>
       <r>   19.5488    0.0000 </r>
       <r>   28.6445    0.0000 </r>
       <r>   34.2316    0.0000 </r>
       <r>   35.2284    0.0000 </r>
      </set>
      <set comment="kpoint 35">
       <r>    4.8066    1.0000 </r>
       <r>    8.7689    1.0000 </r>
       <r>   15.7191    0.0000 </r>
       <r>   15.7192    0.0000 </r>
       <r>   16.3164    0.0000 </r>
       <r>   19.8708    0.0000 </r>
       <r>   38.6924    0.0000 </r>
       <r>   40.5090    0.0000 </r>
      </set>
      <set comment="kpoint 36">
       <r>    6.1650    1.0000 </r>
       <r>    7.5932    1.0000 </r>
       <r>   12.9760    0.0000 </r>
       <r>   15.7955    0.0000 </r>
       <r>   17.7832    0.0000 </r>
       <r>   21.3750    0.0000 </r>
       <r>   38.1523    0.0000 </r>
       <r>   39.8630    0.0000 </r>
      </set>
      <set comment="kpoint 37">
       <r>   -1.9698    1.0000 </r>
       <r>   16.6201    0.0000 </r>
       <r>   17.6736    0.0000 </r>
       <r>   22.8838    0.0000 </r>
       <r>   23.7548    0.0000 </r>
       <r>   25.6179    0.0000 </r>
       <r>   29.8659    0.0000 </r>
       <r>   30.5775    0.0000 </r>
      </set>
      <set comment="kpoint 38">
       <r>   -0.6675    1.0000 </r>
       <r>   13.0493    0.0000 </r>
       <r>   16.7438    0.0000 </r>
       <r>   20.9485    0.0000 </r>
       <r>   23.9275    0.0000 </r>
       <r>   27.1154    0.0000 </r>
       <r>   28.5086    0.0000 </r>
       <r>   31.1964    0.0000 </r>
      </set>
      <set comment="kpoint 39">
       <r>    1.1401    1.0000 </r>
       <r>    9.4344    1.0000 </r>
       <r>   16.6360    0.0000 </r>
       <r>   19.2180    0.0000 </r>
       <r>   23.8716    0.0000 </r>
       <r>   26.5212    0.0000 </r>
       <r>   29.9902    0.0000 </r>
       <r>   31.9032    0.0000 </r>
      </set>
      <set comment="kpoint 40">
       <r>    3.4390    1.0000 </r>
       <r>    6.2161    1.0000 </r>
       <r>   17.0122    0.0000 </r>
       <r>   17.9101    0.0000 </r>
       <r>   24.1540    0.0000 </r>
       <r>   25.3898    0.0000 </r>
       <r>   30.9162    0.0000 </r>
       <r>   33.9867    0.0000 </r>
      </set>
      <set comment="kpoint 41">
       <r>   -0.2359    1.0000 </r>
       <r>   14.6770    0.0000 </r>
       <r>   15.8412    0.0000 </r>
       <r>   18.0644    0.0000 </r>
       <r>   21.9016    0.0000 </r>
       <r>   23.8341    0.0000 </r>
       <r>   31.5207    0.0000 </r>
       <r>   34.7166    0.0000 </r>
      </set>
      <set comment="kpoint 42">
       <r>    1.3959    1.0000 </r>
       <r>   11.4173    1.0000 </r>
       <r>   15.1757    0.0000 </r>
       <r>   16.1009    0.0000 </r>
       <r>   22.4488    0.0000 </r>
       <r>   26.0420    0.0000 </r>
       <r>   30.0902    0.0000 </r>
       <r>   35.2415    0.0000 </r>
      </set>
      <set comment="kpoint 43">
       <r>    3.5205    1.0000 </r>
       <r>    8.1119    1.0000 </r>
       <r>   14.5609    0.0000 </r>
       <r>   15.3968    0.0000 </r>
       <r>   22.7864    0.0000 </r>
       <r>   28.2788    0.0000 </r>
       <r>   29.7852    0.0000 </r>
       <r>   34.8690    0.0000 </r>
      </set>
      <set comment="kpoint 44">
       <r>    5.2051    1.0000 </r>
       <r>    6.1182    1.0000 </r>
       <r>   13.5325    0.0000 </r>
       <r>   16.1025    0.0000 </r>
       <r>   23.5148    0.0000 </r>
       <r>   27.6015    0.0000 </r>
       <r>   32.7223    0.0000 </r>
       <r>   33.3060    0.0000 </r>
      </set>
      <set comment="kpoint 45">
       <r>    2.7608    1.0000 </r>
       <r>    9.1259    1.0000 </r>
       <r>   13.0230    0.0000 </r>
       <r>   17.2844    0.0000 </r>
       <r>   24.6345    0.0000 </r>
       <r>   27.0663    0.0000 </r>
       <r>   30.3190    0.0000 </r>
       <r>   33.9538    0.0000 </r>
      </set>
      <set comment="kpoint 46">
       <r>    0.7972    1.0000 </r>
       <r>   12.0711    0.4049 </r>
       <r>   13.4966    0.0000 </r>
       <r>   18.9203    0.0000 </r>
       <r>   25.9917    0.0000 </r>
       <r>   26.3732    0.0000 </r>
       <r>   27.9476    0.0000 </r>
       <r>   33.1296    0.0000 </r>
      </set>
      <set comment="kpoint 47">
       <r>    2.1615    1.0000 </r>
       <r>   13.2896    0.0000 </r>
       <r>   13.3810    0.0000 </r>
       <r>   14.6103    0.0000 </r>
       <r>   20.6416    0.0000 </r>
       <r>   22.7144    0.0000 </r>
       <r>   33.7039    0.0000 </r>
       <r>   38.2240    0.0000 </r>
      </set>
      <set comment="kpoint 48">
       <r>    4.0993    1.0000 </r>
       <r>   10.4336    1.0000 </r>
       <r>   11.5983    1.0000 </r>
       <r>   14.2341    0.0000 </r>
       <r>   21.5123    0.0000 </r>
       <r>   25.2597    0.0000 </r>
       <r>   32.4246    0.0000 </r>
       <r>   37.3256    0.0000 </r>
      </set>
      <set comment="kpoint 49">
       <r>    6.4749    1.0000 </r>
       <r>    7.4475    1.0000 </r>
       <r>   10.4288    1.0000 </r>
       <r>   14.7534    0.0000 </r>
       <r>   22.1944    0.0000 </r>
       <r>   28.7516    0.0000 </r>
       <r>   31.4364    0.0000 </r>
       <r>   34.3425    0.0000 </r>
      </set>
      <set comment="kpoint 50">
       <r>    4.8709    1.0000 </r>
       <r>    8.7868    1.0000 </r>
       <r>   10.2784    1.0000 </r>
       <r>   15.7777    0.0000 </r>
       <r>   23.2419    0.0000 </r>
       <r>   30.1829    0.0000 </r>
       <r>   30.6942    0.0000 </r>
       <r>   33.0832    0.0000 </r>
      </set>
      <set comment="kpoint 51">
       <r>    5.1413    1.0000 </r>
       <r>    9.1035    1.0000 </r>
       <r>   12.7228    0.0000 </r>
       <r>   13.9743    0.0000 </r>
       <r>   19.9892    0.0000 </r>
       <r>   22.1358    0.0000 </r>
       <r>   36.1783    0.0000 </r>
       <r>   38.5269    0.0000 </r>
      </set>
      <set comment="kpoint 52">
       <r>    6.8203    1.0000 </r>
       <r>    8.2727    1.0000 </r>
       <r>   10.1063    1.0000 </r>
       <r>   13.9149    0.0000 </r>
       <r>   21.1983    0.0000 </r>
       <r>   24.9861    0.0000 </r>
       <r>   35.0624    0.0000 </r>
       <r>   35.3146    0.0000 </r>
      </set>
      <set comment="kpoint 53">
       <r>    3.1818    1.0000 </r>
       <r>   10.7554    1.0000 </r>
       <r>   12.2123    0.0126 </r>
       <r>   14.2527    0.0000 </r>
       <r>   25.1604    0.0000 </r>
       <r>   26.2811    0.0000 </r>
       <r>   28.8078    0.0000 </r>
       <r>   36.7528    0.0000 </r>
      </set>
      <set comment="kpoint 54">
       <r>    5.4448    1.0000 </r>
       <r>    8.1350    1.0000 </r>
       <r>   12.0521    0.5110 </r>
       <r>   12.8950    0.0000 </r>
       <r>   25.9507    0.0000 </r>
       <r>   27.1780    0.0000 </r>
       <r>   29.7566    0.0000 </r>
       <r>   33.6896    0.0000 </r>
      </set>
      <set comment="kpoint 55">
       <r>    6.1428    1.0000 </r>
       <r>   10.0974    1.0000 </r>
       <r>   10.1006    1.0000 </r>
       <r>   11.5678    1.0000 </r>
       <r>   24.5362    0.0000 </r>
       <r>   25.9503    0.0000 </r>
       <r>   31.2320    0.0000 </r>
       <r>   34.4091    0.0000 </r>
      </set>
      <set comment="kpoint 56">
       <r>    7.8029    1.0000 </r>
       <r>    8.1315    1.0000 </r>
       <r>    9.6140    1.0000 </r>
       <r>   11.7307    1.0000 </r>
       <r>   25.8042    0.0000 </r>
       <r>   28.7982    0.0000 </r>
       <r>   29.6129    0.0000 </r>
       <r>   31.6124    0.0000 </r>
      </set>
     </set>
    </set>
   </array>
  </eigenvalues>
  <separator name="orbital magnetization" >
   <v name="MAGDIPOLOUT">      0.00000000      0.00000000      0.00000000</v>
  </separator>
  <dos>
   <i name="efermi">     12.05410049 </i>
   <total>
    <array>
     <dimension dim="1">gridpoints</dimension>
     <dimension dim="2">spin</dimension>
     <field>energy</field>
     <field>total</field>
     <field>integrated</field>
     <set>
      <set comment="spin 1">
       <r>    -5.9308     0.0000     0.0000 </r>
       <r>    -5.7687     0.0000     0.0000 </r>
       <r>    -5.6065     0.0000     0.0000 </r>
       <r>    -5.4443     0.0000     0.0000 </r>
       <r>    -5.2822     0.0000     0.0000 </r>
       <r>    -5.1200     0.0000     0.0000 </r>
       <r>    -4.9578     0.0000     0.0000 </r>
       <r>    -4.7956     0.0000     0.0000 </r>
       <r>    -4.6335     0.0000     0.0000 </r>
       <r>    -4.4713     0.0000     0.0000 </r>
       <r>    -4.3091     0.0000     0.0000 </r>
       <r>    -4.1470     0.0000     0.0000 </r>
       <r>    -3.9848     0.0000     0.0000 </r>
       <r>    -3.8226     0.0007     0.0001 </r>
       <r>    -3.6604     0.0069     0.0012 </r>
       <r>    -3.4983     0.0240     0.0051 </r>
       <r>    -3.3361     0.0861     0.0191 </r>
       <r>    -3.1739     0.0227     0.0228 </r>
       <r>    -3.0118     0.0581     0.0322 </r>
       <r>    -2.8496     0.0714     0.0438 </r>
       <r>    -2.6874     0.1941     0.0752 </r>
       <r>    -2.5252     0.0811     0.0884 </r>
       <r>    -2.3631     0.0164     0.0910 </r>
       <r>    -2.2009     0.0429     0.0980 </r>
       <r>    -2.0387     0.1678     0.1252 </r>
       <r>    -1.8766     0.2529     0.1662 </r>
       <r>    -1.7144     0.0429     0.1732 </r>
       <r>    -1.5522     0.1660     0.2001 </r>
       <r>    -1.3901     0.1362     0.2222 </r>
       <r>    -1.2279     0.1869     0.2525 </r>
       <r>    -1.0657     0.0117     0.2544 </r>
       <r>    -0.9035     0.0676     0.2654 </r>
       <r>    -0.7414     0.1095     0.2831 </r>
       <r>    -0.5792     0.4712     0.3595 </r>
       <r>    -0.4170     0.1811     0.3889 </r>
       <r>    -0.2549     0.0895     0.4034 </r>
       <r>    -0.0927     0.1417     0.4264 </r>
       <r>     0.0695     0.2225     0.4625 </r>
       <r>     0.2317     0.2057     0.4958 </r>
       <r>     0.3938     0.0243     0.4998 </r>
       <r>     0.5560     0.0604     0.5095 </r>
       <r>     0.7182     0.2693     0.5532 </r>
       <r>     0.8803     0.3666     0.6127 </r>
       <r>     1.0425     0.0674     0.6236 </r>
       <r>     1.2047     0.3295     0.6770 </r>
       <r>     1.3669     0.3034     0.7262 </r>
       <r>     1.5290     0.4216     0.7946 </r>
       <r>     1.6912     0.0221     0.7982 </r>
       <r>     1.8534     0.0361     0.8041 </r>
       <r>     2.0155     0.0664     0.8148 </r>
       <r>     2.1777     0.4130     0.8818 </r>
       <r>     2.3399     0.2060     0.9152 </r>
       <r>     2.5020     0.1633     0.9417 </r>
       <r>     2.6642     0.2115     0.9760 </r>
       <r>     2.8264     0.4715     1.0524 </r>
       <r>     2.9886     0.2233     1.0887 </r>
       <r>     3.1507     0.0780     1.1013 </r>
       <r>     3.3129     0.1723     1.1293 </r>
       <r>     3.4751     0.5721     1.2220 </r>
       <r>     3.6372     0.4932     1.3020 </r>
       <r>     3.7994     0.0678     1.3130 </r>
       <r>     3.9616     0.1730     1.3411 </r>
       <r>     4.1238     0.2873     1.3877 </r>
       <r>     4.2859     0.1604     1.4137 </r>
       <r>     4.4481     0.0286     1.4183 </r>
       <r>     4.6103     0.1710     1.4461 </r>
       <r>     4.7724     0.3378     1.5008 </r>
       <r>     4.9346     0.5761     1.5943 </r>
       <r>     5.0968     0.1423     1.6173 </r>
       <r>     5.2590     0.4732     1.6941 </r>
       <r>     5.4211     0.3787     1.7555 </r>
       <r>     5.5833     0.6309     1.8578 </r>
       <r>     5.7455     0.0612     1.8677 </r>
       <r>     5.9076     0.0010     1.8679 </r>
       <r>     6.0698     0.1610     1.8940 </r>
       <r>     6.2320     0.8124     2.0258 </r>
       <r>     6.3941     0.3024     2.0748 </r>
       <r>     6.5563     0.3357     2.1293 </r>
       <r>     6.7185     0.0969     2.1450 </r>
       <r>     6.8807     0.3283     2.1982 </r>
       <r>     7.0428     0.0758     2.2105 </r>
       <r>     7.2050     0.0535     2.2192 </r>
       <r>     7.3672     0.1623     2.2455 </r>
       <r>     7.5293     0.8544     2.3841 </r>
       <r>     7.6915     0.3745     2.4448 </r>
       <r>     7.8537     0.2470     2.4849 </r>
       <r>     8.0159     0.2616     2.5273 </r>
       <r>     8.1780     0.8128     2.6591 </r>
       <r>     8.3402     0.4188     2.7270 </r>
       <r>     8.5024     0.1078     2.7445 </r>
       <r>     8.6645     0.1609     2.7706 </r>
       <r>     8.8267     0.2496     2.8111 </r>
       <r>     8.9889     0.1964     2.8429 </r>
       <r>     9.1511     0.4602     2.9175 </r>
       <r>     9.3132     0.2431     2.9570 </r>
       <r>     9.4754     0.4578     3.0312 </r>
       <r>     9.6376     0.3216     3.0834 </r>
       <r>     9.7997     0.0826     3.0968 </r>
       <r>     9.9619     0.0345     3.1024 </r>
       <r>    10.1241     0.6748     3.2118 </r>
       <r>    10.2862     0.6330     3.3145 </r>
       <r>    10.4484     0.6326     3.4170 </r>
       <r>    10.6106     0.3751     3.4779 </r>
       <r>    10.7728     0.4029     3.5432 </r>
       <r>    10.9349     0.3484     3.5997 </r>
       <r>    11.0971     0.1210     3.6193 </r>
       <r>    11.2593     0.0172     3.6221 </r>
       <r>    11.4214     0.4853     3.7008 </r>
       <r>    11.5836     0.7559     3.8234 </r>
       <r>    11.7458     0.5315     3.9096 </r>
       <r>    11.9080     0.1214     3.9293 </r>
       <r>    12.0701     0.5172     4.0132 </r>
       <r>    12.2323     0.5742     4.1063 </r>
       <r>    12.3945     0.2300     4.1436 </r>
       <r>    12.5566     0.0631     4.1538 </r>
       <r>    12.7188     0.1149     4.1724 </r>
       <r>    12.8810     0.3279     4.2256 </r>
       <r>    13.0432     0.8413     4.3621 </r>
       <r>    13.2053     0.4860     4.4409 </r>
       <r>    13.3675     0.4449     4.5130 </r>
       <r>    13.5297     0.5698     4.6054 </r>
       <r>    13.6918     0.4652     4.6809 </r>
       <r>    13.8540     0.0987     4.6969 </r>
       <r>    14.0162     0.5094     4.7795 </r>
       <r>    14.1783     0.3548     4.8370 </r>
       <r>    14.3405     0.6546     4.9432 </r>
       <r>    14.5027     0.2055     4.9765 </r>
       <r>    14.6649     0.7837     5.1036 </r>
       <r>    14.8270     0.7205     5.2204 </r>
       <r>    14.9892     0.1562     5.2458 </r>
       <r>    15.1514     0.1666     5.2728 </r>
       <r>    15.3135     0.4836     5.3512 </r>
       <r>    15.4757     0.7031     5.4652 </r>
       <r>    15.6379     0.3236     5.5177 </r>
       <r>    15.8001     0.3831     5.5799 </r>
       <r>    15.9622     0.4911     5.6595 </r>
       <r>    16.1244     0.7043     5.7737 </r>
       <r>    16.2866     0.5174     5.8576 </r>
       <r>    16.4487     0.2866     5.9041 </r>
       <r>    16.6109     0.3649     5.9633 </r>
       <r>    16.7731     0.8454     6.1004 </r>
       <r>    16.9353     0.4088     6.1667 </r>
       <r>    17.0974     0.7429     6.2872 </r>
       <r>    17.2596     0.3037     6.3364 </r>
       <r>    17.4218     0.4384     6.4075 </r>
       <r>    17.5839     0.1245     6.4277 </r>
       <r>    17.7461     0.2739     6.4721 </r>
       <r>    17.9083     0.3463     6.5283 </r>
       <r>    18.0705     0.5588     6.6189 </r>
       <r>    18.2326     0.8327     6.7539 </r>
       <r>    18.3948     0.4359     6.8246 </r>
       <r>    18.5570     0.5238     6.9096 </r>
       <r>    18.7191     0.3706     6.9697 </r>
       <r>    18.8813     0.4472     7.0422 </r>
       <r>    19.0435     0.3763     7.1032 </r>
       <r>    19.2056     0.5454     7.1917 </r>
       <r>    19.3678     0.5130     7.2748 </r>
       <r>    19.5300     0.2714     7.3189 </r>
       <r>    19.6922     0.2000     7.3513 </r>
       <r>    19.8543     0.4707     7.4276 </r>
       <r>    20.0165     0.8096     7.5589 </r>
       <r>    20.1787     0.3866     7.6216 </r>
       <r>    20.3408     0.1534     7.6465 </r>
       <r>    20.5030     0.1069     7.6638 </r>
       <r>    20.6652     0.5909     7.7597 </r>
       <r>    20.8274     0.6994     7.8731 </r>
       <r>    20.9895     0.6436     7.9775 </r>
       <r>    21.1517     0.4177     8.0452 </r>
       <r>    21.3139     0.4291     8.1148 </r>
       <r>    21.4760     0.4043     8.1804 </r>
       <r>    21.6382     0.5497     8.2695 </r>
       <r>    21.8004     0.6042     8.3675 </r>
       <r>    21.9626     0.5547     8.4574 </r>
       <r>    22.1247     0.3352     8.5118 </r>
       <r>    22.2869     0.6053     8.6099 </r>
       <r>    22.4491     0.7576     8.7328 </r>
       <r>    22.6112     0.8614     8.8725 </r>
       <r>    22.7734     0.5091     8.9551 </r>
       <r>    22.9356     0.6871     9.0665 </r>
       <r>    23.0977     0.2961     9.1145 </r>
       <r>    23.2599     0.2701     9.1583 </r>
       <r>    23.4221     0.2458     9.1982 </r>
       <r>    23.5843     0.4410     9.2697 </r>
       <r>    23.7464     0.4496     9.3426 </r>
       <r>    23.9086     0.8388     9.4786 </r>
       <r>    24.0708     0.9252     9.6287 </r>
       <r>    24.2329     0.6897     9.7405 </r>
       <r>    24.3951     0.2254     9.7771 </r>
       <r>    24.5573     0.2474     9.8172 </r>
       <r>    24.7195     0.8377     9.9530 </r>
       <r>    24.8816     0.4348    10.0235 </r>
       <r>    25.0438     0.4970    10.1041 </r>
       <r>    25.2060     0.5419    10.1920 </r>
       <r>    25.3681     0.7002    10.3056 </r>
       <r>    25.5303     0.5041    10.3873 </r>
       <r>    25.6925     0.2096    10.4213 </r>
       <r>    25.8547     0.5059    10.5034 </r>
       <r>    26.0168     1.2008    10.6981 </r>
       <r>    26.1790     0.7061    10.8126 </r>
       <r>    26.3412     0.3417    10.8680 </r>
       <r>    26.5033     0.6264    10.9696 </r>
       <r>    26.6655     0.6402    11.0734 </r>
       <r>    26.8277     0.0594    11.0830 </r>
       <r>    26.9898     0.2988    11.1315 </r>
       <r>    27.1520     0.8392    11.2676 </r>
       <r>    27.3142     0.6048    11.3657 </r>
       <r>    27.4764     0.5200    11.4500 </r>
       <r>    27.6385     0.6968    11.5630 </r>
       <r>    27.8007     0.7434    11.6835 </r>
       <r>    27.9629     0.4530    11.7570 </r>
       <r>    28.1250     0.4029    11.8223 </r>
       <r>    28.2872     0.5227    11.9071 </r>
       <r>    28.4494     0.5135    11.9904 </r>
       <r>    28.6116     0.8001    12.1201 </r>
       <r>    28.7737     0.9105    12.2678 </r>
       <r>    28.9359     0.8331    12.4029 </r>
       <r>    29.0981     0.4816    12.4810 </r>
       <r>    29.2602     0.2926    12.5285 </r>
       <r>    29.4224     0.4385    12.5996 </r>
       <r>    29.5846     0.1737    12.6277 </r>
       <r>    29.7468     0.5486    12.7167 </r>
       <r>    29.9089     0.9181    12.8656 </r>
       <r>    30.0711     0.8271    12.9997 </r>
       <r>    30.2333     0.6261    13.1013 </r>
       <r>    30.3954     0.4444    13.1733 </r>
       <r>    30.5576     0.3846    13.2357 </r>
       <r>    30.7198     0.6927    13.3480 </r>
       <r>    30.8819     0.6589    13.4549 </r>
       <r>    31.0441     0.7844    13.5821 </r>
       <r>    31.2063     0.6612    13.6893 </r>
       <r>    31.3685     0.7358    13.8087 </r>
       <r>    31.5306     0.5405    13.8963 </r>
       <r>    31.6928     0.4035    13.9618 </r>
       <r>    31.8550     0.5090    14.0443 </r>
       <r>    32.0171     0.5347    14.1310 </r>
       <r>    32.1793     0.3868    14.1937 </r>
       <r>    32.3415     0.1818    14.2232 </r>
       <r>    32.5037     0.3351    14.2776 </r>
       <r>    32.6658     0.1591    14.3034 </r>
       <r>    32.8280     0.6070    14.4018 </r>
       <r>    32.9902     0.6068    14.5002 </r>
       <r>    33.1523     0.3512    14.5572 </r>
       <r>    33.3145     0.3558    14.6149 </r>
       <r>    33.4767     0.1993    14.6472 </r>
       <r>    33.6389     0.1478    14.6712 </r>
       <r>    33.8010     0.5190    14.7553 </r>
       <r>    33.9632     0.6136    14.8548 </r>
       <r>    34.1254     0.6748    14.9643 </r>
       <r>    34.2875     0.6448    15.0688 </r>
       <r>    34.4497     0.5353    15.1556 </r>
       <r>    34.6119     0.1069    15.1730 </r>
       <r>    34.7740     0.2086    15.2068 </r>
       <r>    34.9362     0.5270    15.2923 </r>
       <r>    35.0984     0.3123    15.3429 </r>
       <r>    35.2606     0.4953    15.4232 </r>
       <r>    35.4227     0.5161    15.5069 </r>
       <r>    35.5849     0.1445    15.5304 </r>
       <r>    35.7471     0.0387    15.5366 </r>
       <r>    35.9092     0.1657    15.5635 </r>
       <r>    36.0714     0.0397    15.5700 </r>
       <r>    36.2336     0.2669    15.6133 </r>
       <r>    36.3958     0.2001    15.6457 </r>
       <r>    36.5579     0.1663    15.6727 </r>
       <r>    36.7201     0.0885    15.6870 </r>
       <r>    36.8823     0.1447    15.7105 </r>
       <r>    37.0444     0.0406    15.7171 </r>
       <r>    37.2066     0.0415    15.7238 </r>
       <r>    37.3688     0.3041    15.7731 </r>
       <r>    37.5310     0.1200    15.7926 </r>
       <r>    37.6931     0.0647    15.8031 </r>
       <r>    37.8553     0.1489    15.8272 </r>
       <r>    38.0175     0.0127    15.8293 </r>
       <r>    38.1796     0.1278    15.8500 </r>
       <r>    38.3418     0.2000    15.8824 </r>
       <r>    38.5040     0.1347    15.9043 </r>
       <r>    38.6662     0.1747    15.9326 </r>
       <r>    38.8283     0.1998    15.9650 </r>
       <r>    38.9905     0.0488    15.9729 </r>
       <r>    39.1527     0.0002    15.9730 </r>
       <r>    39.3148     0.0000    15.9730 </r>
       <r>    39.4770     0.0000    15.9730 </r>
       <r>    39.6392     0.0001    15.9730 </r>
       <r>    39.8013     0.0212    15.9764 </r>
       <r>    39.9635     0.0812    15.9896 </r>
       <r>    40.1257     0.0086    15.9910 </r>
       <r>    40.2879     0.0001    15.9910 </r>
       <r>    40.4500     0.0112    15.9928 </r>
       <r>    40.6122     0.0403    15.9993 </r>
       <r>    40.7744     0.0040    16.0000 </r>
       <r>    40.9365     0.0000    16.0000 </r>
       <r>    41.0987     0.0000    16.0000 </r>
       <r>    41.2609     0.0000    16.0000 </r>
       <r>    41.4231     0.0000    16.0000 </r>
       <r>    41.5852     0.0000    16.0000 </r>
       <r>    41.7474     0.0000    16.0000 </r>
       <r>    41.9096     0.0000    16.0000 </r>
       <r>    42.0717     0.0000    16.0000 </r>
       <r>    42.2339     0.0000    16.0000 </r>
       <r>    42.3961     0.0000    16.0000 </r>
       <r>    42.5583     0.0000    16.0000 </r>
       <r>    42.7204     0.0000    16.0000 </r>
      </set>
     </set>
    </array>
   </total>
  </dos>
 </calculation>
 <structure name="finalpos" >
  <crystal>
   <varray name="basis" >
    <v>       1.85000000       1.85000000       0.00000000 </v>
    <v>       0.00000000       1.85000000       1.85000000 </v>
    <v>       1.85000000       0.00000000       1.85000000 </v>
   </varray>
   <i name="volume">     12.66325000 </i>
   <varray name="rec_basis" >
    <v>       0.27027027       0.27027027      -0.27027027 </v>
    <v>      -0.27027027       0.27027027       0.27027027 </v>
    <v>       0.27027027      -0.27027027       0.27027027 </v>
   </varray>
  </crystal>
  <varray name="positions" >
   <v>       0.00000000       0.00000000       0.00000000 </v>
  </varray>
 </structure>
</modeling>
