fcc Ni                                  
   3.53000000000000     
     0.500000    0.500000    0.000000
     0.000000    0.500000    0.500000
     0.500000    0.000000    0.500000
   Ni
     1
Direct
  0.000000  0.000000  0.000000
 
   20   20   20
 0.15225166620E+03 0.14249539329E+03 0.11657443322E+03 0.82772620955E+02 0.50333501740E+02
 0.25845212567E+02 0.11579379316E+02 0.57819270610E+01 0.42609098889E+01 0.35804416260E+01
 0.33600186949E+01 0.35804416260E+01 0.42609098889E+01 0.57819270610E+01 0.11579379316E+02
 0.25845212567E+02 0.50333501740E+02 0.82772620955E+02 0.11657443322E+03 0.14249539329E+03
 0.14249539329E+03 0.12469158580E+03 0.95041035587E+02 0.62448805866E+02 0.34838834527E+02
 0.16512389368E+02 0.75303391645E+01 0.47087560577E+01 0.38160036089E+01 0.33780398945E+01
 0.33791972525E+01 0.38177145229E+01 0.47084446531E+01 0.75286569496E+01 0.16512414515E+02
 0.34841352824E+02 0.62450516137E+02 0.95038648745E+02 0.12468654592E+03 0.14249277463E+03
 0.11657443322E+03 0.95041035587E+02 0.67044459651E+02 0.40384321143E+02 0.20602203942E+02
 0.94734357970E+01 0.52280841223E+01 0.40501833733E+01 0.34312230223E+01 0.32334365404E+01
 0.34313409739E+01 0.40502097378E+01 0.52280322680E+01 0.94734743367E+01 0.20602219135E+02
 0.40384094504E+02 0.67044198229E+02 0.95041123971E+02 0.11657472530E+03 0.12468654592E+03
 0.82772620955E+02 0.62448805866E+02 0.40384321143E+02 0.22193314864E+02 0.10764664814E+02
 0.57181358711E+01 0.42337971332E+01 0.35006954044E+01 0.31501208490E+01 0.31494832899E+01
 0.34996668161E+01 0.42338081589E+01 0.57189982017E+01 0.10764505711E+02 0.22191385075E+02
 0.40382989557E+02 0.62450988427E+02 0.82777299917E+02 0.95041123971E+02 0.95038648745E+02
 0.50333501740E+02 0.34838834527E+02 0.20602203942E+02 0.10764664814E+02 0.59250584689E+01
 0.43348239764E+01 0.35582021769E+01 0.31124198262E+01 0.29754936695E+01 0.31126475080E+01
 0.35581003902E+01 0.43344053836E+01 0.59249367486E+01 0.10764940834E+02 0.20602388428E+02
 0.34838880544E+02 0.50333826685E+02 0.62450988427E+02 0.67044198229E+02 0.62450516137E+02
 0.25845212567E+02 0.16512389368E+02 0.94734357970E+01 0.57181358711E+01 0.43348239764E+01
 0.35813984513E+01 0.31013136675E+01 0.28859332820E+01 0.28863188507E+01 0.31018028134E+01
 0.35812305857E+01 0.43346174269E+01 0.57188637362E+01 0.94745548327E+01 0.16512265839E+02
 0.25843265642E+02 0.34838880544E+02 0.40382989557E+02 0.40384094504E+02 0.34841352824E+02
 0.11579379316E+02 0.75303391645E+01 0.52280841223E+01 0.42337971332E+01 0.35582021769E+01
 0.31013136675E+01 0.28595910875E+01 0.27868121610E+01 0.28597116277E+01 0.31014098026E+01
 0.35582836762E+01 0.42339127241E+01 0.52280038085E+01 0.75298563295E+01 0.11578816466E+02
 0.16512265839E+02 0.20602388428E+02 0.22191385075E+02 0.20602219135E+02 0.16512414515E+02
 0.57819270610E+01 0.47087560577E+01 0.40501833733E+01 0.35006954044E+01 0.31124198262E+01
 0.28859332820E+01 0.27868121610E+01 0.27870523769E+01 0.28862483419E+01 0.31121634647E+01
 0.34998676162E+01 0.40494479559E+01 0.47087255183E+01 0.57826893626E+01 0.75298563295E+01
 0.94745548327E+01 0.10764940834E+02 0.10764505711E+02 0.94734743367E+01 0.75286569496E+01
 0.42609098889E+01 0.38160036089E+01 0.34312230223E+01 0.31501208490E+01 0.29754936695E+01
 0.28863188507E+01 0.28597116277E+01 0.28862483419E+01 0.29753356917E+01 0.31499843018E+01
 0.34313235486E+01 0.38164138221E+01 0.42614123809E+01 0.47087255183E+01 0.52280038085E+01
 0.57188637362E+01 0.59249367486E+01 0.57189982017E+01 0.52280322680E+01 0.47084446531E+01
 0.35804416260E+01 0.33780398945E+01 0.32334365404E+01 0.31494832899E+01 0.31126475080E+01
 0.31018028134E+01 0.31014098026E+01 0.31121634647E+01 0.31499843018E+01 0.32347677168E+01
 0.33788568292E+01 0.35798730317E+01 0.38164138221E+01 0.40494479559E+01 0.42339127241E+01
 0.43346174269E+01 0.43344053836E+01 0.42338081589E+01 0.40502097378E+01 0.38177145229E+01
 0.33600186949E+01 0.33791972525E+01 0.34313409739E+01 0.34996668161E+01 0.35581003902E+01
 0.35812305857E+01 0.35582836762E+01 0.34998676162E+01 0.34313235486E+01 0.33788568292E+01
 0.33595223266E+01 0.33788568292E+01 0.34313235486E+01 0.34998676162E+01 0.35582836762E+01
 0.35812305857E+01 0.35581003902E+01 0.34996668161E+01 0.34313409739E+01 0.33791972525E+01
 0.35804416260E+01 0.38177145229E+01 0.40502097378E+01 0.42338081589E+01 0.43344053836E+01
 0.43346174269E+01 0.42339127241E+01 0.40494479559E+01 0.38164138221E+01 0.35798730317E+01
 0.33788568292E+01 0.32347677168E+01 0.31499843018E+01 0.31121634647E+01 0.31014098026E+01
 0.31018028134E+01 0.31126475080E+01 0.31494832899E+01 0.32334365404E+01 0.33780398945E+01
 0.42609098889E+01 0.47084446531E+01 0.52280322680E+01 0.57189982017E+01 0.59249367486E+01
 0.57188637362E+01 0.52280038085E+01 0.47087255183E+01 0.42614123809E+01 0.38164138221E+01
 0.34313235486E+01 0.31499843018E+01 0.29753356917E+01 0.28862483419E+01 0.28597116277E+01
 0.28863188507E+01 0.29754936695E+01 0.31501208490E+01 0.34312230223E+01 0.38160036089E+01
 0.57819270611E+01 0.75286569496E+01 0.94734743367E+01 0.10764505711E+02 0.10764940834E+02
 0.94745548327E+01 0.75298563295E+01 0.57826893626E+01 0.47087255183E+01 0.40494479559E+01
 0.34998676162E+01 0.31121634647E+01 0.28862483419E+01 0.27870523769E+01 0.27868121610E+01
 0.28859332820E+01 0.31124198262E+01 0.35006954044E+01 0.40501833733E+01 0.47087560577E+01
 0.11579379316E+02 0.16512414515E+02 0.20602219135E+02 0.22191385075E+02 0.20602388428E+02
 0.16512265839E+02 0.11578816466E+02 0.75298563295E+01 0.52280038085E+01 0.42339127241E+01
 0.35582836762E+01 0.31014098026E+01 0.28597116277E+01 0.27868121610E+01 0.28595910875E+01
 0.31013136675E+01 0.35582021769E+01 0.42337971332E+01 0.52280841223E+01 0.75303391645E+01
 0.25845212567E+02 0.34841352824E+02 0.40384094504E+02 0.40382989557E+02 0.34838880544E+02
 0.25843265642E+02 0.16512265839E+02 0.94745548327E+01 0.57188637362E+01 0.43346174269E+01
 0.35812305857E+01 0.31018028134E+01 0.28863188507E+01 0.28859332820E+01 0.31013136675E+01
 0.35813984513E+01 0.43348239764E+01 0.57181358711E+01 0.94734357970E+01 0.16512389368E+02
 0.50333501740E+02 0.62450516137E+02 0.67044198229E+02 0.62450988427E+02 0.50333826685E+02
 0.34838880544E+02 0.20602388428E+02 0.10764940834E+02 0.59249367486E+01 0.43344053836E+01
 0.35581003902E+01 0.31126475080E+01 0.29754936695E+01 0.31124198262E+01 0.35582021769E+01
 0.43348239764E+01 0.59250584689E+01 0.10764664814E+02 0.20602203942E+02 0.34838834527E+02
 0.82772620955E+02 0.95038648745E+02 0.95041123971E+02 0.82777299917E+02 0.62450988427E+02
 0.40382989557E+02 0.22191385075E+02 0.10764505711E+02 0.57189982017E+01 0.42338081589E+01
 0.34996668161E+01 0.31494832899E+01 0.31501208490E+01 0.35006954044E+01 0.42337971332E+01
 0.57181358711E+01 0.10764664814E+02 0.22193314864E+02 0.40384321143E+02 0.62448805866E+02
 0.11657443322E+03 0.12468654592E+03 0.11657472530E+03 0.95041123971E+02 0.67044198229E+02
 0.40384094504E+02 0.20602219135E+02 0.94734743367E+01 0.52280322680E+01 0.40502097378E+01
 0.34313409739E+01 0.32334365404E+01 0.34312230223E+01 0.40501833733E+01 0.52280841223E+01
 0.94734357970E+01 0.20602203942E+02 0.40384321143E+02 0.67044459651E+02 0.95041035587E+02
 0.14249539329E+03 0.14249277463E+03 0.12468654592E+03 0.95038648745E+02 0.62450516137E+02
 0.34841352824E+02 0.16512414515E+02 0.75286569496E+01 0.47084446531E+01 0.38177145229E+01
 0.33791972525E+01 0.33780398945E+01 0.38160036089E+01 0.47087560577E+01 0.75303391645E+01
 0.16512389368E+02 0.34838834527E+02 0.62448805866E+02 0.95041035587E+02 0.12469158580E+03
 0.14249509509E+03 0.12469110121E+03 0.95040767141E+02 0.62448755884E+02 0.34838738816E+02
 0.16512288069E+02 0.75304490599E+01 0.47089515345E+01 0.38159989757E+01 0.33779321762E+01
 0.33792739712E+01 0.38178891714E+01 0.47084387985E+01 0.75285720368E+01 0.16512559943E+02
 0.34841666555E+02 0.62450704772E+02 0.95038729571E+02 0.12468669809E+03 0.14249283844E+03
 0.12469110121E+03 0.10160277800E+03 0.71664789997E+02 0.43211062169E+02 0.22064986858E+02
 0.10061047505E+02 0.53875048326E+01 0.41231113791E+01 0.34859286948E+01 0.32812989565E+01
 0.34863496998E+01 0.41226476433E+01 0.53865628776E+01 0.10061949454E+02 0.22068196572E+02
 0.43213372109E+02 0.71662797386E+02 0.10159714931E+03 0.12468627274E+03 0.13340220928E+03
 0.95040767141E+02 0.71664789997E+02 0.46379748763E+02 0.25510329810E+02 0.12229984294E+02
 0.61679069037E+01 0.43798586355E+01 0.36089334026E+01 0.32334337004E+01 0.32328197194E+01
 0.36076469978E+01 0.43793016578E+01 0.61690631228E+01 0.12231879540E+02 0.25510796192E+02
 0.46378238767E+02 0.71663086326E+02 0.95040291691E+02 0.10920316987E+03 0.10920306355E+03
 0.62448755884E+02 0.43211062169E+02 0.25510329810E+02 0.13085603854E+02 0.67101219759E+01
 0.45560416198E+01 0.37144753658E+01 0.32215033346E+01 0.30686457080E+01 0.32221315926E+01
 0.37147328148E+01 0.45555278186E+01 0.67093560772E+01 0.13084943202E+02 0.25509971376E+02
 0.43211786731E+02 0.62450967049E+02 0.77551779762E+02 0.83293684674E+02 0.77549586347E+02
 0.34838738816E+02 0.22064986858E+02 0.12229984294E+02 0.67101219759E+01 0.46256898073E+01
 0.37784889963E+01 0.32278659702E+01 0.29772146687E+01 0.29781626162E+01 0.32291633613E+01
 0.37779379436E+01 0.46238292434E+01 0.67093258877E+01 0.12231069835E+02 0.22066516388E+02
 0.34839306630E+02 0.47098655762E+02 0.54663661969E+02 0.54663904244E+02 0.47098938190E+02
 0.16512288069E+02 0.10061047505E+02 0.61679069037E+01 0.45560416198E+01 0.37784889963E+01
 0.32343391131E+01 0.29406926117E+01 0.28518612071E+01 0.29404738592E+01 0.32337666080E+01
 0.37780388095E+01 0.45564697798E+01 0.61689875880E+01 0.10061569456E+02 0.16511552843E+02
 0.24133100680E+02 0.30381772447E+02 0.32803027934E+02 0.30382770862E+02 0.24134498032E+02
 0.75304490599E+01 0.53875048326E+01 0.43798586355E+01 0.37144753658E+01 0.32278659702E+01
 0.29406926117E+01 0.28149477474E+01 0.28147317887E+01 0.29403873081E+01 0.32280062188E+01
 0.37149219052E+01 0.43797848064E+01 0.53865355139E+01 0.75294939633E+01 0.10865993444E+02
 0.14418854104E+02 0.16726712483E+02 0.16725939154E+02 0.14417511896E+02 0.10865701118E+02
 0.47089515345E+01 0.41231113791E+01 0.36089334026E+01 0.32215033346E+01 0.29772146687E+01
 0.28518612071E+01 0.28147317887E+01 0.28526783684E+01 0.29779770439E+01 0.32212992328E+01
 0.36076881747E+01 0.41217278846E+01 0.47086139140E+01 0.55811612499E+01 0.68193480178E+01
 0.79726371627E+01 0.84456242430E+01 0.79710093713E+01 0.68172255556E+01 0.55799457521E+01
 0.38159989757E+01 0.34859286948E+01 0.32334337004E+01 0.30686457080E+01 0.29781626162E+01
 0.29404738592E+01 0.29403873081E+01 0.29779770439E+01 0.30685048214E+01 0.32334357344E+01
 0.34861068422E+01 0.38163313924E+01 0.41821482753E+01 0.45232652095E+01 0.48342417731E+01
 0.50490919506E+01 0.50490748039E+01 0.48341305252E+01 0.45229882994E+01 0.41817672977E+01
 0.33779321762E+01 0.32812989565E+01 0.32328197194E+01 0.32221315926E+01 0.32291633613E+01
 0.32337666080E+01 0.32280062188E+01 0.32212992328E+01 0.32334357344E+01 0.32828061012E+01
 0.33788476840E+01 0.35185498569E+01 0.36837645624E+01 0.38422876066E+01 0.39568927855E+01
 0.39987324567E+01 0.39572656032E+01 0.38431935858E+01 0.36848813543E+01 0.35189432028E+01
 0.33792739712E+01 0.34863496998E+01 0.36076469978E+01 0.37147328148E+01 0.37779379436E+01
 0.37780388095E+01 0.37149219052E+01 0.36076881747E+01 0.34861068422E+01 0.33788476840E+01
 0.33053247584E+01 0.32731919164E+01 0.32779334815E+01 0.33028895880E+01 0.33243386320E+01
 0.33242933748E+01 0.33027873753E+01 0.32778827217E+01 0.32733326023E+01 0.33056897257E+01
 0.38178891714E+01 0.41226476433E+01 0.43793016578E+01 0.45555278186E+01 0.46238292434E+01
 0.45564697798E+01 0.43797848064E+01 0.41217278846E+01 0.38163313924E+01 0.35185498569E+01
 0.32731919164E+01 0.31010682680E+01 0.29997589596E+01 0.29523546456E+01 0.29395118401E+01
 0.29523854502E+01 0.29992410817E+01 0.30999649201E+01 0.32725048830E+01 0.35192197622E+01
 0.47084387985E+01 0.53865628776E+01 0.61690631228E+01 0.67093560772E+01 0.67093258877E+01
 0.61689875880E+01 0.53865355139E+01 0.47086139140E+01 0.41821482753E+01 0.36837645624E+01
 0.32779334815E+01 0.29997589596E+01 0.28393127154E+01 0.27690975919E+01 0.27691873021E+01
 0.28395215738E+01 0.29999055191E+01 0.32778180745E+01 0.36833891830E+01 0.41817585802E+01
 0.75285720368E+01 0.10061949454E+02 0.12231879540E+02 0.13084943202E+02 0.12231069835E+02
 0.10061569456E+02 0.75294939633E+01 0.55811612499E+01 0.45232652095E+01 0.38422876066E+01
 0.33028895880E+01 0.29523546456E+01 0.27690975919E+01 0.27134656844E+01 0.27686713637E+01
 0.29525185740E+01 0.33039562767E+01 0.38431140411E+01 0.45227037029E+01 0.55796563663E+01
 0.16512559943E+02 0.22068196572E+02 0.25510796192E+02 0.25509971376E+02 0.22066516388E+02
 0.16511552843E+02 0.10865993444E+02 0.68193480178E+01 0.48342417731E+01 0.39568927855E+01
 0.33243386320E+01 0.29395118401E+01 0.27691873021E+01 0.27686713637E+01 0.29387070014E+01
 0.33243250092E+01 0.39574553284E+01 0.48342928844E+01 0.68186892898E+01 0.10865722602E+02
 0.34841666555E+02 0.43213372109E+02 0.46378238767E+02 0.43211786731E+02 0.34839306630E+02
 0.24133100680E+02 0.14418854104E+02 0.79726371627E+01 0.50490919506E+01 0.39987324567E+01
 0.33242933748E+01 0.29523854502E+01 0.28395215738E+01 0.29525185740E+01 0.33243250092E+01
 0.39982249270E+01 0.50479466048E+01 0.79716324884E+01 0.14419117929E+02 0.24134895001E+02
 0.62450704772E+02 0.71662797386E+02 0.71663086326E+02 0.62450967049E+02 0.47098655762E+02
 0.30381772447E+02 0.16726712483E+02 0.84456242430E+01 0.50490748039E+01 0.39572656032E+01
 0.33027873753E+01 0.29992410817E+01 0.29999055191E+01 0.33039562767E+01 0.39574553284E+01
 0.50479466048E+01 0.84444090087E+01 0.16726673544E+02 0.30382658972E+02 0.47099206116E+02
 0.95038729571E+02 0.10159714931E+03 0.95040291691E+02 0.77551779762E+02 0.54663661969E+02
 0.32803027934E+02 0.16725939154E+02 0.79710093713E+01 0.48341305252E+01 0.38431935858E+01
 0.32778827217E+01 0.30999649201E+01 0.32778180745E+01 0.38431140411E+01 0.48342928844E+01
 0.79716324884E+01 0.16726673544E+02 0.32803007382E+02 0.54662355908E+02 0.77549704319E+02
 0.12468669809E+03 0.12468627274E+03 0.10920316987E+03 0.83293684674E+02 0.54663904244E+02
 0.30382770862E+02 0.14417511896E+02 0.68172255556E+01 0.45229882994E+01 0.36848813543E+01
 0.32733326023E+01 0.32725048830E+01 0.36833891830E+01 0.45227037029E+01 0.68186892898E+01
 0.14419117929E+02 0.30382658972E+02 0.54662355908E+02 0.83292647996E+02 0.10920347283E+03
 0.14249283844E+03 0.13340220928E+03 0.10920306355E+03 0.77549586347E+02 0.47098938190E+02
 0.24134498032E+02 0.10865701118E+02 0.55799457521E+01 0.41817672977E+01 0.35189432028E+01
 0.33056897257E+01 0.35192197622E+01 0.41817585802E+01 0.55796563663E+01 0.10865722602E+02
 0.24134895001E+02 0.47099206116E+02 0.77549704319E+02 0.10920347283E+03 0.13340274950E+03
 0.11657377785E+03 0.95040393881E+02 0.67044398864E+02 0.40384561359E+02 0.20602223554E+02
 0.94734172820E+01 0.52283900859E+01 0.40505034559E+01 0.34311434562E+01 0.32332796231E+01
 0.34315539107E+01 0.40504960787E+01 0.52279633002E+01 0.94733722156E+01 0.20602545399E+02
 0.40384537359E+02 0.67044242037E+02 0.95040948286E+02 0.11657468141E+03 0.12468635137E+03
 0.95040393881E+02 0.71664613295E+02 0.46379939575E+02 0.25510608047E+02 0.12230089946E+02
 0.61679827480E+01 0.43800543980E+01 0.36090639888E+01 0.32333663429E+01 0.32327787822E+01
 0.36077954607E+01 0.43794290922E+01 0.61690144843E+01 0.12231874292E+02 0.25510989071E+02
 0.46378378669E+02 0.71662945643E+02 0.95040031573E+02 0.10920296624E+03 0.10920279455E+03
 0.67044398864E+02 0.46379939575E+02 0.27373915765E+02 0.13981553722E+02 0.70245172180E+01
 0.46375644905E+01 0.37697428931E+01 0.32605900025E+01 0.31016994242E+01 0.32609707146E+01
 0.37697893472E+01 0.46373216404E+01 0.70247084445E+01 0.13982025784E+02 0.27373738162E+02
 0.46379091441E+02 0.67043828867E+02 0.83292458875E+02 0.89479769777E+02 0.83292464483E+02
 0.40384561359E+02 0.25510608047E+02 0.13981553722E+02 0.73725016365E+01 0.48013352459E+01
 0.38832220278E+01 0.32974510114E+01 0.30277452814E+01 0.30286840062E+01 0.32990522178E+01
 0.38835907004E+01 0.48003496470E+01 0.73714223130E+01 0.13981168161E+02 0.25510937592E+02
 0.40385553366E+02 0.54663837333E+02 0.63490420296E+02 0.63489790122E+02 0.54662542725E+02
 0.20602223554E+02 0.12230089946E+02 0.70245172180E+01 0.48013352459E+01 0.39248325551E+01
 0.33251708859E+01 0.29964829673E+01 0.28969361477E+01 0.29967208417E+01 0.33251194666E+01
 0.39244621091E+01 0.48012183146E+01 0.70248454878E+01 0.12230447668E+02 0.20602409443E+02
 0.30382766479E+02 0.38381809845E+02 0.41481456353E+02 0.38381520141E+02 0.30382522669E+02
 0.94734172820E+01 0.61679827480E+01 0.46375644905E+01 0.38832220278E+01 0.33251708859E+01
 0.29895435905E+01 0.28418159998E+01 0.28413243011E+01 0.29884372466E+01 0.33243714542E+01
 0.38835491828E+01 0.46388936405E+01 0.61691728855E+01 0.94733520257E+01 0.14417477987E+02
 0.19576291423E+02 0.22902615003E+02 0.22903303297E+02 0.19577883854E+02 0.14418820308E+02
 0.52283900859E+01 0.43800543980E+01 0.37697428931E+01 0.32974510114E+01 0.29964829673E+01
 0.28418159998E+01 0.27956608135E+01 0.28418856261E+01 0.29966147348E+01 0.32975620352E+01
 0.37697133804E+01 0.43798576631E+01 0.52281074313E+01 0.68185853773E+01 0.90280425576E+01
 0.11024811869E+02 0.11833495944E+02 0.11024972116E+02 0.90282943635E+01 0.68188724270E+01
 0.40505034559E+01 0.36090639888E+01 0.32605900025E+01 0.30277452814E+01 0.28969361477E+01
 0.28413243011E+01 0.28418856261E+01 0.28981632434E+01 0.30285798673E+01 0.32602082908E+01
 0.36076794275E+01 0.40492799827E+01 0.45231093178E+01 0.50826336067E+01 0.57431920000E+01
 0.62165187684E+01 0.62158934396E+01 0.57417486772E+01 0.50814347455E+01 0.45231178893E+01
 0.34311434562E+01 0.32333663429E+01 0.31016994242E+01 0.30286840062E+01 0.29967208417E+01
 0.29884372466E+01 0.29966147348E+01 0.30285798673E+01 0.31016757843E+01 0.32334476297E+01
 0.34313623807E+01 0.36836490762E+01 0.39554134155E+01 0.41968927708E+01 0.43621834838E+01
 0.44230096670E+01 0.43622804592E+01 0.41968640078E+01 0.39551580893E+01 0.36833224760E+01
 0.32332796231E+01 0.32327787822E+01 0.32609707146E+01 0.32990522178E+01 0.33251194666E+01
 0.33243714542E+01 0.32975620352E+01 0.32602082908E+01 0.32334476297E+01 0.32347320156E+01
 0.32731755362E+01 0.33471769519E+01 0.34421808691E+01 0.35319268998E+01 0.35869105953E+01
 0.35873855485E+01 0.35330666535E+01 0.34432386969E+01 0.33473362762E+01 0.32721785419E+01
 0.34315539107E+01 0.36077954607E+01 0.37697893472E+01 0.38835907004E+01 0.39244621091E+01
 0.38835491828E+01 0.37697133804E+01 0.36076794275E+01 0.34313623807E+01 0.32731755362E+01
 0.31549531225E+01 0.30844120198E+01 0.30553953832E+01 0.30509621256E+01 0.30521966467E+01
 0.30508024515E+01 0.30552961173E+01 0.30845390324E+01 0.31552446926E+01 0.32734611536E+01
 0.40504960787E+01 0.43794290922E+01 0.46373216404E+01 0.48003496470E+01 0.48012183146E+01
 0.46388936405E+01 0.43798576631E+01 0.40492799827E+01 0.36836490762E+01 0.33471769519E+01
 0.30844120198E+01 0.29088668394E+01 0.28100804678E+01 0.27681096286E+01 0.27679757265E+01
 0.28095507242E+01 0.29079639432E+01 0.30838180948E+01 0.33477547297E+01 0.36852550587E+01
 0.52279633002E+01 0.61690144843E+01 0.70247084445E+01 0.73714223130E+01 0.70248454878E+01
 0.61691728855E+01 0.52281074313E+01 0.45231093178E+01 0.39554134155E+01 0.34421808691E+01
 0.30553953832E+01 0.28100804678E+01 0.26824203128E+01 0.26438046128E+01 0.26825616581E+01
 0.28102485564E+01 0.30554242297E+01 0.34420049520E+01 0.39551474910E+01 0.45229028734E+01
 0.94733722156E+01 0.12231874292E+02 0.13982025784E+02 0.13981168161E+02 0.12230447668E+02
 0.94733520257E+01 0.68185853773E+01 0.50826336067E+01 0.41968927708E+01 0.35319268998E+01
 0.30509621256E+01 0.27681096286E+01 0.26438046128E+01 0.26435186871E+01 0.27679207383E+01
 0.30517425787E+01 0.35330942650E+01 0.41968677564E+01 0.50809952375E+01 0.68169071592E+01
 0.20602545399E+02 0.25510989071E+02 0.27373738162E+02 0.25510937592E+02 0.20602409443E+02
 0.14417477987E+02 0.90280425576E+01 0.57431920000E+01 0.43621834838E+01 0.35869105953E+01
 0.30521966467E+01 0.27679757265E+01 0.26825616581E+01 0.27679207383E+01 0.30521074038E+01
 0.35868400209E+01 0.43622027211E+01 0.57433384494E+01 0.90282740634E+01 0.14417697916E+02
 0.40384537359E+02 0.46378378669E+02 0.46379091441E+02 0.40385553366E+02 0.30382766479E+02
 0.19576291423E+02 0.11024811869E+02 0.62165187684E+01 0.44230096670E+01 0.35873855485E+01
 0.30508024515E+01 0.28095507242E+01 0.28102485564E+01 0.30517425787E+01 0.35868400209E+01
 0.44213366124E+01 0.62158598037E+01 0.11026216552E+02 0.19578284196E+02 0.30383277601E+02
 0.67044242037E+02 0.71662945643E+02 0.67043828867E+02 0.54663837333E+02 0.38381809845E+02
 0.22902615003E+02 0.11833495944E+02 0.62158934396E+01 0.43622804592E+01 0.35330666535E+01
 0.30552961173E+01 0.29079639432E+01 0.30554242297E+01 0.35330942650E+01 0.43622027211E+01
 0.62158598037E+01 0.11833379573E+02 0.22902242820E+02 0.38381495945E+02 0.54664014276E+02
 0.95040948286E+02 0.95040031573E+02 0.83292458875E+02 0.63490420296E+02 0.41481456353E+02
 0.22903303297E+02 0.11024972116E+02 0.57417486772E+01 0.41968640078E+01 0.34432386969E+01
 0.30845390324E+01 0.30838180948E+01 0.34420049520E+01 0.41968677564E+01 0.57433384494E+01
 0.11026216552E+02 0.22902242820E+02 0.41478982830E+02 0.63489344311E+02 0.83293541428E+02
 0.11657468141E+03 0.10920296624E+03 0.89479769777E+02 0.63489790122E+02 0.38381520141E+02
 0.19577883854E+02 0.90282943635E+01 0.50814347455E+01 0.39551580893E+01 0.33473362762E+01
 0.31552446926E+01 0.33477547297E+01 0.39551474910E+01 0.50809952375E+01 0.90282740634E+01
 0.19578284196E+02 0.38381495945E+02 0.63489344311E+02 0.89479752876E+02 0.10920338079E+03
 0.12468635137E+03 0.10920279455E+03 0.83292464483E+02 0.54662542725E+02 0.30382522669E+02
 0.14418820308E+02 0.68188724270E+01 0.45231178893E+01 0.36833224760E+01 0.32721785419E+01
 0.32734611536E+01 0.36852550587E+01 0.45229028734E+01 0.68169071592E+01 0.14417697916E+02
 0.30383277601E+02 0.54664014276E+02 0.83293541428E+02 0.10920338079E+03 0.12468655517E+03
 0.82772117472E+02 0.62448516113E+02 0.40384681901E+02 0.22193736131E+02 0.10764617822E+02
 0.57180723804E+01 0.42341364949E+01 0.35009456613E+01 0.31498822940E+01 0.31492898510E+01
 0.34999508651E+01 0.42340519567E+01 0.57187796172E+01 0.10764354120E+02 0.22191725235E+02
 0.40383263432E+02 0.62450700830E+02 0.82776920128E+02 0.95041094853E+02 0.95038537611E+02
 0.62448516113E+02 0.43211217679E+02 0.25510930051E+02 0.13086060276E+02 0.67101606598E+01
 0.45560735826E+01 0.37147129628E+01 0.32215790899E+01 0.30684328148E+01 0.32220646865E+01
 0.37149662826E+01 0.45556296614E+01 0.67091699371E+01 0.13084894138E+02 0.25510183029E+02
 0.43211761072E+02 0.62450489313E+02 0.77551300544E+02 0.83293479570E+02 0.77549385701E+02
 0.40384681901E+02 0.25510930051E+02 0.13981960106E+02 0.73726842166E+01 0.48012757155E+01
 0.38831870336E+01 0.32975054008E+01 0.30277057623E+01 0.30285519530E+01 0.32990368094E+01
 0.38836862794E+01 0.48003342635E+01 0.73712902299E+01 0.13981123789E+02 0.25510952767E+02
 0.40385381289E+02 0.54663487726E+02 0.63490183512E+02 0.63489771326E+02 0.54662596678E+02
 0.22193736131E+02 0.13086060276E+02 0.73726842166E+01 0.48981433132E+01 0.39742516890E+01
 0.33569117422E+01 0.30167205253E+01 0.29132797274E+01 0.30167484572E+01 0.33576231768E+01
 0.39755794026E+01 0.48987023354E+01 0.73713278824E+01 0.13083827138E+02 0.22193183709E+02
 0.32805464559E+02 0.41482098709E+02 0.44844268632E+02 0.41479586929E+02 0.32803372256E+02
 0.10764617822E+02 0.67101606598E+01 0.48012757155E+01 0.39742516890E+01 0.33787523446E+01
 0.30174064074E+01 0.28583564501E+01 0.28578260861E+01 0.30166761313E+01 0.33791264130E+01
 0.39755040352E+01 0.48018578101E+01 0.67093450532E+01 0.10763564509E+02 0.16726702043E+02
 0.22903530996E+02 0.26876323053E+02 0.26875544178E+02 0.22902187155E+02 0.16726471054E+02
 0.57180723804E+01 0.45560735826E+01 0.38831870336E+01 0.33569117422E+01 0.30174064074E+01
 0.28425208869E+01 0.27902557677E+01 0.28420418124E+01 0.30167491613E+01 0.33565292119E+01
 0.38835121303E+01 0.45571576967E+01 0.57191503077E+01 0.79711597997E+01 0.11024160968E+02
 0.13743422114E+02 0.14839051660E+02 0.13745088680E+02 0.11025769452E+02 0.79712941708E+01
 0.42341364949E+01 0.37147129628E+01 0.32975054008E+01 0.30167205253E+01 0.28583564501E+01
 0.27902557677E+01 0.27902180828E+01 0.28583633644E+01 0.30168793178E+01 0.32976865244E+01
 0.37148082609E+01 0.42341791028E+01 0.48343305298E+01 0.57426570937E+01 0.68423981849E+01
 0.76199400133E+01 0.76204718177E+01 0.68434642937E+01 0.57433836113E+01 0.48345085028E+01
 0.35009456613E+01 0.32215790899E+01 0.30277057623E+01 0.29132797274E+01 0.28578260861E+01
 0.28420418124E+01 0.28583633644E+01 0.29142847752E+01 0.30285931099E+01 0.32215198993E+01
 0.34998641918E+01 0.38422963804E+01 0.41969635144E+01 0.45089619029E+01 0.47639943359E+01
 0.48700501773E+01 0.47632978935E+01 0.45083269510E+01 0.41972222555E+01 0.38434522236E+01
 0.31498822940E+01 0.30684328148E+01 0.30285519530E+01 0.30167484572E+01 0.30166761313E+01
 0.30167491613E+01 0.30168793178E+01 0.30285931099E+01 0.30684050476E+01 0.31500062407E+01
 0.32779762034E+01 0.34422289415E+01 0.36159330170E+01 0.37618123503E+01 0.38451093631E+01
 0.38453397370E+01 0.37621933721E+01 0.36159596830E+01 0.34418543154E+01 0.32775905189E+01
 0.31492898510E+01 0.32220646865E+01 0.32990368094E+01 0.33576231768E+01 0.33791264130E+01
 0.33565292119E+01 0.32976865244E+01 0.32215198993E+01 0.31500062407E+01 0.31010336896E+01
 0.30843968907E+01 0.30996226005E+01 0.31349568048E+01 0.31701328498E+01 0.31850972048E+01
 0.31710750211E+01 0.31359843000E+01 0.30997491686E+01 0.30833743273E+01 0.30996050620E+01
 0.34999508651E+01 0.37149662826E+01 0.38836862794E+01 0.39755794026E+01 0.39755040352E+01
 0.38835121303E+01 0.37148082609E+01 0.34998641918E+01 0.32779762034E+01 0.30843968907E+01
 0.29400224709E+01 0.28491070751E+01 0.28026526435E+01 0.27852520771E+01 0.27851016198E+01
 0.28024051215E+01 0.28490829976E+01 0.29402364336E+01 0.30846152147E+01 0.32780809852E+01
 0.42340519567E+01 0.45556296614E+01 0.48003342635E+01 0.48987023354E+01 0.48018578101E+01
 0.45571576967E+01 0.42341791028E+01 0.38422963804E+01 0.34422289415E+01 0.30996226005E+01
 0.28491070751E+01 0.26917623485E+01 0.26100077871E+01 0.25851086587E+01 0.26094518902E+01
 0.26909678493E+01 0.28486847564E+01 0.31001475569E+01 0.34436125387E+01 0.38435185071E+01
 0.57187796172E+01 0.67091699371E+01 0.73712902299E+01 0.73713278824E+01 0.67093450532E+01
 0.57191503077E+01 0.48343305298E+01 0.41969635144E+01 0.36159330170E+01 0.31349568048E+01
 0.28026526435E+01 0.26100077871E+01 0.25251221438E+01 0.25250708741E+01 0.26099512266E+01
 0.28027365693E+01 0.31351372448E+01 0.36159777185E+01 0.41967133412E+01 0.48338936517E+01
 0.10764354120E+02 0.13084894138E+02 0.13981123789E+02 0.13083827138E+02 0.10763564509E+02
 0.79711597997E+01 0.57426570937E+01 0.45089619029E+01 0.37618123503E+01 0.31701328498E+01
 0.27852520771E+01 0.25851086587E+01 0.25250708741E+01 0.25853696582E+01 0.27858281706E+01
 0.31707522129E+01 0.37618111770E+01 0.45079596662E+01 0.57412807386E+01 0.79706444973E+01
 0.22191725235E+02 0.25510183029E+02 0.25510952767E+02 0.22193183709E+02 0.16726702043E+02
 0.11024160968E+02 0.68423981849E+01 0.47639943359E+01 0.38451093631E+01 0.31850972048E+01
 0.27851016198E+01 0.26094518902E+01 0.26099512266E+01 0.27858281706E+01 0.31849590272E+01
 0.38444308879E+01 0.47640502471E+01 0.68434598341E+01 0.11024978063E+02 0.16726137748E+02
 0.40383263432E+02 0.43211761072E+02 0.40385381289E+02 0.32805464559E+02 0.22903530996E+02
 0.13743422114E+02 0.76199400133E+01 0.48700501773E+01 0.38453397370E+01 0.31710750211E+01
 0.28024051215E+01 0.26909678493E+01 0.28027365693E+01 0.31707522129E+01 0.38444308879E+01
 0.48700960213E+01 0.76217027158E+01 0.13745381106E+02 0.22903536699E+02 0.32803359948E+02
 0.62450700830E+02 0.62450489313E+02 0.54663487726E+02 0.41482098709E+02 0.26876323053E+02
 0.14839051660E+02 0.76204718177E+01 0.47632978935E+01 0.37621933721E+01 0.31359843000E+01
 0.28490829976E+01 0.28486847564E+01 0.31351372448E+01 0.37618111770E+01 0.47640502471E+01
 0.76217027158E+01 0.14839298357E+02 0.26875295685E+02 0.41481110612E+02 0.54663440048E+02
 0.82776920128E+02 0.77551300544E+02 0.63490183512E+02 0.44844268632E+02 0.26875544178E+02
 0.13745088680E+02 0.68434642937E+01 0.45083269510E+01 0.36159596830E+01 0.30997491686E+01
 0.29402364336E+01 0.31001475569E+01 0.36159777185E+01 0.45079596662E+01 0.68434598341E+01
 0.13745381106E+02 0.26875295685E+02 0.44843497884E+02 0.63489787446E+02 0.77551437684E+02
 0.95041094853E+02 0.83293479570E+02 0.63489771326E+02 0.41479586929E+02 0.22902187155E+02
 0.11025769452E+02 0.57433836113E+01 0.41972222555E+01 0.34418543154E+01 0.30833743273E+01
 0.30846152147E+01 0.34436125387E+01 0.41967133412E+01 0.57412807386E+01 0.11024978063E+02
 0.22903536699E+02 0.41481110612E+02 0.63489787446E+02 0.83292460710E+02 0.95040519247E+02
 0.95038537611E+02 0.77549385701E+02 0.54662596678E+02 0.32803372256E+02 0.16726471054E+02
 0.79712941708E+01 0.48345085028E+01 0.38434522236E+01 0.32775905189E+01 0.30996050620E+01
 0.32780809852E+01 0.38435185071E+01 0.48338936517E+01 0.79706444973E+01 0.16726137748E+02
 0.32803359948E+02 0.54663440048E+02 0.77551437684E+02 0.95040519247E+02 0.10159751307E+03
 0.50333193343E+02 0.34838693153E+02 0.20602534122E+02 0.10764812478E+02 0.59247193681E+01
 0.43346545007E+01 0.35585101606E+01 0.31125528197E+01 0.29751474096E+01 0.31124772959E+01
 0.35584126836E+01 0.43345467576E+01 0.59246026729E+01 0.10764786865E+02 0.20602721226E+02
 0.34839046124E+02 0.50333518701E+02 0.62450859329E+02 0.67044550792E+02 0.62450692652E+02
 0.34838693153E+02 0.22065286397E+02 0.12230554761E+02 0.67103112357E+01 0.46254395226E+01
 0.37784136078E+01 0.32280744184E+01 0.29771794591E+01 0.29778438011E+01 0.32291162907E+01