   1   1   1   0
  0.1099674E+02  0.2496087E-09  0.2496087E-09  0.2496087E-09  0.5000000E-15
  1.000000000000000E-004
  CAR 
 fcc Ni                                  
     56.17817046     -2.41562035  301      9.21937297      1.00000000
     -2.416  0.0000E+00  0.0000E+00  0.0000E+00  0.0000E+00
     -2.220  0.0000E+00  0.0000E+00  0.0000E+00  0.0000E+00
     -2.025  0.0000E+00  0.0000E+00  0.0000E+00  0.0000E+00
     -1.830  0.0000E+00  0.0000E+00  0.0000E+00  0.0000E+00
     -1.634  0.0000E+00  0.0000E+00  0.0000E+00  0.0000E+00
     -1.439  0.0000E+00  0.0000E+00  0.0000E+00  0.0000E+00
     -1.244  0.0000E+00  0.0000E+00  0.0000E+00  0.0000E+00
     -1.048  0.0000E+00  0.0000E+00  0.0000E+00  0.0000E+00
     -0.853  0.0000E+00  0.0000E+00  0.0000E+00  0.0000E+00
     -0.658  0.0000E+00  0.0000E+00  0.0000E+00  0.0000E+00
     -0.462  0.0000E+00  0.0000E+00  0.0000E+00  0.0000E+00
     -0.267  0.0000E+00  0.0000E+00  0.0000E+00  0.0000E+00
     -0.072  0.0000E+00  0.0000E+00  0.0000E+00  0.0000E+00
      0.123  0.0000E+00  0.0000E+00  0.0000E+00  0.0000E+00
      0.319  0.1156E-03  0.1045E-02  0.9080E-06  0.2475E-04
      0.514  0.9967E-02  0.1470E-01  0.7272E-03  0.1305E-02
      0.709  0.1856E-01  0.1972E-01  0.4077E-02  0.4970E-02
      0.905  0.2410E-01  0.2540E-01  0.8229E-02  0.9366E-02
      1.100  0.3030E-01  0.3165E-01  0.1353E-01  0.1493E-01
      1.295  0.3575E-01  0.3628E-01  0.2003E-01  0.2162E-01
      1.491  0.3850E-01  0.3895E-01  0.2729E-01  0.2893E-01
      1.686  0.4284E-01  0.4323E-01  0.3523E-01  0.3696E-01
      1.881  0.4750E-01  0.4771E-01  0.4404E-01  0.4584E-01
      2.077  0.5238E-01  0.5239E-01  0.5379E-01  0.5561E-01
      2.272  0.5701E-01  0.5650E-01  0.6450E-01  0.6627E-01
      2.467  0.6199E-01  0.6094E-01  0.7611E-01  0.7773E-01
      2.663  0.6736E-01  0.6559E-01  0.8874E-01  0.9009E-01
      2.858  0.7347E-01  0.7078E-01  0.1025E+00  0.1034E+00
      3.053  0.8042E-01  0.7656E-01  0.1175E+00  0.1178E+00
      3.248  0.8801E-01  0.8274E-01  0.1339E+00  0.1333E+00
      3.444  0.9689E-01  0.8967E-01  0.1519E+00  0.1501E+00
      3.639  0.1106E+00  0.9895E-01  0.1721E+00  0.1685E+00
      3.834  0.1288E+00  0.1104E+00  0.1954E+00  0.1889E+00
      4.030  0.1528E+00  0.1240E+00  0.2228E+00  0.2118E+00
      4.225  0.1870E+00  0.1411E+00  0.2558E+00  0.2376E+00
      4.420  0.2330E+00  0.1624E+00  0.2965E+00  0.2672E+00
      4.616  0.3969E+00  0.1907E+00  0.3617E+00  0.3015E+00
      4.811  0.6000E+00  0.2699E+00  0.4578E+00  0.3443E+00
      5.006  0.6187E+00  0.4054E+00  0.5741E+00  0.4120E+00
      5.202  0.7622E+00  0.5009E+00  0.7001E+00  0.5088E+00
      5.397  0.1021E+01  0.5207E+00  0.8722E+00  0.6093E+00
      5.592  0.1067E+01  0.5240E+00  0.1087E+01  0.7093E+00
      5.788  0.6924E+00  0.7684E+00  0.1242E+01  0.8286E+00
      5.983  0.9218E+00  0.1056E+01  0.1424E+01  0.1010E+01
      6.178  0.8302E+00  0.5928E+00  0.1579E+01  0.1151E+01
      6.373  0.1297E+01  0.9469E+00  0.1757E+01  0.1298E+01
      6.569  0.1248E+01  0.7605E+00  0.2028E+01  0.1496E+01
      6.764  0.1569E+01  0.8037E+00  0.2279E+01  0.1633E+01
      6.959  0.2110E+01  0.1545E+01  0.2584E+01  0.1808E+01
      7.155  0.1669E+01  0.1260E+01  0.2915E+01  0.2058E+01
      7.350  0.1288E+01  0.1531E+01  0.3157E+01  0.2314E+01
      7.545  0.9057E+00  0.2024E+01  0.3359E+01  0.2604E+01
      7.741  0.1381E+01  0.2083E+01  0.3567E+01  0.2871E+01
      7.936  0.1622E+01  0.1217E+01  0.3872E+01  0.3140E+01
      8.131  0.1377E+01  0.9400E+00  0.4129E+01  0.3351E+01
      8.327  0.1357E+01  0.1325E+01  0.4380E+01  0.3556E+01
      8.522  0.2326E+01  0.1513E+01  0.4715E+01  0.3839E+01
      8.717  0.2590E+01  0.1214E+01  0.5191E+01  0.4078E+01
      8.913  0.1830E+00  0.1064E+01  0.5240E+01  0.4292E+01
      9.108  0.1819E+00  0.1432E+01  0.5275E+01  0.4525E+01
      9.303  0.1847E+00  0.2705E+01  0.5311E+01  0.4877E+01
      9.498  0.1767E+00  0.1344E+01  0.5346E+01  0.5195E+01
      9.694  0.1514E+00  0.3272E+00  0.5378E+01  0.5274E+01
      9.889  0.1472E+00  0.2116E+00  0.5407E+01  0.5316E+01
     10.084  0.1471E+00  0.2031E+00  0.5435E+01  0.5356E+01
     10.280  0.1476E+00  0.1709E+00  0.5464E+01  0.5392E+01
     10.475  0.1483E+00  0.1655E+00  0.5493E+01  0.5425E+01
     10.670  0.1489E+00  0.1647E+00  0.5522E+01  0.5457E+01
     10.866  0.1488E+00  0.1644E+00  0.5551E+01  0.5489E+01
     11.061  0.1393E+00  0.1648E+00  0.5579E+01  0.5522E+01
     11.256  0.1347E+00  0.1649E+00  0.5606E+01  0.5554E+01
     11.452  0.1321E+00  0.1552E+00  0.5632E+01  0.5585E+01
     11.647  0.1302E+00  0.1463E+00  0.5658E+01  0.5615E+01
     11.842  0.1283E+00  0.1414E+00  0.5683E+01  0.5643E+01
     12.038  0.1262E+00  0.1375E+00  0.5708E+01  0.5670E+01
     12.233  0.1481E+00  0.1340E+00  0.5733E+01  0.5696E+01
     12.428  0.1209E+00  0.1371E+00  0.5758E+01  0.5724E+01
     12.623  0.1194E+00  0.1280E+00  0.5781E+01  0.5749E+01
     12.819  0.1174E+00  0.1257E+00  0.5804E+01  0.5773E+01
     13.014  0.1095E+00  0.1228E+00  0.5827E+01  0.5798E+01
     13.209  0.1065E+00  0.1159E+00  0.5848E+01  0.5821E+01
     13.405  0.1010E+00  0.1101E+00  0.5868E+01  0.5843E+01
     13.600  0.9389E-01  0.1049E+00  0.5887E+01  0.5864E+01
     13.795  0.8501E-01  0.9794E-01  0.5905E+01  0.5884E+01
     13.991  0.7596E-01  0.8947E-01  0.5920E+01  0.5902E+01
     14.186  0.7630E-01  0.8384E-01  0.5936E+01  0.5919E+01
     14.381  0.6429E-01  0.7154E-01  0.5949E+01  0.5935E+01
     14.577  0.6148E-01  0.6643E-01  0.5961E+01  0.5948E+01
     14.772  0.4627E-01  0.6277E-01  0.5972E+01  0.5961E+01
     14.967  0.3582E-01  0.4714E-01  0.5979E+01  0.5972E+01
     15.163  0.6908E-01  0.3381E-01  0.5990E+01  0.5979E+01
     15.358  0.9094E-01  0.3450E-01  0.6006E+01  0.5985E+01
     15.553  0.1522E+00  0.7911E-01  0.6028E+01  0.5996E+01
     15.748  0.1059E+00  0.1158E+00  0.6053E+01  0.6015E+01
     15.944  0.1182E+00  0.1369E+00  0.6075E+01  0.6044E+01
     16.139  0.1452E+00  0.1235E+00  0.6100E+01  0.6067E+01
     16.334  0.1874E+00  0.1515E+00  0.6133E+01  0.6094E+01
     16.530  0.1820E+00  0.1957E+00  0.6170E+01  0.6127E+01
     16.725  0.1790E+00  0.1909E+00  0.6204E+01  0.6166E+01
     16.920  0.1652E+00  0.1850E+00  0.6238E+01  0.6203E+01
     17.116  0.1364E+00  0.1684E+00  0.6268E+01  0.6237E+01
     17.311  0.1222E+00  0.1389E+00  0.6293E+01  0.6267E+01
     17.506  0.1151E+00  0.1246E+00  0.6316E+01  0.6293E+01
     17.702  0.1125E+00  0.1178E+00  0.6338E+01  0.6316E+01
     17.897  0.1105E+00  0.1150E+00  0.6360E+01  0.6339E+01
     18.092  0.1091E+00  0.1129E+00  0.6381E+01  0.6361E+01
     18.288  0.1082E+00  0.1114E+00  0.6403E+01  0.6383E+01
     18.483  0.1157E+00  0.1103E+00  0.6424E+01  0.6405E+01
     18.678  0.1540E+00  0.1154E+00  0.6451E+01  0.6426E+01
     18.873  0.1497E+00  0.1603E+00  0.6481E+01  0.6454E+01
     19.069  0.1397E+00  0.1526E+00  0.6510E+01  0.6485E+01
     19.264  0.1240E+00  0.1404E+00  0.6535E+01  0.6514E+01
     19.459  0.1846E+00  0.1295E+00  0.6563E+01  0.6540E+01
     19.655  0.1903E+00  0.1950E+00  0.6600E+01  0.6571E+01
     19.850  0.1704E+00  0.1876E+00  0.6635E+01  0.6609E+01
     20.045  0.1771E+00  0.1741E+00  0.6669E+01  0.6643E+01
     20.241  0.1703E+00  0.1822E+00  0.6704E+01  0.6678E+01
     20.436  0.1623E+00  0.1643E+00  0.6735E+01  0.6713E+01
     20.631  0.1643E+00  0.1663E+00  0.6767E+01  0.6745E+01
     20.827  0.1678E+00  0.1687E+00  0.6800E+01  0.6777E+01
     21.022  0.1732E+00  0.1730E+00  0.6833E+01  0.6811E+01
     21.217  0.1885E+00  0.1848E+00  0.6868E+01  0.6845E+01
     21.413  0.1889E+00  0.2021E+00  0.6908E+01  0.6883E+01
     21.608  0.1737E+00  0.1942E+00  0.6944E+01  0.6923E+01
     21.803  0.1756E+00  0.1777E+00  0.6978E+01  0.6958E+01
     21.998  0.1794E+00  0.1806E+00  0.7013E+01  0.6993E+01
     22.194  0.1941E+00  0.2036E+00  0.7050E+01  0.7030E+01
     22.389  0.1946E+00  0.1942E+00  0.7087E+01  0.7068E+01
     22.584  0.2045E+00  0.2035E+00  0.7126E+01  0.7107E+01
     22.780  0.2067E+00  0.2097E+00  0.7167E+01  0.7147E+01
     22.975  0.2062E+00  0.2095E+00  0.7206E+01  0.7188E+01
     23.170  0.2038E+00  0.2087E+00  0.7247E+01  0.7229E+01
     23.366  0.2035E+00  0.2053E+00  0.7286E+01  0.7269E+01
     23.561  0.2091E+00  0.2106E+00  0.7326E+01  0.7310E+01
     23.756  0.2165E+00  0.2173E+00  0.7368E+01  0.7352E+01
     23.952  0.2239E+00  0.2254E+00  0.7411E+01  0.7395E+01
     24.147  0.2340E+00  0.2371E+00  0.7455E+01  0.7440E+01
     24.342  0.2198E+00  0.2220E+00  0.7500E+01  0.7485E+01
     24.538  0.2205E+00  0.2215E+00  0.7543E+01  0.7528E+01
     24.733  0.2220E+00  0.2235E+00  0.7586E+01  0.7572E+01
     24.928  0.2244E+00  0.2262E+00  0.7630E+01  0.7616E+01
     25.123  0.2127E+00  0.2156E+00  0.7673E+01  0.7659E+01
     25.319  0.2057E+00  0.2078E+00  0.7714E+01  0.7700E+01
     25.514  0.2030E+00  0.2046E+00  0.7753E+01  0.7740E+01
     25.709  0.2019E+00  0.2032E+00  0.7793E+01  0.7780E+01
     25.905  0.2013E+00  0.2029E+00  0.7832E+01  0.7820E+01
     26.100  0.1990E+00  0.2009E+00  0.7871E+01  0.7859E+01
     26.295  0.1963E+00  0.1989E+00  0.7910E+01  0.7898E+01
     26.491  0.1912E+00  0.1941E+00  0.7948E+01  0.7937E+01
     26.686  0.1885E+00  0.1902E+00  0.7985E+01  0.7974E+01
     26.881  0.1853E+00  0.1877E+00  0.8021E+01  0.8011E+01
     27.077  0.1813E+00  0.1841E+00  0.8057E+01  0.8048E+01
     27.272  0.1766E+00  0.1793E+00  0.8092E+01  0.8083E+01
     27.467  0.1727E+00  0.1753E+00  0.8126E+01  0.8118E+01
     27.663  0.1693E+00  0.1718E+00  0.8160E+01  0.8152E+01
     27.858  0.1662E+00  0.1687E+00  0.8192E+01  0.8185E+01
     28.053  0.1634E+00  0.1658E+00  0.8225E+01  0.8217E+01
     28.248  0.1608E+00  0.1632E+00  0.8256E+01  0.8250E+01
     28.444  0.1585E+00  0.1608E+00  0.8287E+01  0.8281E+01
     28.639  0.1564E+00  0.1587E+00  0.8318E+01  0.8312E+01
     28.834  0.1550E+00  0.1573E+00  0.8349E+01  0.8343E+01
     29.030  0.1549E+00  0.1553E+00  0.8379E+01  0.8374E+01
     29.225  0.1590E+00  0.1580E+00  0.8409E+01  0.8404E+01
     29.420  0.1640E+00  0.1644E+00  0.8441E+01  0.8436E+01
     29.616  0.1689E+00  0.1702E+00  0.8474E+01  0.8468E+01
     29.811  0.1722E+00  0.1739E+00  0.8507E+01  0.8502E+01
     30.006  0.1770E+00  0.1775E+00  0.8541E+01  0.8536E+01
     30.202  0.1818E+00  0.1823E+00  0.8576E+01  0.8571E+01
     30.397  0.1856E+00  0.1864E+00  0.8612E+01  0.8607E+01
     30.592  0.1913E+00  0.1909E+00  0.8649E+01  0.8644E+01
     30.788  0.1982E+00  0.1985E+00  0.8687E+01  0.8682E+01
     30.983  0.2039E+00  0.2046E+00  0.8726E+01  0.8722E+01
     31.178  0.2103E+00  0.2107E+00  0.8766E+01  0.8762E+01
     31.373  0.2182E+00  0.2191E+00  0.8808E+01  0.8804E+01
     31.569  0.2267E+00  0.2288E+00  0.8852E+01  0.8848E+01
     31.764  0.2356E+00  0.2380E+00  0.8897E+01  0.8893E+01
     31.959  0.2453E+00  0.2474E+00  0.8944E+01  0.8941E+01
     32.155  0.2551E+00  0.2567E+00  0.8993E+01  0.8990E+01
     32.350  0.2687E+00  0.2646E+00  0.9043E+01  0.9041E+01
     32.545  0.2920E+00  0.2896E+00  0.9099E+01  0.9095E+01
     32.741  0.2938E+00  0.2929E+00  0.9156E+01  0.9152E+01
     32.936  0.2949E+00  0.2929E+00  0.9213E+01  0.9210E+01
     33.131  0.2959E+00  0.2931E+00  0.9271E+01  0.9267E+01
     33.327  0.2958E+00  0.2923E+00  0.9329E+01  0.9324E+01
     33.522  0.2943E+00  0.2908E+00  0.9386E+01  0.9381E+01
     33.717  0.2936E+00  0.2899E+00  0.9444E+01  0.9438E+01
     33.913  0.3020E+00  0.3124E+00  0.9502E+01  0.9496E+01
     34.108  0.3011E+00  0.2989E+00  0.9563E+01  0.9558E+01
     34.303  0.2595E+00  0.2601E+00  0.9616E+01  0.9611E+01
     34.498  0.2468E+00  0.2480E+00  0.9666E+01  0.9660E+01
     34.694  0.2353E+00  0.2364E+00  0.9713E+01  0.9708E+01
     34.889  0.2264E+00  0.2273E+00  0.9758E+01  0.9753E+01
     35.084  0.2191E+00  0.2202E+00  0.9801E+01  0.9797E+01
     35.280  0.2110E+00  0.2116E+00  0.9843E+01  0.9839E+01
     35.475  0.1994E+00  0.1972E+00  0.9883E+01  0.9879E+01
     35.670  0.1844E+00  0.1859E+00  0.9921E+01  0.9916E+01
     35.866  0.1798E+00  0.1821E+00  0.9956E+01  0.9952E+01
     36.061  0.1696E+00  0.1707E+00  0.9991E+01  0.9986E+01
     36.256  0.1496E+00  0.1502E+00  0.1002E+02  0.1002E+02
     36.452  0.1338E+00  0.1332E+00  0.1005E+02  0.1005E+02
     36.647  0.1227E+00  0.1216E+00  0.1007E+02  0.1007E+02
     36.842  0.1150E+00  0.1136E+00  0.1010E+02  0.1009E+02
     37.038  0.1146E+00  0.1135E+00  0.1012E+02  0.1011E+02
     37.233  0.1054E+00  0.1023E+00  0.1014E+02  0.1014E+02
     37.428  0.9120E-01  0.8959E-01  0.1016E+02  0.1015E+02
     37.623  0.9333E-01  0.9243E-01  0.1018E+02  0.1017E+02
     37.819  0.1038E+00  0.1036E+00  0.1020E+02  0.1019E+02
     38.014  0.1464E+00  0.1455E+00  0.1022E+02  0.1021E+02
     38.209  0.2036E+00  0.2201E+00  0.1026E+02  0.1025E+02
     38.405  0.2730E+00  0.2704E+00  0.1030E+02  0.1030E+02
     38.600  0.3590E+00  0.3461E+00  0.1036E+02  0.1036E+02
     38.795  0.3614E+00  0.3688E+00  0.1043E+02  0.1043E+02
     38.991  0.3452E+00  0.3561E+00  0.1050E+02  0.1050E+02
     39.186  0.3527E+00  0.4046E+00  0.1058E+02  0.1057E+02
     39.381  0.2610E+00  0.2654E+00  0.1063E+02  0.1063E+02
     39.577  0.2609E+00  0.2631E+00  0.1068E+02  0.1068E+02
     39.772  0.2644E+00  0.2653E+00  0.1073E+02  0.1073E+02
     39.967  0.2645E+00  0.2651E+00  0.1078E+02  0.1078E+02
     40.163  0.2614E+00  0.2619E+00  0.1083E+02  0.1083E+02
     40.358  0.2458E+00  0.2452E+00  0.1088E+02  0.1088E+02
     40.553  0.2336E+00  0.2334E+00  0.1093E+02  0.1093E+02
     40.748  0.2312E+00  0.2324E+00  0.1098E+02  0.1098E+02
     40.944  0.2225E+00  0.2234E+00  0.1102E+02  0.1102E+02
     41.139  0.2291E+00  0.2286E+00  0.1107E+02  0.1107E+02
     41.334  0.2116E+00  0.2127E+00  0.1111E+02  0.1111E+02
     41.530  0.1888E+00  0.1892E+00  0.1115E+02  0.1115E+02
     41.725  0.1685E+00  0.1701E+00  0.1118E+02  0.1118E+02
     41.920  0.1576E+00  0.1587E+00  0.1121E+02  0.1121E+02
     42.116  0.1425E+00  0.1581E+00  0.1125E+02  0.1125E+02
     42.311  0.1384E+00  0.1298E+00  0.1127E+02  0.1127E+02
     42.506  0.1329E+00  0.1367E+00  0.1130E+02  0.1130E+02
     42.702  0.1444E+00  0.1443E+00  0.1132E+02  0.1133E+02
     42.897  0.1638E+00  0.1646E+00  0.1135E+02  0.1136E+02
     43.092  0.1913E+00  0.1903E+00  0.1139E+02  0.1139E+02
     43.288  0.1973E+00  0.1935E+00  0.1143E+02  0.1143E+02
     43.483  0.1849E+00  0.1826E+00  0.1147E+02  0.1147E+02
     43.678  0.1789E+00  0.1773E+00  0.1150E+02  0.1150E+02
     43.873  0.1731E+00  0.1718E+00  0.1154E+02  0.1153E+02
     44.069  0.1697E+00  0.1723E+00  0.1157E+02  0.1157E+02
     44.264  0.1592E+00  0.1618E+00  0.1160E+02  0.1160E+02
     44.459  0.1517E+00  0.1544E+00  0.1163E+02  0.1163E+02
     44.655  0.1474E+00  0.1500E+00  0.1166E+02  0.1166E+02
     44.850  0.1442E+00  0.1454E+00  0.1169E+02  0.1169E+02
     45.045  0.1379E+00  0.1392E+00  0.1172E+02  0.1172E+02
     45.241  0.1296E+00  0.1305E+00  0.1174E+02  0.1174E+02
     45.436  0.1198E+00  0.1205E+00  0.1177E+02  0.1177E+02
     45.631  0.1084E+00  0.1087E+00  0.1179E+02  0.1179E+02
     45.827  0.9515E-01  0.9531E-01  0.1181E+02  0.1181E+02
     46.022  0.8164E-01  0.8173E-01  0.1183E+02  0.1183E+02
     46.217  0.6845E-01  0.6822E-01  0.1184E+02  0.1184E+02
     46.413  0.5730E-01  0.5653E-01  0.1185E+02  0.1186E+02
     46.608  0.4843E-01  0.4744E-01  0.1186E+02  0.1187E+02
     46.803  0.4185E-01  0.4094E-01  0.1187E+02  0.1187E+02
     46.998  0.3828E-01  0.3802E-01  0.1188E+02  0.1188E+02
     47.194  0.3651E-01  0.3630E-01  0.1189E+02  0.1189E+02
     47.389  0.3512E-01  0.3492E-01  0.1189E+02  0.1190E+02
     47.584  0.3378E-01  0.3356E-01  0.1190E+02  0.1190E+02
     47.780  0.3244E-01  0.3221E-01  0.1191E+02  0.1191E+02
     47.975  0.3110E-01  0.3086E-01  0.1191E+02  0.1192E+02
     48.170  0.2977E-01  0.2951E-01  0.1192E+02  0.1192E+02
     48.366  0.2843E-01  0.2816E-01  0.1193E+02  0.1193E+02
     48.561  0.2710E-01  0.2682E-01  0.1193E+02  0.1193E+02
     48.756  0.2577E-01  0.2548E-01  0.1194E+02  0.1194E+02
     48.952  0.2444E-01  0.2415E-01  0.1194E+02  0.1194E+02
     49.147  0.2313E-01  0.2284E-01  0.1195E+02  0.1195E+02
     49.342  0.2191E-01  0.2167E-01  0.1195E+02  0.1195E+02
     49.538  0.2093E-01  0.2071E-01  0.1195E+02  0.1196E+02
     49.733  0.2001E-01  0.1980E-01  0.1196E+02  0.1196E+02
     49.928  0.1911E-01  0.1890E-01  0.1196E+02  0.1196E+02
     50.123  0.1823E-01  0.1803E-01  0.1197E+02  0.1197E+02
     50.319  0.1737E-01  0.1717E-01  0.1197E+02  0.1197E+02
     50.514  0.1653E-01  0.1634E-01  0.1197E+02  0.1197E+02
     50.709  0.1571E-01  0.1552E-01  0.1198E+02  0.1198E+02
     50.905  0.1491E-01  0.1472E-01  0.1198E+02  0.1198E+02
     51.100  0.1413E-01  0.1395E-01  0.1198E+02  0.1198E+02
     51.295  0.1329E-01  0.1309E-01  0.1198E+02  0.1198E+02
     51.491  0.1236E-01  0.1215E-01  0.1199E+02  0.1199E+02
     51.686  0.1136E-01  0.1114E-01  0.1199E+02  0.1199E+02
     51.881  0.1029E-01  0.1007E-01  0.1199E+02  0.1199E+02
     52.077  0.9143E-02  0.8922E-02  0.1199E+02  0.1199E+02
     52.272  0.8051E-02  0.7865E-02  0.1199E+02  0.1200E+02
     52.467  0.6945E-02  0.6752E-02  0.1200E+02  0.1200E+02
     52.663  0.5736E-02  0.5540E-02  0.1200E+02  0.1200E+02
     52.858  0.4423E-02  0.4229E-02  0.1200E+02  0.1200E+02
     53.053  0.3006E-02  0.2819E-02  0.1200E+02  0.1200E+02
     53.248  0.1561E-02  0.1378E-02  0.1200E+02  0.1200E+02
     53.444  0.3658E-03  0.2145E-03  0.1200E+02  0.1200E+02
     53.639  0.0000E+00  0.0000E+00  0.1200E+02  0.1200E+02
     53.834  0.0000E+00  0.0000E+00  0.1200E+02  0.1200E+02
     54.030  0.0000E+00  0.0000E+00  0.1200E+02  0.1200E+02
     54.225  0.0000E+00  0.0000E+00  0.1200E+02  0.1200E+02
     54.420  0.0000E+00  0.0000E+00  0.1200E+02  0.1200E+02
     54.616  0.0000E+00  0.0000E+00  0.1200E+02  0.1200E+02
     54.811  0.0000E+00  0.0000E+00  0.1200E+02  0.1200E+02
     55.006  0.0000E+00  0.0000E+00  0.1200E+02  0.1200E+02
     55.202  0.0000E+00  0.0000E+00  0.1200E+02  0.1200E+02
     55.397  0.0000E+00  0.0000E+00  0.1200E+02  0.1200E+02
     55.592  0.0000E+00  0.0000E+00  0.1200E+02  0.1200E+02
     55.788  0.0000E+00  0.0000E+00  0.1200E+02  0.1200E+02
     55.983  0.0000E+00  0.0000E+00  0.1200E+02  0.1200E+02
     56.178  0.0000E+00  0.0000E+00  0.1200E+02  0.1200E+02
     56.17817046     -2.41562035  301      9.21937297      1.00000000
     -2.416  0.0000E+00  0.0000E+00  0.0000E+00  0.0000E+00  0.0000E+00  0.0000E+00  0.0000E+00  0.0000E+00  0.0000E+00  0.0000E+00  0.0000E+00  0.0000E+00  0.0000E+00  0.0000E+00  0.0000E+00  0.0000E+00  0.0000E+00  0.0000E+00
     -2.220  0.0000E+00  0.0000E+00  0.0000E+00  0.0000E+00  0.0000E+00  0.0000E+00  0.0000E+00  0.0000E+00  0.0000E+00  0.0000E+00  0.0000E+00  0.0000E+00  0.0000E+00  0.0000E+00  0.0000E+00  0.0000E+00  0.0000E+00  0.0000E+00
     -2.025  0.0000E+00  0.0000E+00  0.0000E+00  0.0000E+00  0.0000E+00  0.0000E+00  0.0000E+00  0.0000E+00  0.0000E+00  0.0000E+00  0.0000E+00  0.0000E+00  0.0000E+00  0.0000E+00  0.0000E+00  0.0000E+00  0.0000E+00  0.0000E+00
     -1.830  0.0000E+00  0.0000E+00  0.0000E+00  0.0000E+00  0.0000E+00  0.0000E+00  0.0000E+00  0.0000E+00  0.0000E+00  0.0000E+00  0.0000E+00  0.0000E+00  0.0000E+00  0.0000E+00  0.0000E+00  0.0000E+00  0.0000E+00  0.0000E+00
     -1.634  0.0000E+00  0.0000E+00  0.0000E+00  0.0000E+00  0.0000E+00  0.0000E+00  0.0000E+00  0.0000E+00  0.0000E+00  0.0000E+00  0.0000E+00  0.0000E+00  0.0000E+00  0.0000E+00  0.0000E+00  0.0000E+00  0.0000E+00  0.0000E+00
     -1.439  0.0000E+00  0.0000E+00  0.0000E+00  0.0000E+00  0.0000E+00  0.0000E+00  0.0000E+00  0.0000E+00  0.0000E+00  0.0000E+00  0.0000E+00  0.0000E+00  0.0000E+00  0.0000E+00  0.0000E+00  0.0000E+00  0.0000E+00  0.0000E+00
     -1.244  0.0000E+00  0.0000E+00  0.0000E+00  0.0000E+00  0.0000E+00  0.0000E+00  0.0000E+00  0.0000E+00  0.0000E+00  0.0000E+00  0.0000E+00  0.0000E+00  0.0000E+00  0.0000E+00  0.0000E+00  0.0000E+00  0.0000E+00  0.0000E+00
     -1.048  0.0000E+00  0.0000E+00  0.0000E+00  0.0000E+00  0.0000E+00  0.0000E+00  0.0000E+00  0.0000E+00  0.0000E+00  0.0000E+00  0.0000E+00  0.0000E+00  0.0000E+00  0.0000E+00  0.0000E+00  0.0000E+00  0.0000E+00  0.0000E+00
     -0.853  0.0000E+00  0.0000E+00  0.0000E+00  0.0000E+00  0.0000E+00  0.0000E+00  0.0000E+00  0.0000E+00  0.0000E+00  0.0000E+00  0.0000E+00  0.0000E+00  0.0000E+00  0.0000E+00  0.0000E+00  0.0000E+00  0.0000E+00  0.0000E+00
     -0.658  0.0000E+00  0.0000E+00  0.0000E+00  0.0000E+00  0.0000E+00  0.0000E+00  0.0000E+00  0.0000E+00  0.0000E+00  0.0000E+00  0.0000E+00  0.0000E+00  0.0000E+00  0.0000E+00  0.0000E+00  0.0000E+00  0.0000E+00  0.0000E+00
     -0.462  0.0000E+00  0.0000E+00  0.0000E+00  0.0000E+00  0.0000E+00  0.0000E+00  0.0000E+00  0.0000E+00  0.0000E+00  0.0000E+00  0.0000E+00  0.0000E+00  0.0000E+00  0.0000E+00  0.0000E+00  0.0000E+00  0.0000E+00  0.0000E+00
     -0.267  0.0000E+00  0.0000E+00  0.0000E+00  0.0000E+00  0.0000E+00  0.0000E+00  0.0000E+00  0.0000E+00  0.0000E+00  0.0000E+00  0.0000E+00  0.0000E+00  0.0000E+00  0.0000E+00  0.0000E+00  0.0000E+00  0.0000E+00  0.0000E+00
     -0.072  0.0000E+00  0.0000E+00  0.0000E+00  0.0000E+00  0.0000E+00  0.0000E+00  0.0000E+00  0.0000E+00  0.0000E+00  0.0000E+00  0.0000E+00  0.0000E+00  0.0000E+00  0.0000E+00  0.0000E+00  0.0000E+00  0.0000E+00  0.0000E+00
      0.123  0.0000E+00  0.0000E+00  0.0000E+00  0.0000E+00  0.0000E+00  0.0000E+00  0.0000E+00  0.0000E+00  0.0000E+00  0.0000E+00  0.0000E+00  0.0000E+00  0.0000E+00  0.0000E+00  0.0000E+00  0.0000E+00  0.0000E+00  0.0000E+00
      0.319  0.8119E-04  0.7345E-03  0.6844E-06  0.6218E-05  0.6844E-06  0.6218E-05  0.6844E-06  0.6218E-05  0.1204E-07  0.9358E-07  0.1204E-07  0.9358E-07  0.1238E-07  0.1019E-06  0.1204E-07  0.9358E-07  0.1238E-07  0.1019E-06
      0.514  0.7002E-02  0.1033E-01  0.5902E-04  0.8744E-04  0.5902E-04  0.8744E-04  0.5902E-04  0.8744E-04  0.1038E-05  0.1316E-05  0.1038E-05  0.1316E-05  0.1068E-05  0.1432E-05  0.1038E-05  0.1316E-05  0.1068E-05  0.1432E-05
      0.709  0.1271E-01  0.1344E-01  0.2128E-03  0.2482E-03  0.2128E-03  0.2482E-03  0.2128E-03  0.2482E-03  0.8761E-05  0.9434E-05  0.8761E-05  0.9434E-05  0.5766E-05  0.7319E-05  0.8761E-05  0.9434E-05  0.5766E-05  0.7319E-05
      0.905  0.1621E-01  0.1702E-01  0.3658E-03  0.4053E-03  0.3658E-03  0.4053E-03  0.3658E-03  0.4053E-03  0.1999E-04  0.1934E-04  0.1999E-04  0.1934E-04  0.1630E-04  0.1700E-04  0.1999E-04  0.1934E-04  0.1630E-04  0.1700E-04
      1.100  0.2011E-01  0.2096E-01  0.5383E-03  0.5823E-03  0.5383E-03  0.5823E-03  0.5383E-03  0.5823E-03  0.3439E-04  0.3189E-04  0.3439E-04  0.3189E-04  0.2845E-04  0.2806E-04  0.3439E-04  0.3189E-04  0.2845E-04  0.2806E-04
      1.295  0.2329E-01  0.2349E-01  0.7558E-03  0.8185E-03  0.7558E-03  0.8185E-03  0.7558E-03  0.8185E-03  0.6228E-04  0.6011E-04  0.6228E-04  0.6011E-04  0.4918E-04  0.5027E-04  0.6228E-04  0.6011E-04  0.4918E-04  0.5027E-04
      1.491  0.2419E-01  0.2437E-01  0.1051E-02  0.1109E-02  0.1051E-02  0.1109E-02  0.1051E-02  0.1109E-02  0.1202E-03  0.1082E-03  0.1202E-03  0.1082E-03  0.8856E-04  0.8630E-04  0.1202E-03  0.1082E-03  0.8856E-04  0.8630E-04
      1.686  0.2630E-01  0.2648E-01  0.1315E-02  0.1371E-02  0.1315E-02  0.1371E-02  0.1315E-02  0.1371E-02  0.1838E-03  0.1587E-03  0.1838E-03  0.1587E-03  0.1392E-03  0.1318E-03  0.1838E-03  0.1587E-03  0.1392E-03  0.1318E-03
      1.881  0.2856E-01  0.2866E-01  0.1590E-02  0.1644E-02  0.1590E-02  0.1644E-02  0.1590E-02  0.1644E-02  0.2579E-03  0.2168E-03  0.2579E-03  0.2168E-03  0.2037E-03  0.1881E-03  0.2579E-03  0.2168E-03  0.2037E-03  0.1881E-03
      2.077  0.3090E-01  0.3092E-01  0.1876E-02  0.1929E-02  0.1876E-02  0.1929E-02  0.1876E-02  0.1929E-02  0.3429E-03  0.2828E-03  0.3429E-03  0.2828E-03  0.2801E-03  0.2528E-03  0.3429E-03  0.2828E-03  0.2801E-03  0.2528E-03
      2.272  0.3262E-01  0.3229E-01  0.2241E-02  0.2308E-02  0.2241E-02  0.2308E-02  0.2241E-02  0.2308E-02  0.4915E-03  0.4108E-03  0.4915E-03  0.4108E-03  0.3832E-03  0.3486E-03  0.4915E-03  0.4108E-03  0.3832E-03  0.3486E-03
      2.467  0.3411E-01  0.3362E-01  0.2659E-02  0.2710E-02  0.2659E-02  0.2710E-02  0.2659E-02  0.2710E-02  0.7372E-03  0.5891E-03  0.7372E-03  0.5891E-03  0.5569E-03  0.4940E-03  0.7372E-03  0.5891E-03  0.5569E-03  0.4940E-03
      2.663  0.3561E-01  0.3489E-01  0.3098E-02  0.3134E-02  0.3098E-02  0.3134E-02  0.3098E-02  0.3134E-02  0.1039E-02  0.8045E-03  0.1039E-02  0.8045E-03  0.7723E-03  0.6702E-03  0.1039E-02  0.8045E-03  0.7723E-03  0.6702E-03
      2.858  0.3735E-01  0.3639E-01  0.3538E-02  0.3553E-02  0.3538E-02  0.3553E-02  0.3538E-02  0.3553E-02  0.1414E-02  0.1061E-02  0.1414E-02  0.1061E-02  0.1057E-02  0.9000E-03  0.1414E-02  0.1061E-02  0.1057E-02  0.9000E-03
      3.053  0.3941E-01  0.3816E-01  0.3973E-02  0.3965E-02  0.3973E-02  0.3965E-02  0.3973E-02  0.3965E-02  0.1866E-02  0.1357E-02  0.1866E-02  0.1357E-02  0.1425E-02  0.1184E-02  0.1866E-02  0.1357E-02  0.1425E-02  0.1184E-02
      3.248  0.4158E-01  0.3999E-01  0.4422E-02  0.4388E-02  0.4422E-02  0.4388E-02  0.4422E-02  0.4388E-02  0.2387E-02  0.1694E-02  0.2387E-02  0.1694E-02  0.1878E-02  0.1525E-02  0.2387E-02  0.1694E-02  0.1878E-02  0.1525E-02
      3.444  0.4378E-01  0.4176E-01  0.4951E-02  0.4874E-02  0.4951E-02  0.4874E-02  0.4951E-02  0.4874E-02  0.3108E-02  0.2145E-02  0.3108E-02  0.2145E-02  0.2457E-02  0.1952E-02  0.3108E-02  0.2145E-02  0.2457E-02  0.1952E-02
      3.639  0.4607E-01  0.4317E-01  0.5767E-02  0.5587E-02  0.5767E-02  0.5587E-02  0.5767E-02  0.5587E-02  0.4691E-02  0.3030E-02  0.4691E-02  0.3030E-02  0.3369E-02  0.2603E-02  0.4691E-02  0.3030E-02  0.3369E-02  0.2603E-02
      3.834  0.4926E-01  0.4514E-01  0.6591E-02  0.6269E-02  0.6591E-02  0.6269E-02  0.6591E-02  0.6269E-02  0.6966E-02  0.4187E-02  0.6966E-02  0.4187E-02  0.4747E-02  0.3527E-02  0.6966E-02  0.4187E-02  0.4747E-02  0.3527E-02
      4.030  0.5326E-01  0.4739E-01  0.7487E-02  0.6992E-02  0.7487E-02  0.6992E-02  0.7487E-02  0.6992E-02  0.1016E-01  0.5620E-02  0.1016E-01  0.5620E-02  0.6763E-02  0.4773E-02  0.1016E-01  0.5620E-02  0.6763E-02  0.4773E-02
      4.225  0.5865E-01  0.5013E-01  0.8429E-02  0.7736E-02  0.8429E-02  0.7736E-02  0.8429E-02  0.7736E-02  0.1519E-01  0.7574E-02  0.1519E-01  0.7574E-02  0.9777E-02  0.6499E-02  0.1519E-01  0.7574E-02  0.9777E-02  0.6499E-02
      4.420  0.6550E-01  0.5355E-01  0.9485E-02  0.8490E-02  0.9485E-02  0.8490E-02  0.9485E-02  0.8490E-02  0.2165E-01  0.1014E-01  0.2165E-01  0.1014E-01  0.1491E-01  0.8779E-02  0.2165E-01  0.1014E-01  0.1491E-01  0.8779E-02
      4.616  0.8415E-01  0.5771E-01  0.1173E-01  0.9334E-02  0.1173E-01  0.9334E-02  0.1173E-01  0.9334E-02  0.5241E-01  0.1325E-01  0.5241E-01  0.1325E-01  0.2875E-01  0.1278E-01  0.5241E-01  0.1325E-01  0.2875E-01  0.1278E-01
      4.811  0.8710E-01  0.6798E-01  0.1381E-01  0.1124E-01  0.1381E-01  0.1124E-01  0.1381E-01  0.1124E-01  0.5599E-01  0.2614E-01  0.5599E-01  0.2614E-01  0.1082E+00  0.1981E-01  0.5599E-01  0.2614E-01  0.1082E+00  0.1981E-01
      5.006  0.7401E-01  0.8099E-01  0.1419E-01  0.1312E-01  0.1419E-01  0.1312E-01  0.1419E-01  0.1312E-01  0.6442E-01  0.4323E-01  0.6442E-01  0.4323E-01  0.1125E+00  0.4409E-01  0.6442E-01  0.4323E-01  0.1125E+00  0.4409E-01
      5.202  0.5916E-01  0.7565E-01  0.1329E-01  0.1424E-01  0.1329E-01  0.1424E-01  0.1329E-01  0.1424E-01  0.1209E+00  0.4427E-01  0.1209E+00  0.4427E-01  0.1078E+00  0.8609E-01  0.1209E+00  0.4427E-01  0.1078E+00  0.8609E-01
      5.397  0.4603E-01  0.6608E-01  0.1584E-01  0.1383E-01  0.1584E-01  0.1383E-01  0.1584E-01  0.1383E-01  0.1873E+00  0.4744E-01  0.1873E+00  0.4744E-01  0.1338E+00  0.9731E-01  0.1873E+00  0.4744E-01  0.1338E+00  0.9731E-01
      5.592  0.2511E-01  0.5336E-01  0.1940E-01  0.1352E-01  0.1940E-01  0.1352E-01  0.1940E-01  0.1352E-01  0.1949E+00  0.5311E-01  0.1949E+00  0.5311E-01  0.1504E+00  0.9972E-01  0.1949E+00  0.5311E-01  0.1504E+00  0.9972E-01
      5.788  0.1866E-02  0.4363E-01  0.1255E-01  0.1578E-01  0.1255E-01  0.1578E-01  0.1255E-01  0.1578E-01  0.1540E+00  0.1104E+00  0.1540E+00  0.1104E+00  0.6806E-01  0.1292E+00  0.1540E+00  0.1104E+00  0.6806E-01  0.1292E+00
      5.983  0.3430E-02  0.3060E-01  0.1856E-01  0.2284E-01  0.1856E-01  0.2284E-01  0.1856E-01  0.2284E-01  0.1651E+00  0.1643E+00  0.1651E+00  0.1643E+00  0.1451E+00  0.1763E+00  0.1651E+00  0.1643E+00  0.1451E+00  0.1763E+00
      6.178  0.3313E-02  0.1894E-02  0.1644E-01  0.9759E-02  0.1644E-01  0.9759E-02  0.1644E-01  0.9759E-02  0.1582E+00  0.1569E+00  0.1582E+00  0.1569E+00  0.1187E+00  0.2277E-01  0.1582E+00  0.1569E+00  0.1187E+00  0.2277E-01
      6.373  0.8804E-02  0.6266E-02  0.2529E-01  0.1964E-01  0.2529E-01  0.1964E-01  0.2529E-01  0.1964E-01  0.2798E+00  0.2005E+00  0.2798E+00  0.2005E+00  0.1403E+00  0.9973E-01  0.2798E+00  0.2005E+00  0.1403E+00  0.9973E-01
      6.569  0.9922E-02  0.2249E-02  0.2395E-01  0.1691E-01  0.2395E-01  0.1691E-01  0.2395E-01  0.1691E-01  0.2693E+00  0.1319E+00  0.2693E+00  0.1319E+00  0.1391E+00  0.1222E+00  0.2693E+00  0.1319E+00  0.1391E+00  0.1222E+00
      6.764  0.1453E-01  0.1898E-02  0.2788E-01  0.1828E-01  0.2788E-01  0.1828E-01  0.2788E-01  0.1828E-01  0.3180E+00  0.1508E+00  0.3180E+00  0.1508E+00  0.2130E+00  0.1133E+00  0.3180E+00  0.1508E+00  0.2130E+00  0.1133E+00
      6.959  0.1236E-01  0.1192E-01  0.2196E-01  0.3617E-01  0.2196E-01  0.3617E-01  0.2196E-01  0.3617E-01  0.4108E+00  0.3622E+00  0.4108E+00  0.3622E+00  0.3533E+00  0.1126E+00  0.4108E+00  0.3622E+00  0.3533E+00  0.1126E+00
      7.155  0.1654E-01  0.1031E-01  0.2401E-01  0.2983E-01  0.2401E-01  0.2983E-01  0.2401E-01  0.2983E-01  0.3740E+00  0.2827E+00  0.3740E+00  0.2827E+00  0.1902E+00  0.1116E+00  0.3740E+00  0.2827E+00  0.1902E+00  0.1116E+00
      7.350  0.8617E-02  0.1779E-01  0.1670E-01  0.3604E-01  0.1670E-01  0.3604E-01  0.1670E-01  0.3604E-01  0.2346E+00  0.3068E+00  0.2346E+00  0.3068E+00  0.2349E+00  0.1915E+00  0.2346E+00  0.3068E+00  0.2349E+00  0.1915E+00