    1    1    1    2
  0.1099674E+02  0.2496087E-09  0.2496087E-09  0.2496087E-09  0.5000000E-15
  1.000000000000000E-004
  CAR 
 fcc Ni                                  
     10     56     12
 
  0.0000000E+00  0.0000000E+00  0.0000000E+00  0.7513148E-03
      1          0.295187        0.247734   1.000000   1.000000
      2          6.840741        7.541625   1.000000   1.000000
      3          6.840744        7.541628   1.000000   1.000000
      4          6.840745        7.541633   1.000000   1.000000
      5          7.989701        8.572542   1.000000   1.000000
      6          7.989701        8.572542   1.000000   1.000000
      7         32.897669       32.725608   0.000000   0.000000
      8         36.657885       36.626212   0.000000   0.000000
      9         36.658098       36.626417   0.000000   0.000000
     10         36.658098       36.626420   0.000000   0.000000
     11         39.723601       39.784684   0.000000   0.000000
     12         39.723712       39.784824   0.000000   0.000000
 
  0.9090909E-01  0.2244740E-17  0.2244740E-17  0.6010518E-02
      1          0.614484        0.567473   1.000000   1.000000
      2          6.763572        7.453880   1.000000   1.000000
      3          6.908937        7.611872   1.000000   1.000000
      4          6.908946        7.611875   1.000000   1.000000
      5          7.963371        8.544850   1.000000   1.000000
      6          7.963380        8.544857   1.000000   1.000000
      7         31.490828       31.440665   0.000000   0.000000
      8         34.248413       34.161678   0.000000   0.000000
      9         36.014544       36.022158   0.000000   0.000000
     10         36.014759       36.022365   0.000000   0.000000
     11         40.710345       40.720700   0.000000   0.000000
     12         40.710391       40.720905   0.000000   0.000000
 
  0.1818182E+00  0.3448646E-17  0.3448646E-17  0.6010518E-02
      1          1.531161        1.489643   1.000000   1.000000
      2          6.590254        7.246750   1.000000   1.000000
      3          7.038906        7.730593   1.000000   1.000000
      4          7.038945        7.730623   1.000000   1.000000
      5          7.953498        8.549351   1.000000   1.000000
      6          7.953538        8.549383   1.000000   1.000000
      7         27.026866       27.090489   0.000000   0.000000
      8         33.521927       33.386785   0.000000   0.000000
      9         35.074461       35.121343   0.000000   0.000000
     10         35.074663       35.121542   0.000000   0.000000
     11         40.764260       40.698254   0.000000   0.000000
     12         41.443832       41.411230   0.000000   0.000000
 
  0.2727273E+00 -0.2876147E-17 -0.2876147E-17  0.6010518E-02
      1          2.860860        2.859360   1.000000   1.000000
      2          6.551084        7.120971   1.000000   1.000000
      3          7.050507        7.696411   1.000000   1.000000
      4          7.050585        7.696468   1.000000   1.000000
      5          8.119387        8.767847   1.000000   1.000000
      6          8.119462        8.767907   1.000000   1.038713
      7         22.467206       22.595537   0.000000   0.000000
      8         32.766764       32.624994   0.000000   0.000000
      9         34.360941       34.431146   0.000000   0.000000
     10         34.361068       34.431291   0.000000   0.000000
     11         39.634362       39.641676   0.000000   0.000000
     12         39.634522       39.641829   0.000000   0.000000
 
  0.3636364E+00  0.7938127E-17  0.7938127E-17  0.6010518E-02
      1          4.020196        4.199178   1.000000   1.000000
      2          6.950380        7.499156   1.000000   1.000000
      3          6.950469        7.560760   1.000000   1.000000
      4          7.184502        7.560826   1.000000   1.000000
      5          8.406245        9.099543   1.000000   0.992406
      6          8.406321        9.099604   1.081941   0.481913
      7         18.371933       18.582682   0.000000   0.000000
      8         31.949430       31.798398   0.000000   0.000000
      9         33.936759       34.013328   0.000000   0.000000
     10         33.936802       34.013347   0.000000   0.000000
     11         37.828059       37.845759   0.000000   0.000000
     12         37.828548       37.846173   0.000000   0.000000
 
  0.4545455E+00 -0.1004401E-16  0.1771157E-16  0.6010518E-02
      1          4.430359        4.805378   1.000000   1.000000
      2          6.870605        7.465486   1.000000   1.000000
      3          6.870685        7.465547   1.000000   1.000000
      4          8.612935        8.608738   1.000000   1.000000
      5          8.613004        9.328237   1.000000   0.038570
      6          8.618926        9.328289   0.810037   0.008417
      7         15.354635       15.696873   0.000000   0.000000
      8         31.454178       31.296417   0.000000   0.000000
      9         33.750523       33.823777   0.000000   0.000000
     10         33.750751       33.823896   0.000000   0.000000
     11         36.898777       36.918406   0.000000   0.000000
     12         36.899463       36.918969   0.000000   0.000000
 
  0.9090909E-01  0.9090909E-01  0.2673544E-17  0.4507889E-02
      1          0.720259        0.673300   1.000000   1.000000
      2          6.693221        7.381769   1.000000   1.000000
      3          6.959617        7.664251   1.000000   1.000000
      4          6.959622        7.664258   1.000000   1.000000
      5          7.855717        8.429484   1.000000   1.000000
      6          8.043760        8.628564   1.000000   1.000000
      7         32.096031       31.990018   0.000000   0.000000
      8         34.093932       34.130094   0.000000   0.000000
      9         34.094045       34.130211   0.000000   0.000000
     10         34.981560       34.912865   0.000000   0.000000
     11         41.456267       41.464645   0.000000   0.000000
     12         42.239889       42.207087   0.000000   0.000000
 
  0.1818182E+00  0.9090909E-01  0.1203906E-17  0.1803156E-01
      1          1.437104        1.393238   1.000000   1.000000
      2          6.516861        7.184940   1.000000   1.000000
      3          7.091747        7.788169   1.000000   1.000000
      4          7.101233        7.803558   1.000000   1.000000
      5          7.755082        8.331097   1.000000   1.000000
      6          8.095827        8.689798   1.000000   1.000000
      7         28.804007       28.843565   0.000000   0.000000
      8         32.554352       32.480077   0.000000   0.000000
      9         32.601815       32.657013   0.000000   0.000000
     10         36.009869       35.950442   0.000000   0.000000
     11         39.504205       39.609907   0.000000   0.000000
     12         41.869280       41.930366   0.000000   0.000000
 
  0.2727273E+00  0.9090909E-01 -0.2430693E-16  0.1803156E-01
      1          2.644394        2.622981   1.000000   1.000000
      2          6.373158        6.993155   1.000000   1.000000
      3          7.078341        7.708200   1.000000   1.000000
      4          7.175614        7.844209   1.000000   1.000000
      5          7.935866        8.568519   1.000000   1.000000
      6          8.238553        8.874157   1.000000   1.116321
      7         24.166964       24.269254   0.000000   0.000000
      8         31.620550       31.685351   0.000000   0.000000
      9         31.830251       31.749945   0.000000   0.000000
     10         35.737972       35.784519   0.000000   0.000000
     11         38.951174       38.937586   0.000000   0.000000
     12         41.619183       41.657441   0.000000   0.000000
 
  0.3636364E+00  0.9090909E-01 -0.2876147E-17  0.1803156E-01
      1          3.927244        4.029827   1.000000   1.000000
      2          6.569023        7.045433   1.000000   1.000000
      3          6.909582        7.510684   1.000000   1.000000
      4          7.112422        7.740388   1.000000   1.000000
      5          8.476622        9.118375   1.000000   0.977280
      6          8.487002        9.161287   1.057406   0.374946
      7         19.857020       20.027207   0.000000   0.000000
      8         31.037430       30.947886   0.000000   0.000000
      9         31.185798       31.251500   0.000000   0.000000
     10         33.836557       33.922616   0.000000   0.000000
     11         39.283382       39.246014   0.000000   0.000000
     12         41.111850       41.115662   0.000000   0.000000
 
  0.4545455E+00  0.9090909E-01  0.1015857E-16  0.1803156E-01
      1          4.547035        4.888830   1.000000   1.000000
      2          6.757544        7.280761   1.000000   1.000000
      3          7.013646        7.617513   1.000000   1.000000
      4          7.345007        7.742436   1.000000   1.000000
      5          8.637778        9.351547   1.000000   0.105611
      6          9.476304        9.933394   0.146463  -0.015376
      7         16.295562       16.573199   0.000000   0.000000
      8         30.183824       30.114808   0.000000   0.000000
      9         31.376201       31.439516   0.000000   0.000000
     10         32.593650       32.644773   0.000000   0.000000
     11         39.134932       39.113238   0.000000   0.000000
     12         39.578714       39.597838   0.000000   0.000000
 
 -0.4545455E+00  0.9090909E-01 -0.1052700E-15  0.1803156E-01
      1          4.640033        5.047600   1.000000   1.000000
      2          6.734270        7.279357   1.000000   1.000000
      3          6.971933        7.566503   1.000000   1.000000
      4          7.685036        8.070927   1.000000   1.000000
      5          8.598583        9.318130   1.000000   0.035701
      6         10.176736       10.480486  -0.048586   0.000000
      7         14.957708       15.321992   0.000000   0.000000
      8         29.407440       29.384150   0.000000   0.000000
      9         32.279548       32.303427   0.000000   0.000000
     10         32.313549       32.343702   0.000000   0.000000
     11         38.526701       38.554159   0.000000   0.000000
     12         39.235669       39.222434   0.000000   0.000000
 
 -0.3636364E+00  0.9090909E-01 -0.1549112E-16  0.1803156E-01
      1          4.434075        4.705579   1.000000   1.000000
      2          6.821527        7.361146   1.000000   1.000000
      3          7.021768        7.533730   1.000000   1.000000
      4          7.146217        7.621097   1.000000   1.000000
      5          8.345802        9.049976   1.000000   1.016651
      6          9.254333        9.825274   0.370353  -0.063237
      7         17.364643       17.600594   0.000000   0.000000
      8         28.986598       28.996608   0.000000   0.000000
      9         32.868046       32.819837   0.000000   0.000000
     10         33.918048       33.989624   0.000000   0.000000
     11         37.970941       37.997875   0.000000   0.000000
     12         39.368935       39.353905   0.000000   0.000000
 
 -0.2727273E+00  0.9090909E-01  0.4431174E-16  0.1803156E-01
      1          3.546878        3.586485   1.000000   1.000000
      2          6.481549        7.026167   1.000000   1.000000
      3          6.972024        7.580143   1.000000   1.000000
      4          7.135385        7.760944   1.000000   1.000000
      5          7.990460        8.656131   1.000000   1.000000
      6          8.617974        9.273907   1.047168   0.373568
      7         21.243910       21.390010   0.000000   0.000000
      8         29.059879       29.085972   0.000000   0.000000
      9         34.085783       34.021352   0.000000   0.000000
     10         36.241269       36.325075   0.000000   0.000000
     11         37.835917       37.850537   0.000000   0.000000
     12         39.047629       39.008641   0.000000   0.000000
 
 -0.1818182E+00  0.9090909E-01  0.2876147E-17  0.1803156E-01
      1          2.204269        2.170684   1.000000   1.000000
      2          6.444875        7.086439   1.000000   1.000000
      3          7.073096        7.726362   1.000000   1.000000
      4          7.166353        7.858573   1.000000   1.000000
      5          7.763149        8.354531   1.000000   1.000000
      6          8.233941        8.864243   1.000000   1.055404
      7         25.687341       25.771008   0.000000   0.000000
      8         29.615758       29.640750   0.000000   0.000000
      9         35.549695       35.472887   0.000000   0.000000
     10         37.985548       37.986638   0.000000   0.000000
     11         38.260333       38.201210   0.000000   0.000000
     12         39.069046       39.139942   0.000000   0.000000
 
 -0.9090909E-01  0.9090909E-01 -0.4489480E-17  0.9015778E-02
      1          1.133892        1.088518   1.000000   1.000000
      2          6.624955        7.301110   1.000000   1.000000
      3          7.010542        7.713509   1.000000   1.000000
      4          7.019857        7.720244   1.000000   1.000000
      5          7.828695        8.400996   1.000000   1.000000
      6          8.045807        8.639223   1.000000   1.000000
      7         29.959198       29.969451   0.000000   0.000000
      8         31.055909       31.071171   0.000000   0.000000
      9         35.624846       35.543978   0.000000   0.000000
     10         37.840772       37.805338   0.000000   0.000000
     11         39.023779       38.975030   0.000000   0.000000
     12         40.081131       40.131477   0.000000   0.000000
 
  0.1818182E+00  0.1818182E+00  0.7428757E-17  0.4507889E-02
      1          1.928059        1.887146   1.000000   1.000000
      2          6.305731        6.963310   1.000000   1.000000
      3          7.298406        8.015622   1.000000   1.000000
      4          7.298407        8.015627   1.000000   1.000000
      5          7.543508        8.085788   1.000000   1.000000
      6          8.190306        8.780490   1.000000   1.000000
      7         30.683979       30.742989   0.000000   0.000000
      8         30.684078       30.743096   0.000000   0.000000
      9         30.815330       30.798384   0.000000   0.000000
     10         32.176160       32.095283   0.000000   0.000000
     11         37.290234       37.485693   0.000000   0.000000
     12         45.439789       45.396669   0.000000   0.000000
 
  0.2727273E+00  0.1818182E+00 -0.5509474E-17  0.1803156E-01
      1          2.915414        2.893774   1.000000   1.000000
      2          6.087625        6.721759   1.000000   1.000000
      3          7.179636        7.759013   1.000000   1.000000
      4          7.468698        8.171011   1.000000   1.000000
      5          7.832043        8.487196   1.000000   1.000000
      6          8.317123        8.934560   1.000000   1.104048
      7         26.253036       26.326682   0.000000   0.000000
      8         29.353508       29.412381   0.000000   0.000000
      9         30.418997       30.383125   0.000000   0.000000
     10         32.261356       32.292163   0.000000   0.000000
     11         36.483348       36.625195   0.000000   0.000000
     12         44.886954       44.810307   0.000000   0.000000
 
  0.3636364E+00  0.1818182E+00  0.6120121E-17  0.1803156E-01
      1          4.113086        4.177193   1.000000   1.000000
      2          6.011267        6.588261   1.000000   1.000000
      3          6.895483        7.459889   1.000000   1.000000
      4          7.472674        8.128434   1.000000   1.000000
      5          8.528411        9.202876   1.000000   0.874005
      6          8.655617        9.260806   0.906934   0.157352
      7         21.817900       21.942123   0.000000   0.000000
      8         28.680523       28.736676   0.000000   0.000000
      9         28.752045       28.755474   0.000000   0.000000
     10         31.803535       31.864094   0.000000   0.000000
     11         39.120488       39.187533   0.000000   0.000000
     12         43.929622       43.858474   0.000000   0.000000
 
  0.4545455E+00  0.1818182E+00  0.2161815E-16  0.1803156E-01
      1          4.882893        5.184264   1.000000   1.000000
      2          6.224622        6.655642   1.000000   1.000000
      3          6.782712        7.356514   1.000000   1.000000
      4          7.381121        8.002438   1.000000   1.000000
      5          8.670670        9.383766   1.000000   0.010480
      6         10.083693       10.532252  -0.036097  -0.002285
      7         17.865543       18.061614   0.000000   0.000000
      8         27.020468       27.058445   0.000000   0.000000
      9         28.745936       28.799663   0.000000   0.000000
     10         31.451883       31.484967   0.000000   0.000000
     11         42.450477       42.443394   0.000000   0.000000
     12         43.212732       43.213350   0.000000   0.000000
 
 -0.4545455E+00  0.1818182E+00 -0.7598652E-18  0.1803156E-01
      1          5.083719        5.528129   1.000000   1.000000
      2          6.346167        6.756047   1.000000   1.000000
      3          6.964383        7.502853   1.000000   1.000000
      4          7.303321        7.903890   1.000000   1.000000
      5          8.604093        9.331710   1.000000   0.008966
      6         11.781601       12.035683   0.000000   0.000000
      7         15.185012       15.503564   0.000000   0.000000
      8         25.655421       25.713774   0.000000   0.000000
      9         29.594372       29.651101   0.000000   0.000000
     10         31.541207       31.541554   0.000000   0.000000
     11         41.999035       42.010053   0.000000   0.000000
     12         42.296346       42.246924   0.000000   0.000000
 
 -0.3636364E+00  0.1818182E+00  0.1227486E-16  0.1803156E-01
      1          5.054921        5.426104   1.000000   1.000000
      2          6.475651        6.912742   1.000000   1.000000
      3          6.781340        7.302371   1.000000   1.000000
      4          7.298062        7.888712   1.000000   1.000000
      5          8.319501        9.042321   1.000000   1.055733
      6         10.879578       11.285649   0.000000   0.000000
      7         16.778489       17.017837   0.000000   0.000000
      8         24.826370       24.897592   0.000000   0.000000
      9         31.196837       31.260923   0.000000   0.000000
     10         32.161980       32.136470   0.000000   0.000000
     11         41.268471       41.287195   0.000000   0.000000
     12         41.532609       41.472098   0.000000   0.000000
 
 -0.2727273E+00  0.1818182E+00  0.8678818E-16  0.1803156E-01
      1          4.539688        4.657972   1.000000   1.000000
      2          6.307033        6.860951   1.000000   1.000000
      3          6.712555        7.263496   1.000000   1.000000
      4          7.382480        7.972504   1.000000   1.000000
      5          7.902046        8.610081   1.000000   1.000000
      6          9.534494       10.131818   0.108740   0.000000
      7         20.477298       20.631438   0.000000   0.000000
      8         24.597302       24.676266   0.000000   0.000000
      9         33.378068       33.338011   0.000000   0.000000
     10         33.428779       33.497250   0.000000   0.000000
     11         40.126170       40.039094   0.000000   0.000000
     12         41.052402       41.078254   0.000000   0.000000
 
 -0.1818182E+00  0.1818182E+00 -0.6897293E-17  0.9015778E-02
      1          3.341415        3.335864   1.000000   1.000000
      2          6.262008        6.886021   1.000000   1.000000
      3          6.956514        7.552698   1.000000   1.000000
      4          7.455633        8.133509   1.000000   1.000000
      5          7.579689        8.188483   1.000000   1.000000
      6          8.736033        9.386905   0.998169   0.137647
      7         24.462472       24.579023   0.000000   0.000000
      8         25.268638       25.328427   0.000000   0.000000
      9         35.134993       35.089263   0.000000   0.000000
     10         36.142038       36.196110   0.000000   0.000000
     11         38.220854       38.118905   0.000000   0.000000
     12         41.304328       41.324732   0.000000   0.000000
 
  0.2727273E+00  0.2727273E+00 -0.1439199E-16  0.4507889E-02
      1          3.572539        3.585895   1.000000   1.000000
      2          5.814989        6.436588   1.000000   1.000000
      3          7.452077        7.900926   1.000000   1.000000
      4          7.807768        8.547340   1.000000   1.000000
      5          7.807779        8.547355   1.000000   1.000000
      6          8.385589        8.983249   1.000000   1.185935
      7         27.682313       27.732195   0.000000   0.000000
      8         27.682394       27.732287   0.000000   0.000000
      9         28.086279       28.095725   0.000000   0.000000
     10         29.815656       29.869140   0.000000   0.000000
     11         33.898938       34.048253   0.000000   0.000000
     12         49.171576       49.076914   0.000000   0.000000
 
  0.3636364E+00  0.2727273E+00  0.1081427E-16  0.1803156E-01
      1          4.369186        4.481206   1.000000   1.000000
      2          5.634503        6.235359   1.000000   1.000000
      3          7.347478        7.835259   1.000000   1.000000
      4          7.945209        8.642175   1.000000   1.000000
      5          8.547962        9.204366   1.000000   0.850165
      6          8.664940        9.259386   0.847877   0.158295
      7         24.072198       24.146033   0.000000   0.000000
      8         25.860031       25.927364   0.000000   0.000000
      9         26.698462       26.739289   0.000000   0.000000
     10         30.549050       30.609862   0.000000   0.000000
     11         34.682117       34.784232   0.000000   0.000000
     12         48.841483       48.815857   0.000000   0.000000
 
  0.4545455E+00  0.2727273E+00  0.5079286E-17  0.1803156E-01
      1          4.990213        5.261997   1.000000   1.000000
      2          5.635359        6.184176   1.000000   1.000000
      3          7.116677        7.644487   1.000000   1.000000
      4          7.889828        8.534709   1.000000   1.000000
      5          8.696630        9.411237   1.000000  -0.077835
      6         10.398869       10.810840  -0.041070   0.000000
      7         20.051087       20.172878   0.000000   0.000000
      8         23.799454       23.892438   0.000000   0.000000
      9         26.526403       26.563000   0.000000   0.000000
     10         30.745247       30.805050   0.000000   0.000000
     11         38.020029       38.085979   0.000000   0.000000
     12         47.165966       47.145472   0.000000   0.000000
 
 -0.4545455E+00  0.2727273E+00 -0.9484087E-16  0.1803156E-01
      1          5.340231        5.782449   1.000000   1.000000
      2          5.799466        6.232197   1.000000   1.000000
      3          6.904165        7.465377   1.000000   1.000000
      4          7.786687        8.396374   1.000000   1.000000
      5          8.630630        9.372552   1.000000  -0.022964
      6         12.800207       13.064377   0.000000   0.000000
      7         16.532598       16.729964   0.000000   0.000000
      8         22.200267       22.311009   0.000000   0.000000
      9         27.210750       27.252678   0.000000   0.000000
     10         30.903057       30.943916   0.000000   0.000000
     11         42.299506       42.345051   0.000000   0.000000
     12         45.718001       45.703486   0.000000   0.000000
 
 -0.3636364E+00  0.2727273E+00  0.2269360E-16  0.1803156E-01
      1          5.556035        6.037250   1.000000   1.000000
      2          6.011219        6.386513   1.000000   1.000000
      3          6.618821        7.186387   1.000000   1.000000
      4          7.701914        8.279867   1.000000   1.000000
      5          8.350356        9.105418   1.000000   0.921051
      6         13.042441       13.316020   0.000000   0.000000
      7         16.438619       16.655902   0.000000   0.000000
      8         21.187599       21.308121   0.000000   0.000000
      9         28.688845       28.743074   0.000000   0.000000
     10         31.364054       31.378255   0.000000   0.000000
     11         44.645425       44.605508   0.000000   0.000000
     12         44.692300       44.631584   0.000000   0.000000
 
 -0.2727273E+00  0.2727273E+00  0.5752295E-17  0.9015778E-02
      1          5.403074        5.670713   1.000000   1.000000
      2          6.277225        6.817086   1.000000   1.000000
      3          6.342516        6.856967   1.000000   1.000000
      4          7.620178        8.170893   1.000000   1.000000
      5          8.008335        8.770262   1.000000   1.000000
      6         10.975564       11.428838   0.000000   0.000000
      7         19.518409       19.684663   0.000000   0.000000
      8         21.246912       21.358062   0.000000   0.000000
      9         30.823452       30.888629   0.000000   0.000000
     10         32.225401       32.212041   0.000000   0.000000
     11         42.547904       42.443337   0.000000   0.000000
     12         43.633111       43.618315   0.000000   0.000000
 
  0.3636364E+00  0.3636364E+00  0.1277585E-16  0.4507889E-02
      1          4.563480        4.780165   1.000000   1.000000
      2          5.385573        5.977320   1.000000   1.000000
      3          8.347853        8.899743   1.000000   0.999860
      4          8.347864        9.119232   1.000000   0.975393
      5          8.563639        9.119248   1.000000   0.782590
      6          8.710359        9.168466   0.617831   0.182539
      7         23.148250       23.253051   0.000000   0.000000
      8         25.388906       25.412886   0.000000   0.000000
      9         25.388995       25.412988   0.000000   0.000000
     10         29.200196       29.300168   0.000000   0.000000
     11         32.695415       32.814745   0.000000   0.000000
     12         53.125277       53.136143   0.000000   0.000000
 
  0.4545455E+00  0.3636364E+00  0.2120527E-16  0.1803156E-01
      1          4.775463        5.074586   1.000000   1.000000
      2          5.299376        5.877903   1.000000   1.000000
      3          8.073065        8.672812   1.000000   1.001487
      4          8.389343        9.049672   1.000000   0.997046
      5          8.705629        9.433271   1.000000  -0.054425
      6         10.554751       10.812828  -0.032645  -0.001434
      7         21.009841       21.152124   0.000000   0.000000
      8         22.649872       22.710057   0.000000   0.000000
      9         24.918239       24.932994   0.000000   0.000000
     10         29.952934       30.038958   0.000000   0.000000
     11         33.911748       34.010526   0.000000   0.000000
     12         51.153767       51.122009   0.000000   0.000000
 
 -0.4545455E+00  0.3636364E+00 -0.2238841E-16  0.1803156E-01
      1          5.061297        5.420824   1.000000   1.000000
      2          5.403602        5.955015   1.000000   1.000000
      3          7.580618        8.166682   1.000000   1.000000
      4          8.282686        8.892807   1.000000   1.000000
      5          8.673718        9.444151   1.000000   0.000000
      6         12.969462       13.167491   0.000000   0.000000
      7         18.870965       18.992407   0.000000   0.000000
      8         19.721413       19.881954   0.000000   0.000000
      9         25.370156       25.390655   0.000000   0.000000
     10         30.402590       30.476809   0.000000   0.000000
     11         37.513880       37.584814   0.000000   0.000000
     12         49.284589       49.247243   0.000000   0.000000
 
 -0.3636364E+00  0.3636364E+00 -0.1587625E-16  0.9015778E-02
      1          5.415649        5.850331   1.000000   1.000000
      2          5.648655        6.123733   1.000000   1.000000
      3          7.011374        7.582706   1.000000   1.000000
      4          8.076433        8.647998   1.000000   1.000000
      5          8.476398        9.263290   1.000000   0.140254
      6         15.369717       15.545761   0.000000   0.000000
      7         15.745332       15.921447   0.000000   0.000000
      8         19.214960       19.392436   0.000000   0.000000
      9         26.684692       26.721856   0.000000   0.000000
     10         30.769050       30.818789   0.000000   0.000000
     11         42.139253       42.195426   0.000000   0.000000
     12         47.301479       47.263641   0.000000   0.000000
 
  0.4545455E+00  0.4545455E+00  0.4202535E-16  0.4507889E-02
      1          4.660355        4.986745   1.000000   1.000000
      2          5.138886        5.714212   1.000000   1.000000
      3          8.671266        9.280460   1.000000   0.888691
      4          8.718565        9.516502   1.000000  -0.200710
      5          8.718576        9.516519   1.000000  -0.006137
      6         11.111731       11.101081  -0.005004  -0.000062
      7         19.120240       19.322385   0.000000   0.000000
      8         24.124400       24.123535   0.000000   0.000000
      9         24.124494       24.123644   0.000000   0.000000
     10         28.921946       29.044829   0.000000   0.000000
     11         32.333876       32.453123   0.000000   0.000000
     12         53.514816       53.486880   0.000000   0.000000
 
 -0.4545455E+00  0.4545455E+00  0.2008802E-16  0.9015778E-02
      1          4.761931        5.103269   1.000000   1.000000
      2          5.175472        5.746679   1.000000   1.000000
      3          8.369569        9.053783   1.000000   1.011511
      4          8.597341        9.200962   1.000000   0.782493
      5          8.735398        9.535939   1.000000   0.000000
      6         12.289823       12.354383   0.000000   0.000000
      7         18.418555       18.646968   0.000000   0.000000
      8         22.068691       22.114157   0.000000   0.000000
      9         24.282908       24.284635   0.000000   0.000000
     10         29.756083       29.853132   0.000000   0.000000