 vasp.6.3.0 20Jan22 (build Feb 01 2022 16:52:37) complex                        
  
 executed on           TETRA_NSC1 date 2022.02.23  15:27:55
 running    4 mpi-ranks, with    1 threads/rank
 distrk:  each k-point on    4 cores,    1 groups
 distr:  one band on NCORE=   1 cores,    4 groups


--------------------------------------------------------------------------------------------------------


 INCAR:
   SYSTEM = fcc Ni
   ISTART = 0
   ICHARG = 2
   ENCUT = 270
   ISMEAR = -5
   LORBIT = 11
   ISPIN = 2
   MAGMOM = 1

 POTCAR:    PAW_PBE Ni 02Aug2007                  
 POTCAR:    PAW_PBE Ni 02Aug2007                  
   VRHFIN =Ni:                                                                                      
   LEXCH  = PE                                                                                      
   EATOM  =  1077.6739 eV,   79.2068 Ry                                                             
                                                                                                    
   TITEL  = PAW_PBE Ni 02Aug2007                                                                    
   LULTRA =        F    use ultrasoft PP ?                                                          
   IUNSCR =        1    unscreen: 0-lin 1-nonlin 2-no                                               
   RPACOR =    2.000    partial core radius                                                         
   POMASS =   58.690; ZVAL   =   10.000    mass and valenz                                          
   RCORE  =    2.300    outmost cutoff radius                                                       
   RWIGS  =    2.430; RWIGS  =    1.286    wigner-seitz radius (au A)                               
   ENMAX  =  269.532; ENMIN  =  202.149 eV                                                          
   RCLOC  =    1.201    cutoff for local pot                                                        
   LCOR   =        T    correct aug charges                                                         
   LPAW   =        T    paw PP                                                                      
   EAUG   =  544.565                                                                                
   DEXC   =    0.000                                                                                
   RMAX   =    2.357    core radius for proj-oper                                                   
   RAUG   =    1.300    factor for augmentation sphere                                              
   RDEP   =    2.390    radius for radial grids                                                     
   RDEPT  =    1.838    core radius for aug-charge                                                  
                                                                                                    
   Atomic configuration                                                                             
    9 entries                                                                                       
     n  l   j            E        occ.                                                              
     1  0  0.50     -8206.4253   2.0000                                                             
     2  0  0.50      -976.1748   2.0000                                                             
     2  1  1.50      -839.0571   6.0000                                                             
     3  0  0.50      -105.9991   2.0000                                                             
     3  1  1.50       -66.4603   6.0000                                                             
     3  2  2.50        -4.6458   9.0000                                                             
     4  0  0.50        -4.4926   1.0000                                                             
     4  1  1.50        -4.0817   0.0000                                                             
     4  3  2.50        -1.3606   0.0000                                                             
   Description                                                                                      
     l       E           TYP  RCUT    TYP  RCUT                                                     
     2     -4.6457903     23  2.300                                                                 
     2     -6.0063729     23  2.300                                                                 
     0     -4.4925590     23  2.300                                                                 
     0      5.0102601     23  2.300                                                                 
     1     -2.7211652     23  2.300                                                                 
     1     16.5183231     23  2.300                                                                 
  local pseudopotential read in
  partial core-charges read in
  partial kinetic energy density read in
  atomic valenz-charges read in
  non local Contribution for L=           2  read in
    real space projection operators read in
  non local Contribution for L=           2  read in
    real space projection operators read in
  non local Contribution for L=           0  read in
    real space projection operators read in
  non local Contribution for L=           0  read in
    real space projection operators read in
  non local Contribution for L=           1  read in
    real space projection operators read in
  non local Contribution for L=           1  read in
    real space projection operators read in
    PAW grid and wavefunctions read in
 
   number of l-projection  operators is LMAX  =           6
   number of lm-projection operators is LMMAX =          18
 
  PAW_PBE Ni 02Aug2007                  :
 energy of atom  1       EATOM=-1077.6739
 kinetic energy error for atom=    0.0378 (will be added to EATOM!!)
 
 
 POSCAR: fcc Ni
  positions in cartesian coordinates
  velocities in cartesian coordinates
  No initial velocities read in
 exchange correlation table for  LEXCH =        8
   RHO(1)=    0.500       N(1)  =     2000
   RHO(2)=  100.500       N(2)  =     4000
 


--------------------------------------------------------------------------------------------------------


 ion  position               nearest neighbor table
   1  0.000  0.000  0.000-
 
  LATTYP: Found a face centered cubic cell.
 ALAT       =     3.5300000000
  
  Lattice vectors:
  
 A1 = (   1.7650000000,   1.7650000000,   0.0000000000)
 A2 = (   0.0000000000,   1.7650000000,   1.7650000000)
 A3 = (   1.7650000000,   0.0000000000,   1.7650000000)


Analysis of symmetry for initial positions (statically):
=====================================================================
 Subroutine PRICEL returns:
 Original cell was already a primitive cell.
 

 Routine SETGRP: Setting up the symmetry group for a 
 face centered cubic supercell.


 Subroutine GETGRP returns: Found 48 space group operations
 (whereof 48 operations were pure point group operations)
 out of a pool of 48 trial point group operations.


The static configuration has the point symmetry O_h .


Analysis of symmetry for dynamics (positions and initial velocities):
=====================================================================
 Subroutine PRICEL returns:
 Original cell was already a primitive cell.
 

 Routine SETGRP: Setting up the symmetry group for a 
 face centered cubic supercell.


 Subroutine GETGRP returns: Found 48 space group operations
 (whereof 48 operations were pure point group operations)
 out of a pool of 48 trial point group operations.


The dynamic configuration has the point symmetry O_h .


Analysis of structural, dynamic, and magnetic symmetry:
=====================================================================
 Subroutine PRICEL returns:
 Original cell was already a primitive cell.
 

 Routine SETGRP: Setting up the symmetry group for a 
 face centered cubic supercell.


 Subroutine GETGRP returns: Found 48 space group operations
 (whereof 48 operations were pure point group operations)
 out of a pool of 48 trial point group operations.


The overall configuration has the point symmetry O_h .


 Subroutine INISYM returns: Found 48 space group operations
 (whereof 48 operations are pure point group operations),
 and found     1 'primitive' translations


----------------------------------------------------------------------------------------

                                     Primitive cell                                     

  volume of cell :      10.9967

  direct lattice vectors                    reciprocal lattice vectors
     1.765000000  1.765000000  0.000000000     0.283286119  0.283286119 -0.283286119
     0.000000000  1.765000000  1.765000000    -0.283286119  0.283286119  0.283286119
     1.765000000  0.000000000  1.765000000     0.283286119 -0.283286119  0.283286119

  length of vectors
     2.496086938  2.496086938  2.496086938     0.490665951  0.490665951  0.490665951

  position of ions in fractional coordinates (direct lattice)
     0.000000000  0.000000000  0.000000000

  ion indices of the primitive-cell ions
   primitive index   ion index
                 1           1

----------------------------------------------------------------------------------------

 
 
 KPOINTS: k-points                                

Automatic generation of k-mesh.
 Grid dimensions read from file:
 generate k-points for:   11   11   11

 Generating k-lattice:

  Cartesian coordinates                     Fractional coordinates (reciprocal lattice)
     0.025753284  0.025753284 -0.025753284     0.090909091  0.000000000  0.000000000
    -0.025753284  0.025753284  0.025753284     0.000000000  0.090909091 -0.000000000
     0.025753284 -0.025753284  0.025753284    -0.000000000 -0.000000000  0.090909091

  Length of vectors
     0.044605996  0.044605996  0.044605996

  Shift w.r.t. Gamma in fractional coordinates (k-lattice)
     0.000000000  0.000000000  0.000000000

 TETIRR: Found    201 inequivalent tetrahedra from     7986
 
 Subroutine IBZKPT returns following result:
 ===========================================
 
 Found     56 irreducible k-points:
 
 Following reciprocal coordinates:
            Coordinates               Weight
  0.000000  0.000000  0.000000      1.000000
  0.090909  0.000000  0.000000      8.000000
  0.181818  0.000000  0.000000      8.000000
  0.272727 -0.000000 -0.000000      8.000000
  0.363636  0.000000  0.000000      8.000000
  0.454545 -0.000000  0.000000      8.000000
  0.090909  0.090909  0.000000      6.000000
  0.181818  0.090909  0.000000     24.000000
  0.272727  0.090909 -0.000000     24.000000
  0.363636  0.090909 -0.000000     24.000000
  0.454545  0.090909  0.000000     24.000000
 -0.454545  0.090909 -0.000000     24.000000
 -0.363636  0.090909 -0.000000     24.000000
 -0.272727  0.090909  0.000000     24.000000
 -0.181818  0.090909  0.000000     24.000000
 -0.090909  0.090909 -0.000000     12.000000
  0.181818  0.181818  0.000000      6.000000
  0.272727  0.181818 -0.000000     24.000000
  0.363636  0.181818  0.000000     24.000000
  0.454545  0.181818  0.000000     24.000000
 -0.454545  0.181818 -0.000000     24.000000
 -0.363636  0.181818  0.000000     24.000000
 -0.272727  0.181818  0.000000     24.000000
 -0.181818  0.181818 -0.000000     12.000000
  0.272727  0.272727 -0.000000      6.000000
  0.363636  0.272727  0.000000     24.000000
  0.454545  0.272727  0.000000     24.000000
 -0.454545  0.272727 -0.000000     24.000000
 -0.363636  0.272727  0.000000     24.000000
 -0.272727  0.272727  0.000000     12.000000
  0.363636  0.363636  0.000000      6.000000
  0.454545  0.363636  0.000000     24.000000
 -0.454545  0.363636 -0.000000     24.000000
 -0.363636  0.363636 -0.000000     12.000000
  0.454545  0.454545  0.000000      6.000000
 -0.454545  0.454545  0.000000     12.000000
  0.272727  0.181818  0.090909     24.000000
  0.363636  0.181818  0.090909     48.000000
  0.454545  0.181818  0.090909     48.000000
 -0.454545  0.181818  0.090909     48.000000
  0.363636  0.272727  0.090909     24.000000
  0.454545  0.272727  0.090909     48.000000
 -0.454545  0.272727  0.090909     48.000000
 -0.363636  0.272727  0.090909     48.000000
 -0.272727  0.272727  0.090909     48.000000
 -0.181818  0.272727  0.090909     24.000000
  0.454545  0.363636  0.090909     24.000000
 -0.454545  0.363636  0.090909     48.000000
 -0.363636  0.363636  0.090909     48.000000
 -0.272727  0.363636  0.090909     24.000000
 -0.454545  0.454545  0.090909     24.000000
 -0.363636  0.454545  0.090909     24.000000
 -0.454545  0.363636  0.181818     24.000000
 -0.363636  0.363636  0.181818     48.000000
 -0.363636  0.454545  0.181818     24.000000
 -0.272727  0.454545  0.181818     24.000000
 
 Following cartesian coordinates:
            Coordinates               Weight
  0.000000  0.000000  0.000000      1.000000
  0.090909  0.090909 -0.090909      8.000000
  0.181818  0.181818 -0.181818      8.000000
  0.272727  0.272727 -0.272727      8.000000
  0.363636  0.363636 -0.363636      8.000000
  0.454545  0.454545 -0.454545      8.000000
  0.000000  0.181818  0.000000      6.000000
  0.090909  0.272727 -0.090909     24.000000
  0.181818  0.363636 -0.181818     24.000000
  0.272727  0.454545 -0.272727     24.000000
  0.363636  0.545455 -0.363636     24.000000
 -0.545455 -0.363636  0.545455     24.000000
 -0.454545 -0.272727  0.454545     24.000000
 -0.363636 -0.181818  0.363636     24.000000
 -0.272727 -0.090909  0.272727     24.000000
 -0.181818  0.000000  0.181818     12.000000
  0.000000  0.363636  0.000000      6.000000
  0.090909  0.454545 -0.090909     24.000000
  0.181818  0.545455 -0.181818     24.000000
  0.272727  0.636364 -0.272727     24.000000
 -0.636364 -0.272727  0.636364     24.000000
 -0.545455 -0.181818  0.545455     24.000000
 -0.454545 -0.090909  0.454545     24.000000
 -0.363636  0.000000  0.363636     12.000000
  0.000000  0.545455 -0.000000      6.000000
  0.090909  0.636364 -0.090909     24.000000
  0.181818  0.727273 -0.181818     24.000000
 -0.727273 -0.181818  0.727273     24.000000
 -0.636364 -0.090909  0.636364     24.000000
 -0.545455 -0.000000  0.545455     12.000000
  0.000000  0.727273  0.000000      6.000000
  0.090909  0.818182 -0.090909     24.000000
 -0.818182 -0.090909  0.818182     24.000000
 -0.727273  0.000000  0.727273     12.000000
 -0.000000  0.909091  0.000000      6.000000
 -0.909091 -0.000000  0.909091     12.000000
  0.181818  0.363636 -0.000000     24.000000
  0.272727  0.454545 -0.090909     48.000000
  0.363636  0.545455 -0.181818     48.000000
 -0.545455 -0.363636  0.727273     48.000000
  0.181818  0.545455  0.000000     24.000000
  0.272727  0.636364 -0.090909     48.000000
 -0.636364 -0.272727  0.818182     48.000000
 -0.545455 -0.181818  0.727273     48.000000
 -0.454545 -0.090909  0.636364     48.000000
 -0.363636 -0.000000  0.545455     24.000000
  0.181818  0.727273  0.000000     24.000000
 -0.727273 -0.181818  0.909091     48.000000
 -0.636364 -0.090909  0.818182     48.000000
 -0.545455  0.000000  0.727273     24.000000
 -0.818182 -0.090909  1.000000     24.000000
 -0.727273 -0.000000  0.909091     24.000000
 -0.636364 -0.272727  1.000000     24.000000
 -0.545455 -0.181818  0.909091     48.000000
 -0.636364 -0.090909  1.000000     24.000000
 -0.545455 -0.000000  0.909091     24.000000
 


--------------------------------------------------------------------------------------------------------




 Dimension of arrays:
   k-points           NKPTS =     56   k-points in BZ     NKDIM =     56   number of bands    NBANDS=     12
   number of dos      NEDOS =    301   number of ions     NIONS =      1
   non local maximal  LDIM  =      6   non local SUM 2l+1 LMDIM =     18
   total plane-waves  NPLWV =   1000
   max r-space proj   IRMAX =      1   max aug-charges    IRDMAX=   3147
   dimension x,y,z NGX =    10 NGY =   10 NGZ =   10
   dimension x,y,z NGXF=    20 NGYF=   20 NGZF=   20
   support grid    NGXF=    20 NGYF=   20 NGZF=   20
   ions per type =               1
   NGX,Y,Z   is equivalent  to a cutoff of   6.66,  6.66,  6.66 a.u.
   NGXF,Y,Z  is equivalent  to a cutoff of  13.32, 13.32, 13.32 a.u.

 SYSTEM =  fcc Ni                                  
 POSCAR =  fcc Ni                                  

 Startparameter for this run:
   NWRITE =      2    write-flag & timer
   PREC   = normal    normal or accurate (medium, high low for compatibility)
   ISTART =      0    job   : 0-new  1-cont  2-samecut
   ICHARG =      2    charge: 1-file 2-atom 10-const
   ISPIN  =      2    spin polarized calculation?
   LNONCOLLINEAR =      F non collinear calculations
   LSORBIT =      F    spin-orbit coupling
   INIWAV =      1    electr: 0-lowe 1-rand  2-diag
   LASPH  =      F    aspherical Exc in radial PAW
 Electronic Relaxation 1
   ENCUT  =  270.0 eV  19.84 Ry    4.45 a.u.   3.34  3.34  3.34*2*pi/ulx,y,z
   ENINI  =  270.0     initial cutoff
   ENAUG  =  544.6 eV  augmentation charge cutoff
   NELM   =     60;   NELMIN=  2; NELMDL= -5     # of ELM steps 
   EDIFF  = 0.1E-03   stopping-criterion for ELM
   LREAL  =      F    real-space projection
   NLSPLINE    = F    spline interpolate recip. space projectors
   LCOMPAT=      F    compatible to vasp.4.4
   GGA_COMPAT  = T    GGA compatible to vasp.4.4-vasp.4.6
   LMAXPAW     = -100 max onsite density
   LMAXMIX     =    2 max onsite mixed and CHGCAR
   VOSKOWN=      0    Vosko Wilk Nusair interpolation
   ROPT   =    0.00000
 Ionic relaxation
   EDIFFG = 0.1E-02   stopping-criterion for IOM
   NSW    =      0    number of steps for IOM
   NBLOCK =      1;   KBLOCK =      1    inner block; outer block 
   IBRION =     -1    ionic relax: 0-MD 1-quasi-New 2-CG
   NFREE  =      0    steps in history (QN), initial steepest desc. (CG)
   ISIF   =      2    stress and relaxation
   IWAVPR =     10    prediction:  0-non 1-charg 2-wave 3-comb
   ISYM   =      2    0-nonsym 1-usesym 2-fastsym
   LCORR  =      T    Harris-Foulkes like correction to forces

   POTIM  = 0.5000    time-step for ionic-motion
   TEIN   =    0.0    initial temperature
   TEBEG  =    0.0;   TEEND  =   0.0 temperature during run
   SMASS  =  -3.00    Nose mass-parameter (am)
   estimated Nose-frequenzy (Omega)   =  0.10E-29 period in steps = 0.13E+47 mass=  -0.142E-27a.u.
   SCALEE = 1.0000    scale energy and forces
   NPACO  =    256;   APACO  = 10.0  distance and # of slots for P.C.
   PSTRESS=    0.0 pullay stress

  Mass of Ions in am
   POMASS =  58.69
  Ionic Valenz
   ZVAL   =  10.00
  Atomic Wigner-Seitz radii
   RWIGS  =  -1.00
  virtual crystal weights 
   VCA    =   1.00
   NELECT =      10.0000    total number of electrons
   NUPDOWN=      -1.0000    fix difference up-down

 DOS related values:
   EMIN   =  10.00;   EMAX   =-10.00  energy-range for DOS
   EFERMI =   0.00
   ISMEAR =    -5;   SIGMA  =   0.20  broadening in eV -4-tet -1-fermi 0-gaus

 Electronic relaxation 2 (details)
   IALGO  =     38    algorithm
   LDIAG  =      T    sub-space diagonalisation (order eigenvalues)
   LSUBROT=      F    optimize rotation matrix (better conditioning)
   TURBO    =      0    0=normal 1=particle mesh
   IRESTART =      0    0=no restart 2=restart with 2 vectors
   NREBOOT  =      0    no. of reboots
   NMIN     =      0    reboot dimension
   EREF     =   0.00    reference energy to select bands
   IMIX   =      4    mixing-type and parameters
     AMIX     =   0.40;   BMIX     =  1.00
     AMIX_MAG =   1.60;   BMIX_MAG =  1.00
     AMIN     =   0.10
     WC   =   100.;   INIMIX=   1;  MIXPRE=   1;  MAXMIX= -45

 Intra band minimization:
   WEIMIN = 0.0000     energy-eigenvalue tresh-hold
   EBREAK =  0.21E-05  absolut break condition
   DEPER  =   0.30     relativ break condition  

   TIME   =   0.40     timestep for ELM

  volume/ion in A,a.u.               =      11.00        74.21
  Fermi-wavevector in a.u.,A,eV,Ry     =   1.586062  2.997222 34.226710  2.515592
  Thomas-Fermi vector in A             =   2.685431
 
 Write flags
   LWAVE        =      T    write WAVECAR
   LDOWNSAMPLE  =      F    k-point downsampling of WAVECAR
   LCHARG       =      T    write CHGCAR
   LVTOT        =      F    write LOCPOT, total local potential
   LVHAR        =      F    write LOCPOT, Hartree potential only
   LELF         =      F    write electronic localiz. function (ELF)
   LORBIT       =     11    0 simple, 1 ext, 2 COOP (PROOUT), +10 PAW based schemes


 Dipole corrections
   LMONO  =      F    monopole corrections only (constant potential shift)
   LDIPOL =      F    correct potential (dipole corrections)
   IDIPOL =      0    1-x, 2-y, 3-z, 4-all directions 
   EPSILON=  1.0000000 bulk dielectric constant

 Exchange correlation treatment:
   GGA     =    --    GGA type
   LEXCH   =     8    internal setting for exchange type
   LIBXC   =     F    Libxc                    
   VOSKOWN =     0    Vosko Wilk Nusair interpolation
   LHFCALC =     F    Hartree Fock is set to
   LHFONE  =     F    Hartree Fock one center treatment
   AEXX    =    0.0000 exact exchange contribution

 Linear response parameters
   LEPSILON=     F    determine dielectric tensor
   LRPA    =     F    only Hartree local field effects (RPA)
   LNABLA  =     F    use nabla operator in PAW spheres
   LVEL    =     F    velocity operator in full k-point grid
   CSHIFT  =0.1000    complex shift for real part using Kramers Kronig
   OMEGAMAX=  -1.0    maximum frequency
   DEG_THRESHOLD= 0.2000000E-02 threshold for treating states as degnerate
   RTIME   =   -0.100 relaxation time in fs
  (WPLASMAI=    0.000 imaginary part of plasma frequency in eV, 0.658/RTIME)
   DFIELD  = 0.0000000 0.0000000 0.0000000 field for delta impulse in time
 
  Optional k-point grid parameters
   LKPOINTS_OPT  =     F    use optional k-point grid
   KPOINTS_OPT_MODE=     1    mode for optional k-point grid
 
 Orbital magnetization related:
   ORBITALMAG=     F  switch on orbital magnetization
   LCHIMAG   =     F  perturbation theory with respect to B field
   DQ        =  0.001000  dq finite difference perturbation B field
   LLRAUG    =     F  two centre corrections for induced B field



--------------------------------------------------------------------------------------------------------


 Static calculation
 charge density and potential will be updated during run
 spin polarized calculation
 Variant of blocked Davidson
 Davidson routine will perform the subspace rotation
 perform sub-space diagonalisation
    after iterative eigenvector-optimisation
 modified Broyden-mixing scheme, WC =      100.0
 initial mixing is a Kerker type mixing with AMIX =  0.4000 and BMIX =      1.0000
 Hartree-type preconditioning will be used
 using additional bands            7
 reciprocal scheme for non local part
 use partial core corrections
 calculate Harris-corrections to forces 
   (improved forces if not selfconsistent)
 use gradient corrections 
 use of overlap-Matrix (Vanderbilt PP)
 Fermi weights with tetrahedron method with Bloechl corrections


--------------------------------------------------------------------------------------------------------


  energy-cutoff  :      270.00
  volume of cell :       11.00
      direct lattice vectors                 reciprocal lattice vectors
     1.765000000  1.765000000  0.000000000     0.283286119  0.283286119 -0.283286119
     0.000000000  1.765000000  1.765000000    -0.283286119  0.283286119  0.283286119
     1.765000000  0.000000000  1.765000000     0.283286119 -0.283286119  0.283286119

  length of vectors
     2.496086938  2.496086938  2.496086938     0.490665951  0.490665951  0.490665951


 
 k-points in units of 2pi/SCALE and weight: k-points                                
   0.00000000  0.00000000  0.00000000       0.001
   0.09090909  0.09090909 -0.09090909       0.006
   0.18181818  0.18181818 -0.18181818       0.006
   0.27272727  0.27272727 -0.27272727       0.006
   0.36363636  0.36363636 -0.36363636       0.006
   0.45454545  0.45454545 -0.45454545       0.006
   0.00000000  0.18181818  0.00000000       0.005
   0.09090909  0.27272727 -0.09090909       0.018
   0.18181818  0.36363636 -0.18181818       0.018
   0.27272727  0.45454545 -0.27272727       0.018
   0.36363636  0.54545455 -0.36363636       0.018
  -0.54545455 -0.36363636  0.54545455       0.018
  -0.45454545 -0.27272727  0.45454545       0.018
  -0.36363636 -0.18181818  0.36363636       0.018
  -0.27272727 -0.09090909  0.27272727       0.018
  -0.18181818  0.00000000  0.18181818       0.009
   0.00000000  0.36363636  0.00000000       0.005
   0.09090909  0.45454545 -0.09090909       0.018
   0.18181818  0.54545455 -0.18181818       0.018
   0.27272727  0.63636364 -0.27272727       0.018
  -0.63636364 -0.27272727  0.63636364       0.018
  -0.54545455 -0.18181818  0.54545455       0.018
  -0.45454545 -0.09090909  0.45454545       0.018
  -0.36363636  0.00000000  0.36363636       0.009
   0.00000000  0.54545455 -0.00000000       0.005
   0.09090909  0.63636364 -0.09090909       0.018
   0.18181818  0.72727273 -0.18181818       0.018
  -0.72727273 -0.18181818  0.72727273       0.018
  -0.63636364 -0.09090909  0.63636364       0.018
  -0.54545455 -0.00000000  0.54545455       0.009
   0.00000000  0.72727273  0.00000000       0.005
   0.09090909  0.81818182 -0.09090909       0.018
  -0.81818182 -0.09090909  0.81818182       0.018
  -0.72727273  0.00000000  0.72727273       0.009
  -0.00000000  0.90909091  0.00000000       0.005
  -0.90909091 -0.00000000  0.90909091       0.009
   0.18181818  0.36363636 -0.00000000       0.018
   0.27272727  0.45454545 -0.09090909       0.036
   0.36363636  0.54545455 -0.18181818       0.036
  -0.54545455 -0.36363636  0.72727273       0.036
   0.18181818  0.54545455  0.00000000       0.018
   0.27272727  0.63636364 -0.09090909       0.036
  -0.63636364 -0.27272727  0.81818182       0.036
  -0.54545455 -0.18181818  0.72727273       0.036
  -0.45454545 -0.09090909  0.63636364       0.036
  -0.36363636 -0.00000000  0.54545455       0.018
   0.18181818  0.72727273  0.00000000       0.018
  -0.72727273 -0.18181818  0.90909091       0.036
  -0.63636364 -0.09090909  0.81818182       0.036
  -0.54545455  0.00000000  0.72727273       0.018
  -0.81818182 -0.09090909  1.00000000       0.018
  -0.72727273 -0.00000000  0.90909091       0.018
  -0.63636364 -0.27272727  1.00000000       0.018
  -0.54545455 -0.18181818  0.90909091       0.036
  -0.63636364 -0.09090909  1.00000000       0.018
  -0.54545455 -0.00000000  0.90909091       0.018
 
 k-points in reciprocal lattice and weights: k-points                                
   0.00000000  0.00000000  0.00000000       0.001
   0.09090909  0.00000000  0.00000000       0.006
   0.18181818  0.00000000  0.00000000       0.006
   0.27272727 -0.00000000 -0.00000000       0.006
   0.36363636  0.00000000  0.00000000       0.006
   0.45454545 -0.00000000  0.00000000       0.006
   0.09090909  0.09090909  0.00000000       0.005
   0.18181818  0.09090909  0.00000000       0.018
   0.27272727  0.09090909 -0.00000000       0.018
   0.36363636  0.09090909 -0.00000000       0.018
   0.45454545  0.09090909  0.00000000       0.018
  -0.45454545  0.09090909 -0.00000000       0.018
  -0.36363636  0.09090909 -0.00000000       0.018
  -0.27272727  0.09090909  0.00000000       0.018
  -0.18181818  0.09090909  0.00000000       0.018
  -0.09090909  0.09090909 -0.00000000       0.009
   0.18181818  0.18181818  0.00000000       0.005
   0.27272727  0.18181818 -0.00000000       0.018
   0.36363636  0.18181818  0.00000000       0.018
   0.45454545  0.18181818  0.00000000       0.018
  -0.45454545  0.18181818 -0.00000000       0.018
  -0.36363636  0.18181818  0.00000000       0.018
  -0.27272727  0.18181818  0.00000000       0.018
  -0.18181818  0.18181818 -0.00000000       0.009
   0.27272727  0.27272727 -0.00000000       0.005
   0.36363636  0.27272727  0.00000000       0.018
   0.45454545  0.27272727  0.00000000       0.018
  -0.45454545  0.27272727 -0.00000000       0.018
  -0.36363636  0.27272727  0.00000000       0.018
  -0.27272727  0.27272727  0.00000000       0.009
   0.36363636  0.36363636  0.00000000       0.005
   0.45454545  0.36363636  0.00000000       0.018
  -0.45454545  0.36363636 -0.00000000       0.018
  -0.36363636  0.36363636 -0.00000000       0.009
   0.45454545  0.45454545  0.00000000       0.005
  -0.45454545  0.45454545  0.00000000       0.009
   0.27272727  0.18181818  0.09090909       0.018
   0.36363636  0.18181818  0.09090909       0.036
   0.45454545  0.18181818  0.09090909       0.036
  -0.45454545  0.18181818  0.09090909       0.036
   0.36363636  0.27272727  0.09090909       0.018
   0.45454545  0.27272727  0.09090909       0.036
  -0.45454545  0.27272727  0.09090909       0.036
  -0.36363636  0.27272727  0.09090909       0.036
  -0.27272727  0.27272727  0.09090909       0.036
  -0.18181818  0.27272727  0.09090909       0.018
   0.45454545  0.36363636  0.09090909       0.018
  -0.45454545  0.36363636  0.09090909       0.036
  -0.36363636  0.36363636  0.09090909       0.036
  -0.27272727  0.36363636  0.09090909       0.018
  -0.45454545  0.45454545  0.09090909       0.018
  -0.36363636  0.45454545  0.09090909       0.018
  -0.45454545  0.36363636  0.18181818       0.018
  -0.36363636  0.36363636  0.18181818       0.036
  -0.36363636  0.45454545  0.18181818       0.018
  -0.27272727  0.45454545  0.18181818       0.018
 
 position of ions in fractional coordinates (direct lattice) 
   0.00000000  0.00000000  0.00000000
 
 position of ions in cartesian coordinates  (Angst):
   0.00000000  0.00000000  0.00000000
 


--------------------------------------------------------------------------------------------------------


 k-point   1 :   0.0000 0.0000 0.0000  plane waves:     113
 k-point   2 :   0.0909 0.0000 0.0000  plane waves:     113
 k-point   3 :   0.1818 0.0000 0.0000  plane waves:     116
 k-point   4 :   0.2727-0.0000-0.0000  plane waves:     114
 k-point   5 :   0.3636 0.0000 0.0000  plane waves:     114
 k-point   6 :   0.4545-0.0000 0.0000  plane waves:     108
 k-point   7 :   0.0909 0.0909 0.0000  plane waves:     113
 k-point   8 :   0.1818 0.0909 0.0000  plane waves:     116
 k-point   9 :   0.2727 0.0909-0.0000  plane waves:     110
 k-point  10 :   0.3636 0.0909-0.0000  plane waves:     109
 k-point  11 :   0.4545 0.0909 0.0000  plane waves:     112
 k-point  12 :  -0.4545 0.0909-0.0000  plane waves:     112
 k-point  13 :  -0.3636 0.0909-0.0000  plane waves:     111
 k-point  14 :  -0.2727 0.0909 0.0000  plane waves:     109
 k-point  15 :  -0.1818 0.0909 0.0000  plane waves:     113
 k-point  16 :  -0.0909 0.0909-0.0000  plane waves:     117
 k-point  17 :   0.1818 0.1818 0.0000  plane waves:     113
 k-point  18 :   0.2727 0.1818-0.0000  plane waves:     114
 k-point  19 :   0.3636 0.1818 0.0000  plane waves:     112
 k-point  20 :   0.4545 0.1818 0.0000  plane waves:     113
 k-point  21 :  -0.4545 0.1818-0.0000  plane waves:     111
 k-point  22 :  -0.3636 0.1818 0.0000  plane waves:     109
 k-point  23 :  -0.2727 0.1818 0.0000  plane waves:     112
 k-point  24 :  -0.1818 0.1818-0.0000  plane waves:     111
 k-point  25 :   0.2727 0.2727-0.0000  plane waves:     113
 k-point  26 :   0.3636 0.2727 0.0000  plane waves:     113
 k-point  27 :   0.4545 0.2727 0.0000  plane waves:     108
 k-point  28 :  -0.4545 0.2727-0.0000  plane waves:     108
 k-point  29 :  -0.3636 0.2727 0.0000  plane waves:     107
 k-point  30 :  -0.2727 0.2727 0.0000  plane waves:     107
 k-point  31 :   0.3636 0.3636 0.0000  plane waves:     113
 k-point  32 :   0.4545 0.3636 0.0000  plane waves:     110
 k-point  33 :  -0.4545 0.3636-0.0000  plane waves:     108
 k-point  34 :  -0.3636 0.3636-0.0000  plane waves:     110
 k-point  35 :   0.4545 0.4545 0.0000  plane waves:     112
 k-point  36 :  -0.4545 0.4545 0.0000  plane waves:     114
 k-point  37 :   0.2727 0.1818 0.0909  plane waves:     115
 k-point  38 :   0.3636 0.1818 0.0909  plane waves:     111
 k-point  39 :   0.4545 0.1818 0.0909  plane waves:     110
 k-point  40 :  -0.4545 0.1818 0.0909  plane waves:     109
 k-point  41 :   0.3636 0.2727 0.0909  plane waves:     114
 k-point  42 :   0.4545 0.2727 0.0909  plane waves:     114
 k-point  43 :  -0.4545 0.2727 0.0909  plane waves:     113
 k-point  44 :  -0.3636 0.2727 0.0909  plane waves:     111
 k-point  45 :  -0.2727 0.2727 0.0909  plane waves:     112
 k-point  46 :  -0.1818 0.2727 0.0909  plane waves:     110
 k-point  47 :   0.4545 0.3636 0.0909  plane waves:     111
 k-point  48 :  -0.4545 0.3636 0.0909  plane waves:     107
 k-point  49 :  -0.3636 0.3636 0.0909  plane waves:     108
 k-point  50 :  -0.2727 0.3636 0.0909  plane waves:     109
 k-point  51 :  -0.4545 0.4545 0.0909  plane waves:     110
 k-point  52 :  -0.3636 0.4545 0.0909  plane waves:     106
 k-point  53 :  -0.4545 0.3636 0.1818  plane waves:     109
 k-point  54 :  -0.3636 0.3636 0.1818  plane waves:     110
 k-point  55 :  -0.3636 0.4545 0.1818  plane waves:     105
 k-point  56 :  -0.2727 0.4545 0.1818  plane waves:     110

 maximum and minimum number of plane-waves per node :       117      105

 maximum number of plane-waves:       117
 maximum index in each direction: 
   IXMAX=    3   IYMAX=    3   IZMAX=    3
   IXMIN=   -3   IYMIN=   -3   IZMIN=   -3


 serial   3D FFT for wavefunctions
 parallel 3D FFT for charge:
    minimum data exchange during FFTs selected (reduces bandwidth)


 total amount of memory used by VASP MPI-rank0    32061. kBytes
=======================================================================

   base      :      30000. kBytes
   nonl-proj :        969. kBytes
   fftplans  :         71. kBytes
   grid      :        238. kBytes
   one-center:         31. kBytes
   wavefun   :        752. kBytes
 
     INWAV:  cpu time      0.0000: real time      0.0000
 Broyden mixing: mesh for mixing (old mesh)
   NGX =  7   NGY =  7   NGZ =  7
  (NGX  = 20   NGY  = 20   NGZ  = 20)
  gives a total of    343 points

 initial charge density was supplied:
 charge density of overlapping atoms calculated
 number of electron      10.0000000 magnetization       1.0000000
 keeping initial charge density in first step


--------------------------------------------------------------------------------------------------------


 Maximum index for augmentation-charges          733 (set IRDMAX)


--------------------------------------------------------------------------------------------------------


 First call to EWALD:  gamma=   0.797
 Maximum number of real-space cells 3x 3x 3
 Maximum number of reciprocal cells 3x 3x 3

    FEWALD:  cpu time      0.0012: real time      0.0012


--------------------------------------- Iteration      1(   1)  ---------------------------------------


    POTLOK:  cpu time      0.0025: real time      0.0026
    SETDIJ:  cpu time      0.0037: real time      0.0037
     EDDAV:  cpu time      0.1770: real time      0.1776
 BZINTS: Fermi energy:   15.868479;   10.000000 electrons
         Band energy: 0.110555E+03;  BLOECHL correction:   -0.231651
       DOS:  cpu time      0.0064: real time      0.0064
    --------------------------------------------
      LOOP:  cpu time      0.1895: real time      0.1903

 eigenvalue-minimisations  :  2976
 total energy-change (2. order) : 0.1773500E+02  (-0.3043718E+03)
 number of electron      10.0000000 magnetization       1.0000000
 augmentation part       10.0000000 magnetization       1.0000000

 Free energy of the ion-electron system (eV)
  ---------------------------------------------------
  alpha Z        PSCENC =        46.37681830
  Ewald energy   TEWEN  =      -935.14218197
  -Hartree energ DENC   =      -246.59910865
  -exchange      EXHF   =         0.00000000
  -V(xc)+E(xc)   XCENC  =        31.74608782
  PAW double counting   =       962.83317360    -1029.67071227
  entropy T*S    EENTRO =         0.00000000
  eigenvalues    EBANDS =       110.55484413
  atomic energy  EATOM  =      1077.63607467
  Solvation  Ediel_sol  =         0.00000000
  ---------------------------------------------------
  free energy    TOTEN  =        17.73499562 eV

  energy without entropy =       17.73499562  energy(sigma->0) =       17.73499562


--------------------------------------------------------------------------------------------------------




--------------------------------------- Iteration      1(   2)  ---------------------------------------


     EDDAV:  cpu time      0.1647: real time      0.1651
 BZINTS: Fermi energy:   11.524425;   10.000000 electrons
         Band energy: 0.867920E+02;  BLOECHL correction:   -0.032009
       DOS:  cpu time      0.0062: real time      0.0062
    --------------------------------------------
      LOOP:  cpu time      0.1708: real time      0.1713

 eigenvalue-minimisations  :  2900
 total energy-change (2. order) :-0.2376286E+02  (-0.2254255E+02)
 number of electron      10.0000000 magnetization       1.0000000
 augmentation part       10.0000000 magnetization       1.0000000

 Free energy of the ion-electron system (eV)
  ---------------------------------------------------
  alpha Z        PSCENC =        46.37681830
  Ewald energy   TEWEN  =      -935.14218197
  -Hartree energ DENC   =      -246.59910865
  -exchange      EXHF   =         0.00000000
  -V(xc)+E(xc)   XCENC  =        31.74608782
  PAW double counting   =       962.83317360    -1029.67071227
  entropy T*S    EENTRO =         0.00000000
  eigenvalues    EBANDS =        86.79198873
  atomic energy  EATOM  =      1077.63607467
  Solvation  Ediel_sol  =         0.00000000
  ---------------------------------------------------
  free energy    TOTEN  =        -6.02785978 eV

  energy without entropy =       -6.02785978  energy(sigma->0) =       -6.02785978


--------------------------------------------------------------------------------------------------------




--------------------------------------- Iteration      1(   3)  ---------------------------------------


     EDDAV:  cpu time      0.1774: real time      0.1779
 BZINTS: Fermi energy:   11.479133;   10.000000 electrons
         Band energy: 0.863352E+02;  BLOECHL correction:   -0.032346
       DOS:  cpu time      0.0087: real time      0.0092
    --------------------------------------------
      LOOP:  cpu time      0.1861: real time      0.1871

 eigenvalue-minimisations  :  3108
 total energy-change (2. order) :-0.4568339E+00  (-0.4555248E+00)
 number of electron      10.0000000 magnetization       1.0000000
 augmentation part       10.0000000 magnetization       1.0000000

 Free energy of the ion-electron system (eV)
  ---------------------------------------------------
  alpha Z        PSCENC =        46.37681830
  Ewald energy   TEWEN  =      -935.14218197
  -Hartree energ DENC   =      -246.59910865
  -exchange      EXHF   =         0.00000000
  -V(xc)+E(xc)   XCENC  =        31.74608782
  PAW double counting   =       962.83317360    -1029.67071227
  entropy T*S    EENTRO =         0.00000000
  eigenvalues    EBANDS =        86.33515484
  atomic energy  EATOM  =      1077.63607467
  Solvation  Ediel_sol  =         0.00000000
  ---------------------------------------------------
  free energy    TOTEN  =        -6.48469367 eV

  energy without entropy =       -6.48469367  energy(sigma->0) =       -6.48469367


--------------------------------------------------------------------------------------------------------




--------------------------------------- Iteration      1(   4)  ---------------------------------------


     EDDAV:  cpu time      0.1933: real time      0.1938
 BZINTS: Fermi energy:   11.478907;   10.000000 electrons
         Band energy: 0.863332E+02;  BLOECHL correction:   -0.032340
       DOS:  cpu time      0.0072: real time      0.0072
    --------------------------------------------
      LOOP:  cpu time      0.2004: real time      0.2010

 eigenvalue-minimisations  :  3052
 total energy-change (2. order) :-0.1945638E-02  (-0.1945575E-02)
 number of electron      10.0000000 magnetization       1.0000000
 augmentation part       10.0000000 magnetization       1.0000000

 Free energy of the ion-electron system (eV)
  ---------------------------------------------------
  alpha Z        PSCENC =        46.37681830
  Ewald energy   TEWEN  =      -935.14218197
  -Hartree energ DENC   =      -246.59910865
  -exchange      EXHF   =         0.00000000
  -V(xc)+E(xc)   XCENC  =        31.74608782
  PAW double counting   =       962.83317360    -1029.67071227
  entropy T*S    EENTRO =         0.00000000
  eigenvalues    EBANDS =        86.33320920
  atomic energy  EATOM  =      1077.63607467
  Solvation  Ediel_sol  =         0.00000000
  ---------------------------------------------------
  free energy    TOTEN  =        -6.48663931 eV

  energy without entropy =       -6.48663931  energy(sigma->0) =       -6.48663931


--------------------------------------------------------------------------------------------------------




--------------------------------------- Iteration      1(   5)  ---------------------------------------


     EDDAV:  cpu time      0.1920: real time      0.1925
 BZINTS: Fermi energy:   11.478904;   10.000000 electrons
         Band energy: 0.863332E+02;  BLOECHL correction:   -0.032339
       DOS:  cpu time      0.0069: real time      0.0069
    CHARGE:  cpu time      0.0036: real time      0.0036
    MIXING:  cpu time      0.0003: real time      0.0003
    --------------------------------------------
      LOOP:  cpu time      0.2027: real time      0.2032

 eigenvalue-minimisations  :  3076
 total energy-change (2. order) :-0.2316688E-04  (-0.2323844E-04)
 number of electron       9.9999921 magnetization       0.6871590
 augmentation part        5.6081455 magnetization       0.5728875

 Broyden mixing:
  rms(total) = 0.97320E+00    rms(broyden)= 0.97293E+00
  rms(prec ) = 0.32159E+01
  weight for this iteration     100.00

 Free energy of the ion-electron system (eV)
  ---------------------------------------------------
  alpha Z        PSCENC =        46.37681830
  Ewald energy   TEWEN  =      -935.14218197
  -Hartree energ DENC   =      -246.59910865
  -exchange      EXHF   =         0.00000000
  -V(xc)+E(xc)   XCENC  =        31.74608782
  PAW double counting   =       962.83317360    -1029.67071227
  entropy T*S    EENTRO =         0.00000000
  eigenvalues    EBANDS =        86.33318603
  atomic energy  EATOM  =      1077.63607467
  Solvation  Ediel_sol  =         0.00000000
  ---------------------------------------------------
  free energy    TOTEN  =        -6.48666247 eV

  energy without entropy =       -6.48666247  energy(sigma->0) =       -6.48666247


--------------------------------------------------------------------------------------------------------




--------------------------------------- Iteration      1(   6)  ---------------------------------------


    POTLOK:  cpu time      0.0025: real time      0.0025
    SETDIJ:  cpu time      0.0036: real time      0.0036
     EDDAV:  cpu time      0.2029: real time      0.2034
 BZINTS: Fermi energy:    8.040682;   10.000000 electrons
         Band energy: 0.595140E+02;  BLOECHL correction:   -0.033066
       DOS:  cpu time      0.0069: real time      0.0069
    CHARGE:  cpu time      0.0032: real time      0.0032
    MIXING:  cpu time      0.0003: real time      0.0003
    --------------------------------------------
      LOOP:  cpu time      0.2194: real time      0.2200

 eigenvalue-minimisations  :  3304
 total energy-change (2. order) : 0.6839501E+00  (-0.1447968E+01)
 number of electron       9.9999901 magnetization       0.5396112
 augmentation part        6.4848027 magnetization       0.5429488

 Broyden mixing:
  rms(total) = 0.58497E+00    rms(broyden)= 0.58491E+00
  rms(prec ) = 0.15052E+01
  weight for this iteration     100.00

 eigenvalues of (default mixing * dielectric matrix)
  average eigenvalue GAMMA=   0.6763
  0.6763

 Free energy of the ion-electron system (eV)
  ---------------------------------------------------
  alpha Z        PSCENC =        46.37681830
  Ewald energy   TEWEN  =      -935.14218197
  -Hartree energ DENC   =      -222.26232667
  -exchange      EXHF   =         0.00000000
  -V(xc)+E(xc)   XCENC  =        30.49046220
  PAW double counting   =      1022.94739898    -1085.36291475
  entropy T*S    EENTRO =         0.00000000
  eigenvalues    EBANDS =        59.51395688
  atomic energy  EATOM  =      1077.63607467
  Solvation  Ediel_sol  =         0.00000000
  ---------------------------------------------------
  free energy    TOTEN  =        -5.80271236 eV

  energy without entropy =       -5.80271236  energy(sigma->0) =       -5.80271236


--------------------------------------------------------------------------------------------------------




--------------------------------------- Iteration      1(   7)  ---------------------------------------


    POTLOK:  cpu time      0.0026: real time      0.0026
    SETDIJ:  cpu time      0.0036: real time      0.0036
     EDDAV:  cpu time      0.2026: real time      0.2031
 BZINTS: Fermi energy:    9.361868;   10.000000 electrons
         Band energy: 0.707267E+02;  BLOECHL correction:   -0.033701
       DOS:  cpu time      0.0067: real time      0.0067
    CHARGE:  cpu time      0.0032: real time      0.0032
    MIXING:  cpu time      0.0002: real time      0.0002
    --------------------------------------------
      LOOP:  cpu time      0.2189: real time      0.2195

 eigenvalue-minimisations  :  3280
 total energy-change (2. order) : 0.3260770E+00  (-0.2581325E+00)
 number of electron       9.9999910 magnetization       0.6155050
 augmentation part        6.1250462 magnetization       0.5955474

 Broyden mixing:
  rms(total) = 0.17696E+00    rms(broyden)= 0.17692E+00
  rms(prec ) = 0.37304E+00
  weight for this iteration     100.00

 eigenvalues of (default mixing * dielectric matrix)
  average eigenvalue GAMMA=   0.8925
  1.1858  0.5993

 Free energy of the ion-electron system (eV)
  ---------------------------------------------------
  alpha Z        PSCENC =        46.37681830
  Ewald energy   TEWEN  =      -935.14218197
  -Hartree energ DENC   =      -229.71103421
  -exchange      EXHF   =         0.00000000
  -V(xc)+E(xc)   XCENC  =        30.84548620
  PAW double counting   =      1056.42399099    -1122.63247697
  entropy T*S    EENTRO =         0.00000000
  eigenvalues    EBANDS =        70.72668765
  atomic energy  EATOM  =      1077.63607467
  Solvation  Ediel_sol  =         0.00000000
  ---------------------------------------------------
  free energy    TOTEN  =        -5.47663533 eV

  energy without entropy =       -5.47663533  energy(sigma->0) =       -5.47663533


--------------------------------------------------------------------------------------------------------




--------------------------------------- Iteration      1(   8)  ---------------------------------------


    POTLOK:  cpu time      0.0025: real time      0.0026
    SETDIJ:  cpu time      0.0036: real time      0.0036
     EDDAV:  cpu time      0.2126: real time      0.2153
 BZINTS: Fermi energy:    9.269965;   10.000000 electrons
         Band energy: 0.698548E+02;  BLOECHL correction:   -0.033920
       DOS:  cpu time      0.0065: real time      0.0065
    CHARGE:  cpu time      0.0032: real time      0.0032
    MIXING:  cpu time      0.0003: real time      0.0003
    --------------------------------------------
      LOOP:  cpu time      0.2288: real time      0.2315

 eigenvalue-minimisations  :  3352
 total energy-change (2. order) : 0.1426932E-01  (-0.1720685E-02)
 number of electron       9.9999909 magnetization       0.5978674
 augmentation part        6.1508303 magnetization       0.5730581

 Broyden mixing:
  rms(total) = 0.87868E-01    rms(broyden)= 0.87864E-01
  rms(prec ) = 0.15126E+00
  weight for this iteration     100.00

 eigenvalues of (default mixing * dielectric matrix)
  average eigenvalue GAMMA=   1.0076
  1.7822  0.6202  0.6202

 Free energy of the ion-electron system (eV)
  ---------------------------------------------------
  alpha Z        PSCENC =        46.37681830
  Ewald energy   TEWEN  =      -935.14218197
  -Hartree energ DENC   =      -227.43135499
  -exchange      EXHF   =         0.00000000
  -V(xc)+E(xc)   XCENC  =        30.74838315
  PAW double counting   =      1098.62463972    -1166.12957225
  entropy T*S    EENTRO =         0.00000000
  eigenvalues    EBANDS =        69.85482736
  atomic energy  EATOM  =      1077.63607467
  Solvation  Ediel_sol  =         0.00000000
  ---------------------------------------------------
  free energy    TOTEN  =        -5.46236601 eV

  energy without entropy =       -5.46236601  energy(sigma->0) =       -5.46236601


--------------------------------------------------------------------------------------------------------




--------------------------------------- Iteration      1(   9)  ---------------------------------------


    POTLOK:  cpu time      0.0026: real time      0.0027
    SETDIJ:  cpu time      0.0036: real time      0.0036
     EDDAV:  cpu time      0.1873: real time      0.1877
 BZINTS: Fermi energy:    9.237675;   10.000000 electrons
         Band energy: 0.695868E+02;  BLOECHL correction:   -0.034029
       DOS:  cpu time      0.0070: real time      0.0070
    CHARGE:  cpu time      0.0032: real time      0.0032
    MIXING:  cpu time      0.0002: real time      0.0002
    --------------------------------------------
      LOOP:  cpu time      0.2038: real time      0.2044

 eigenvalue-minimisations  :  2976
 total energy-change (2. order) : 0.2394024E-02  (-0.1665653E-03)
 number of electron       9.9999909 magnetization       0.5880134
 augmentation part        6.1591973 magnetization       0.5658629

 Broyden mixing:
  rms(total) = 0.24961E-01    rms(broyden)= 0.24960E-01
  rms(prec ) = 0.56613E-01
  weight for this iteration     100.00

 eigenvalues of (default mixing * dielectric matrix)
  average eigenvalue GAMMA=   1.0933
  2.2285  0.8865  0.6592  0.5991

 Free energy of the ion-electron system (eV)
  ---------------------------------------------------
  alpha Z        PSCENC =        46.37681830
  Ewald energy   TEWEN  =      -935.14218197
  -Hartree energ DENC   =      -226.58047063
  -exchange      EXHF   =         0.00000000
  -V(xc)+E(xc)   XCENC  =        30.70654745
  PAW double counting   =      1116.70020481    -1184.74375777
  entropy T*S    EENTRO =         0.00000000
  eigenvalues    EBANDS =        69.58679316
  atomic energy  EATOM  =      1077.63607467
  Solvation  Ediel_sol  =         0.00000000
  ---------------------------------------------------
  free energy    TOTEN  =        -5.45997198 eV

  energy without entropy =       -5.45997198  energy(sigma->0) =       -5.45997198


--------------------------------------------------------------------------------------------------------




--------------------------------------- Iteration      1(  10)  ---------------------------------------


    POTLOK:  cpu time      0.0025: real time      0.0026
    SETDIJ:  cpu time      0.0036: real time      0.0036
     EDDAV:  cpu time      0.1478: real time      0.1482
 BZINTS: Fermi energy:    9.216446;   10.000000 electrons
         Band energy: 0.694281E+02;  BLOECHL correction:   -0.034069
       DOS:  cpu time      0.0071: real time      0.0071
    CHARGE:  cpu time      0.0035: real time      0.0035
    MIXING:  cpu time      0.0003: real time      0.0003
    --------------------------------------------
      LOOP:  cpu time      0.1648: real time      0.1653

 eigenvalue-minimisations  :  2020
 total energy-change (2. order) : 0.6011449E-03  (-0.6475631E-04)
 number of electron       9.9999909 magnetization       0.5900064
 augmentation part        6.1652084 magnetization       0.5706331

 Broyden mixing:
  rms(total) = 0.24463E-02    rms(broyden)= 0.24452E-02
  rms(prec ) = 0.42716E-02
  weight for this iteration     100.00

 eigenvalues of (default mixing * dielectric matrix)
  average eigenvalue GAMMA=   1.1579
  2.4087  1.2560  0.8696  0.6479  0.6071

 Free energy of the ion-electron system (eV)
  ---------------------------------------------------
  alpha Z        PSCENC =        46.37681830
  Ewald energy   TEWEN  =      -935.14218197
  -Hartree energ DENC   =      -226.03061284
  -exchange      EXHF   =         0.00000000
  -V(xc)+E(xc)   XCENC  =        30.68114731
  PAW double counting   =      1129.79209516    -1198.20084572
  entropy T*S    EENTRO =         0.00000000
  eigenvalues    EBANDS =        69.42813426
  atomic energy  EATOM  =      1077.63607467
  Solvation  Ediel_sol  =         0.00000000
  ---------------------------------------------------
  free energy    TOTEN  =        -5.45937084 eV

  energy without entropy =       -5.45937084  energy(sigma->0) =       -5.45937084


--------------------------------------------------------------------------------------------------------




--------------------------------------- Iteration      1(  11)  ---------------------------------------


    POTLOK:  cpu time      0.0026: real time      0.0027
    SETDIJ:  cpu time      0.0040: real time      0.0040
     EDDAV:  cpu time      0.1219: real time      0.1222
 BZINTS: Fermi energy:    9.219373;   10.000000 electrons
         Band energy: 0.694386E+02;  BLOECHL correction:   -0.034091
       DOS:  cpu time      0.0068: real time      0.0068
    --------------------------------------------
      LOOP:  cpu time      0.1353: real time      0.1357

 eigenvalue-minimisations  :  1464
 total energy-change (2. order) :-0.1000834E-04  (-0.3546387E-05)
 number of electron       9.9999909 magnetization       0.5900064
 augmentation part        6.1652084 magnetization       0.5706331

 Free energy of the ion-electron system (eV)
  ---------------------------------------------------
  alpha Z        PSCENC =        46.37681830
  Ewald energy   TEWEN  =      -935.14218197
  -Hartree energ DENC   =      -225.97758114
  -exchange      EXHF   =         0.00000000
  -V(xc)+E(xc)   XCENC  =        30.67961356
  PAW double counting   =      1133.02507961    -1201.49583042
  entropy T*S    EENTRO =         0.00000000
  eigenvalues    EBANDS =        69.43862654
  atomic energy  EATOM  =      1077.63607467
  Solvation  Ediel_sol  =         0.00000000
  ---------------------------------------------------
  free energy    TOTEN  =        -5.45938084 eV

  energy without entropy =       -5.45938084  energy(sigma->0) =       -5.45938084


--------------------------------------------------------------------------------------------------------




 average (electrostatic) potential at core
  the test charge radii are     0.9791
  (the norm of the test charge is              1.0000)
       1 -82.1400
 
 
 
 E-fermi :   9.2194     XC(G=0): -13.1916     alpha+bet :-16.2879

 Fermi energy:         9.2193729653

 spin component 1

 k-point     1 :       0.0000    0.0000    0.0000
  band No.  band energies     occupation 
      1       0.2952      1.00000
      2       6.8407      1.00000
      3       6.8407      1.00000
      4       6.8407      1.00000
      5       7.9897      1.00000
      6       7.9897      1.00000
      7      32.8977      0.00000
      8      36.6579      0.00000
      9      36.6581      0.00000
     10      36.6581      0.00000
     11      39.7236      0.00000
     12      39.7237      0.00000

 k-point     2 :       0.0909    0.0000    0.0000
  band No.  band energies     occupation 
      1       0.6145      1.00000
      2       6.7636      1.00000
      3       6.9089      1.00000
      4       6.9089      1.00000
      5       7.9634      1.00000
      6       7.9634      1.00000
      7      31.4908      0.00000
      8      34.2484      0.00000
      9      36.0145      0.00000
     10      36.0148      0.00000
     11      40.7103      0.00000
     12      40.7104      0.00000

 k-point     3 :       0.1818    0.0000    0.0000
  band No.  band energies     occupation 
      1       1.5312      1.00000
      2       6.5903      1.00000
      3       7.0389      1.00000
      4       7.0389      1.00000
      5       7.9535      1.00000
      6       7.9535      1.00000
      7      27.0269      0.00000
      8      33.5219      0.00000
      9      35.0745      0.00000
     10      35.0747      0.00000
     11      40.7643      0.00000
     12      41.4438      0.00000

 k-point     4 :       0.2727   -0.0000   -0.0000
  band No.  band energies     occupation 
      1       2.8609      1.00000
      2       6.5511      1.00000
      3       7.0505      1.00000
      4       7.0506      1.00000
      5       8.1194      1.00000
      6       8.1195      1.00000
      7      22.4672      0.00000
      8      32.7668      0.00000
      9      34.3609      0.00000
     10      34.3611      0.00000
     11      39.6344      0.00000
     12      39.6345      0.00000

 k-point     5 :       0.3636    0.0000    0.0000
  band No.  band energies     occupation 
      1       4.0202      1.00000
      2       6.9504      1.00000
      3       6.9505      1.00000
      4       7.1845      1.00000
      5       8.4062      1.00000
      6       8.4063      1.08194
      7      18.3719      0.00000
      8      31.9494      0.00000
      9      33.9368      0.00000
     10      33.9368      0.00000
     11      37.8281      0.00000
     12      37.8285      0.00000

 k-point     6 :       0.4545   -0.0000    0.0000
  band No.  band energies     occupation 
      1       4.4304      1.00000
      2       6.8706      1.00000
      3       6.8707      1.00000
      4       8.6129      1.00000
      5       8.6130      1.00000
      6       8.6189      0.81004
      7      15.3546      0.00000
      8      31.4542      0.00000
      9      33.7505      0.00000
     10      33.7508      0.00000
     11      36.8988      0.00000
     12      36.8995      0.00000

 k-point     7 :       0.0909    0.0909    0.0000
  band No.  band energies     occupation 
      1       0.7203      1.00000
      2       6.6932      1.00000
      3       6.9596      1.00000
      4       6.9596      1.00000
      5       7.8557      1.00000
      6       8.0438      1.00000
      7      32.0960      0.00000
      8      34.0939      0.00000
      9      34.0940      0.00000
     10      34.9816      0.00000
     11      41.4563      0.00000
     12      42.2399      0.00000

 k-point     8 :       0.1818    0.0909    0.0000
  band No.  band energies     occupation 
      1       1.4371      1.00000
      2       6.5169      1.00000
      3       7.0917      1.00000
      4       7.1012      1.00000
      5       7.7551      1.00000
      6       8.0958      1.00000
      7      28.8040      0.00000
      8      32.5544      0.00000
      9      32.6018      0.00000
     10      36.0099      0.00000
     11      39.5042      0.00000
     12      41.8693      0.00000

 k-point     9 :       0.2727    0.0909   -0.0000
  band No.  band energies     occupation 
      1       2.6444      1.00000
      2       6.3732      1.00000
      3       7.0783      1.00000
      4       7.1756      1.00000
      5       7.9359      1.00000
      6       8.2386      1.00000
      7      24.1670      0.00000
      8      31.6206      0.00000
      9      31.8303      0.00000
     10      35.7380      0.00000
     11      38.9512      0.00000
     12      41.6192      0.00000

 k-point    10 :       0.3636    0.0909   -0.0000
  band No.  band energies     occupation 
      1       3.9272      1.00000
      2       6.5690      1.00000
      3       6.9096      1.00000
      4       7.1124      1.00000
      5       8.4766      1.00000
      6       8.4870      1.05741
      7      19.8570      0.00000
      8      31.0374      0.00000
      9      31.1858      0.00000
     10      33.8366      0.00000
     11      39.2834      0.00000
     12      41.1118      0.00000

 k-point    11 :       0.4545    0.0909    0.0000
  band No.  band energies     occupation 
      1       4.5470      1.00000
      2       6.7575      1.00000
      3       7.0136      1.00000
      4       7.3450      1.00000
      5       8.6378      1.00000
      6       9.4763      0.14646
      7      16.2956      0.00000
      8      30.1838      0.00000
      9      31.3762      0.00000
     10      32.5937      0.00000
     11      39.1349      0.00000
     12      39.5787      0.00000

 k-point    12 :      -0.4545    0.0909   -0.0000
  band No.  band energies     occupation 
      1       4.6400      1.00000
      2       6.7343      1.00000
      3       6.9719      1.00000
      4       7.6850      1.00000
      5       8.5986      1.00000
      6      10.1767     -0.04859
      7      14.9577      0.00000
      8      29.4074      0.00000
      9      32.2795      0.00000
     10      32.3135      0.00000
     11      38.5267      0.00000
     12      39.2357      0.00000

 k-point    13 :      -0.3636    0.0909   -0.0000
  band No.  band energies     occupation 
      1       4.4341      1.00000
      2       6.8215      1.00000
      3       7.0218      1.00000
      4       7.1462      1.00000
      5       8.3458      1.00000
      6       9.2543      0.37035
      7      17.3646      0.00000
      8      28.9866      0.00000
      9      32.8680      0.00000
     10      33.9180      0.00000
     11      37.9709      0.00000
     12      39.3689      0.00000

 k-point    14 :      -0.2727    0.0909    0.0000
  band No.  band energies     occupation 
      1       3.5469      1.00000
      2       6.4815      1.00000
      3       6.9720      1.00000
      4       7.1354      1.00000
      5       7.9905      1.00000
      6       8.6180      1.04717
      7      21.2439      0.00000
      8      29.0599      0.00000
      9      34.0858      0.00000
     10      36.2413      0.00000
     11      37.8359      0.00000
     12      39.0476      0.00000

 k-point    15 :      -0.1818    0.0909    0.0000
  band No.  band energies     occupation 
      1       2.2043      1.00000
      2       6.4449      1.00000
      3       7.0731      1.00000
      4       7.1664      1.00000
      5       7.7631      1.00000
      6       8.2339      1.00000
      7      25.6873      0.00000
      8      29.6158      0.00000
      9      35.5497      0.00000
     10      37.9855      0.00000
     11      38.2603      0.00000
     12      39.0690      0.00000

 k-point    16 :      -0.0909    0.0909   -0.0000
  band No.  band energies     occupation 
      1       1.1339      1.00000
      2       6.6250      1.00000
      3       7.0105      1.00000
      4       7.0199      1.00000
      5       7.8287      1.00000
      6       8.0458      1.00000
      7      29.9592      0.00000
      8      31.0559      0.00000
      9      35.6248      0.00000
     10      37.8408      0.00000
     11      39.0238      0.00000
     12      40.0811      0.00000

 k-point    17 :       0.1818    0.1818    0.0000
  band No.  band energies     occupation 
      1       1.9281      1.00000
      2       6.3057      1.00000
      3       7.2984      1.00000
      4       7.2984      1.00000
      5       7.5435      1.00000
      6       8.1903      1.00000
      7      30.6840      0.00000
      8      30.6841      0.00000
      9      30.8153      0.00000
     10      32.1762      0.00000
     11      37.2902      0.00000
     12      45.4398      0.00000

 k-point    18 :       0.2727    0.1818   -0.0000
  band No.  band energies     occupation 
      1       2.9154      1.00000
      2       6.0876      1.00000
      3       7.1796      1.00000
      4       7.4687      1.00000
      5       7.8320      1.00000
      6       8.3171      1.00000
      7      26.2530      0.00000
      8      29.3535      0.00000
      9      30.4190      0.00000
     10      32.2614      0.00000
     11      36.4833      0.00000
     12      44.8870      0.00000

 k-point    19 :       0.3636    0.1818    0.0000
  band No.  band energies     occupation 
      1       4.1131      1.00000
      2       6.0113      1.00000
      3       6.8955      1.00000
      4       7.4727      1.00000
      5       8.5284      1.00000
      6       8.6556      0.90693
      7      21.8179      0.00000
      8      28.6805      0.00000
      9      28.7520      0.00000
     10      31.8035      0.00000
     11      39.1205      0.00000
     12      43.9296      0.00000

 k-point    20 :       0.4545    0.1818    0.0000
  band No.  band energies     occupation 
      1       4.8829      1.00000
      2       6.2246      1.00000
      3       6.7827      1.00000
      4       7.3811      1.00000
      5       8.6707      1.00000
      6      10.0837     -0.03610
      7      17.8655      0.00000
      8      27.0205      0.00000
      9      28.7459      0.00000
     10      31.4519      0.00000
     11      42.4505      0.00000
     12      43.2127      0.00000

 k-point    21 :      -0.4545    0.1818   -0.0000
  band No.  band energies     occupation 
      1       5.0837      1.00000
      2       6.3462      1.00000
      3       6.9644      1.00000
      4       7.3033      1.00000
      5       8.6041      1.00000
      6      11.7816      0.00000
      7      15.1850      0.00000
      8      25.6554      0.00000
      9      29.5944      0.00000
     10      31.5412      0.00000
     11      41.9990      0.00000
     12      42.2963      0.00000

 k-point    22 :      -0.3636    0.1818    0.0000
  band No.  band energies     occupation 
      1       5.0549      1.00000
      2       6.4757      1.00000
      3       6.7813      1.00000
      4       7.2981      1.00000
      5       8.3195      1.00000
      6      10.8796      0.00000
      7      16.7785      0.00000
      8      24.8264      0.00000
      9      31.1968      0.00000
     10      32.1620      0.00000
     11      41.2685      0.00000
     12      41.5326      0.00000

 k-point    23 :      -0.2727    0.1818    0.0000
  band No.  band energies     occupation 
      1       4.5397      1.00000
      2       6.3070      1.00000
      3       6.7126      1.00000
      4       7.3825      1.00000
      5       7.9020      1.00000
      6       9.5345      0.10874
      7      20.4773      0.00000
      8      24.5973      0.00000
      9      33.3781      0.00000
     10      33.4288      0.00000
     11      40.1262      0.00000
     12      41.0524      0.00000

 k-point    24 :      -0.1818    0.1818   -0.0000
  band No.  band energies     occupation 
      1       3.3414      1.00000
      2       6.2620      1.00000
      3       6.9565      1.00000
      4       7.4556      1.00000
      5       7.5797      1.00000
      6       8.7360      0.99817
      7      24.4625      0.00000
      8      25.2686      0.00000
      9      35.1350      0.00000
     10      36.1420      0.00000
     11      38.2209      0.00000
     12      41.3043      0.00000

 k-point    25 :       0.2727    0.2727   -0.0000
  band No.  band energies     occupation 
      1       3.5725      1.00000
      2       5.8150      1.00000
      3       7.4521      1.00000
      4       7.8078      1.00000
      5       7.8078      1.00000
      6       8.3856      1.00000
      7      27.6823      0.00000
      8      27.6824      0.00000
      9      28.0863      0.00000
     10      29.8157      0.00000
     11      33.8989      0.00000
     12      49.1716      0.00000

 k-point    26 :       0.3636    0.2727    0.0000
  band No.  band energies     occupation 
      1       4.3692      1.00000
      2       5.6345      1.00000
      3       7.3475      1.00000
      4       7.9452      1.00000
      5       8.5480      1.00000
      6       8.6649      0.84788
      7      24.0722      0.00000
      8      25.8600      0.00000
      9      26.6985      0.00000
     10      30.5491      0.00000
     11      34.6821      0.00000
     12      48.8415      0.00000

 k-point    27 :       0.4545    0.2727    0.0000
  band No.  band energies     occupation 
      1       4.9902      1.00000
      2       5.6354      1.00000
      3       7.1167      1.00000
      4       7.8898      1.00000
      5       8.6966      1.00000
      6      10.3989     -0.04107
      7      20.0511      0.00000
      8      23.7995      0.00000
      9      26.5264      0.00000
     10      30.7452      0.00000
     11      38.0200      0.00000
     12      47.1660      0.00000

 k-point    28 :      -0.4545    0.2727   -0.0000
  band No.  band energies     occupation 
      1       5.3402      1.00000
      2       5.7995      1.00000
      3       6.9042      1.00000
      4       7.7867      1.00000
      5       8.6306      1.00000
      6      12.8002      0.00000
      7      16.5326      0.00000
      8      22.2003      0.00000
      9      27.2108      0.00000
     10      30.9031      0.00000
     11      42.2995      0.00000
     12      45.7180      0.00000

 k-point    29 :      -0.3636    0.2727    0.0000
  band No.  band energies     occupation 
      1       5.5560      1.00000
      2       6.0112      1.00000
      3       6.6188      1.00000
      4       7.7019      1.00000
      5       8.3504      1.00000
      6      13.0424      0.00000
      7      16.4386      0.00000
      8      21.1876      0.00000
      9      28.6888      0.00000
     10      31.3641      0.00000
     11      44.6454      0.00000
     12      44.6923      0.00000

 k-point    30 :      -0.2727    0.2727    0.0000
  band No.  band energies     occupation 
      1       5.4031      1.00000
      2       6.2772      1.00000
      3       6.3425      1.00000
      4       7.6202      1.00000
      5       8.0083      1.00000
      6      10.9756      0.00000
      7      19.5184      0.00000
      8      21.2469      0.00000
      9      30.8235      0.00000
     10      32.2254      0.00000
     11      42.5479      0.00000
     12      43.6331      0.00000

 k-point    31 :       0.3636    0.3636    0.0000
  band No.  band energies     occupation 
      1       4.5635      1.00000
      2       5.3856      1.00000
      3       8.3479      1.00000
      4       8.3479      1.00000
      5       8.5636      1.00000
      6       8.7104      0.61783
      7      23.1483      0.00000
      8      25.3889      0.00000
      9      25.3890      0.00000
     10      29.2002      0.00000
     11      32.6954      0.00000
     12      53.1253      0.00000

 k-point    32 :       0.4545    0.3636    0.0000
  band No.  band energies     occupation 
      1       4.7755      1.00000
      2       5.2994      1.00000
      3       8.0731      1.00000
      4       8.3893      1.00000
      5       8.7056      1.00000
      6      10.5548     -0.03264
      7      21.0098      0.00000
      8      22.6499      0.00000
      9      24.9182      0.00000
     10      29.9529      0.00000
     11      33.9117      0.00000
     12      51.1538      0.00000

 k-point    33 :      -0.4545    0.3636   -0.0000
  band No.  band energies     occupation 
      1       5.0613      1.00000
      2       5.4036      1.00000
      3       7.5806      1.00000
      4       8.2827      1.00000
      5       8.6737      1.00000
      6      12.9695      0.00000
      7      18.8710      0.00000
      8      19.7214      0.00000
      9      25.3702      0.00000
     10      30.4026      0.00000
     11      37.5139      0.00000
     12      49.2846      0.00000

 k-point    34 :      -0.3636    0.3636   -0.0000
  band No.  band energies     occupation 
      1       5.4156      1.00000
      2       5.6487      1.00000
      3       7.0114      1.00000
      4       8.0764      1.00000
      5       8.4764      1.00000
      6      15.3697      0.00000
      7      15.7453      0.00000
      8      19.2150      0.00000
      9      26.6847      0.00000
     10      30.7690      0.00000
     11      42.1393      0.00000
     12      47.3015      0.00000

 k-point    35 :       0.4545    0.4545    0.0000
  band No.  band energies     occupation 
      1       4.6604      1.00000
      2       5.1389      1.00000
      3       8.6713      1.00000
      4       8.7186      1.00000
      5       8.7186      1.00000
      6      11.1117     -0.00500
      7      19.1202      0.00000
      8      24.1244      0.00000
      9      24.1245      0.00000
     10      28.9219      0.00000
     11      32.3339      0.00000
     12      53.5148      0.00000

 k-point    36 :      -0.4545    0.4545    0.0000
  band No.  band energies     occupation 
      1       4.7619      1.00000
      2       5.1755      1.00000
      3       8.3696      1.00000
      4       8.5973      1.00000
      5       8.7354      1.00000
      6      12.2898      0.00000
      7      18.4186      0.00000
      8      22.0687      0.00000
      9      24.2829      0.00000
     10      29.7561      0.00000
     11      33.7013      0.00000
     12      52.1574      0.00000

 k-point    37 :       0.2727    0.1818    0.0909
  band No.  band energies     occupation 
      1       2.3043      1.00000
      2       6.3142      1.00000
      3       7.1160      1.00000
      4       7.3102      1.00000
      5       7.6861      1.00000
      6       8.2711      1.00000
      7      27.3534      0.00000
      8      28.0695      0.00000
      9      34.1505      0.00000
     10      34.6275      0.00000
     11      38.6053      0.00000
     12      41.7931      0.00000

 k-point    38 :       0.3636    0.1818    0.0909
  band No.  band energies     occupation 
      1       3.5502      1.00000
      2       6.1895      1.00000
      3       6.9224      1.00000
      4       7.4025      1.00000
      5       7.9120      1.00000
      6       8.6928      1.00148
      7      23.0872      0.00000
      8      27.0466      0.00000
      9      32.0660      0.00000
     10      35.1430      0.00000
     11      39.1891      0.00000
     12      40.9576      0.00000

 k-point    39 :       0.4545    0.1818    0.0909
  band No.  band energies     occupation 
      1       4.6065      1.00000
      2       6.4145      1.00000
      3       6.7072      1.00000
      4       7.3087      1.00000
      5       8.3283      1.00000
      6       9.5174      0.14079
      7      18.9436      0.00000
      8      26.8524      0.00000
      9      30.1066      0.00000
     10      34.4675      0.00000
     11      39.0292      0.00000
     12      42.6034      0.00000

 k-point    40 :      -0.4545    0.1818    0.0909
  band No.  band energies     occupation 
      1       4.9406      1.00000
      2       6.4923      1.00000
      3       7.0149      1.00000
      4       7.2228      1.00000
      5       8.5592      1.00000
      6      10.9693      0.00000
      7      15.6831      0.00000
      8      27.1612      0.00000
      9      28.6521      0.00000
     10      33.9273      0.00000
     11      38.7167      0.00000
     12      43.1031      0.00000

 k-point    41 :       0.3636    0.2727    0.0909
  band No.  band energies     occupation 
      1       3.8847      1.00000
      2       5.8869      1.00000
      3       6.9985      1.00000
      4       7.8051      1.00000
      5       8.0059      1.00000
      6       8.6816      0.97053
      7      25.0459      0.00000
      8      25.5895      0.00000
      9      28.8410      0.00000
     10      32.9968      0.00000
     11      36.1654      0.00000
     12      44.5309      0.00000

 k-point    42 :       0.4545    0.2727    0.0909
  band No.  band energies     occupation 
      1       4.8371      1.00000
      2       5.8469      1.00000
      3       6.7447      1.00000
      4       7.8014      1.00000
      5       8.3795      1.00000
      6       9.7135      0.05428
      7      21.0223      0.00000
      8      24.9500      0.00000
      9      26.6675      0.00000
     10      33.6053      0.00000
     11      38.4490      0.00000
     12      43.1996      0.00000

 k-point    43 :      -0.4545    0.2727    0.0909
  band No.  band energies     occupation 
      1       5.3072      1.00000
      2       5.9982      1.00000
      3       6.6529      1.00000
      4       7.6658      1.00000
      5       8.5783      1.00000
      6      11.6035      0.00000
      7      17.2686      0.00000
      8      24.5663      0.00000
      9      25.5444      0.00000
     10      33.7091      0.00000
     11      40.6781      0.00000
     12      43.7901      0.00000

 k-point    44 :      -0.3636    0.2727    0.0909
  band No.  band energies     occupation 
      1       5.4568      1.00000
      2       6.0657      1.00000
      3       6.6653      1.00000
      4       7.5766      1.00000
      5       8.5146      1.00000
      6      12.9850      0.00000
      7      15.4898      0.00000
      8      23.4231      0.00000
      9      26.3640      0.00000
     10      34.1651      0.00000
     11      40.2390      0.00000
     12      46.9069      0.00000

 k-point    45 :      -0.2727    0.2727    0.0909
  band No.  band energies     occupation 
      1       5.3687      1.00000
      2       6.2144      1.00000
      3       6.3786      1.00000
      4       7.6309      1.00000
      5       8.2379      1.00000
      6      11.0869      0.00000
      7      18.4497      0.00000
      8      22.7720      0.00000
      9      27.8678      0.00000
     10      35.2231      0.00000
     11      39.3019      0.00000
     12      44.9234      0.00000

 k-point    46 :      -0.1818    0.2727    0.0909
  band No.  band energies     occupation 
      1       4.6642      1.00000
      2       6.0721      1.00000
      3       6.6225      1.00000
      4       7.7416      1.00000
      5       7.8383      1.00000
      6       9.5940      0.08061
      7      22.0634      0.00000
      8      23.1022      0.00000
      9      29.8552      0.00000
     10      36.8739      0.00000
     11      37.6271      0.00000
     12      42.4218      0.00000

 k-point    47 :       0.4545    0.3636    0.0909
  band No.  band energies     occupation 
      1       4.8206      1.00000
      2       5.5019      1.00000
      3       7.3659      1.00000
      4       8.3455      1.00000
      5       8.4226      1.00000
      6       9.8786      0.02359
      7      23.2009      0.00000
      8      23.2336      0.00000
      9      24.1258      0.00000
     10      31.9056      0.00000
     11      34.9940      0.00000
     12      47.2302      0.00000

 k-point    48 :      -0.4545    0.3636    0.0909
  band No.  band energies     occupation 
      1       5.1767      1.00000
      2       5.5573      1.00000
      3       7.1215      1.00000
      4       8.1842      1.00000
      5       8.6257      1.00000
      6      11.9623      0.00000
      7      19.6072      0.00000
      8      21.6013      0.00000
      9      23.7438      0.00000
     10      32.8337      0.00000
     11      37.8925      0.00000
     12      45.5315      0.00000

 k-point    49 :      -0.3636    0.3636    0.0909
  band No.  band energies     occupation 
      1       5.4981      1.00000
      2       5.7247      1.00000
      3       6.7915      1.00000
      4       7.9774      1.00000
      5       8.5828      1.00000
      6      14.5904      0.00000
      7      16.2855      0.00000
      8      20.2939      0.00000
      9      24.5413      0.00000
     10      33.3700      0.00000
     11      42.0872      0.00000
     12      44.0288      0.00000

 k-point    50 :      -0.2727    0.3636    0.0909
  band No.  band energies     occupation 
      1       5.7892      1.00000
      2       5.8890      1.00000
      3       6.3933      1.00000
      4       7.8396      1.00000
      5       8.3647      1.00000
      6      13.2579      0.00000
      7      17.5469      0.00000
      8      20.0704      0.00000
      9      25.9739      0.00000
     10      34.2097      0.00000
     11      41.7699      0.00000
[...]
      9      29.8957      0.00000
     10      36.8857      0.00000
     11      37.5858      0.00000
     12      42.4958      0.00000

 k-point    47 :       0.4545    0.3636    0.0909
  band No.  band energies     occupation 
      1       5.0513      1.00000
      2       6.0899      1.00000
      3       7.8892      1.00000
      4       8.9931      1.00000
      5       9.1174      0.70687
      6      10.3288     -0.01177
      7      23.2890      0.00000
      8      23.3097      0.00000
      9      24.2007      0.00000
     10      31.9410      0.00000
     11      35.0923      0.00000
     12      47.1970      0.00000

 k-point    48 :      -0.4545    0.3636    0.0909
  band No.  band energies     occupation 
      1       5.5094      1.00000
      2       6.1163      1.00000
      3       7.6722      1.00000
      4       8.7879      1.00000
      5       9.3864     -0.00640
      6      12.2559      0.00000
      7      19.7244      0.00000
      8      21.7263      0.00000
      9      23.8066      0.00000
     10      32.8650      0.00000
     11      37.9625      0.00000
     12      45.5026      0.00000

 k-point    49 :      -0.3636    0.3636    0.0909
  band No.  band energies     occupation 
      1       5.9087      1.00000
      2       6.2228      1.00000
      3       7.3586      1.00000
      4       8.5543      1.00000
      5       9.3612     -0.02651
      6      14.7896      0.00000
      7      16.4715      0.00000
      8      20.4365      0.00000
      9      24.6077      0.00000
     10      33.3918      0.00000
     11      42.1250      0.00000
     12      44.0034      0.00000

 k-point    50 :      -0.2727    0.3636    0.0909
  band No.  band energies     occupation 
      1       6.1819      1.00000
      2       6.3644      1.00000
      3       6.9631      1.00000
      4       8.3981      1.00000
      5       9.1430      0.74949
      6      13.5372      0.00000
      7      17.7177      0.00000
      8      20.2079      0.00000
      9      26.0417      0.00000
     10      34.2184      0.00000
     11      41.7186      0.00000
     12      46.1729      0.00000

 k-point    51 :      -0.4545    0.4545    0.0909
  band No.  band energies     occupation 
      1       5.2137      1.00000
      2       5.8516      1.00000
      3       8.5508      1.00355
      4       9.1140      0.97858
      5       9.5152     -0.00813
      6      12.3471      0.00000
      7      19.4809      0.00000
      8      22.2191      0.00000
      9      22.8839      0.00000
     10      31.4368      0.00000
     11      34.6577      0.00000
     12      49.5243      0.00000

 k-point    52 :      -0.3636    0.4545    0.0909
  band No.  band energies     occupation 
      1       5.4990      1.00000
      2       6.0132      1.00000
      3       7.9932      1.00000
      4       8.8711      1.00000
      5       9.5130      0.00000
      6      14.1561      0.00000
      7      18.6777      0.00000
      8      19.4652      0.00000
      9      23.2836      0.00000
     10      32.6281      0.00000
     11      37.7966      0.00000
     12      46.9834      0.00000

 k-point    53 :      -0.4545    0.3636    0.1818
  band No.  band energies     occupation 
      1       5.7039      1.00000
      2       6.4261      1.00000
      3       7.0076      1.00000
      4       8.6114      1.00000
      5       9.1162      0.79170
      6      11.7793      0.00000
      7      20.3610      0.00000
      8      21.6750      0.00000
      9      24.5933      0.00000
     10      36.4305      0.00000
     11      38.2090      0.00000
     12      42.6199      0.00000

 k-point    54 :      -0.3636    0.3636    0.1818
  band No.  band energies     occupation 
      1       6.0495      1.00000
      2       6.4585      1.00000
      3       6.9237      1.00000
      4       8.4561      1.00000
      5       9.3438      0.02874
      6      13.9985      0.00000
      7      17.2565      0.00000
      8      21.6969      0.00000
      9      22.9818      0.00000
     10      37.0022      0.00000
     11      39.2312      0.00000
     12      44.0157      0.00000

 k-point    55 :      -0.3636    0.4545    0.1818
  band No.  band energies     occupation 
      1       5.7261      1.00000
      2       6.2734      1.00000
      3       7.3997      1.00000
      4       8.6796      1.00000
      5       9.5143     -0.01338
      6      14.3609      0.00000
      7      19.3111      0.00000
      8      19.9607      0.00000
      9      21.1478      0.00000
     10      35.8368      0.00000
     11      39.0277      0.00000
     12      43.5758      0.00000

 k-point    56 :      -0.2727    0.4545    0.1818
  band No.  band energies     occupation 
      1       5.9261      1.00000
      2       6.5445      1.00000
      3       6.9911      1.00000
      4       8.5001      1.00000
      5       9.5120     -0.01148
      6      16.5584      0.00000
      7      16.5986      0.00000
      8      19.5899      0.00000
      9      21.4985      0.00000
     10      37.2898      0.00000
     11      41.0628      0.00000
     12      42.3373      0.00000


--------------------------------------------------------------------------------------------------------


 soft charge-density along one line, spin component           1
         0         1         2         3         4         5         6         7         8         9
 total charge-density along one line
 
 soft charge-density along one line, spin component           2
         0         1         2         3         4         5         6         7         8         9
 total charge-density along one line
 
 pseudopotential strength for first ion, spin component:           1
 -0.679   0.000   0.000   0.000   0.000  -1.352   0.000   0.000
  0.000  -0.679  -0.000   0.000   0.000   0.000  -1.352  -0.000
  0.000  -0.000  -0.569  -0.000  -0.000   0.000  -0.000  -1.247
  0.000   0.000  -0.000  -0.679  -0.000   0.000   0.000  -0.000
  0.000   0.000  -0.000  -0.000  -0.569   0.000   0.000  -0.000
 -1.352   0.000   0.000   0.000   0.000  -1.954   0.000   0.000
  0.000  -1.352  -0.000   0.000   0.000   0.000  -1.954  -0.000
  0.000  -0.000  -1.247  -0.000  -0.000   0.000  -0.000  -1.853
  0.000   0.000  -0.000  -1.352  -0.000   0.000   0.000  -0.000
  0.000   0.000  -0.000  -0.000  -1.247   0.000   0.000  -0.000
  0.000   0.000  -0.000   0.000  -0.000   0.000   0.000  -0.000
  0.000   0.000  -0.000   0.000  -0.000   0.000   0.000  -0.000
 -0.000  -0.000   0.000   0.000   0.000  -0.000  -0.000   0.000
  0.000  -0.000  -0.000  -0.000  -0.000   0.000  -0.000  -0.000
 -0.000   0.000   0.000  -0.000  -0.000  -0.000   0.000   0.000
 -0.000  -0.000   0.000   0.000   0.000  -0.000  -0.000   0.000
  0.000  -0.000  -0.000  -0.000  -0.000   0.000  -0.000  -0.000
 -0.000   0.000   0.000  -0.000  -0.000  -0.000   0.000   0.000
 pseudopotential strength for first ion, spin component:           2
 -0.075   0.000   0.000   0.000   0.000  -0.776   0.000   0.000
  0.000  -0.075  -0.000   0.000   0.000   0.000  -0.776  -0.000
  0.000  -0.000  -0.103  -0.000  -0.000   0.000  -0.000  -0.804
  0.000   0.000  -0.000  -0.075  -0.000   0.000   0.000  -0.000
  0.000   0.000  -0.000  -0.000  -0.103   0.000   0.000  -0.000
 -0.776   0.000   0.000   0.000   0.000  -1.405   0.000   0.000
  0.000  -0.776  -0.000   0.000   0.000   0.000  -1.405  -0.000
  0.000  -0.000  -0.804  -0.000  -0.000   0.000  -0.000  -1.432
  0.000   0.000  -0.000  -0.776  -0.000   0.000   0.000  -0.000
  0.000   0.000  -0.000  -0.000  -0.804   0.000   0.000  -0.000
  0.000   0.000  -0.000   0.000  -0.000   0.000   0.000  -0.000
  0.000   0.000  -0.000   0.000  -0.000   0.000   0.000  -0.000
 -0.000  -0.000   0.000   0.000   0.000  -0.000  -0.000   0.000
  0.000  -0.000  -0.000  -0.000  -0.000   0.000  -0.000  -0.000
 -0.000   0.000   0.000  -0.000  -0.000  -0.000   0.000   0.000
 -0.000  -0.000   0.000   0.000   0.000  -0.000  -0.000   0.000
  0.000  -0.000  -0.000  -0.000  -0.000   0.000  -0.000  -0.000
 -0.000   0.000   0.000  -0.000  -0.000  -0.000   0.000   0.000
 total augmentation occupancy for first ion, spin component:           1
  2.651  -0.000  -0.000  -0.000  -0.000  -1.162   0.000   0.000   0.000   0.000   0.000  -0.000   0.000   0.000   0.000   0.000
 -0.000   2.651  -0.000   0.000  -0.000   0.000  -1.162  -0.000   0.000   0.000   0.000   0.000   0.000   0.000   0.000   0.000
 -0.000   0.000   3.415  -0.000   0.000   0.000  -0.000  -1.495   0.000  -0.000  -0.000   0.000   0.000   0.000   0.000   0.000
 -0.000   0.000  -0.000   2.651  -0.000   0.000  -0.000   0.000  -1.162   0.000  -0.000   0.000   0.000   0.000   0.000   0.000
 -0.000  -0.000   0.000   0.000   3.415  -0.000   0.000  -0.000   0.000  -1.495   0.000  -0.000   0.000   0.000   0.000   0.000
 -1.162   0.000   0.000   0.000   0.000   1.378  -0.000  -0.000  -0.000   0.000  -0.000   0.000   0.000   0.000   0.000   0.000
  0.000  -1.162  -0.000   0.000   0.000  -0.000   1.378   0.000   0.000   0.000   0.000  -0.000   0.000   0.000   0.000   0.000
  0.000  -0.000  -1.495  -0.000  -0.000  -0.000   0.000   1.406   0.000   0.000   0.000   0.000   0.000   0.000   0.000   0.000
  0.000  -0.000  -0.000  -1.162   0.000  -0.000   0.000   0.000   1.378  -0.000   0.000   0.000   0.000   0.000   0.000   0.000
  0.000   0.000  -0.000  -0.000  -1.495   0.000   0.000   0.000   0.000   1.406  -0.000   0.000   0.000   0.000   0.000   0.000
  0.000   0.000  -0.000  -0.000   0.000  -0.000   0.000  -0.000   0.000  -0.000   2.244  -0.304   0.000   0.000   0.000   0.000
 -0.000   0.000   0.000   0.000  -0.000   0.000  -0.000  -0.000   0.000  -0.000  -0.304   0.049   0.000   0.000   0.000   0.000
  0.000   0.000   0.000   0.000   0.000   0.000   0.000   0.000   0.000   0.000   0.000   0.000   0.293  -0.000   0.000  -0.030
  0.000   0.000   0.000   0.000   0.000   0.000   0.000   0.000   0.000   0.000   0.000   0.000  -0.000   0.293  -0.000   0.000
  0.000   0.000   0.000   0.000   0.000   0.000   0.000   0.000   0.000   0.000   0.000   0.000   0.000  -0.000   0.293  -0.000
  0.000   0.000   0.000   0.000   0.000   0.000   0.000   0.000   0.000   0.000   0.000   0.000  -0.030   0.000  -0.000   0.004
  0.000   0.000   0.000   0.000   0.000   0.000   0.000   0.000   0.000   0.000   0.000   0.000   0.000  -0.030   0.000  -0.000
  0.000   0.000   0.000   0.000   0.000   0.000   0.000   0.000   0.000   0.000   0.000   0.000  -0.000   0.000  -0.030   0.000
 total augmentation occupancy for first ion, spin component:           2
  0.982  -0.000  -0.000  -0.000   0.000  -0.481   0.000   0.000   0.000  -0.000  -0.000   0.000   0.000   0.000   0.000   0.000
 -0.000   0.982   0.000   0.000   0.000   0.000  -0.481  -0.000   0.000   0.000  -0.000  -0.000   0.000   0.000   0.000   0.000
 -0.000   0.000   0.512   0.000   0.000   0.000  -0.000  -0.247   0.000  -0.000   0.000  -0.000   0.000   0.000   0.000   0.000
 -0.000   0.000   0.000   0.982  -0.000   0.000   0.000  -0.000  -0.481   0.000   0.000  -0.000   0.000   0.000   0.000   0.000
  0.000  -0.000   0.000  -0.000   0.512  -0.000   0.000   0.000   0.000  -0.247  -0.000   0.000   0.000   0.000   0.000   0.000
 -0.481   0.000   0.000   0.000  -0.000   0.154   0.000  -0.000   0.000   0.000   0.000  -0.000   0.000   0.000   0.000   0.000
  0.000  -0.481   0.000   0.000   0.000   0.000   0.154   0.000  -0.000   0.000  -0.000   0.000   0.000   0.000   0.000   0.000
  0.000  -0.000  -0.247  -0.000  -0.000   0.000  -0.000   0.060   0.000   0.000  -0.000   0.000   0.000   0.000   0.000   0.000
  0.000   0.000   0.000  -0.481   0.000  -0.000   0.000   0.000   0.154   0.000  -0.000   0.000   0.000   0.000   0.000   0.000
 -0.000   0.000   0.000  -0.000  -0.247   0.000  -0.000  -0.000   0.000   0.060   0.000  -0.000   0.000   0.000   0.000   0.000
 -0.000   0.000  -0.000   0.000  -0.000   0.000  -0.000  -0.000  -0.000   0.000  -0.126   0.039   0.000   0.000   0.000   0.000
  0.000  -0.000   0.000  -0.000   0.000  -0.000   0.000  -0.000   0.000  -0.000   0.039  -0.008   0.000   0.000   0.000   0.000
  0.000   0.000   0.000   0.000   0.000   0.000   0.000   0.000   0.000   0.000   0.000   0.000  -0.018   0.000  -0.000   0.003
  0.000   0.000   0.000   0.000   0.000   0.000   0.000   0.000   0.000   0.000   0.000   0.000   0.000  -0.018   0.000   0.000
  0.000   0.000   0.000   0.000   0.000   0.000   0.000   0.000   0.000   0.000   0.000   0.000  -0.000   0.000  -0.018   0.000
  0.000   0.000   0.000   0.000   0.000   0.000   0.000   0.000   0.000   0.000   0.000   0.000   0.003   0.000   0.000  -0.000
  0.000   0.000   0.000   0.000   0.000   0.000   0.000   0.000   0.000   0.000   0.000   0.000   0.000   0.003   0.000   0.000
  0.000   0.000   0.000   0.000   0.000   0.000   0.000   0.000   0.000   0.000   0.000   0.000   0.000  -0.000   0.003  -0.000


------------------------ aborting loop because EDIFF is reached ----------------------------------------





 total charge

# of ion       s       p       d       tot
------------------------------------------
    1        0.492   0.486   8.313   9.290



 magnetization (x)

# of ion       s       p       d       tot
------------------------------------------
    1       -0.007  -0.027   0.641   0.606
 
    CHARGE:  cpu time      0.0032: real time      0.0032
    FORLOC:  cpu time      0.0001: real time      0.0001
    FORNL :  cpu time      0.0046: real time      0.0046
    STRESS:  cpu time      0.0383: real time      0.0384
    FORCOR:  cpu time      0.0022: real time      0.0023
    FORHAR:  cpu time      0.0003: real time      0.0003
    MIXING:  cpu time      0.0002: real time      0.0002
    OFIELD:  cpu time      0.0000: real time      0.0000

  FORCE on cell =-STRESS in cart. coord.  units (eV):
  Direction    XX          YY          ZZ          XY          YZ          ZX
  --------------------------------------------------------------------------------------
  Alpha Z    46.37682    46.37682    46.37682
  Ewald    -311.71407  -311.71407  -311.71407     0.00000    -0.00000     0.00000
  Hartree    75.32206    75.32206    75.32206     0.00000     0.00000     0.00000
  E(xc)     -55.01208   -55.01207   -55.01208    -0.00006    -0.00006    -0.00006
  Local      -1.17647    -1.17643    -1.17647     0.00069     0.00069     0.00068
  n-local    -7.51129   -10.25322    -7.85171    -3.25675     1.63619     2.74464
  augment   176.10816   176.10809   176.10816    -0.00042    -0.00042    -0.00040
  Kinetic    77.41018    80.00601    76.88133     1.51868    -1.33309    -1.24035
  Fock        0.00000     0.00000     0.00000     0.00000     0.00000     0.00000
  -------------------------------------------------------------------------------------
  Total      -0.53516    -0.53516    -0.53516     0.00000     0.00000     0.00000
  in kB     -77.97005   -77.97005   -77.97005     0.00000     0.00000     0.00000
  external pressure =      -77.97 kB  Pullay stress =        0.00 kB


 VOLUME and BASIS-vectors are now :
 -----------------------------------------------------------------------------
  energy-cutoff  :      270.00
  volume of cell :       11.00
      direct lattice vectors                 reciprocal lattice vectors
     1.765000000  1.765000000  0.000000000     0.283286119  0.283286119 -0.283286119
     0.000000000  1.765000000  1.765000000    -0.283286119  0.283286119  0.283286119
     1.765000000  0.000000000  1.765000000     0.283286119 -0.283286119  0.283286119

  length of vectors
     2.496086938  2.496086938  2.496086938     0.490665951  0.490665951  0.490665951


 FORCES acting on ions
    electron-ion (+dipol)            ewald-force                    non-local-force                 convergence-correction
 -----------------------------------------------------------------------------------------------
   0.382E-13 0.483E-13 0.360E-13   -.749E-15 0.780E-15 0.540E-15   0.797E-23 0.116E-22 0.278E-22   -.392E-14 0.501E-14 0.169E-13
 -----------------------------------------------------------------------------------------------
   0.382E-13 0.483E-13 0.360E-13   -.749E-15 0.780E-15 0.540E-15   0.797E-23 0.116E-22 0.278E-22   -.392E-14 0.501E-14 0.169E-13
 
 
 POSITION                                       TOTAL-FORCE (eV/Angst)
 -----------------------------------------------------------------------------------
      0.00000      0.00000      0.00000        -0.000000      0.000000      0.000000
 -----------------------------------------------------------------------------------
    total drift:                                0.000000      0.000000      0.000000


--------------------------------------------------------------------------------------------------------



  FREE ENERGIE OF THE ION-ELECTRON SYSTEM (eV)
  ---------------------------------------------------
  free  energy   TOTEN  =        -5.45938084 eV

  energy  without entropy=       -5.45938084  energy(sigma->0) =       -5.45938084
 


--------------------------------------------------------------------------------------------------------


    POTLOK:  cpu time      0.0064: real time      0.0064


--------------------------------------------------------------------------------------------------------


 writing wavefunctions
     LOOP+:  cpu time      2.2259: real time      2.2402
 -----------------------------------------------------------------------------
|                                                                             |
|           W    W    AA    RRRRR   N    N  II  N    N   GGGG   !!!           |
|           W    W   A  A   R    R  NN   N  II  NN   N  G    G  !!!           |
|           W    W  A    A  R    R  N N  N  II  N N  N  G       !!!           |
|           W WW W  AAAAAA  RRRRR   N  N N  II  N  N N  G  GGG   !            |
|           WW  WW  A    A  R   R   N   NN  II  N   NN  G    G                |
|           W    W  A    A  R    R  N    N  II  N    N   GGGG   !!!           |
|                                                                             |
|     Tetrahedron method does not include variations of the Fermi             |
|     occupations, so forces and stress will be inaccurate. We suggest        |
|     using a different smearing scheme ISMEAR = 1 or 2 for metals in         |
|     relaxations.                                                            |
|                                                                             |
 -----------------------------------------------------------------------------

    4ORBIT:  cpu time      0.0000: real time      0.0000



 total charge

# of ion       s       p       d       tot
------------------------------------------
    1        0.492   0.486   8.313   9.290



 magnetization (x)

# of ion       s       p       d       tot
------------------------------------------
    1       -0.007  -0.027   0.641   0.606
 
 BZINTS: Fermi energy:    9.219373;   10.000000 electrons
         Band energy: 0.694386E+02;  BLOECHL correction:   -0.034091

 total amount of memory used by VASP MPI-rank0    32061. kBytes
=======================================================================

   base      :      30000. kBytes
   nonl-proj :        969. kBytes
   fftplans  :         71. kBytes
   grid      :        238. kBytes
   one-center:         31. kBytes
   wavefun   :        752. kBytes
 
  
  
 General timing and accounting informations for this job:
 ========================================================
  
                  Total CPU time used (sec):        2.533
                            User time (sec):        2.310
                          System time (sec):        0.223
                         Elapsed time (sec):        2.545
  
                   Maximum memory used (kb):       56244.
                   Average memory used (kb):          N/A
  
                          Minor page faults:        18470
                          Major page faults:            0
                 Voluntary context switches:          177
