PROCAR lm decomposed
# of k-points:   56         # of bands:   12         # of ions:    1

 k-point     1 :    0.00000000 0.00000000 0.00000000     weight = 0.00075131

band     1 # energy    0.29518669 # occ.  1.00000000
 
ion      s     py     pz     px    dxy    dyz    dz2    dxz  x2-y2    tot
    1  0.720  0.000  0.000  0.000  0.000  0.000  0.000  0.000  0.000  0.720
 
band     2 # energy    6.84074071 # occ.  1.00000000
 
ion      s     py     pz     px    dxy    dyz    dz2    dxz  x2-y2    tot
    1  0.000  0.000  0.000  0.000  0.488  0.488  0.000  0.000  0.000  0.976
 
band     3 # energy    6.84074386 # occ.  1.00000000
 
ion      s     py     pz     px    dxy    dyz    dz2    dxz  x2-y2    tot
    1  0.000  0.000  0.000  0.000  0.001  0.001  0.000  0.974  0.000  0.976
 
band     4 # energy    6.84074543 # occ.  1.00000000
 
ion      s     py     pz     px    dxy    dyz    dz2    dxz  x2-y2    tot
    1  0.000  0.000  0.000  0.000  0.487  0.486  0.000  0.003  0.000  0.976
 
band     5 # energy    7.98970063 # occ.  1.00000000
 
ion      s     py     pz     px    dxy    dyz    dz2    dxz  x2-y2    tot
    1  0.000  0.000  0.000  0.000  0.000  0.000  0.247  0.000  0.741  0.988
 
band     6 # energy    7.98970138 # occ.  1.00000000
 
ion      s     py     pz     px    dxy    dyz    dz2    dxz  x2-y2    tot
    1  0.000  0.000  0.000  0.000  0.000  0.000  0.741  0.000  0.247  0.988
 
band     7 # energy   32.89766924 # occ.  0.00000000
 
ion      s     py     pz     px    dxy    dyz    dz2    dxz  x2-y2    tot
    1  0.000  0.000  0.000  0.000  0.000  0.000  0.000  0.000  0.000  0.000
 
band     8 # energy   36.65788521 # occ.  0.00000000
 
ion      s     py     pz     px    dxy    dyz    dz2    dxz  x2-y2    tot
    1  0.000  0.125  0.126  0.126  0.000  0.000  0.000  0.000  0.000  0.377
 
band     9 # energy   36.65809792 # occ.  0.00000000
 
ion      s     py     pz     px    dxy    dyz    dz2    dxz  x2-y2    tot
    1  0.000  0.252  0.062  0.063  0.000  0.000  0.000  0.000  0.000  0.377
 
band    10 # energy   36.65809794 # occ.  0.00000000
 
ion      s     py     pz     px    dxy    dyz    dz2    dxz  x2-y2    tot
    1  0.000  0.000  0.189  0.189  0.000  0.000  0.000  0.000  0.000  0.377
 
band    11 # energy   39.72360118 # occ.  0.00000000
 
ion      s     py     pz     px    dxy    dyz    dz2    dxz  x2-y2    tot
    1  0.000  0.000  0.000  0.000  0.113  0.208  0.000  0.896  0.000  1.217
 
band    12 # energy   39.72371233 # occ.  0.00000000
 
ion      s     py     pz     px    dxy    dyz    dz2    dxz  x2-y2    tot
    1  0.000  0.000  0.000  0.000  0.418  0.744  0.000  0.054  0.000  1.217
 

 k-point     2 :    0.09090909 0.00000000 0.00000000     weight = 0.00601052

band     1 # energy    0.61448395 # occ.  1.00000000
 
ion      s     py     pz     px    dxy    dyz    dz2    dxz  x2-y2    tot
    1  0.699  0.007  0.007  0.007  0.000  0.000  0.000  0.000  0.000  0.721
 
band     2 # energy    6.76357221 # occ.  1.00000000
 
ion      s     py     pz     px    dxy    dyz    dz2    dxz  x2-y2    tot
    1  0.000  0.001  0.001  0.001  0.323  0.323  0.000  0.323  0.000  0.972
 
band     3 # energy    6.90893747 # occ.  1.00000000
 
ion      s     py     pz     px    dxy    dyz    dz2    dxz  x2-y2    tot
    1  0.000  0.000  0.000  0.000  0.635  0.090  0.004  0.247  0.000  0.976
 
band     4 # energy    6.90894622 # occ.  1.00000000
 
ion      s     py     pz     px    dxy    dyz    dz2    dxz  x2-y2    tot
    1  0.000  0.000  0.000  0.000  0.013  0.558  0.000  0.401  0.004  0.976
 
band     5 # energy    7.96337050 # occ.  1.00000000
 
ion      s     py     pz     px    dxy    dyz    dz2    dxz  x2-y2    tot
    1  0.000  0.000  0.000  0.000  0.000  0.002  0.001  0.002  0.982  0.987
 
band     6 # energy    7.96337988 # occ.  1.00000000
 
ion      s     py     pz     px    dxy    dyz    dz2    dxz  x2-y2    tot
    1  0.000  0.000  0.000  0.000  0.003  0.001  0.982  0.001  0.001  0.987
 
band     7 # energy   31.49082820 # occ.  0.00000000
 
ion      s     py     pz     px    dxy    dyz    dz2    dxz  x2-y2    tot
    1  0.009  0.041  0.041  0.041  0.104  0.104  0.000  0.104  0.000  0.444
 
band     8 # energy   34.24841288 # occ.  0.00000000
 
ion      s     py     pz     px    dxy    dyz    dz2    dxz  x2-y2    tot
    1  0.026  0.064  0.064  0.064  0.005  0.005  0.000  0.005  0.000  0.234
 
band     9 # energy   36.01454370 # occ.  0.00000000
 
ion      s     py     pz     px    dxy    dyz    dz2    dxz  x2-y2    tot
    1  0.000  0.057  0.230  0.057  0.157  0.039  0.022  0.039  0.000  0.601
 
band    10 # energy   36.01475921 # occ.  0.00000000
 
ion      s     py     pz     px    dxy    dyz    dz2    dxz  x2-y2    tot
    1  0.000  0.172  0.000  0.172  0.000  0.117  0.000  0.117  0.022  0.601
 
band    11 # energy   40.71034538 # occ.  0.00000000
 
ion      s     py     pz     px    dxy    dyz    dz2    dxz  x2-y2    tot
    1  0.000  0.003  0.010  0.003  0.568  0.164  0.021  0.153  0.001  0.924
 
band    12 # energy   40.71039119 # occ.  0.00000000
 
ion      s     py     pz     px    dxy    dyz    dz2    dxz  x2-y2    tot
    1  0.000  0.008  0.000  0.008  0.022  0.433  0.001  0.431  0.021  0.924
 

 k-point     3 :    0.18181818 0.00000000 0.00000000     weight = 0.00601052

band     1 # energy    1.53116119 # occ.  1.00000000
 
ion      s     py     pz     px    dxy    dyz    dz2    dxz  x2-y2    tot
    1  0.634  0.026  0.026  0.026  0.004  0.004  0.000  0.004  0.000  0.724
 
band     2 # energy    6.59025359 # occ.  1.00000000
 
ion      s     py     pz     px    dxy    dyz    dz2    dxz  x2-y2    tot
    1  0.003  0.006  0.006  0.006  0.313  0.313  0.000  0.313  0.000  0.958
 
band     3 # energy    7.03890613 # occ.  1.00000000
 
ion      s     py     pz     px    dxy    dyz    dz2    dxz  x2-y2    tot
    1  0.000  0.000  0.001  0.000  0.595  0.131  0.081  0.167  0.000  0.976
 
band     4 # energy    7.03894522 # occ.  1.00000000
 
ion      s     py     pz     px    dxy    dyz    dz2    dxz  x2-y2    tot
    1  0.000  0.001  0.000  0.001  0.001  0.464  0.000  0.428  0.081  0.976
 
band     5 # energy    7.95349830 # occ.  1.00000000
 
ion      s     py     pz     px    dxy    dyz    dz2    dxz  x2-y2    tot
    1  0.000  0.000  0.000  0.000  0.000  0.041  0.000  0.041  0.901  0.984
 
band     6 # energy    7.95353847 # occ.  1.00000000
 
ion      s     py     pz     px    dxy    dyz    dz2    dxz  x2-y2    tot
    1  0.000  0.000  0.000  0.000  0.055  0.014  0.901  0.014  0.000  0.984
 
band     7 # energy   27.02686558 # occ.  0.00000000
 
ion      s     py     pz     px    dxy    dyz    dz2    dxz  x2-y2    tot
    1  0.059  0.092  0.092  0.092  0.128  0.128  0.000  0.128  0.000  0.718
 
band     8 # energy   33.52192749 # occ.  0.00000000
 
ion      s     py     pz     px    dxy    dyz    dz2    dxz  x2-y2    tot
    1  0.031  0.008  0.008  0.008  0.019  0.019  0.000  0.019  0.000  0.114
 
band     9 # energy   35.07446147 # occ.  0.00000000
 
ion      s     py     pz     px    dxy    dyz    dz2    dxz  x2-y2    tot
    1  0.000  0.059  0.237  0.059  0.244  0.061  0.050  0.061  0.000  0.771
 
band    10 # energy   35.07466259 # occ.  0.00000000
 
ion      s     py     pz     px    dxy    dyz    dz2    dxz  x2-y2    tot
    1  0.000  0.178  0.000  0.178  0.000  0.183  0.000  0.183  0.050  0.771
 
band    11 # energy   40.76425989 # occ.  0.00000000
 
ion      s     py     pz     px    dxy    dyz    dz2    dxz  x2-y2    tot
    1  0.003  0.068  0.069  0.069  0.010  0.009  0.000  0.010  0.000  0.238
 
band    12 # energy   41.44383229 # occ.  0.00000000
 
ion      s     py     pz     px    dxy    dyz    dz2    dxz  x2-y2    tot
    1  0.000  0.006  0.027  0.009  0.113  0.039  0.359  0.024  0.015  0.593
 

 k-point     4 :    0.27272727-0.00000000-0.00000000     weight = 0.00601052

band     1 # energy    2.86085952 # occ.  1.00000000
 
ion      s     py     pz     px    dxy    dyz    dz2    dxz  x2-y2    tot
    1  0.517  0.044  0.044  0.044  0.032  0.032  0.000  0.032  0.000  0.744
 
band     2 # energy    6.55108416 # occ.  1.00000000
 
ion      s     py     pz     px    dxy    dyz    dz2    dxz  x2-y2    tot
    1  0.021  0.026  0.026  0.026  0.275  0.275  0.000  0.275  0.000  0.923
 
band     3 # energy    7.05050671 # occ.  1.00000000
 
ion      s     py     pz     px    dxy    dyz    dz2    dxz  x2-y2    tot
    1  0.000  0.000  0.001  0.000  0.440  0.103  0.312  0.117  0.000  0.973
 
band     4 # energy    7.05058461 # occ.  1.00000000
 
ion      s     py     pz     px    dxy    dyz    dz2    dxz  x2-y2    tot
    1  0.000  0.000  0.000  0.001  0.000  0.337  0.000  0.323  0.312  0.973
 
band     5 # energy    8.11938714 # occ.  1.00000000
 
ion      s     py     pz     px    dxy    dyz    dz2    dxz  x2-y2    tot
    1  0.000  0.001  0.000  0.001  0.000  0.158  0.000  0.158  0.668  0.985
 
band     6 # energy    8.11946206 # occ.  1.00000000
 
ion      s     py     pz     px    dxy    dyz    dz2    dxz  x2-y2    tot
    1  0.000  0.000  0.001  0.000  0.211  0.053  0.668  0.053  0.000  0.985
 
band     7 # energy   22.46720632 # occ.  0.00000000
 
ion      s     py     pz     px    dxy    dyz    dz2    dxz  x2-y2    tot
    1  0.133  0.101  0.101  0.101  0.114  0.114  0.000  0.114  0.000  0.778
 
band     8 # energy   32.76676366 # occ.  0.00000000
 
ion      s     py     pz     px    dxy    dyz    dz2    dxz  x2-y2    tot
    1  0.020  0.000  0.000  0.000  0.025  0.025  0.000  0.025  0.000  0.096
 
band     9 # energy   34.36094087 # occ.  0.00000000
 
ion      s     py     pz     px    dxy    dyz    dz2    dxz  x2-y2    tot
    1  0.000  0.069  0.277  0.070  0.230  0.058  0.060  0.057  0.000  0.821
 
band    10 # energy   34.36106785 # occ.  0.00000000
 
ion      s     py     pz     px    dxy    dyz    dz2    dxz  x2-y2    tot
    1  0.000  0.208  0.000  0.208  0.000  0.172  0.000  0.173  0.060  0.821
 
band    11 # energy   39.63436151 # occ.  0.00000000
 
ion      s     py     pz     px    dxy    dyz    dz2    dxz  x2-y2    tot
    1  0.000  0.024  0.093  0.023  0.007  0.002  0.580  0.002  0.000  0.730
 
band    12 # energy   39.63452220 # occ.  0.00000000
 
ion      s     py     pz     px    dxy    dyz    dz2    dxz  x2-y2    tot
    1  0.000  0.069  0.000  0.070  0.000  0.005  0.000  0.005  0.580  0.730
 

 k-point     5 :    0.36363636 0.00000000 0.00000000     weight = 0.00601052

band     1 # energy    4.02019600 # occ.  1.00000000
 
ion      s     py     pz     px    dxy    dyz    dz2    dxz  x2-y2    tot
    1  0.320  0.028  0.028  0.028  0.139  0.139  0.000  0.139  0.000  0.820
 
band     2 # energy    6.95038043 # occ.  1.00000000
 
ion      s     py     pz     px    dxy    dyz    dz2    dxz  x2-y2    tot
    1  0.000  0.000  0.000  0.000  0.328  0.078  0.478  0.086  0.000  0.971
 
band     3 # energy    6.95046885 # occ.  1.00000000
 
ion      s     py     pz     px    dxy    dyz    dz2    dxz  x2-y2    tot
    1  0.000  0.000  0.000  0.000  0.000  0.250  0.000  0.242  0.478  0.971
 
band     4 # energy    7.18450208 # occ.  1.00000000
 
ion      s     py     pz     px    dxy    dyz    dz2    dxz  x2-y2    tot
    1  0.080  0.096  0.096  0.096  0.150  0.150  0.000  0.150  0.000  0.819
 
band     5 # energy    8.40624485 # occ.  1.00000000
 
ion      s     py     pz     px    dxy    dyz    dz2    dxz  x2-y2    tot
    1  0.000  0.000  0.000  0.000  0.000  0.244  0.000  0.245  0.498  0.988
 
band     6 # energy    8.40632101 # occ.  1.08194062
 
ion      s     py     pz     px    dxy    dyz    dz2    dxz  x2-y2    tot
    1  0.000  0.000  0.001  0.000  0.326  0.082  0.498  0.081  0.000  0.988
 
band     7 # energy   18.37193308 # occ.  0.00000000
 
ion      s     py     pz     px    dxy    dyz    dz2    dxz  x2-y2    tot
    1  0.246  0.080  0.080  0.080  0.113  0.113  0.000  0.113  0.000  0.824
 
band     8 # energy   31.94943041 # occ.  0.00000000
 
ion      s     py     pz     px    dxy    dyz    dz2    dxz  x2-y2    tot
    1  0.007  0.005  0.005  0.005  0.011  0.011  0.000  0.011  0.000  0.057
 
band     9 # energy   33.93675917 # occ.  0.00000000
 
ion      s     py     pz     px    dxy    dyz    dz2    dxz  x2-y2    tot
    1  0.000  0.256  0.000  0.264  0.000  0.101  0.000  0.098  0.041  0.761
 
band    10 # energy   33.93680240 # occ.  0.00000000
 
ion      s     py     pz     px    dxy    dyz    dz2    dxz  x2-y2    tot
    1  0.000  0.091  0.347  0.083  0.133  0.032  0.041  0.035  0.000  0.761
 
band    11 # energy   37.82805906 # occ.  0.00000000
 
ion      s     py     pz     px    dxy    dyz    dz2    dxz  x2-y2    tot
    1  0.000  0.016  0.063  0.016  0.097  0.024  0.639  0.024  0.000  0.879
 
band    12 # energy   37.82854770 # occ.  0.00000000
 
ion      s     py     pz     px    dxy    dyz    dz2    dxz  x2-y2    tot
    1  0.000  0.047  0.000  0.047  0.000  0.073  0.000  0.072  0.640  0.879
 

 k-point     6 :    0.45454545-0.00000000 0.00000000     weight = 0.00601052

band     1 # energy    4.43035858 # occ.  1.00000000
 
ion      s     py     pz     px    dxy    dyz    dz2    dxz  x2-y2    tot
    1  0.186  0.003  0.003  0.003  0.230  0.230  0.000  0.230  0.000  0.886
 
band     2 # energy    6.87060516 # occ.  1.00000000
 
ion      s     py     pz     px    dxy    dyz    dz2    dxz  x2-y2    tot
    1  0.000  0.000  0.000  0.000  0.286  0.068  0.540  0.075  0.000  0.970
 
band     3 # energy    6.87068490 # occ.  1.00000000
 
ion      s     py     pz     px    dxy    dyz    dz2    dxz  x2-y2    tot
    1  0.000  0.000  0.000  0.000  0.000  0.219  0.000  0.211  0.540  0.970
 
band     4 # energy    8.61293548 # occ.  1.00000000
 
ion      s     py     pz     px    dxy    dyz    dz2    dxz  x2-y2    tot
    1  0.000  0.000  0.000  0.000  0.000  0.277  0.000  0.279  0.436  0.992
 
band     5 # energy    8.61300378 # occ.  1.00000000
 
ion      s     py     pz     px    dxy    dyz    dz2    dxz  x2-y2    tot
    1  0.000  0.000  0.000  0.000  0.370  0.094  0.436  0.092  0.000  0.992
 
band     6 # energy    8.61892622 # occ.  0.81003741
 
ion      s     py     pz     px    dxy    dyz    dz2    dxz  x2-y2    tot
    1  0.037  0.198  0.198  0.198  0.023  0.022  0.000  0.022  0.000  0.699
 
band     7 # energy   15.35463511 # occ.  0.00000000
 
ion      s     py     pz     px    dxy    dyz    dz2    dxz  x2-y2    tot
    1  0.410  0.021  0.021  0.021  0.137  0.137  0.000  0.137  0.000  0.883
 
band     8 # energy   31.45417827 # occ.  0.00000000
 
ion      s     py     pz     px    dxy    dyz    dz2    dxz  x2-y2    tot
    1  0.001  0.009  0.009  0.009  0.001  0.001  0.000  0.001  0.000  0.032
 
band     9 # energy   33.75052267 # occ.  0.00000000
 
ion      s     py     pz     px    dxy    dyz    dz2    dxz  x2-y2    tot
    1  0.000  0.311  0.000  0.314  0.000  0.015  0.000  0.015  0.007  0.662
 
band    10 # energy   33.75075055 # occ.  0.00000000
 
ion      s     py     pz     px    dxy    dyz    dz2    dxz  x2-y2    tot
    1  0.000  0.106  0.417  0.103  0.020  0.005  0.007  0.005  0.000  0.662
 
band    11 # energy   36.89877703 # occ.  0.00000000
 
ion      s     py     pz     px    dxy    dyz    dz2    dxz  x2-y2    tot
    1  0.000  0.003  0.010  0.002  0.203  0.050  0.662  0.051  0.000  0.982
 
band    12 # energy   36.89946325 # occ.  0.00000000
 
ion      s     py     pz     px    dxy    dyz    dz2    dxz  x2-y2    tot
    1  0.000  0.007  0.000  0.008  0.000  0.153  0.000  0.152  0.662  0.982
 

 k-point     7 :    0.09090909 0.09090909 0.00000000     weight = 0.00450789

band     1 # energy    0.72025872 # occ.  1.00000000
 
ion      s     py     pz     px    dxy    dyz    dz2    dxz  x2-y2    tot
    1  0.692  0.028  0.000  0.000  0.000  0.000  0.000  0.000  0.001  0.721
 
band     2 # energy    6.69322135 # occ.  1.00000000
 
ion      s     py     pz     px    dxy    dyz    dz2    dxz  x2-y2    tot
    1  0.000  0.000  0.000  0.000  0.000  0.000  0.000  0.972  0.000  0.972
 
band     3 # energy    6.95961715 # occ.  1.00000000
 
ion      s     py     pz     px    dxy    dyz    dz2    dxz  x2-y2    tot
    1  0.000  0.000  0.001  0.001  0.487  0.487  0.000  0.000  0.000  0.976
 
band     4 # energy    6.95962197 # occ.  1.00000000
 
ion      s     py     pz     px    dxy    dyz    dz2    dxz  x2-y2    tot
    1  0.000  0.000  0.001  0.001  0.487  0.487  0.000  0.000  0.000  0.976
 
band     5 # energy    7.85571660 # occ.  1.00000000
 
ion      s     py     pz     px    dxy    dyz    dz2    dxz  x2-y2    tot
    1  0.001  0.000  0.000  0.000  0.000  0.000  0.246  0.000  0.737  0.984
 
band     6 # energy    8.04375997 # occ.  1.00000000
 
ion      s     py     pz     px    dxy    dyz    dz2    dxz  x2-y2    tot
    1  0.000  0.000  0.000  0.000  0.000  0.000  0.741  0.000  0.247  0.988
 
band     7 # energy   32.09603059 # occ.  0.00000000
 
ion      s     py     pz     px    dxy    dyz    dz2    dxz  x2-y2    tot
    1  0.000  0.000  0.000  0.000  0.000  0.000  0.000  0.271  0.000  0.271
 
band     8 # energy   34.09393166 # occ.  0.00000000
 
ion      s     py     pz     px    dxy    dyz    dz2    dxz  x2-y2    tot
    1  0.000  0.000  0.187  0.187  0.168  0.168  0.000  0.000  0.000  0.711
 
band     9 # energy   34.09404518 # occ.  0.00000000
 
ion      s     py     pz     px    dxy    dyz    dz2    dxz  x2-y2    tot
    1  0.000  0.000  0.187  0.187  0.168  0.168  0.000  0.000  0.000  0.711
 
band    10 # energy   34.98155955 # occ.  0.00000000
 
ion      s     py     pz     px    dxy    dyz    dz2    dxz  x2-y2    tot
    1  0.050  0.180  0.000  0.000  0.000  0.000  0.020  0.000  0.060  0.311
 
band    11 # energy   41.45626681 # occ.  0.00000000
 
ion      s     py     pz     px    dxy    dyz    dz2    dxz  x2-y2    tot
    1  0.000  0.000  0.000  0.000  0.000  0.000  0.000  0.945  0.000  0.945
 
band    12 # energy   42.23988932 # occ.  0.00000000
 
ion      s     py     pz     px    dxy    dyz    dz2    dxz  x2-y2    tot
    1  0.000  0.000  0.011  0.003  0.137  0.523  0.000  0.000  0.000  0.674
 

 k-point     8 :    0.18181818 0.09090909 0.00000000     weight = 0.01803156

band     1 # energy    1.43710428 # occ.  1.00000000
 
ion      s     py     pz     px    dxy    dyz    dz2    dxz  x2-y2    tot
    1  0.641  0.061  0.007  0.007  0.002  0.002  0.001  0.000  0.003  0.723
 
band     2 # energy    6.51686132 # occ.  1.00000000
 
ion      s     py     pz     px    dxy    dyz    dz2    dxz  x2-y2    tot
    1  0.000  0.000  0.002  0.002  0.055  0.055  0.000  0.849  0.000  0.963
 
band     3 # energy    7.09174677 # occ.  1.00000000
 
ion      s     py     pz     px    dxy    dyz    dz2    dxz  x2-y2    tot
    1  0.000  0.001  0.002  0.002  0.405  0.402  0.013  0.110  0.039  0.975
 
band     4 # energy    7.10123277 # occ.  1.00000000
 
ion      s     py     pz     px    dxy    dyz    dz2    dxz  x2-y2    tot
    1  0.000  0.000  0.002  0.002  0.466  0.469  0.027  0.000  0.009  0.975
 
band     5 # energy    7.75508221 # occ.  1.00000000
 
ion      s     py     pz     px    dxy    dyz    dz2    dxz  x2-y2    tot
    1  0.003  0.002  0.000  0.000  0.023  0.023  0.231  0.005  0.692  0.979
 
band     6 # energy    8.09582723 # occ.  1.00000000
 
ion      s     py     pz     px    dxy    dyz    dz2    dxz  x2-y2    tot
    1  0.000  0.000  0.000  0.000  0.018  0.018  0.713  0.000  0.238  0.987
 
band     7 # energy   28.80400676 # occ.  0.00000000
 
ion      s     py     pz     px    dxy    dyz    dz2    dxz  x2-y2    tot
    1  0.032  0.036  0.109  0.109  0.106  0.106  0.001  0.184  0.004  0.687
 
band     8 # energy   32.55435166 # occ.  0.00000000
 
ion      s     py     pz     px    dxy    dyz    dz2    dxz  x2-y2    tot
    1  0.037  0.045  0.008  0.008  0.006  0.006  0.012  0.196  0.034  0.352
 
band     9 # energy   32.60181518 # occ.  0.00000000
 
ion      s     py     pz     px    dxy    dyz    dz2    dxz  x2-y2    tot
    1  0.000  0.000  0.205  0.205  0.174  0.174  0.009  0.000  0.003  0.771
 
band    10 # energy   36.00986907 # occ.  0.00000000
 
ion      s     py     pz     px    dxy    dyz    dz2    dxz  x2-y2    tot
    1  0.002  0.001  0.076  0.076  0.030  0.030  0.044  0.023  0.132  0.413
 
band    11 # energy   39.50420450 # occ.  0.00000000
 
ion      s     py     pz     px    dxy    dyz    dz2    dxz  x2-y2    tot
    1  0.039  0.477  0.025  0.025  0.024  0.024  0.016  0.080  0.047  0.755
 
band    12 # energy   41.86927979 # occ.  0.00000000
 
ion      s     py     pz     px    dxy    dyz    dz2    dxz  x2-y2    tot
    1  0.045  0.120  0.006  0.006  0.153  0.153  0.042  0.303  0.125  0.951
 

 k-point     9 :    0.27272727 0.09090909-0.00000000     weight = 0.01803156

band     1 # energy    2.64439392 # occ.  1.00000000
 
ion      s     py     pz     px    dxy    dyz    dz2    dxz  x2-y2    tot
    1  0.542  0.093  0.021  0.021  0.019  0.019  0.003  0.009  0.008  0.734
 
band     2 # energy    6.37315821 # occ.  1.00000000
 
ion      s     py     pz     px    dxy    dyz    dz2    dxz  x2-y2    tot
    1  0.006  0.007  0.012  0.012  0.093  0.093  0.001  0.718  0.002  0.946
 
band     3 # energy    7.07834117 # occ.  1.00000000
 
ion      s     py     pz     px    dxy    dyz    dz2    dxz  x2-y2    tot
    1  0.000  0.001  0.001  0.001  0.220  0.220  0.093  0.157  0.277  0.971
 
band     4 # energy    7.17561434 # occ.  1.00000000
 
ion      s     py     pz     px    dxy    dyz    dz2    dxz  x2-y2    tot
    1  0.000  0.000  0.002  0.002  0.378  0.378  0.161  0.000  0.054  0.975
 
band     5 # energy    7.93586556 # occ.  1.00000000
 
ion      s     py     pz     px    dxy    dyz    dz2    dxz  x2-y2    tot
    1  0.011  0.009  0.002  0.002  0.146  0.146  0.148  0.070  0.444  0.976
 
band     6 # energy    8.23855279 # occ.  1.00000000
 
ion      s     py     pz     px    dxy    dyz    dz2    dxz  x2-y2    tot
    1  0.000  0.000  0.000  0.000  0.109  0.109  0.577  0.000  0.192  0.988
 
band     7 # energy   24.16696411 # occ.  0.00000000
 
ion      s     py     pz     px    dxy    dyz    dz2    dxz  x2-y2    tot
    1  0.096  0.055  0.129  0.129  0.100  0.100  0.001  0.144  0.004  0.759
 
band     8 # energy   31.62055019 # occ.  0.00000000
 
ion      s     py     pz     px    dxy    dyz    dz2    dxz  x2-y2    tot
    1  0.000  0.000  0.225  0.225  0.149  0.149  0.029  0.000  0.010  0.788
 
band     9 # energy   31.83025062 # occ.  0.00000000
 
ion      s     py     pz     px    dxy    dyz    dz2    dxz  x2-y2    tot
    1  0.027  0.008  0.001  0.001  0.000  0.000  0.024  0.212  0.073  0.347
 
band    10 # energy   35.73797230 # occ.  0.00000000
 
ion      s     py     pz     px    dxy    dyz    dz2    dxz  x2-y2    tot
    1  0.049  0.307  0.000  0.000  0.003  0.003  0.059  0.098  0.178  0.696
 
band    11 # energy   38.95117360 # occ.  0.00000000
 
ion      s     py     pz     px    dxy    dyz    dz2    dxz  x2-y2    tot
    1  0.005  0.150  0.072  0.072  0.022  0.022  0.029  0.033  0.086  0.489
 
band    12 # energy   41.61918279 # occ.  0.00000000
 
ion      s     py     pz     px    dxy    dyz    dz2    dxz  x2-y2    tot
    1  0.015  0.061  0.089  0.089  0.075  0.075  0.036  0.208  0.108  0.755
 

 k-point    10 :    0.36363636 0.09090909-0.00000000     weight = 0.01803156

band     1 # energy    3.92724397 # occ.  1.00000000
 
ion      s     py     pz     px    dxy    dyz    dz2    dxz  x2-y2    tot
    1  0.369  0.087  0.021  0.021  0.096  0.096  0.004  0.082  0.013  0.789
 
band     2 # energy    6.56902278 # occ.  1.00000000
 
ion      s     py     pz     px    dxy    dyz    dz2    dxz  x2-y2    tot
    1  0.036  0.044  0.048  0.048  0.062  0.062  0.016  0.526  0.049  0.890
 
band     3 # energy    6.90958160 # occ.  1.00000000
 
ion      s     py     pz     px    dxy    dyz    dz2    dxz  x2-y2    tot
    1  0.001  0.000  0.000  0.000  0.114  0.114  0.126  0.233  0.378  0.967
 
band     4 # energy    7.11242234 # occ.  1.00000000
 
ion      s     py     pz     px    dxy    dyz    dz2    dxz  x2-y2    tot
    1  0.000  0.000  0.002  0.002  0.278  0.278  0.310  0.000  0.104  0.973
 
band     5 # energy    8.47662245 # occ.  1.00000000
 
ion      s     py     pz     px    dxy    dyz    dz2    dxz  x2-y2    tot
    1  0.000  0.000  0.000  0.000  0.210  0.213  0.423  0.000  0.143  0.991
 
band     6 # energy    8.48700184 # occ.  1.05740601
 
ion      s     py     pz     px    dxy    dyz    dz2    dxz  x2-y2    tot
    1  0.033  0.031  0.010  0.010  0.198  0.195  0.098  0.096  0.287  0.959
 
band     7 # energy   19.85701952 # occ.  0.00000000
 
ion      s     py     pz     px    dxy    dyz    dz2    dxz  x2-y2    tot
    1  0.191  0.048  0.119  0.119  0.093  0.093  0.001  0.136  0.004  0.803
 
band     8 # energy   31.03743010 # occ.  0.00000000
 
ion      s     py     pz     px    dxy    dyz    dz2    dxz  x2-y2    tot
    1  0.006  0.008  0.003  0.003  0.000  0.000  0.040  0.133  0.121  0.316
 
band     9 # energy   31.18579804 # occ.  0.00000000
 
ion      s     py     pz     px    dxy    dyz    dz2    dxz  x2-y2    tot
    1  0.000  0.000  0.244  0.244  0.106  0.106  0.056  0.000  0.019  0.775
 
band    10 # energy   33.83655656 # occ.  0.00000000
 
ion      s     py     pz     px    dxy    dyz    dz2    dxz  x2-y2    tot
    1  0.082  0.385  0.030  0.030  0.002  0.002  0.028  0.103  0.085  0.746
 
band    11 # energy   39.28338226 # occ.  0.00000000
 
ion      s     py     pz     px    dxy    dyz    dz2    dxz  x2-y2    tot
    1  0.000  0.032  0.005  0.005  0.052  0.052  0.094  0.139  0.282  0.662
 
band    12 # energy   41.11184993 # occ.  0.00000000
 
ion      s     py     pz     px    dxy    dyz    dz2    dxz  x2-y2    tot
    1  0.000  0.000  0.062  0.062  0.037  0.037  0.398  0.000  0.133  0.727
 

 k-point    11 :    0.45454545 0.09090909 0.00000000     weight = 0.01803156

band     1 # energy    4.54703461 # occ.  1.00000000
 
ion      s     py     pz     px    dxy    dyz    dz2    dxz  x2-y2    tot
    1  0.194  0.032  0.002  0.002  0.203  0.203  0.002  0.232  0.005  0.875
 
band     2 # energy    6.75754417 # occ.  1.00000000
 
ion      s     py     pz     px    dxy    dyz    dz2    dxz  x2-y2    tot
    1  0.000  0.001  0.006  0.006  0.088  0.088  0.159  0.128  0.477  0.954
 
band     3 # energy    7.01364630 # occ.  1.00000000
 
ion      s     py     pz     px    dxy    dyz    dz2    dxz  x2-y2    tot
    1  0.000  0.000  0.001  0.001  0.223  0.223  0.391  0.000  0.130  0.970
 
band     4 # energy    7.34500718 # occ.  1.00000000
 
ion      s     py     pz     px    dxy    dyz    dz2    dxz  x2-y2    tot
    1  0.028  0.080  0.075  0.075  0.015  0.015  0.021  0.490  0.064  0.863
 
band     5 # energy    8.63777804 # occ.  1.00000000
 
ion      s     py     pz     px    dxy    dyz    dz2    dxz  x2-y2    tot
    1  0.000  0.000  0.000  0.000  0.268  0.268  0.342  0.000  0.114  0.993
 
band     6 # energy    9.47630432 # occ.  0.14646316
 
ion      s     py     pz     px    dxy    dyz    dz2    dxz  x2-y2    tot
    1  0.053  0.108  0.067  0.067  0.140  0.140  0.061  0.056  0.183  0.874
 
band     7 # energy   16.29556204 # occ.  0.00000000
 
ion      s     py     pz     px    dxy    dyz    dz2    dxz  x2-y2    tot
    1  0.337  0.016  0.070  0.070  0.105  0.105  0.001  0.149  0.003  0.853
 
band     8 # energy   30.18382405 # occ.  0.00000000
 
ion      s     py     pz     px    dxy    dyz    dz2    dxz  x2-y2    tot
    1  0.002  0.091  0.000  0.000  0.009  0.009  0.051  0.058  0.154  0.376
 
band     9 # energy   31.37620121 # occ.  0.00000000
 
ion      s     py     pz     px    dxy    dyz    dz2    dxz  x2-y2    tot
    1  0.000  0.000  0.258  0.258  0.058  0.058  0.091  0.000  0.030  0.753
 
band    10 # energy   32.59365027 # occ.  0.00000000
 
ion      s     py     pz     px    dxy    dyz    dz2    dxz  x2-y2    tot
    1  0.077  0.288  0.071  0.071  0.007  0.007  0.006  0.074  0.017  0.617
 
band    11 # energy   39.13493241 # occ.  0.00000000
 
ion      s     py     pz     px    dxy    dyz    dz2    dxz  x2-y2    tot
    1  0.010  0.022  0.000  0.000  0.024  0.024  0.112  0.230  0.335  0.757
 
band    12 # energy   39.57871397 # occ.  0.00000000
 
ion      s     py     pz     px    dxy    dyz    dz2    dxz  x2-y2    tot
    1  0.000  0.000  0.062  0.062  0.098  0.098  0.390  0.000  0.130  0.841
 

 k-point    12 :   -0.45454545 0.09090909-0.00000000     weight = 0.01803156

band     1 # energy    4.64003307 # occ.  1.00000000
 
ion      s     py     pz     px    dxy    dyz    dz2    dxz  x2-y2    tot
    1  0.156  0.005  0.004  0.004  0.229  0.229  0.000  0.268  0.000  0.894
 
band     2 # energy    6.73426967 # occ.  1.00000000
 
ion      s     py     pz     px    dxy    dyz    dz2    dxz  x2-y2    tot
    1  0.000  0.000  0.004  0.004  0.060  0.060  0.152  0.219  0.457  0.957
 
band     3 # energy    6.97193271 # occ.  1.00000000
 
ion      s     py     pz     px    dxy    dyz    dz2    dxz  x2-y2    tot
    1  0.000  0.000  0.001  0.001  0.203  0.203  0.422  0.000  0.141  0.969
 
band     4 # energy    7.68503624 # occ.  1.00000000
 
ion      s     py     pz     px    dxy    dyz    dz2    dxz  x2-y2    tot
    1  0.001  0.077  0.077  0.077  0.099  0.099  0.044  0.267  0.132  0.873
 
band     5 # energy    8.59858269 # occ.  1.00000000
 
ion      s     py     pz     px    dxy    dyz    dz2    dxz  x2-y2    tot
    1  0.000  0.000  0.000  0.000  0.290  0.290  0.309  0.000  0.103  0.992
 
band     6 # energy   10.17673567 # occ. -0.04858622
 
ion      s     py     pz     px    dxy    dyz    dz2    dxz  x2-y2    tot
    1  0.006  0.136  0.140  0.140  0.018  0.018  0.048  0.156  0.144  0.806
 
band     7 # energy   14.95770750 # occ.  0.00000000
 
ion      s     py     pz     px    dxy    dyz    dz2    dxz  x2-y2    tot
    1  0.444  0.026  0.000  0.000  0.144  0.144  0.000  0.135  0.000  0.894
 
band     8 # energy   29.40744038 # occ.  0.00000000
 
ion      s     py     pz     px    dxy    dyz    dz2    dxz  x2-y2    tot