<?xml version="1.0" encoding="ISO-8859-1"?>
<modeling>
 <generator>
  <i name="program" type="string">vasp </i>
  <i name="version" type="string">6.3.0  </i>
  <i name="subversion" type="string">20Jan22 (build Feb 01 2022 16:52:37) complex                          parallel </i>
  <i name="platform" type="string">TETRA_NSC1 </i>
  <i name="date" type="string">2022 02 23 </i>
  <i name="time" type="string">15:27:55 </i>
 </generator>
 <incar>
  <i type="string" name="SYSTEM">fcc Ni</i>
  <i type="int" name="ISTART">     0</i>
  <i type="int" name="ISPIN">     2</i>
  <i type="int" name="ICHARG">     2</i>
  <i name="ENCUT">    270.00000000</i>
  <v name="MAGMOM">      1.00000000</v>
  <i type="int" name="ISMEAR">    -5</i>
  <i type="int" name="LORBIT">    11</i>
 </incar>
 <primitive_cell>
  <structure name="primitive_cell" >
   <crystal>
    <varray name="basis" >
     <v>       1.76500000       1.76500000       0.00000000 </v>
     <v>       0.00000000       1.76500000       1.76500000 </v>
     <v>       1.76500000       0.00000000       1.76500000 </v>
    </varray>
    <i name="volume">     10.99674425 </i>
    <varray name="rec_basis" >
     <v>       0.28328612       0.28328612      -0.28328612 </v>
     <v>      -0.28328612       0.28328612       0.28328612 </v>
     <v>       0.28328612      -0.28328612       0.28328612 </v>
    </varray>
   </crystal>
   <varray name="positions" >
    <v>       0.00000000       0.00000000       0.00000000 </v>
   </varray>
  </structure>
  <varray name="primitive_index" >
   <v type="int" >        1 </v>
  </varray>
 </primitive_cell>
 <kpoints>
  <generation param="Monkhorst-Pack">
   <v type="int" name="divisions">      11       11       11 </v>
   <v name="usershift">      0.00000000       0.00000000       0.00000000 </v>
   <v name="genvec1">      0.09090909       0.00000000       0.00000000 </v>
   <v name="genvec2">      0.00000000       0.09090909      -0.00000000 </v>
   <v name="genvec3">     -0.00000000      -0.00000000       0.09090909 </v>
   <v name="shift">      0.00000000       0.00000000       0.00000000 </v>
  </generation>
  <varray name="kpointlist" >
   <v>       0.00000000       0.00000000       0.00000000 </v>
   <v>       0.09090909       0.00000000       0.00000000 </v>
   <v>       0.18181818       0.00000000       0.00000000 </v>
   <v>       0.27272727      -0.00000000      -0.00000000 </v>
   <v>       0.36363636       0.00000000       0.00000000 </v>
   <v>       0.45454545      -0.00000000       0.00000000 </v>
   <v>       0.09090909       0.09090909       0.00000000 </v>
   <v>       0.18181818       0.09090909       0.00000000 </v>
   <v>       0.27272727       0.09090909      -0.00000000 </v>
   <v>       0.36363636       0.09090909      -0.00000000 </v>
   <v>       0.45454545       0.09090909       0.00000000 </v>
   <v>      -0.45454545       0.09090909      -0.00000000 </v>
   <v>      -0.36363636       0.09090909      -0.00000000 </v>
   <v>      -0.27272727       0.09090909       0.00000000 </v>
   <v>      -0.18181818       0.09090909       0.00000000 </v>
   <v>      -0.09090909       0.09090909      -0.00000000 </v>
   <v>       0.18181818       0.18181818       0.00000000 </v>
   <v>       0.27272727       0.18181818      -0.00000000 </v>
   <v>       0.36363636       0.18181818       0.00000000 </v>
   <v>       0.45454545       0.18181818       0.00000000 </v>
   <v>      -0.45454545       0.18181818      -0.00000000 </v>
   <v>      -0.36363636       0.18181818       0.00000000 </v>
   <v>      -0.27272727       0.18181818       0.00000000 </v>
   <v>      -0.18181818       0.18181818      -0.00000000 </v>
   <v>       0.27272727       0.27272727      -0.00000000 </v>
   <v>       0.36363636       0.27272727       0.00000000 </v>
   <v>       0.45454545       0.27272727       0.00000000 </v>
   <v>      -0.45454545       0.27272727      -0.00000000 </v>
   <v>      -0.36363636       0.27272727       0.00000000 </v>
   <v>      -0.27272727       0.27272727       0.00000000 </v>
   <v>       0.36363636       0.36363636       0.00000000 </v>
   <v>       0.45454545       0.36363636       0.00000000 </v>
   <v>      -0.45454545       0.36363636      -0.00000000 </v>
   <v>      -0.36363636       0.36363636      -0.00000000 </v>
   <v>       0.45454545       0.45454545       0.00000000 </v>
   <v>      -0.45454545       0.45454545       0.00000000 </v>
   <v>       0.27272727       0.18181818       0.09090909 </v>
   <v>       0.36363636       0.18181818       0.09090909 </v>
   <v>       0.45454545       0.18181818       0.09090909 </v>
   <v>      -0.45454545       0.18181818       0.09090909 </v>
   <v>       0.36363636       0.27272727       0.09090909 </v>
   <v>       0.45454545       0.27272727       0.09090909 </v>
   <v>      -0.45454545       0.27272727       0.09090909 </v>
   <v>      -0.36363636       0.27272727       0.09090909 </v>
   <v>      -0.27272727       0.27272727       0.09090909 </v>
   <v>      -0.18181818       0.27272727       0.09090909 </v>
   <v>       0.45454545       0.36363636       0.09090909 </v>
   <v>      -0.45454545       0.36363636       0.09090909 </v>
   <v>      -0.36363636       0.36363636       0.09090909 </v>
   <v>      -0.27272727       0.36363636       0.09090909 </v>
   <v>      -0.45454545       0.45454545       0.09090909 </v>
   <v>      -0.36363636       0.45454545       0.09090909 </v>
   <v>      -0.45454545       0.36363636       0.18181818 </v>
   <v>      -0.36363636       0.36363636       0.18181818 </v>
   <v>      -0.36363636       0.45454545       0.18181818 </v>
   <v>      -0.27272727       0.45454545       0.18181818 </v>
  </varray>
  <varray name="weights" >
   <v>       0.00075131 </v>
   <v>       0.00601052 </v>
   <v>       0.00601052 </v>
   <v>       0.00601052 </v>
   <v>       0.00601052 </v>
   <v>       0.00601052 </v>
   <v>       0.00450789 </v>
   <v>       0.01803156 </v>
   <v>       0.01803156 </v>
   <v>       0.01803156 </v>
   <v>       0.01803156 </v>
   <v>       0.01803156 </v>
   <v>       0.01803156 </v>
   <v>       0.01803156 </v>
   <v>       0.01803156 </v>
   <v>       0.00901578 </v>
   <v>       0.00450789 </v>
   <v>       0.01803156 </v>
   <v>       0.01803156 </v>
   <v>       0.01803156 </v>
   <v>       0.01803156 </v>
   <v>       0.01803156 </v>
   <v>       0.01803156 </v>
   <v>       0.00901578 </v>
   <v>       0.00450789 </v>
   <v>       0.01803156 </v>
   <v>       0.01803156 </v>
   <v>       0.01803156 </v>
   <v>       0.01803156 </v>
   <v>       0.00901578 </v>
   <v>       0.00450789 </v>
   <v>       0.01803156 </v>
   <v>       0.01803156 </v>
   <v>       0.00901578 </v>
   <v>       0.00450789 </v>
   <v>       0.00901578 </v>
   <v>       0.01803156 </v>
   <v>       0.03606311 </v>
   <v>       0.03606311 </v>
   <v>       0.03606311 </v>
   <v>       0.01803156 </v>
   <v>       0.03606311 </v>
   <v>       0.03606311 </v>
   <v>       0.03606311 </v>
   <v>       0.03606311 </v>
   <v>       0.01803156 </v>
   <v>       0.01803156 </v>
   <v>       0.03606311 </v>
   <v>       0.03606311 </v>
   <v>       0.01803156 </v>
   <v>       0.01803156 </v>
   <v>       0.01803156 </v>
   <v>       0.01803156 </v>
   <v>       0.03606311 </v>
   <v>       0.01803156 </v>
   <v>       0.01803156 </v>
  </varray>
  <varray name="tetrahedronlist"  type="int" >
   <v type="int" >       24        1        2        2        7 </v>
   <v type="int" >       48        2        7        8       16 </v>
   <v type="int" >       48        2        3        8       16 </v>
   <v type="int" >       24        2        2        7       16 </v>
   <v type="int" >       48        3        8        9       15 </v>
   <v type="int" >       48        3        4        9       15 </v>
   <v type="int" >       48        3        8       15       16 </v>
   <v type="int" >       48        4        9       10       14 </v>
   <v type="int" >       48        4        5       10       14 </v>
   <v type="int" >       48        4        9       14       15 </v>
   <v type="int" >       48        5       10       11       13 </v>
   <v type="int" >       48        5        6       11       13 </v>
   <v type="int" >       48        5       10       13       14 </v>
   <v type="int" >       48        6       11       12       12 </v>
   <v type="int" >       24        6        6       12       12 </v>
   <v type="int" >       48        6       11       12       13 </v>
   <v type="int" >       24        7        8        8       17 </v>
   <v type="int" >       24        7        8        8       16 </v>
   <v type="int" >       48        8       17       18       37 </v>
   <v type="int" >       48        8        9       18       37 </v>
   <v type="int" >       48        8        9       15       37 </v>
   <v type="int" >       24        8        8       17       37 </v>
   <v type="int" >       24        8        8       16       37 </v>
   <v type="int" >       48        8       15       16       37 </v>
   <v type="int" >       48        9       18       19       38 </v>
   <v type="int" >       48        9       10       19       38 </v>
   <v type="int" >       48        9       10       14       38 </v>
   <v type="int" >       48        9       18       37       38 </v>
   <v type="int" >       48        9       15       37       38 </v>
   <v type="int" >       48        9       14       15       38 </v>
   <v type="int" >       48       10       19       20       39 </v>
   <v type="int" >       48       10       11       20       39 </v>
   <v type="int" >       48       10       11       13       39 </v>
   <v type="int" >       48       10       19       38       39 </v>
   <v type="int" >       48       10       14       38       39 </v>
   <v type="int" >       48       10       13       14       39 </v>
   <v type="int" >       48       11       20       21       40 </v>
   <v type="int" >       48       11       12       21       40 </v>
   <v type="int" >       48       11       12       12       40 </v>
   <v type="int" >       48       11       20       39       40 </v>
   <v type="int" >       48       11       13       39       40 </v>
   <v type="int" >       48       11       12       13       40 </v>
   <v type="int" >       48       12       21       22       40 </v>
   <v type="int" >       48       12       13       22       40 </v>
   <v type="int" >       48       12       21       40       40 </v>
   <v type="int" >       24       12       12       40       40 </v>
   <v type="int" >       48       13       22       23       39 </v>
   <v type="int" >       48       13       14       23       39 </v>
   <v type="int" >       48       13       22       39       40 </v>
   <v type="int" >       48       14       23       24       38 </v>
   <v type="int" >       48       14       15       24       38 </v>
   <v type="int" >       48       14       23       38       39 </v>
   <v type="int" >       24       15       15       24       37 </v>
   <v type="int" >       24       15       15       16       37 </v>
   <v type="int" >       48       15       24       37       38 </v>
   <v type="int" >       24       17       18       18       25 </v>
   <v type="int" >       24       17       18       18       37 </v>
   <v type="int" >       48       18       25       26       41 </v>
   <v type="int" >       48       18       19       26       41 </v>
   <v type="int" >       48       18       19       38       41 </v>
   <v type="int" >       24       18       18       25       41 </v>
   <v type="int" >       24       18       18       37       41 </v>
   <v type="int" >       48       18       37       38       41 </v>
   <v type="int" >       48       19       26       27       42 </v>
   <v type="int" >       48       19       20       27       42 </v>
   <v type="int" >       48       19       20       39       42 </v>
   <v type="int" >       48       19       26       41       42 </v>
   <v type="int" >       48       19       38       41       42 </v>
   <v type="int" >       48       19       38       39       42 </v>
   <v type="int" >       48       20       27       28       43 </v>
   <v type="int" >       48       20       21       28       43 </v>
   <v type="int" >       48       20       21       40       43 </v>
   <v type="int" >       48       20       27       42       43 </v>
   <v type="int" >       48       20       39       42       43 </v>
   <v type="int" >       48       20       39       40       43 </v>
   <v type="int" >       48       21       28       29       44 </v>
   <v type="int" >       48       21       22       29       44 </v>
   <v type="int" >       48       21       22       40       44 </v>
   <v type="int" >       48       21       28       43       44 </v>
   <v type="int" >       48       21       40       43       44 </v>
   <v type="int" >       48       21       40       40       44 </v>
   <v type="int" >       48       22       29       30       45 </v>
   <v type="int" >       48       22       23       30       45 </v>
   <v type="int" >       48       22       23       39       45 </v>
   <v type="int" >       48       22       29       44       45 </v>
   <v type="int" >       48       22       40       44       45 </v>
   <v type="int" >       48       22       39       40       45 </v>
   <v type="int" >       24       23       23       30       46 </v>
   <v type="int" >       24       23       23       24       46 </v>
   <v type="int" >       48       23       24       38       46 </v>
   <v type="int" >       48       23       30       45       46 </v>
   <v type="int" >       48       23       39       45       46 </v>
   <v type="int" >       48       23       38       39       46 </v>
   <v type="int" >       24       24       38       38       46 </v>
   <v type="int" >       24       24       37       38       38 </v>
   <v type="int" >       24       25       26       26       31 </v>
   <v type="int" >       24       25       26       26       41 </v>
   <v type="int" >       48       26       31       32       47 </v>
   <v type="int" >       48       26       27       32       47 </v>
   <v type="int" >       48       26       27       42       47 </v>
   <v type="int" >       24       26       26       31       47 </v>
   <v type="int" >       24       26       26       41       47 </v>
   <v type="int" >       48       26       41       42       47 </v>
   <v type="int" >       48       27       32       33       48 </v>
   <v type="int" >       48       27       28       33       48 </v>
   <v type="int" >       48       27       28       43       48 </v>
   <v type="int" >       48       27       32       47       48 </v>
   <v type="int" >       48       27       42       47       48 </v>
   <v type="int" >       48       27       42       43       48 </v>
   <v type="int" >       48       28       33       34       49 </v>
   <v type="int" >       48       28       29       34       49 </v>
   <v type="int" >       48       28       29       44       49 </v>
   <v type="int" >       48       28       33       48       49 </v>
   <v type="int" >       48       28       43       48       49 </v>
   <v type="int" >       48       28       43       44       49 </v>
   <v type="int" >       24       29       29       34       50 </v>
   <v type="int" >       24       29       29       30       50 </v>
   <v type="int" >       48       29       30       45       50 </v>
   <v type="int" >       48       29       34       49       50 </v>
   <v type="int" >       48       29       44       49       50 </v>
   <v type="int" >       48       29       44       45       50 </v>
   <v type="int" >       24       30       45       45       50 </v>
   <v type="int" >       24       30       45       45       46 </v>
   <v type="int" >       24       31       32       32       35 </v>
   <v type="int" >       24       31       32       32       47 </v>
   <v type="int" >       48       32       35       36       51 </v>
   <v type="int" >       48       32       33       36       51 </v>
   <v type="int" >       48       32       33       48       51 </v>
   <v type="int" >       24       32       32       35       51 </v>
   <v type="int" >       24       32       32       47       51 </v>
   <v type="int" >       48       32       47       48       51 </v>
   <v type="int" >       24       33       33       36       52 </v>
   <v type="int" >       24       33       33       34       52 </v>
   <v type="int" >       48       33       34       49       52 </v>
   <v type="int" >       48       33       36       51       52 </v>
   <v type="int" >       48       33       48       51       52 </v>
   <v type="int" >       48       33       48       49       52 </v>
   <v type="int" >       24       34       49       49       52 </v>
   <v type="int" >       24       34       49       49       50 </v>
   <v type="int" >       12       35       35       36       36 </v>
   <v type="int" >       24       35       36       36       51 </v>
   <v type="int" >       12       36       36       51       51 </v>
   <v type="int" >       24       36       51       51       52 </v>
   <v type="int" >       24       37       38       38       41 </v>
   <v type="int" >       48       38       41       42       46 </v>
   <v type="int" >       48       38       39       42       46 </v>
   <v type="int" >       24       38       38       41       46 </v>
   <v type="int" >       48       39       42       43       45 </v>
   <v type="int" >       48       39       40       43       45 </v>
   <v type="int" >       48       39       42       45       46 </v>
   <v type="int" >       48       40       43       44       44 </v>
   <v type="int" >       24       40       40       44       44 </v>
   <v type="int" >       48       40       43       44       45 </v>
   <v type="int" >       24       41       42       42       47 </v>
   <v type="int" >       24       41       42       42       46 </v>
   <v type="int" >       48       42       47       48       53 </v>
   <v type="int" >       48       42       43       48       53 </v>
   <v type="int" >       48       42       43       45       53 </v>
   <v type="int" >       24       42       42       47       53 </v>
   <v type="int" >       24       42       42       46       53 </v>
   <v type="int" >       48       42       45       46       53 </v>
   <v type="int" >       48       43       48       49       54 </v>
   <v type="int" >       48       43       44       49       54 </v>
   <v type="int" >       48       43       44       44       54 </v>
   <v type="int" >       48       43       48       53       54 </v>
   <v type="int" >       48       43       45       53       54 </v>
   <v type="int" >       48       43       44       45       54 </v>
   <v type="int" >       48       44       49       50       54 </v>
   <v type="int" >       48       44       45       50       54 </v>
   <v type="int" >       48       44       49       54       54 </v>
   <v type="int" >       24       44       44       54       54 </v>
   <v type="int" >       24       45       45       50       53 </v>
   <v type="int" >       24       45       45       46       53 </v>
   <v type="int" >       48       45       50       53       54 </v>
   <v type="int" >       24       47       48       48       51 </v>
   <v type="int" >       24       47       48       48       53 </v>
   <v type="int" >       48       48       51       52       55 </v>
   <v type="int" >       48       48       49       52       55 </v>
   <v type="int" >       48       48       49       54       55 </v>
   <v type="int" >       24       48       48       51       55 </v>
   <v type="int" >       24       48       48       53       55 </v>
   <v type="int" >       48       48       53       54       55 </v>
   <v type="int" >       24       49       49       52       56 </v>
   <v type="int" >       24       49       49       50       56 </v>
   <v type="int" >       48       49       50       54       56 </v>
   <v type="int" >       48       49       52       55       56 </v>
   <v type="int" >       48       49       54       55       56 </v>
   <v type="int" >       48       49       54       54       56 </v>
   <v type="int" >       24       50       54       54       56 </v>
   <v type="int" >       24       50       53       54       54 </v>
   <v type="int" >       12       51       51       52       52 </v>
   <v type="int" >       24       51       52       52       55 </v>
   <v type="int" >       12       52       52       55       55 </v>
   <v type="int" >       24       52       55       55       56 </v>
   <v type="int" >       24       53       54       54       55 </v>
   <v type="int" >       48       54       55       56       56 </v>
   <v type="int" >       24       54       54       56       56 </v>
   <v type="int" >       24       54       54       55       56 </v>
   <v type="int" >       12       55       55       56       56 </v>
   <v type="int" >       24       55       56       56       56 </v>
   <v type="int" >        6       56       56       56       56 </v>
  </varray>
  <i name="volumeweight">      0.00012522 </i>
 </kpoints>
 <parameters>
  <separator name="general" >
   <i type="string" name="SYSTEM">fcc Ni</i>
   <i type="logical" name="LCOMPAT"> F  </i>
  </separator>
  <separator name="electronic" >
   <i type="string" name="PREC">normal</i>
   <i name="ENMAX">    270.00000000</i>
   <i name="ENAUG">    544.56500000</i>
   <i name="EDIFF">      0.00010000</i>
   <i type="int" name="IALGO">    38</i>
   <i type="int" name="IWAVPR">    10</i>
   <i type="int" name="NBANDS">    12</i>
   <i type="int" name="NBANDSLOW">    -1</i>
   <i type="int" name="NBANDSHIGH">    -1</i>
   <i name="NELECT">     10.00000000</i>
   <i type="int" name="TURBO">     0</i>
   <i type="int" name="IRESTART">     0</i>
   <i type="int" name="NREBOOT">     0</i>
   <i type="int" name="NMIN">     0</i>
   <i name="EREF">      0.00000000</i>
   <separator name="electronic smearing" >
    <i type="int" name="ISMEAR">    -5</i>
    <i name="SIGMA">      0.20000000</i>
    <i name="KSPACING">      0.50000000</i>
    <i type="logical" name="KGAMMA"> T  </i>
    <i type="logical" name="KBLOWUP"> T  </i>
   </separator>
   <separator name="electronic projectors" >
    <i type="logical" name="LREAL"> F  </i>
    <v name="ROPT">      0.00000000</v>
    <i type="int" name="LMAXPAW">  -100</i>
    <i type="int" name="LMAXMIX">     2</i>
    <i type="logical" name="NLSPLINE"> F  </i>
   </separator>
   <separator name="electronic startup" >
    <i type="int" name="ISTART">     0</i>
    <i type="int" name="ICHARG">     2</i>
    <i type="int" name="INIWAV">     1</i>
   </separator>
   <separator name="electronic spin" >
    <i type="int" name="ISPIN">     2</i>
    <i type="logical" name="LNONCOLLINEAR"> F  </i>
    <v name="MAGMOM">      1.00000000</v>
    <i name="NUPDOWN">     -1.00000000</i>
    <i type="logical" name="LSORBIT"> F  </i>
    <v name="SAXIS">      0.00000000      0.00000000      1.00000000</v>
    <i type="logical" name="LSPIRAL"> F  </i>
    <v name="QSPIRAL">      0.00000000      0.00000000      0.00000000</v>
    <i type="logical" name="LZEROZ"> F  </i>
   </separator>
   <separator name="electronic exchange-correlation" >
    <i type="logical" name="LASPH"> F  </i>
    <i type="logical" name="LMETAGGA"> F  </i>
   </separator>
   <separator name="electronic convergence" >
    <i type="int" name="NELM">    60</i>
    <i type="int" name="NELMDL">    -5</i>
    <i type="int" name="NELMIN">     2</i>
    <i name="ENINI">    270.00000000</i>
    <separator name="electronic convergence detail" >
     <i type="logical" name="LDIAG"> T  </i>
     <i type="logical" name="LSUBROT"> F  </i>
     <i name="WEIMIN">      0.00000000</i>
     <i name="EBREAK">      0.00000208</i>
     <i name="DEPER">      0.30000000</i>
     <i type="int" name="NRMM">     4</i>
     <i name="TIME">      0.40000000</i>
    </separator>
   </separator>
   <separator name="electronic mixer" >
    <i name="AMIX">      0.40000000</i>
    <i name="BMIX">      1.00000000</i>
    <i name="AMIN">      0.10000000</i>
    <i name="AMIX_MAG">      1.60000000</i>
    <i name="BMIX_MAG">      1.00000000</i>
    <separator name="electronic mixer details" >
     <i type="int" name="IMIX">     4</i>
     <i type="logical" name="MIXFIRST"> F  </i>
     <i type="int" name="MAXMIX">   -45</i>
     <i name="WC">    100.00000000</i>
     <i type="int" name="INIMIX">     1</i>
     <i type="int" name="MIXPRE">     1</i>
     <i type="int" name="MREMOVE">     5</i>
    </separator>
   </separator>
   <separator name="electronic dipolcorrection" >
    <i type="logical" name="LDIPOL"> F  </i>
    <i type="logical" name="LMONO"> F  </i>
    <i type="int" name="IDIPOL">     0</i>
    <i name="EPSILON">      1.00000000</i>
    <v name="DIPOL">   -100.00000000   -100.00000000   -100.00000000</v>
    <i name="EFIELD">      0.00000000</i>
   </separator>
  </separator>
  <separator name="grids" >
   <i type="int" name="NGX">    10</i>
   <i type="int" name="NGY">    10</i>
   <i type="int" name="NGZ">    10</i>
   <i type="int" name="NGXF">    20</i>
   <i type="int" name="NGYF">    20</i>
   <i type="int" name="NGZF">    20</i>
   <i type="logical" name="ADDGRID"> F  </i>
  </separator>
  <separator name="ionic" >
   <i type="int" name="NSW">     0</i>
   <i type="int" name="IBRION">    -1</i>
   <i type="int" name="MDALGO">     0</i>
   <i type="int" name="ISIF">     2</i>
   <i name="PSTRESS">      0.00000000</i>
   <i name="EDIFFG">      0.00100000</i>
   <i type="int" name="NFREE">     0</i>
   <i name="POTIM">      0.50000000</i>
   <i name="SMASS">     -3.00000000</i>
   <i name="SCALEE">      1.00000000</i>
  </separator>
  <separator name="ionic md" >
   <i name="TEBEG">      0.00010000</i>
   <i name="TEEND">      0.00010000</i>
   <i type="int" name="NBLOCK">     1</i>
   <i type="int" name="KBLOCK">     1</i>
   <i type="int" name="NPACO">   256</i>
   <i name="APACO">     10.00000000</i>
  </separator>
  <separator name="symmetry" >
   <i type="int" name="ISYM">     2</i>
   <i name="SYMPREC">      0.00001000</i>
  </separator>
  <separator name="dos" >
   <i type="int" name="LORBIT">    11</i>
   <v name="RWIGS">     -1.00000000</v>
   <i type="int" name="NEDOS">   301</i>
   <i name="EMIN">     10.00000000</i>
   <i name="EMAX">    -10.00000000</i>
   <i name="EFERMI">      0.00000000</i>
  </separator>
  <separator name="writing" >
   <i type="int" name="NWRITE">     2</i>
   <i type="logical" name="LWAVE"> T  </i>
   <i type="logical" name="LDOWNSAMPLE"> F  </i>
   <i type="logical" name="LCHARG"> T  </i>
   <i type="logical" name="LPARD"> F  </i>
   <i type="logical" name="LVTOT"> F  </i>
   <i type="logical" name="LVHAR"> F  </i>
   <i type="logical" name="LELF"> F  </i>
   <i type="logical" name="LOPTICS"> F  </i>
   <v name="STM">      0.00000000      0.00000000      0.00000000      0.00000000      0.00000000      0.00000000      0.00000000</v>
  </separator>
  <separator name="performance" >
   <i type="int" name="NPAR">     4</i>
   <i type="int" name="NSIM">     4</i>
   <i type="int" name="NBLK">    -1</i>
   <i type="logical" name="LPLANE"> T  </i>
   <i type="logical" name="LSCALAPACK"> T  </i>
   <i type="logical" name="LSCAAWARE"> F  </i>
   <i type="logical" name="LSCALU"> F  </i>
   <i type="logical" name="LASYNC"> F  </i>
   <i type="logical" name="LORBITALREAL"> F  </i>
  </separator>
  <separator name="miscellaneous" >
   <i type="int" name="IDIOT">     3</i>
   <i type="int" name="PHON_NSTRUCT">    -1</i>
   <i type="logical" name="LMUSIC"> F  </i>
   <v name="POMASS">     58.69000000</v>
   <v name="DARWINR">      0.00000000</v>
   <v name="DARWINV">      1.00000000</v>
   <i type="logical" name="LCORR"> T  </i>
  </separator>
  <i type="logical" name="GGA_COMPAT"> T  </i>
  <i type="logical" name="LBERRY"> F  </i>
  <i type="int" name="ICORELEVEL">     0</i>
  <i type="logical" name="LDAU"> F  </i>
  <i type="int" name="I_CONSTRAINED_M">     0</i>
  <separator name="electronic exchange-correlation" >
   <i type="string" name="GGA">--</i>
   <i type="int" name="VOSKOWN">     0</i>
   <i type="logical" name="LHFCALC"> F  </i>
   <i type="string" name="PRECFOCK"></i>
   <i type="logical" name="LSYMGRAD"> F  </i>
   <i type="logical" name="LHFONE"> F  </i>
   <i type="logical" name="LRHFCALC"> F  </i>
   <i type="logical" name="LTHOMAS"> F  </i>
   <i type="logical" name="LMODELHF"> F  </i>
   <i type="logical" name="LFOCKACE"> F  </i>
   <i name="ENCUT4O">     -1.00000000</i>
   <i type="int" name="EXXOEP">     0</i>
   <i type="int" name="FOURORBIT">     0</i>
   <i name="AEXX">      0.00000000</i>
   <i name="HFALPHA">      0.00000000</i>
   <i name="MCALPHA">      0.00000000</i>
   <i name="ALDAX">      1.00000000</i>
   <i name="AGGAX">      1.00000000</i>
   <i name="ALDAC">      1.00000000</i>
   <i name="AGGAC">      1.00000000</i>
   <i type="int" name="NKREDX">     1</i>
   <i type="int" name="NKREDY">     1</i>
   <i type="int" name="NKREDZ">     1</i>
   <i type="logical" name="SHIFTRED"> F  </i>
   <i type="logical" name="ODDONLY"> F  </i>
   <i type="logical" name="EVENONLY"> F  </i>
   <i type="int" name="LMAXFOCK">     0</i>
   <i type="int" name="NMAXFOCKAE">     0</i>
   <i type="logical" name="LFOCKAEDFT"> F  </i>
   <i name="HFSCREEN">      0.00000000</i>
   <i name="HFSCREENC">      0.00000000</i>
   <i type="int" name="NBANDSGWLOW">     0</i>
  </separator>
  <separator name="vdW DFT" >
   <i type="logical" name="LUSE_VDW"> F  </i>
   <i name="Zab_VDW">     -0.84910000</i>
   <i name="PARAM1">      0.12340000</i>
   <i name="PARAM2">      1.00000000</i>
   <i name="PARAM3">      0.00000000</i>
  </separator>
  <separator name="model GW" >
   <i type="int" name="MODEL_GW">     0</i>
   <i name="MODEL_EPS0">      6.59804655</i>
   <i name="MODEL_ALPHA">      1.00000000</i>
  </separator>
  <separator name="linear response parameters" >
   <i type="logical" name="LEPSILON"> F  </i>
   <i type="logical" name="LRPA"> F  </i>
   <i type="logical" name="LNABLA"> F  </i>
   <i type="logical" name="LVEL"> F  </i>
   <i name="CSHIFT">      0.10000000</i>
   <i name="OMEGAMAX">     -1.00000000</i>
   <i name="DEG_THRESHOLD">      0.00200000</i>
   <i name="RTIME">     -0.10000000</i>
   <i name="WPLASMAI">      0.00000000</i>
   <v name="DFIELD">      0.00000000      0.00000000      0.00000000</v>
   <v name="WPLASMA">      0.00000000      0.00000000      0.00000000      0.00000000      0.00000000      0.00000000      0.00000000      0.00000000      0.00000000</v>
  </separator>
  <separator name="orbital magnetization" >
   <i type="logical" name="NUCIND"> F  </i>
   <v name="MAGPOS">      0.00000000      0.00000000      0.00000000</v>
   <i type="logical" name="LNICSALL"> T  </i>
   <i type="logical" name="ORBITALMAG"> F  </i>
   <i type="logical" name="LMAGBLOCH"> F  </i>
   <i type="logical" name="LCHIMAG"> F  </i>
   <i type="logical" name="LGAUGE"> T  </i>
   <i type="int" name="MAGATOM">     0</i>
   <v name="MAGDIPOL">      0.00000000      0.00000000      0.00000000</v>
   <v name="AVECCONST">      0.00000000      0.00000000      0.00000000</v>
  </separator>
  <separator name="response functions" >
   <i type="logical" name="LFINITE_TEMPERATURE"> F  </i>
   <i type="logical" name="LADDER"> F  </i>
   <i type="logical" name="LRPAFORCE"> F  </i>
   <i type="logical" name="LFXC"> F  </i>
   <i type="logical" name="LHARTREE"> T  </i>
   <i type="int" name="IBSE">     0</i>
   <v type="int" name="KPOINT">    -1     0     0     0</v>
   <i type="logical" name="LTCTC"> F  </i>
   <i type="logical" name="LTCTE"> F  </i>
   <i type="logical" name="LTETE"> F  </i>
   <i type="logical" name="LTRIPLET"> F  </i>
   <i type="logical" name="LFXCEPS"> F  </i>
   <i type="logical" name="LFXHEG"> F  </i>
   <i type="int" name="NATURALO">     2</i>
   <i type="logical" name="LHOLEGF"> F  </i>
   <i type="logical" name="L2ORDER"> F  </i>
   <i type="logical" name="LDMP1"> F  </i>
   <i type="logical" name="LMP2LT"> F  </i>
   <i type="logical" name="LSMP2LT"> F  </i>
   <i type="logical" name="LGWLF"> F  </i>
   <i name="ENCUTGW">     -2.00000000</i>
   <i name="ENCUTGWSOFT">     -2.00000000</i>
   <i name="ENCUTLF">     -1.00000000</i>
   <i type="logical" name="LESF_SPLINES"> F  </i>
   <i type="int" name="LMAXMP2">    -1</i>
   <i name="SCISSOR">      0.00000000</i>
   <i type="int" name="NOMEGA">     0</i>
   <i type="int" name="NOMEGAR">     0</i>
   <i type="int" name="NBANDSGW">    -1</i>
   <i type="int" name="NBANDSO">    -1</i>
   <i type="int" name="NBANDSV">    -1</i>
   <i type="int" name="NELMGW">     1</i>
   <i type="int" name="NELMHF">     1</i>
   <i type="int" name="DIM">     3</i>
   <i type="int" name="IESPILON">     4</i>
   <i type="int" name="ANTIRES">     0</i>
   <i name="OMEGAMAX">    -30.00000000</i>
   <i name="OMEGAMIN">    -30.00000000</i>
   <i name="OMEGATL">   -200.00000000</i>
   <i type="int" name="OMEGAGRID">     0</i>
   <i name="CSHIFT">     -0.10000000</i>
   <i type="logical" name="LSELFENERGY"> F  </i>
   <i type="logical" name="LSPECTRAL"> F  </i>
   <i type="logical" name="LSPECTRALGW"> F  </i>
   <i type="logical" name="LSINGLES"> F  </i>
   <i type="logical" name="LFERMIGW"> F  </i>
   <i type="logical" name="ODDONLYGW"> F  </i>
   <i type="logical" name="EVENONLYGW"> F  </i>
   <i type="int" name="NKREDLFX">     1</i>
   <i type="int" name="NKREDLFY">     1</i>
   <i type="int" name="NKREDLFZ">     1</i>
   <i type="int" name="MAXMEM">  2800</i>
   <i type="int" name="TELESCOPE">     0</i>
   <i type="int" name="NTAUPAR">    -1</i>
   <i type="int" name="NOMEGAPAR">    -1</i>
   <i name="DAMP_NEWTON">      0.80000001</i>
   <i name="LAMBDA">      1.00000000</i>
  </separator>
  <separator name="External order field" >
   <i name="OFIELD_KAPPA">      0.00000000</i>
   <v name="OFIELD_K">      0.00000000      0.00000000      0.00000000</v>
   <i name="OFIELD_Q6_NEAR">      0.00000000</i>
   <i name="OFIELD_Q6_FAR">      0.00000000</i>
   <i name="OFIELD_A">      0.00000000</i>
  </separator>
  <separator name="optional k-points parameters" >
   <i type="int" name="KPOINTS_OPT_MODE">     1</i>
   <i type="logical" name="LKPOINTS_OPT"> F  </i>
  </separator>
 </parameters>
 <atominfo>
  <atoms>       1 </atoms>
  <types>       1 </types>
  <array name="atoms" >
   <dimension dim="1">ion</dimension>
   <field type="string">element</field>
   <field type="int">atomtype</field>
   <set>
    <rc><c>Ni</c><c>   1</c></rc>
   </set>
  </array>
  <array name="atomtypes" >
   <dimension dim="1">type</dimension>
   <field type="int">atomspertype</field>
   <field type="string">element</field>
   <field>mass</field>
   <field>valence</field>
   <field type="string">pseudopotential</field>
   <set>
    <rc><c>   1</c><c>Ni</c><c>     58.69000000</c><c>     10.00000000</c><c>  PAW_PBE Ni 02Aug2007                  </c></rc>
   </set>
  </array>
 </atominfo>
 <structure name="initialpos" >
  <crystal>
   <varray name="basis" >
    <v>       1.76500000       1.76500000       0.00000000 </v>
    <v>       0.00000000       1.76500000       1.76500000 </v>
    <v>       1.76500000       0.00000000       1.76500000 </v>
   </varray>
   <i name="volume">     10.99674425 </i>
   <varray name="rec_basis" >
    <v>       0.28328612       0.28328612      -0.28328612 </v>
    <v>      -0.28328612       0.28328612       0.28328612 </v>
    <v>       0.28328612      -0.28328612       0.28328612 </v>
   </varray>
  </crystal>
  <varray name="positions" >
   <v>       0.00000000       0.00000000       0.00000000 </v>
  </varray>
 </structure>
 <calculation>
  <scstep>
   <time name="dav">    0.18    0.18</time>
   <time name="total">    0.19    0.19</time>
   <energy>
    <i name="alphaZ">     46.37681830 </i>
    <i name="ewald">   -935.14218197 </i>
    <i name="hartreedc">   -246.59910865 </i>
    <i name="XCdc">     31.74608782 </i>
    <i name="pawpsdc">    962.83317360 </i>
    <i name="pawaedc">  -1029.67071227 </i>
    <i name="eentropy">      0.00000000 </i>
    <i name="bandstr">    110.55484413 </i>
    <i name="atom">   1077.63607467 </i>
    <i name="e_fr_energy">     17.73499562 </i>
    <i name="e_wo_entrp">     17.73499562 </i>
    <i name="e_0_energy">     17.73499562 </i>
   </energy>
  </scstep>
  <scstep>
   <time name="dav">    0.16    0.17</time>
   <time name="total">    0.17    0.17</time>
   <energy>
    <i name="e_fr_energy">     -6.02785978 </i>
    <i name="e_wo_entrp">     -6.02785978 </i>
    <i name="e_0_energy">     -6.02785978 </i>
   </energy>
  </scstep>
  <scstep>
   <time name="dav">    0.18    0.18</time>
   <time name="total">    0.19    0.19</time>
   <energy>
    <i name="e_fr_energy">     -6.48469367 </i>
    <i name="e_wo_entrp">     -6.48469367 </i>
    <i name="e_0_energy">     -6.48469367 </i>
   </energy>
  </scstep>
  <scstep>
   <time name="dav">    0.19    0.19</time>
   <time name="total">    0.20    0.20</time>
   <energy>
    <i name="e_fr_energy">     -6.48663931 </i>
    <i name="e_wo_entrp">     -6.48663931 </i>
    <i name="e_0_energy">     -6.48663931 </i>
   </energy>
  </scstep>
  <scstep>
   <time name="dav">    0.19    0.19</time>
   <time name="total">    0.20    0.20</time>
   <energy>
    <i name="e_fr_energy">     -6.48666247 </i>
    <i name="e_wo_entrp">     -6.48666247 </i>
    <i name="e_0_energy">     -6.48666247 </i>
   </energy>
  </scstep>
  <scstep>
   <time name="dav">    0.20    0.20</time>
   <time name="total">    0.22    0.22</time>
   <energy>
    <i name="e_fr_energy">     -5.80271236 </i>
    <i name="e_wo_entrp">     -5.80271236 </i>
    <i name="e_0_energy">     -5.80271236 </i>
   </energy>
  </scstep>
  <scstep>
   <time name="dav">    0.20    0.20</time>
   <time name="total">    0.22    0.22</time>
   <energy>
    <i name="e_fr_energy">     -5.47663533 </i>
    <i name="e_wo_entrp">     -5.47663533 </i>
    <i name="e_0_energy">     -5.47663533 </i>
   </energy>
  </scstep>
  <scstep>
   <time name="dav">    0.21    0.22</time>
   <time name="total">    0.23    0.23</time>
   <energy>
    <i name="e_fr_energy">     -5.46236601 </i>
    <i name="e_wo_entrp">     -5.46236601 </i>
    <i name="e_0_energy">     -5.46236601 </i>
   </energy>
  </scstep>
  <scstep>
   <time name="dav">    0.19    0.19</time>
   <time name="total">    0.20    0.20</time>
   <energy>
    <i name="e_fr_energy">     -5.45997198 </i>
    <i name="e_wo_entrp">     -5.45997198 </i>
    <i name="e_0_energy">     -5.45997198 </i>
   </energy>
  </scstep>
  <scstep>
   <time name="dav">    0.15    0.15</time>
   <time name="total">    0.16    0.17</time>
   <energy>
    <i name="e_fr_energy">     -5.45937084 </i>
    <i name="e_wo_entrp">     -5.45937084 </i>
    <i name="e_0_energy">     -5.45937084 </i>
   </energy>
  </scstep>
  <scstep>
   <time name="dav">    0.12    0.12</time>
   <time name="total">    0.14    0.14</time>
   <energy>
    <i name="alphaZ">     46.37681830 </i>
    <i name="ewald">   -935.14218197 </i>
    <i name="hartreedc">   -225.97758114 </i>
    <i name="XCdc">     30.67961356 </i>
    <i name="pawpsdc">   1133.02507961 </i>
    <i name="pawaedc">  -1201.49583042 </i>
    <i name="eentropy">      0.00000000 </i>
    <i name="bandstr">     69.43862654 </i>
    <i name="atom">   1077.63607467 </i>
    <i name="e_fr_energy">     -5.45938084 </i>
    <i name="e_wo_entrp">     -5.45938084 </i>
    <i name="e_0_energy">     -5.45938084 </i>
   </energy>
  </scstep>
  <structure>
   <crystal>
    <varray name="basis" >
     <v>       1.76500000       1.76500000       0.00000000 </v>
     <v>       0.00000000       1.76500000       1.76500000 </v>
     <v>       1.76500000       0.00000000       1.76500000 </v>
    </varray>
    <i name="volume">     10.99674425 </i>
    <varray name="rec_basis" >
     <v>       0.28328612       0.28328612      -0.28328612 </v>
     <v>      -0.28328612       0.28328612       0.28328612 </v>
     <v>       0.28328612      -0.28328612       0.28328612 </v>
    </varray>
   </crystal>
   <varray name="positions" >
    <v>       0.00000000       0.00000000       0.00000000 </v>
   </varray>
  </structure>
  <varray name="forces" >
   <v>      -0.00000000       0.00000000       0.00000000 </v>
  </varray>
  <varray name="stress" >
   <v>     -77.97005342       0.00000000       0.00000000 </v>
   <v>       0.00000000     -77.97005342       0.00000000 </v>
   <v>      -0.00000000       0.00000000     -77.97005342 </v>
  </varray>
  <energy>
   <i name="e_fr_energy">     -5.45938084 </i>
   <i name="e_wo_entrp">     -5.45938084 </i>
   <i name="e_0_energy">     -5.45938084 </i>
  </energy>
  <time name="totalsc">    2.23    2.24</time>
  <eigenvalues>
   <array>
    <dimension dim="1">band</dimension>
    <dimension dim="2">kpoint</dimension>
    <dimension dim="3">spin</dimension>
    <field>eigene</field>
    <field>occ</field>
    <set>
     <set comment="spin 1">
      <set comment="kpoint 1">
       <r>    0.2952    1.0000 </r>
       <r>    6.8407    1.0000 </r>
       <r>    6.8407    1.0000 </r>
       <r>    6.8407    1.0000 </r>
       <r>    7.9897    1.0000 </r>
       <r>    7.9897    1.0000 </r>
       <r>   32.8977    0.0000 </r>
       <r>   36.6579    0.0000 </r>
       <r>   36.6581    0.0000 </r>
       <r>   36.6581    0.0000 </r>
       <r>   39.7236    0.0000 </r>
       <r>   39.7237    0.0000 </r>
      </set>
      <set comment="kpoint 2">
       <r>    0.6145    1.0000 </r>
       <r>    6.7636    1.0000 </r>
       <r>    6.9089    1.0000 </r>
       <r>    6.9089    1.0000 </r>
       <r>    7.9634    1.0000 </r>
       <r>    7.9634    1.0000 </r>
       <r>   31.4908    0.0000 </r>
       <r>   34.2484    0.0000 </r>
       <r>   36.0145    0.0000 </r>
       <r>   36.0148    0.0000 </r>
       <r>   40.7103    0.0000 </r>
       <r>   40.7104    0.0000 </r>
      </set>
      <set comment="kpoint 3">
       <r>    1.5312    1.0000 </r>
       <r>    6.5903    1.0000 </r>
       <r>    7.0389    1.0000 </r>
       <r>    7.0389    1.0000 </r>
       <r>    7.9535    1.0000 </r>
       <r>    7.9535    1.0000 </r>
       <r>   27.0269    0.0000 </r>
       <r>   33.5219    0.0000 </r>
       <r>   35.0745    0.0000 </r>
       <r>   35.0747    0.0000 </r>
       <r>   40.7643    0.0000 </r>
       <r>   41.4438    0.0000 </r>
      </set>
      <set comment="kpoint 4">
       <r>    2.8609    1.0000 </r>
       <r>    6.5511    1.0000 </r>
       <r>    7.0505    1.0000 </r>
       <r>    7.0506    1.0000 </r>
       <r>    8.1194    1.0000 </r>
       <r>    8.1195    1.0000 </r>
       <r>   22.4672    0.0000 </r>
       <r>   32.7668    0.0000 </r>
       <r>   34.3609    0.0000 </r>
       <r>   34.3611    0.0000 </r>
       <r>   39.6344    0.0000 </r>
       <r>   39.6345    0.0000 </r>
      </set>
      <set comment="kpoint 5">
       <r>    4.0202    1.0000 </r>
       <r>    6.9504    1.0000 </r>
       <r>    6.9505    1.0000 </r>
       <r>    7.1845    1.0000 </r>
       <r>    8.4062    1.0000 </r>
       <r>    8.4063    1.0819 </r>
       <r>   18.3719    0.0000 </r>
       <r>   31.9494    0.0000 </r>
       <r>   33.9368    0.0000 </r>
       <r>   33.9368    0.0000 </r>
       <r>   37.8281    0.0000 </r>
       <r>   37.8285    0.0000 </r>
      </set>
      <set comment="kpoint 6">
       <r>    4.4304    1.0000 </r>
       <r>    6.8706    1.0000 </r>
       <r>    6.8707    1.0000 </r>
       <r>    8.6129    1.0000 </r>
       <r>    8.6130    1.0000 </r>
       <r>    8.6189    0.8100 </r>
       <r>   15.3546    0.0000 </r>
       <r>   31.4542    0.0000 </r>
       <r>   33.7505    0.0000 </r>
       <r>   33.7508    0.0000 </r>
       <r>   36.8988    0.0000 </r>
       <r>   36.8995    0.0000 </r>
      </set>
      <set comment="kpoint 7">
       <r>    0.7203    1.0000 </r>
       <r>    6.6932    1.0000 </r>
       <r>    6.9596    1.0000 </r>
       <r>    6.9596    1.0000 </r>
       <r>    7.8557    1.0000 </r>
       <r>    8.0438    1.0000 </r>
       <r>   32.0960    0.0000 </r>
       <r>   34.0939    0.0000 </r>
       <r>   34.0940    0.0000 </r>
       <r>   34.9816    0.0000 </r>
       <r>   41.4563    0.0000 </r>
       <r>   42.2399    0.0000 </r>
      </set>
      <set comment="kpoint 8">
       <r>    1.4371    1.0000 </r>
       <r>    6.5169    1.0000 </r>
       <r>    7.0917    1.0000 </r>
       <r>    7.1012    1.0000 </r>
       <r>    7.7551    1.0000 </r>
       <r>    8.0958    1.0000 </r>
       <r>   28.8040    0.0000 </r>
       <r>   32.5544    0.0000 </r>
       <r>   32.6018    0.0000 </r>
       <r>   36.0099    0.0000 </r>
       <r>   39.5042    0.0000 </r>
       <r>   41.8693    0.0000 </r>
      </set>
      <set comment="kpoint 9">
       <r>    2.6444    1.0000 </r>
       <r>    6.3732    1.0000 </r>
       <r>    7.0783    1.0000 </r>
       <r>    7.1756    1.0000 </r>
       <r>    7.9359    1.0000 </r>
       <r>    8.2386    1.0000 </r>
       <r>   24.1670    0.0000 </r>
       <r>   31.6206    0.0000 </r>
       <r>   31.8303    0.0000 </r>
       <r>   35.7380    0.0000 </r>
       <r>   38.9512    0.0000 </r>
       <r>   41.6192    0.0000 </r>
      </set>
      <set comment="kpoint 10">
       <r>    3.9272    1.0000 </r>
       <r>    6.5690    1.0000 </r>
       <r>    6.9096    1.0000 </r>
       <r>    7.1124    1.0000 </r>
       <r>    8.4766    1.0000 </r>
       <r>    8.4870    1.0574 </r>
       <r>   19.8570    0.0000 </r>
       <r>   31.0374    0.0000 </r>
       <r>   31.1858    0.0000 </r>
       <r>   33.8366    0.0000 </r>
       <r>   39.2834    0.0000 </r>
       <r>   41.1118    0.0000 </r>
      </set>
      <set comment="kpoint 11">
       <r>    4.5470    1.0000 </r>
       <r>    6.7575    1.0000 </r>
       <r>    7.0136    1.0000 </r>
       <r>    7.3450    1.0000 </r>
       <r>    8.6378    1.0000 </r>
       <r>    9.4763    0.1465 </r>
       <r>   16.2956    0.0000 </r>
       <r>   30.1838    0.0000 </r>
       <r>   31.3762    0.0000 </r>
       <r>   32.5937    0.0000 </r>
       <r>   39.1349    0.0000 </r>
       <r>   39.5787    0.0000 </r>
      </set>
      <set comment="kpoint 12">
       <r>    4.6400    1.0000 </r>
       <r>    6.7343    1.0000 </r>
       <r>    6.9719    1.0000 </r>
       <r>    7.6850    1.0000 </r>
       <r>    8.5986    1.0000 </r>
       <r>   10.1767   -0.0486 </r>
       <r>   14.9577    0.0000 </r>
       <r>   29.4074    0.0000 </r>
       <r>   32.2795    0.0000 </r>
       <r>   32.3135    0.0000 </r>
       <r>   38.5267    0.0000 </r>
       <r>   39.2357    0.0000 </r>
      </set>
      <set comment="kpoint 13">
       <r>    4.4341    1.0000 </r>
       <r>    6.8215    1.0000 </r>
       <r>    7.0218    1.0000 </r>
       <r>    7.1462    1.0000 </r>
       <r>    8.3458    1.0000 </r>
       <r>    9.2543    0.3704 </r>
       <r>   17.3646    0.0000 </r>
       <r>   28.9866    0.0000 </r>
       <r>   32.8680    0.0000 </r>
       <r>   33.9180    0.0000 </r>
       <r>   37.9709    0.0000 </r>
       <r>   39.3689    0.0000 </r>
      </set>
      <set comment="kpoint 14">
       <r>    3.5469    1.0000 </r>
       <r>    6.4815    1.0000 </r>
       <r>    6.9720    1.0000 </r>
       <r>    7.1354    1.0000 </r>
       <r>    7.9905    1.0000 </r>
       <r>    8.6180    1.0472 </r>
       <r>   21.2439    0.0000 </r>
       <r>   29.0599    0.0000 </r>
       <r>   34.0858    0.0000 </r>
       <r>   36.2413    0.0000 </r>
       <r>   37.8359    0.0000 </r>
       <r>   39.0476    0.0000 </r>
      </set>
      <set comment="kpoint 15">
       <r>    2.2043    1.0000 </r>
       <r>    6.4449    1.0000 </r>
       <r>    7.0731    1.0000 </r>
       <r>    7.1664    1.0000 </r>
       <r>    7.7631    1.0000 </r>
       <r>    8.2339    1.0000 </r>
       <r>   25.6873    0.0000 </r>
       <r>   29.6158    0.0000 </r>
       <r>   35.5497    0.0000 </r>
       <r>   37.9855    0.0000 </r>
       <r>   38.2603    0.0000 </r>
       <r>   39.0690    0.0000 </r>
      </set>
      <set comment="kpoint 16">
       <r>    1.1339    1.0000 </r>
       <r>    6.6250    1.0000 </r>
       <r>    7.0105    1.0000 </r>
       <r>    7.0199    1.0000 </r>
       <r>    7.8287    1.0000 </r>
       <r>    8.0458    1.0000 </r>
       <r>   29.9592    0.0000 </r>
       <r>   31.0559    0.0000 </r>
       <r>   35.6248    0.0000 </r>
       <r>   37.8408    0.0000 </r>
       <r>   39.0238    0.0000 </r>
       <r>   40.0811    0.0000 </r>
      </set>
      <set comment="kpoint 17">
       <r>    1.9281    1.0000 </r>
       <r>    6.3057    1.0000 </r>
       <r>    7.2984    1.0000 </r>
       <r>    7.2984    1.0000 </r>
       <r>    7.5435    1.0000 </r>
       <r>    8.1903    1.0000 </r>
       <r>   30.6840    0.0000 </r>
       <r>   30.6841    0.0000 </r>
       <r>   30.8153    0.0000 </r>
       <r>   32.1762    0.0000 </r>
       <r>   37.2902    0.0000 </r>
       <r>   45.4398    0.0000 </r>
      </set>
      <set comment="kpoint 18">
       <r>    2.9154    1.0000 </r>
       <r>    6.0876    1.0000 </r>
       <r>    7.1796    1.0000 </r>
       <r>    7.4687    1.0000 </r>
       <r>    7.8320    1.0000 </r>
       <r>    8.3171    1.0000 </r>
       <r>   26.2530    0.0000 </r>
       <r>   29.3535    0.0000 </r>
       <r>   30.4190    0.0000 </r>
       <r>   32.2614    0.0000 </r>
       <r>   36.4833    0.0000 </r>
       <r>   44.8870    0.0000 </r>
      </set>
      <set comment="kpoint 19">
       <r>    4.1131    1.0000 </r>
       <r>    6.0113    1.0000 </r>
       <r>    6.8955    1.0000 </r>
       <r>    7.4727    1.0000 </r>
       <r>    8.5284    1.0000 </r>
       <r>    8.6556    0.9069 </r>
       <r>   21.8179    0.0000 </r>
       <r>   28.6805    0.0000 </r>
       <r>   28.7520    0.0000 </r>
       <r>   31.8035    0.0000 </r>
       <r>   39.1205    0.0000 </r>
       <r>   43.9296    0.0000 </r>
      </set>
      <set comment="kpoint 20">
       <r>    4.8829    1.0000 </r>
       <r>    6.2246    1.0000 </r>
       <r>    6.7827    1.0000 </r>
       <r>    7.3811    1.0000 </r>
       <r>    8.6707    1.0000 </r>
       <r>   10.0837   -0.0361 </r>
       <r>   17.8655    0.0000 </r>
       <r>   27.0205    0.0000 </r>
       <r>   28.7459    0.0000 </r>
       <r>   31.4519    0.0000 </r>
       <r>   42.4505    0.0000 </r>
       <r>   43.2127    0.0000 </r>
      </set>
      <set comment="kpoint 21">
       <r>    5.0837    1.0000 </r>
       <r>    6.3462    1.0000 </r>
       <r>    6.9644    1.0000 </r>
       <r>    7.3033    1.0000 </r>
       <r>    8.6041    1.0000 </r>
       <r>   11.7816    0.0000 </r>
       <r>   15.1850    0.0000 </r>
       <r>   25.6554    0.0000 </r>
       <r>   29.5944    0.0000 </r>
       <r>   31.5412    0.0000 </r>
       <r>   41.9990    0.0000 </r>
       <r>   42.2963    0.0000 </r>
      </set>
      <set comment="kpoint 22">
       <r>    5.0549    1.0000 </r>
       <r>    6.4757    1.0000 </r>
       <r>    6.7813    1.0000 </r>
       <r>    7.2981    1.0000 </r>
       <r>    8.3195    1.0000 </r>
       <r>   10.8796    0.0000 </r>
       <r>   16.7785    0.0000 </r>
       <r>   24.8264    0.0000 </r>
       <r>   31.1968    0.0000 </r>
       <r>   32.1620    0.0000 </r>
       <r>   41.2685    0.0000 </r>
       <r>   41.5326    0.0000 </r>
      </set>
      <set comment="kpoint 23">
       <r>    4.5397    1.0000 </r>
       <r>    6.3070    1.0000 </r>
       <r>    6.7126    1.0000 </r>
       <r>    7.3825    1.0000 </r>
       <r>    7.9020    1.0000 </r>
       <r>    9.5345    0.1087 </r>
       <r>   20.4773    0.0000 </r>
       <r>   24.5973    0.0000 </r>
       <r>   33.3781    0.0000 </r>
       <r>   33.4288    0.0000 </r>
       <r>   40.1262    0.0000 </r>
       <r>   41.0524    0.0000 </r>
      </set>
      <set comment="kpoint 24">
       <r>    3.3414    1.0000 </r>
       <r>    6.2620    1.0000 </r>
       <r>    6.9565    1.0000 </r>
       <r>    7.4556    1.0000 </r>
       <r>    7.5797    1.0000 </r>
       <r>    8.7360    0.9982 </r>
       <r>   24.4625    0.0000 </r>
       <r>   25.2686    0.0000 </r>
       <r>   35.1350    0.0000 </r>
       <r>   36.1420    0.0000 </r>
       <r>   38.2209    0.0000 </r>
       <r>   41.3043    0.0000 </r>
      </set>
      <set comment="kpoint 25">
       <r>    3.5725    1.0000 </r>
       <r>    5.8150    1.0000 </r>
       <r>    7.4521    1.0000 </r>
       <r>    7.8078    1.0000 </r>
       <r>    7.8078    1.0000 </r>
       <r>    8.3856    1.0000 </r>
       <r>   27.6823    0.0000 </r>
       <r>   27.6824    0.0000 </r>
       <r>   28.0863    0.0000 </r>
       <r>   29.8157    0.0000 </r>
       <r>   33.8989    0.0000 </r>
       <r>   49.1716    0.0000 </r>
      </set>
      <set comment="kpoint 26">
       <r>    4.3692    1.0000 </r>
       <r>    5.6345    1.0000 </r>
       <r>    7.3475    1.0000 </r>
       <r>    7.9452    1.0000 </r>
       <r>    8.5480    1.0000 </r>
       <r>    8.6649    0.8479 </r>
       <r>   24.0722    0.0000 </r>
       <r>   25.8600    0.0000 </r>
       <r>   26.6985    0.0000 </r>
       <r>   30.5491    0.0000 </r>
       <r>   34.6821    0.0000 </r>
       <r>   48.8415    0.0000 </r>
      </set>
      <set comment="kpoint 27">
       <r>    4.9902    1.0000 </r>
       <r>    5.6354    1.0000 </r>
       <r>    7.1167    1.0000 </r>
       <r>    7.8898    1.0000 </r>
       <r>    8.6966    1.0000 </r>
       <r>   10.3989   -0.0411 </r>
       <r>   20.0511    0.0000 </r>
       <r>   23.7995    0.0000 </r>
       <r>   26.5264    0.0000 </r>
       <r>   30.7452    0.0000 </r>
       <r>   38.0200    0.0000 </r>
       <r>   47.1660    0.0000 </r>
      </set>
      <set comment="kpoint 28">
       <r>    5.3402    1.0000 </r>
       <r>    5.7995    1.0000 </r>
       <r>    6.9042    1.0000 </r>
       <r>    7.7867    1.0000 </r>
       <r>    8.6306    1.0000 </r>
       <r>   12.8002    0.0000 </r>
       <r>   16.5326    0.0000 </r>
       <r>   22.2003    0.0000 </r>
       <r>   27.2108    0.0000 </r>
       <r>   30.9031    0.0000 </r>
       <r>   42.2995    0.0000 </r>
       <r>   45.7180    0.0000 </r>
      </set>
      <set comment="kpoint 29">
       <r>    5.5560    1.0000 </r>
       <r>    6.0112    1.0000 </r>
       <r>    6.6188    1.0000 </r>
       <r>    7.7019    1.0000 </r>
       <r>    8.3504    1.0000 </r>
       <r>   13.0424    0.0000 </r>
       <r>   16.4386    0.0000 </r>
       <r>   21.1876    0.0000 </r>
       <r>   28.6888    0.0000 </r>
       <r>   31.3641    0.0000 </r>
       <r>   44.6454    0.0000 </r>
       <r>   44.6923    0.0000 </r>
      </set>
      <set comment="kpoint 30">
       <r>    5.4031    1.0000 </r>
       <r>    6.2772    1.0000 </r>
       <r>    6.3425    1.0000 </r>
       <r>    7.6202    1.0000 </r>
       <r>    8.0083    1.0000 </r>
       <r>   10.9756    0.0000 </r>
       <r>   19.5184    0.0000 </r>
       <r>   21.2469    0.0000 </r>
       <r>   30.8235    0.0000 </r>
       <r>   32.2254    0.0000 </r>
       <r>   42.5479    0.0000 </r>
       <r>   43.6331    0.0000 </r>
      </set>
      <set comment="kpoint 31">
       <r>    4.5635    1.0000 </r>
       <r>    5.3856    1.0000 </r>
       <r>    8.3479    1.0000 </r>
       <r>    8.3479    1.0000 </r>
       <r>    8.5636    1.0000 </r>
       <r>    8.7104    0.6178 </r>
       <r>   23.1483    0.0000 </r>
       <r>   25.3889    0.0000 </r>
       <r>   25.3890    0.0000 </r>
       <r>   29.2002    0.0000 </r>
       <r>   32.6954    0.0000 </r>
       <r>   53.1253    0.0000 </r>
      </set>
      <set comment="kpoint 32">
       <r>    4.7755    1.0000 </r>
       <r>    5.2994    1.0000 </r>
       <r>    8.0731    1.0000 </r>
       <r>    8.3893    1.0000 </r>
       <r>    8.7056    1.0000 </r>
       <r>   10.5548   -0.0326 </r>
       <r>   21.0098    0.0000 </r>
       <r>   22.6499    0.0000 </r>
       <r>   24.9182    0.0000 </r>
       <r>   29.9529    0.0000 </r>
       <r>   33.9117    0.0000 </r>
       <r>   51.1538    0.0000 </r>
      </set>
      <set comment="kpoint 33">
       <r>    5.0613    1.0000 </r>
       <r>    5.4036    1.0000 </r>
       <r>    7.5806    1.0000 </r>
       <r>    8.2827    1.0000 </r>
       <r>    8.6737    1.0000 </r>
       <r>   12.9695    0.0000 </r>
       <r>   18.8710    0.0000 </r>
       <r>   19.7214    0.0000 </r>
       <r>   25.3702    0.0000 </r>
       <r>   30.4026    0.0000 </r>
       <r>   37.5139    0.0000 </r>
       <r>   49.2846    0.0000 </r>
      </set>
      <set comment="kpoint 34">
       <r>    5.4156    1.0000 </r>
       <r>    5.6487    1.0000 </r>
       <r>    7.0114    1.0000 </r>
       <r>    8.0764    1.0000 </r>
       <r>    8.4764    1.0000 </r>
       <r>   15.3697    0.0000 </r>
       <r>   15.7453    0.0000 </r>
       <r>   19.2150    0.0000 </r>
       <r>   26.6847    0.0000 </r>
       <r>   30.7690    0.0000 </r>
       <r>   42.1393    0.0000 </r>
       <r>   47.3015    0.0000 </r>
      </set>
      <set comment="kpoint 35">
       <r>    4.6604    1.0000 </r>
       <r>    5.1389    1.0000 </r>
       <r>    8.6713    1.0000 </r>
       <r>    8.7186    1.0000 </r>
       <r>    8.7186    1.0000 </r>
       <r>   11.1117   -0.0050 </r>
       <r>   19.1202    0.0000 </r>
       <r>   24.1244    0.0000 </r>
       <r>   24.1245    0.0000 </r>
       <r>   28.9219    0.0000 </r>
       <r>   32.3339    0.0000 </r>
       <r>   53.5148    0.0000 </r>
      </set>
      <set comment="kpoint 36">
       <r>    4.7619    1.0000 </r>
       <r>    5.1755    1.0000 </r>
       <r>    8.3696    1.0000 </r>
       <r>    8.5973    1.0000 </r>
       <r>    8.7354    1.0000 </r>
       <r>   12.2898    0.0000 </r>
       <r>   18.4186    0.0000 </r>
       <r>   22.0687    0.0000 </r>
       <r>   24.2829    0.0000 </r>
       <r>   29.7561    0.0000 </r>
       <r>   33.7013    0.0000 </r>
       <r>   52.1574    0.0000 </r>
      </set>
      <set comment="kpoint 37">
       <r>    2.3043    1.0000 </r>
       <r>    6.3142    1.0000 </r>
       <r>    7.1160    1.0000 </r>
       <r>    7.3102    1.0000 </r>
       <r>    7.6861    1.0000 </r>
       <r>    8.2711    1.0000 </r>
       <r>   27.3534    0.0000 </r>
       <r>   28.0695    0.0000 </r>
       <r>   34.1505    0.0000 </r>
       <r>   34.6275    0.0000 </r>
       <r>   38.6053    0.0000 </r>
       <r>   41.7931    0.0000 </r>
      </set>
      <set comment="kpoint 38">
       <r>    3.5502    1.0000 </r>
       <r>    6.1895    1.0000 </r>
       <r>    6.9224    1.0000 </r>
       <r>    7.4025    1.0000 </r>
       <r>    7.9120    1.0000 </r>
       <r>    8.6928    1.0015 </r>
       <r>   23.0872    0.0000 </r>
       <r>   27.0466    0.0000 </r>
       <r>   32.0660    0.0000 </r>
       <r>   35.1430    0.0000 </r>
       <r>   39.1891    0.0000 </r>
       <r>   40.9576    0.0000 </r>
      </set>
      <set comment="kpoint 39">
       <r>    4.6065    1.0000 </r>
       <r>    6.4145    1.0000 </r>
       <r>    6.7072    1.0000 </r>
       <r>    7.3087    1.0000 </r>
       <r>    8.3283    1.0000 </r>
       <r>    9.5174    0.1408 </r>
       <r>   18.9436    0.0000 </r>
       <r>   26.8524    0.0000 </r>
       <r>   30.1066    0.0000 </r>
       <r>   34.4675    0.0000 </r>
       <r>   39.0292    0.0000 </r>
       <r>   42.6034    0.0000 </r>
      </set>
      <set comment="kpoint 40">
       <r>    4.9406    1.0000 </r>
       <r>    6.4923    1.0000 </r>
       <r>    7.0149    1.0000 </r>
       <r>    7.2228    1.0000 </r>
       <r>    8.5592    1.0000 </r>
       <r>   10.9693    0.0000 </r>
       <r>   15.6831    0.0000 </r>
       <r>   27.1612    0.0000 </r>
       <r>   28.6521    0.0000 </r>
       <r>   33.9273    0.0000 </r>
       <r>   38.7167    0.0000 </r>
       <r>   43.1031    0.0000 </r>
      </set>
      <set comment="kpoint 41">
       <r>    3.8847    1.0000 </r>
       <r>    5.8869    1.0000 </r>
       <r>    6.9985    1.0000 </r>
       <r>    7.8051    1.0000 </r>
       <r>    8.0059    1.0000 </r>
       <r>    8.6816    0.9705 </r>
       <r>   25.0459    0.0000 </r>
       <r>   25.5895    0.0000 </r>
       <r>   28.8410    0.0000 </r>
       <r>   32.9968    0.0000 </r>
       <r>   36.1654    0.0000 </r>
       <r>   44.5309    0.0000 </r>
      </set>
      <set comment="kpoint 42">
       <r>    4.8371    1.0000 </r>
       <r>    5.8469    1.0000 </r>
       <r>    6.7447    1.0000 </r>
       <r>    7.8014    1.0000 </r>
       <r>    8.3795    1.0000 </r>
       <r>    9.7135    0.0543 </r>
       <r>   21.0223    0.0000 </r>
       <r>   24.9500    0.0000 </r>
       <r>   26.6675    0.0000 </r>
       <r>   33.6053    0.0000 </r>
       <r>   38.4490    0.0000 </r>
       <r>   43.1996    0.0000 </r>
      </set>
      <set comment="kpoint 43">
       <r>    5.3072    1.0000 </r>
       <r>    5.9982    1.0000 </r>
       <r>    6.6529    1.0000 </r>
       <r>    7.6658    1.0000 </r>
       <r>    8.5783    1.0000 </r>
       <r>   11.6035    0.0000 </r>
       <r>   17.2686    0.0000 </r>
       <r>   24.5663    0.0000 </r>
       <r>   25.5444    0.0000 </r>
       <r>   33.7091    0.0000 </r>
       <r>   40.6781    0.0000 </r>
       <r>   43.7901    0.0000 </r>
      </set>
      <set comment="kpoint 44">
       <r>    5.4568    1.0000 </r>
       <r>    6.0657    1.0000 </r>
       <r>    6.6653    1.0000 </r>
       <r>    7.5766    1.0000 </r>
       <r>    8.5146    1.0000 </r>
       <r>   12.9850    0.0000 </r>
       <r>   15.4898    0.0000 </r>
       <r>   23.4231    0.0000 </r>
       <r>   26.3640    0.0000 </r>
       <r>   34.1651    0.0000 </r>
       <r>   40.2390    0.0000 </r>
       <r>   46.9069    0.0000 </r>
      </set>
      <set comment="kpoint 45">
       <r>    5.3687    1.0000 </r>
       <r>    6.2144    1.0000 </r>
       <r>    6.3786    1.0000 </r>
       <r>    7.6309    1.0000 </r>
       <r>    8.2379    1.0000 </r>
       <r>   11.0869    0.0000 </r>
       <r>   18.4497    0.0000 </r>
       <r>   22.7720    0.0000 </r>
       <r>   27.8678    0.0000 </r>
       <r>   35.2231    0.0000 </r>
       <r>   39.3019    0.0000 </r>
       <r>   44.9234    0.0000 </r>
      </set>
      <set comment="kpoint 46">
       <r>    4.6642    1.0000 </r>
       <r>    6.0721    1.0000 </r>
       <r>    6.6225    1.0000 </r>
       <r>    7.7416    1.0000 </r>
       <r>    7.8383    1.0000 </r>
       <r>    9.5940    0.0806 </r>
       <r>   22.0634    0.0000 </r>
       <r>   23.1022    0.0000 </r>
       <r>   29.8552    0.0000 </r>
       <r>   36.8739    0.0000 </r>
       <r>   37.6271    0.0000 </r>
       <r>   42.4218    0.0000 </r>
      </set>
      <set comment="kpoint 47">
       <r>    4.8206    1.0000 </r>
       <r>    5.5019    1.0000 </r>
       <r>    7.3659    1.0000 </r>
       <r>    8.3455    1.0000 </r>
       <r>    8.4226    1.0000 </r>
       <r>    9.8786    0.0236 </r>
       <r>   23.2009    0.0000 </r>
       <r>   23.2336    0.0000 </r>
       <r>   24.1258    0.0000 </r>
       <r>   31.9056    0.0000 </r>
       <r>   34.9940    0.0000 </r>
       <r>   47.2302    0.0000 </r>
      </set>
      <set comment="kpoint 48">
       <r>    5.1767    1.0000 </r>
       <r>    5.5573    1.0000 </r>
       <r>    7.1215    1.0000 </r>
       <r>    8.1842    1.0000 </r>
       <r>    8.6257    1.0000 </r>
       <r>   11.9623    0.0000 </r>
       <r>   19.6072    0.0000 </r>
       <r>   21.6013    0.0000 </r>
       <r>   23.7438    0.0000 </r>
       <r>   32.8337    0.0000 </r>
       <r>   37.8925    0.0000 </r>
       <r>   45.5315    0.0000 </r>
      </set>
      <set comment="kpoint 49">
       <r>    5.4981    1.0000 </r>
       <r>    5.7247    1.0000 </r>
       <r>    6.7915    1.0000 </r>
       <r>    7.9774    1.0000 </r>
       <r>    8.5828    1.0000 </r>
       <r>   14.5904    0.0000 </r>
       <r>   16.2855    0.0000 </r>
       <r>   20.2939    0.0000 </r>
       <r>   24.5413    0.0000 </r>
       <r>   33.3700    0.0000 </r>
       <r>   42.0872    0.0000 </r>
       <r>   44.0288    0.0000 </r>
      </set>
      <set comment="kpoint 50">
       <r>    5.7892    1.0000 </r>
       <r>    5.8890    1.0000 </r>
       <r>    6.3933    1.0000 </r>
       <r>    7.8396    1.0000 </r>
       <r>    8.3647    1.0000 </r>
       <r>   13.2579    0.0000 </r>
       <r>   17.5469    0.0000 </r>
       <r>   20.0704    0.0000 </r>
       <r>   25.9739    0.0000 </r>
       <r>   34.2097    0.0000 </r>
       <r>   41.7699    0.0000 </r>
       <r>   46.1095    0.0000 </r>
      </set>
      <set comment="kpoint 51">
       <r>    4.8772    1.0000 </r>
       <r>    5.2789    1.0000 </r>
       <r>    7.9302    1.0000 </r>
       <r>    8.5162    1.0000 </r>
       <r>    8.7171    1.0000 </r>
       <r>   12.1858    0.0000 </r>
       <r>   19.2932    0.0000 </r>
       <r>   22.1503    0.0000 </r>
       <r>   22.8496    0.0000 </r>
       <r>   31.3842    0.0000 </r>
       <r>   34.5572    0.0000 </r>
       <r>   49.5748    0.0000 </r>
      </set>
      <set comment="kpoint 52">
       <r>    5.1362    1.0000 </r>
       <r>    5.4536    1.0000 </r>
       <r>    7.4022    1.0000 </r>
       <r>    8.2892    1.0000 </r>
       <r>    8.7145    1.0000 </r>
       <r>   14.0046    0.0000 </r>
       <r>   18.5012    0.0000 </r>
       <r>   19.3328    0.0000 </r>
       <r>   23.2292    0.0000 </r>
       <r>   32.5905    0.0000 </r>
       <r>   37.7204    0.0000 </r>
       <r>   47.0460    0.0000 </r>
      </set>
      <set comment="kpoint 53">
       <r>    5.4294    1.0000 </r>
       <r>    5.8473    1.0000 </r>
       <r>    6.4758    1.0000 </r>
       <r>    8.0530    1.0000 </r>
       <r>    8.3423    1.0000 </r>
       <r>   11.3947    0.0000 </r>
       <r>   20.2216    0.0000 </r>
       <r>   21.5861    0.0000 </r>
       <r>   24.5044    0.0000 </r>
       <r>   36.4475    0.0000 </r>
       <r>   38.1759    0.0000 </r>
       <r>   42.5786    0.0000 </r>
      </set>
      <set comment="kpoint 54">
       <r>    5.6811    1.0000 </r>
       <r>    5.9290    1.0000 </r>
       <r>    6.3625    1.0000 </r>
       <r>    7.8878    1.0000 </r>
       <r>    8.5648    1.0000 </r>
       <r>   13.7528    0.0000 </r>
       <r>   17.0759    0.0000 </r>
       <r>   21.5955    0.0000 </r>
       <r>   22.8809    0.0000 </r>
       <r>   37.0098    0.0000 </r>
       <r>   39.2472    0.0000 </r>
       <r>   43.9556    0.0000 </r>
      </set>
      <set comment="kpoint 55">
       <r>    5.3653    1.0000 </r>
       <r>    5.7060    1.0000 </r>
       <r>    6.8354    1.0000 </r>
       <r>    8.1103    1.0000 </r>
       <r>    8.7162    1.0000 </r>
       <r>   14.1604    0.0000 </r>
       <r>   19.1850    0.0000 </r>
       <r>   19.8157    0.0000 </r>
       <r>   21.0504    0.0000 </r>
       <r>   35.8446    0.0000 </r>
       <r>   38.9488    0.0000 </r>
       <r>   43.6105    0.0000 </r>
      </set>
      <set comment="kpoint 56">
       <r>    5.5505    1.0000 </r>
       <r>    5.9887    1.0000 </r>
       <r>    6.4237    1.0000 </r>
       <r>    7.9406    1.0000 </r>
       <r>    8.7138    1.0000 </r>
       <r>   16.4006    0.0000 </r>
       <r>   16.4294    0.0000 </r>
       <r>   19.4384    0.0000 </r>
       <r>   21.3935    0.0000 </r>
       <r>   37.2955    0.0000 </r>
       <r>   41.1073    0.0000 </r>
       <r>   42.2780    0.0000 </r>
      </set>
     </set>
     <set comment="spin 2">
      <set comment="kpoint 1">
       <r>    0.2477    1.0000 </r>
       <r>    7.5416    1.0000 </r>
       <r>    7.5416    1.0000 </r>
       <r>    7.5416    1.0000 </r>
       <r>    8.5725    1.0000 </r>
       <r>    8.5725    1.0000 </r>
       <r>   32.7256    0.0000 </r>
       <r>   36.6262    0.0000 </r>
       <r>   36.6264    0.0000 </r>
       <r>   36.6264    0.0000 </r>
       <r>   39.7847    0.0000 </r>
       <r>   39.7848    0.0000 </r>
      </set>
      <set comment="kpoint 2">
       <r>    0.5675    1.0000 </r>
       <r>    7.4539    1.0000 </r>
       <r>    7.6119    1.0000 </r>
       <r>    7.6119    1.0000 </r>
       <r>    8.5448    1.0000 </r>
       <r>    8.5449    1.0000 </r>
       <r>   31.4407    0.0000 </r>
       <r>   34.1617    0.0000 </r>
       <r>   36.0222    0.0000 </r>
       <r>   36.0224    0.0000 </r>
       <r>   40.7207    0.0000 </r>
       <r>   40.7209    0.0000 </r>
      </set>
      <set comment="kpoint 3">
       <r>    1.4896    1.0000 </r>
       <r>    7.2467    1.0000 </r>
       <r>    7.7306    1.0000 </r>
       <r>    7.7306    1.0000 </r>
       <r>    8.5494    1.0000 </r>
       <r>    8.5494    1.0000 </r>
       <r>   27.0905    0.0000 </r>
       <r>   33.3868    0.0000 </r>
       <r>   35.1213    0.0000 </r>
       <r>   35.1215    0.0000 </r>
       <r>   40.6983    0.0000 </r>
       <r>   41.4112    0.0000 </r>
      </set>
      <set comment="kpoint 4">
       <r>    2.8594    1.0000 </r>
       <r>    7.1210    1.0000 </r>
       <r>    7.6964    1.0000 </r>
       <r>    7.6965    1.0000 </r>
       <r>    8.7678    1.0000 </r>
       <r>    8.7679    1.0387 </r>
       <r>   22.5955    0.0000 </r>
       <r>   32.6250    0.0000 </r>
       <r>   34.4311    0.0000 </r>
       <r>   34.4313    0.0000 </r>
       <r>   39.6417    0.0000 </r>
       <r>   39.6418    0.0000 </r>
      </set>
      <set comment="kpoint 5">
       <r>    4.1992    1.0000 </r>
       <r>    7.4992    1.0000 </r>
       <r>    7.5608    1.0000 </r>
       <r>    7.5608    1.0000 </r>
       <r>    9.0995    0.9924 </r>
       <r>    9.0996    0.4819 </r>
       <r>   18.5827    0.0000 </r>
       <r>   31.7984    0.0000 </r>
       <r>   34.0133    0.0000 </r>
       <r>   34.0133    0.0000 </r>
       <r>   37.8458    0.0000 </r>
       <r>   37.8462    0.0000 </r>
      </set>
      <set comment="kpoint 6">
       <r>    4.8054    1.0000 </r>
       <r>    7.4655    1.0000 </r>
       <r>    7.4655    1.0000 </r>
       <r>    8.6087    1.0000 </r>
       <r>    9.3282    0.0386 </r>
       <r>    9.3283    0.0084 </r>
       <r>   15.6969    0.0000 </r>
       <r>   31.2964    0.0000 </r>
       <r>   33.8238    0.0000 </r>
       <r>   33.8239    0.0000 </r>
       <r>   36.9184    0.0000 </r>
       <r>   36.9190    0.0000 </r>
      </set>
      <set comment="kpoint 7">
       <r>    0.6733    1.0000 </r>
       <r>    7.3818    1.0000 </r>
       <r>    7.6643    1.0000 </r>
       <r>    7.6643    1.0000 </r>
       <r>    8.4295    1.0000 </r>
       <r>    8.6286    1.0000 </r>
       <r>   31.9900    0.0000 </r>
       <r>   34.1301    0.0000 </r>
       <r>   34.1302    0.0000 </r>
       <r>   34.9129    0.0000 </r>
       <r>   41.4646    0.0000 </r>
       <r>   42.2071    0.0000 </r>
      </set>
      <set comment="kpoint 8">
       <r>    1.3932    1.0000 </r>
       <r>    7.1849    1.0000 </r>
       <r>    7.7882    1.0000 </r>
       <r>    7.8036    1.0000 </r>
       <r>    8.3311    1.0000 </r>
       <r>    8.6898    1.0000 </r>
       <r>   28.8436    0.0000 </r>
       <r>   32.4801    0.0000 </r>
       <r>   32.6570    0.0000 </r>
       <r>   35.9504    0.0000 </r>
       <r>   39.6099    0.0000 </r>
       <r>   41.9304    0.0000 </r>
      </set>
      <set comment="kpoint 9">
       <r>    2.6230    1.0000 </r>
       <r>    6.9932    1.0000 </r>
       <r>    7.7082    1.0000 </r>
       <r>    7.8442    1.0000 </r>
       <r>    8.5685    1.0000 </r>
       <r>    8.8742    1.1163 </r>
       <r>   24.2693    0.0000 </r>
       <r>   31.6854    0.0000 </r>
       <r>   31.7499    0.0000 </r>
       <r>   35.7845    0.0000 </r>
       <r>   38.9376    0.0000 </r>
       <r>   41.6574    0.0000 </r>
      </set>
      <set comment="kpoint 10">
       <r>    4.0298    1.0000 </r>
       <r>    7.0454    1.0000 </r>
       <r>    7.5107    1.0000 </r>
       <r>    7.7404    1.0000 </r>
       <r>    9.1184    0.9773 </r>
       <r>    9.1613    0.3749 </r>
       <r>   20.0272    0.0000 </r>
       <r>   30.9479    0.0000 </r>
       <r>   31.2515    0.0000 </r>
       <r>   33.9226    0.0000 </r>
       <r>   39.2460    0.0000 </r>
       <r>   41.1157    0.0000 </r>
      </set>
      <set comment="kpoint 11">
       <r>    4.8888    1.0000 </r>
       <r>    7.2808    1.0000 </r>
       <r>    7.6175    1.0000 </r>
       <r>    7.7424    1.0000 </r>
       <r>    9.3515    0.1056 </r>
       <r>    9.9334   -0.0154 </r>
       <r>   16.5732    0.0000 </r>
       <r>   30.1148    0.0000 </r>
       <r>   31.4395    0.0000 </r>
       <r>   32.6448    0.0000 </r>
       <r>   39.1132    0.0000 </r>
       <r>   39.5978    0.0000 </r>
      </set>
      <set comment="kpoint 12">
       <r>    5.0476    1.0000 </r>
       <r>    7.2794    1.0000 </r>
       <r>    7.5665    1.0000 </r>
       <r>    8.0709    1.0000 </r>
       <r>    9.3181    0.0357 </r>
       <r>   10.4805    0.0000 </r>
       <r>   15.3220    0.0000 </r>
       <r>   29.3842    0.0000 </r>
       <r>   32.3034    0.0000 </r>
       <r>   32.3437    0.0000 </r>
       <r>   38.5542    0.0000 </r>
       <r>   39.2224    0.0000 </r>
      </set>
      <set comment="kpoint 13">
       <r>    4.7056    1.0000 </r>
       <r>    7.3611    1.0000 </r>
       <r>    7.5337    1.0000 </r>
       <r>    7.6211    1.0000 </r>
       <r>    9.0500    1.0167 </r>
       <r>    9.8253   -0.0632 </r>
       <r>   17.6006    0.0000 </r>
       <r>   28.9966    0.0000 </r>
       <r>   32.8198    0.0000 </r>
       <r>   33.9896    0.0000 </r>
       <r>   37.9979    0.0000 </r>
       <r>   39.3539    0.0000 </r>
      </set>
      <set comment="kpoint 14">
       <r>    3.5865    1.0000 </r>
       <r>    7.0262    1.0000 </r>
       <r>    7.5801    1.0000 </r>
       <r>    7.7609    1.0000 </r>
       <r>    8.6561    1.0000 </r>
       <r>    9.2739    0.3736 </r>
       <r>   21.3900    0.0000 </r>
       <r>   29.0860    0.0000 </r>
       <r>   34.0214    0.0000 </r>
       <r>   36.3251    0.0000 </r>
       <r>   37.8505    0.0000 </r>
       <r>   39.0086    0.0000 </r>
      </set>
      <set comment="kpoint 15">
       <r>    2.1707    1.0000 </r>
       <r>    7.0864    1.0000 </r>
       <r>    7.7264    1.0000 </r>
       <r>    7.8586    1.0000 </r>
       <r>    8.3545    1.0000 </r>
       <r>    8.8642    1.0554 </r>
       <r>   25.7710    0.0000 </r>
       <r>   29.6408    0.0000 </r>
       <r>   35.4729    0.0000 </r>
       <r>   37.9866    0.0000 </r>
       <r>   38.2012    0.0000 </r>
       <r>   39.1399    0.0000 </r>
      </set>
      <set comment="kpoint 16">
       <r>    1.0885    1.0000 </r>
       <r>    7.3011    1.0000 </r>
       <r>    7.7135    1.0000 </r>
       <r>    7.7202    1.0000 </r>
       <r>    8.4010    1.0000 </r>
       <r>    8.6392    1.0000 </r>
       <r>   29.9695    0.0000 </r>
       <r>   31.0712    0.0000 </r>
       <r>   35.5440    0.0000 </r>
       <r>   37.8053    0.0000 </r>
       <r>   38.9750    0.0000 </r>
       <r>   40.1315    0.0000 </r>
      </set>
      <set comment="kpoint 17">
       <r>    1.8871    1.0000 </r>
       <r>    6.9633    1.0000 </r>
       <r>    8.0156    1.0000 </r>
       <r>    8.0156    1.0000 </r>
       <r>    8.0858    1.0000 </r>
       <r>    8.7805    1.0000 </r>
       <r>   30.7430    0.0000 </r>
       <r>   30.7431    0.0000 </r>
       <r>   30.7984    0.0000 </r>
       <r>   32.0953    0.0000 </r>
       <r>   37.4857    0.0000 </r>
       <r>   45.3967    0.0000 </r>
      </set>
      <set comment="kpoint 18">
       <r>    2.8938    1.0000 </r>
       <r>    6.7218    1.0000 </r>
       <r>    7.7590    1.0000 </r>
       <r>    8.1710    1.0000 </r>
       <r>    8.4872    1.0000 </r>
       <r>    8.9346    1.1040 </r>
       <r>   26.3267    0.0000 </r>
       <r>   29.4124    0.0000 </r>
       <r>   30.3831    0.0000 </r>
       <r>   32.2922    0.0000 </r>
       <r>   36.6252    0.0000 </r>
       <r>   44.8103    0.0000 </r>
      </set>
      <set comment="kpoint 19">
       <r>    4.1772    1.0000 </r>
       <r>    6.5883    1.0000 </r>
       <r>    7.4599    1.0000 </r>
       <r>    8.1284    1.0000 </r>
       <r>    9.2029    0.8740 </r>
       <r>    9.2608    0.1574 </r>
       <r>   21.9421    0.0000 </r>
       <r>   28.7367    0.0000 </r>
       <r>   28.7555    0.0000 </r>
       <r>   31.8641    0.0000 </r>
       <r>   39.1875    0.0000 </r>
       <r>   43.8585    0.0000 </r>
      </set>
      <set comment="kpoint 20">
       <r>    5.1843    1.0000 </r>
       <r>    6.6556    1.0000 </r>
       <r>    7.3565    1.0000 </r>
       <r>    8.0024    1.0000 </r>
       <r>    9.3838    0.0105 </r>
       <r>   10.5323   -0.0023 </r>
       <r>   18.0616    0.0000 </r>
       <r>   27.0584    0.0000 </r>
       <r>   28.7997    0.0000 </r>
       <r>   31.4850    0.0000 </r>
       <r>   42.4434    0.0000 </r>
       <r>   43.2134    0.0000 </r>
      </set>
      <set comment="kpoint 21">
       <r>    5.5281    1.0000 </r>
       <r>    6.7560    1.0000 </r>
       <r>    7.5029    1.0000 </r>
       <r>    7.9039    1.0000 </r>
       <r>    9.3317    0.0090 </r>
       <r>   12.0357    0.0000 </r>
       <r>   15.5036    0.0000 </r>
       <r>   25.7138    0.0000 </r>
       <r>   29.6511    0.0000 </r>
       <r>   31.5416    0.0000 </r>
       <r>   42.0101    0.0000 </r>
       <r>   42.2469    0.0000 </r>
      </set>
      <set comment="kpoint 22">
       <r>    5.4261    1.0000 </r>
       <r>    6.9127    1.0000 </r>
       <r>    7.3024    1.0000 </r>
       <r>    7.8887    1.0000 </r>
       <r>    9.0423    1.0557 </r>
       <r>   11.2856    0.0000 </r>
       <r>   17.0178    0.0000 </r>
       <r>   24.8976    0.0000 </r>
       <r>   31.2609    0.0000 </r>
       <r>   32.1365    0.0000 </r>
       <r>   41.2872    0.0000 </r>
       <r>   41.4721    0.0000 </r>
      </set>
      <set comment="kpoint 23">
       <r>    4.6580    1.0000 </r>
       <r>    6.8610    1.0000 </r>
       <r>    7.2635    1.0000 </r>
       <r>    7.9725    1.0000 </r>
       <r>    8.6101    1.0000 </r>
       <r>   10.1318    0.0000 </r>
       <r>   20.6314    0.0000 </r>
       <r>   24.6763    0.0000 </r>
       <r>   33.3380    0.0000 </r>
       <r>   33.4973    0.0000 </r>
       <r>   40.0391    0.0000 </r>
       <r>   41.0783    0.0000 </r>
      </set>
      <set comment="kpoint 24">
       <r>    3.3359    1.0000 </r>
       <r>    6.8860    1.0000 </r>
       <r>    7.5527    1.0000 </r>
       <r>    8.1335    1.0000 </r>
       <r>    8.1885    1.0000 </r>
       <r>    9.3869    0.1376 </r>
       <r>   24.5790    0.0000 </r>
       <r>   25.3284    0.0000 </r>
       <r>   35.0893    0.0000 </r>
       <r>   36.1961    0.0000 </r>
       <r>   38.1189    0.0000 </r>
       <r>   41.3247    0.0000 </r>
      </set>
      <set comment="kpoint 25">
       <r>    3.5859    1.0000 </r>
       <r>    6.4366    1.0000 </r>
       <r>    7.9009    1.0000 </r>
       <r>    8.5473    1.0000 </r>
       <r>    8.5474    1.0000 </r>
       <r>    8.9832    1.1859 </r>
       <r>   27.7322    0.0000 </r>
       <r>   27.7323    0.0000 </r>
       <r>   28.0957    0.0000 </r>
       <r>   29.8691    0.0000 </r>
       <r>   34.0483    0.0000 </r>
       <r>   49.0769    0.0000 </r>
      </set>
      <set comment="kpoint 26">
       <r>    4.4812    1.0000 </r>
[...]
       </set>
       <set comment="band 5">
        <r>  0.0000  0.0024  0.0017  0.0001  0.1760  0.6592  0.0485  0.0112  0.0855 </r>
       </set>
       <set comment="band 6">
        <r>  0.1235  0.0084  0.1164  0.0558  0.0016  0.0021  0.1103  0.3773  0.1002 </r>
       </set>
       <set comment="band 7">
        <r>  0.1557  0.2894  0.0088  0.0401  0.1679  0.0958  0.0131  0.0309  0.0191 </r>
       </set>
       <set comment="band 8">
        <r>  0.1605  0.1732  0.0189  0.0969  0.0634  0.0325  0.0534  0.0422  0.0959 </r>
       </set>
       <set comment="band 9">
        <r>  0.0945  0.0048  0.2919  0.0282  0.0003  0.0031  0.2545  0.0376  0.0025 </r>
       </set>
       <set comment="band 10">
        <r>  0.0111  0.0103  0.0271  0.2748  0.0093  0.0001  0.0100  0.0598  0.0889 </r>
       </set>
       <set comment="band 11">
        <r>  0.0268  0.0521  0.0019  0.0004  0.3665  0.0297  0.0243  0.0495  0.0840 </r>
       </set>
       <set comment="band 12">
        <r>  0.0828  0.0299  0.0681  0.1522  0.0126  0.0118  0.2404  0.0618  0.1054 </r>
       </set>
      </set>
      <set comment="kpoint 46">
       <set comment="band 1">
        <r>  0.3225  0.0000  0.1493  0.0685  0.0000  0.0000  0.0764  0.1407  0.0083 </r>
       </set>
       <set comment="band 2">
        <r>  0.0000  0.0417  0.0000  0.0000  0.7202  0.1759  0.0000  0.0000  0.0000 </r>
       </set>
       <set comment="band 3">
        <r>  0.0046  0.0000  0.0001  0.0093  0.0000  0.0000  0.4311  0.3384  0.1619 </r>
       </set>
       <set comment="band 4">
        <r>  0.0039  0.0000  0.0158  0.0020  0.0000  0.0000  0.3332  0.0128  0.6006 </r>
       </set>
       <set comment="band 5">
        <r>  0.0000  0.0037  0.0000  0.0000  0.2060  0.7709  0.0000  0.0000  0.0000 </r>
       </set>
       <set comment="band 6">
        <r>  0.0717  0.0000  0.0468  0.0223  0.0000  0.0000  0.1193  0.4911  0.2033 </r>
       </set>
       <set comment="band 7">
        <r>  0.0000  0.4356  0.0000  0.0000  0.2405  0.1554  0.0000  0.0000  0.0000 </r>
       </set>
       <set comment="band 8">
        <r>  0.2310  0.0000  0.0503  0.1835  0.0000  0.0000  0.0523  0.1071  0.0690 </r>
       </set>
       <set comment="band 9">
        <r>  0.0740  0.0000  0.2771  0.0027  0.0000  0.0000  0.3073  0.0130  0.0013 </r>
       </set>
       <set comment="band 10">
        <r>  0.0004  0.0000  0.0445  0.3221  0.0000  0.0000  0.0267  0.0080  0.1101 </r>
       </set>
       <set comment="band 11">
        <r>  0.0000  0.1041  0.0000  0.0000  0.3897  0.0362  0.0000  0.0000  0.0000 </r>
       </set>
       <set comment="band 12">
        <r>  0.1298  0.0000  0.1242  0.0944  0.0000  0.0000  0.1900  0.1106  0.1904 </r>
       </set>
      </set>
      <set comment="kpoint 47">
       <set comment="band 1">
        <r>  0.1548  0.0945  0.0000  0.0154  0.0143  0.0000  0.1565  0.0000  0.3826 </r>
       </set>
       <set comment="band 2">
        <r>  0.0000  0.0000  0.0129  0.0000  0.0000  0.0108  0.0000  0.9142  0.0000 </r>
       </set>
       <set comment="band 3">
        <r>  0.0575  0.1134  0.0000  0.0014  0.5102  0.0000  0.1506  0.0000  0.0828 </r>
       </set>
       <set comment="band 4">
        <r>  0.0065  0.0224  0.0000  0.0032  0.0000  0.0000  0.5207  0.0000  0.4245 </r>
       </set>
       <set comment="band 5">
        <r>  0.0000  0.0000  0.0077  0.0000  0.0000  0.9636  0.0000  0.0148  0.0000 </r>
       </set>
       <set comment="band 6">
        <r>  0.0923  0.1563  0.0000  0.0118  0.4598  0.0000  0.1404  0.0000  0.0530 </r>
       </set>
       <set comment="band 7">
        <r>  0.0000  0.0000  0.4936  0.0000  0.0000  0.0691  0.0000  0.2182  0.0000 </r>
       </set>
       <set comment="band 8">
        <r>  0.0089  0.1083  0.0000  0.1701  0.0464  0.0000  0.1451  0.0000  0.2306 </r>
       </set>
       <set comment="band 9">
        <r>  0.2725  0.1348  0.0000  0.2445  0.0249  0.0000  0.0002  0.0000  0.0597 </r>
       </set>
       <set comment="band 10">
        <r>  0.0000  0.0000  0.0997  0.0000  0.0000  0.0150  0.0000  0.6685  0.0000 </r>
       </set>
       <set comment="band 11">
        <r>  0.2751  0.0831  0.0000  0.1767  0.0133  0.0000  0.0180  0.0000  0.1080 </r>
       </set>
       <set comment="band 12">
        <r>  0.0443  0.0010  0.0000  0.0450  0.0987  0.0000  0.0539  0.0000  0.2271 </r>
       </set>
      </set>
      <set comment="kpoint 48">
       <set comment="band 1">
        <r>  0.0632  0.0367  0.0009  0.0252  0.0123  0.0023  0.2381  0.0246  0.4537 </r>
       </set>
       <set comment="band 2">
        <r>  0.0006  0.0000  0.0311  0.0066  0.0039  0.0121  0.0106  0.8509  0.0144 </r>
       </set>
       <set comment="band 3">
        <r>  0.0311  0.1167  0.0002  0.0002  0.6241  0.0383  0.0804  0.0161  0.0125 </r>
       </set>
       <set comment="band 4">
        <r>  0.0000  0.0111  0.0015  0.0041  0.0002  0.1294  0.4857  0.0020  0.3436 </r>
       </set>
       <set comment="band 5">
        <r>  0.0002  0.0002  0.0022  0.0001  0.0875  0.7706  0.0745  0.0103  0.0462 </r>
       </set>
       <set comment="band 6">
        <r>  0.1061  0.2968  0.0047  0.0201  0.2743  0.0300  0.0615  0.0009  0.0633 </r>
       </set>
       <set comment="band 7">
        <r>  0.0926  0.0003  0.2823  0.1318  0.0179  0.0249  0.0357  0.1648  0.0204 </r>
       </set>
       <set comment="band 8">
        <r>  0.2019  0.1847  0.0070  0.0241  0.0186  0.0002  0.0942  0.0137  0.2313 </r>
       </set>
       <set comment="band 9">
        <r>  0.1432  0.0155  0.2209  0.1932  0.0107  0.0126  0.0631  0.0630  0.0022 </r>
       </set>
       <set comment="band 10">
        <r>  0.0560  0.0081  0.0570  0.0542  0.0009  0.0052  0.0009  0.5022  0.0349 </r>
       </set>
       <set comment="band 11">
        <r>  0.1494  0.0264  0.0370  0.2038  0.0023  0.0027  0.0187  0.1348  0.1059 </r>
       </set>
       <set comment="band 12">
        <r>  0.0558  0.0088  0.0020  0.0227  0.2194  0.0035  0.0377  0.0015  0.1819 </r>
       </set>
      </set>
      <set comment="kpoint 49">
       <set comment="band 1">
        <r>  0.0203  0.0081  0.0022  0.0298  0.0054  0.0022  0.3130  0.0711  0.4304 </r>
       </set>
       <set comment="band 2">
        <r>  0.0127  0.0009  0.0568  0.0234  0.0157  0.0109  0.0351  0.7349  0.0221 </r>
       </set>
       <set comment="band 3">
        <r>  0.0056  0.1131  0.0017  0.0004  0.6543  0.0966  0.0126  0.0378  0.0009 </r>
       </set>
       <set comment="band 4">
        <r>  0.0027  0.0025  0.0033  0.0029  0.0008  0.0534  0.5033  0.0004  0.4046 </r>
       </set>
       <set comment="band 5">
        <r>  0.0006  0.0008  0.0001  0.0000  0.1546  0.7796  0.0288  0.0054  0.0216 </r>
       </set>
       <set comment="band 6">
        <r>  0.0218  0.3691  0.0450  0.0505  0.1741  0.0435  0.0457  0.0165  0.0531 </r>
       </set>
       <set comment="band 7">
        <r>  0.1965  0.0386  0.2016  0.0834  0.0386  0.0249  0.0291  0.1847  0.0129 </r>
       </set>
       <set comment="band 8">
        <r>  0.2942  0.1149  0.0010  0.0463  0.0213  0.0047  0.0819  0.0158  0.1992 </r>
       </set>
       <set comment="band 9">
        <r>  0.1152  0.0028  0.2682  0.1378  0.0018  0.0033  0.1369  0.0663  0.0014 </r>
       </set>
       <set comment="band 10">
        <r>  0.0668  0.0034  0.0304  0.1293  0.0001  0.0008  0.0000  0.3417  0.0772 </r>
       </set>
       <set comment="band 11">
        <r>  0.0497  0.0148  0.0417  0.1968  0.0257  0.0039  0.0313  0.2413  0.0447 </r>
       </set>
       <set comment="band 12">
        <r>  0.0584  0.0225  0.0138  0.0033  0.3215  0.0088  0.0052  0.0104  0.1230 </r>
       </set>
      </set>
      <set comment="kpoint 50">
       <set comment="band 1">
        <r>  0.0339  0.0000  0.0857  0.0723  0.0000  0.0000  0.2535  0.2771  0.1359 </r>
       </set>
       <set comment="band 2">
        <r>  0.0296  0.0000  0.0083  0.0029  0.0000  0.0000  0.1878  0.4674  0.2269 </r>
       </set>
       <set comment="band 3">
        <r>  0.0000  0.0945  0.0000  0.0000  0.6811  0.1500  0.0000  0.0000  0.0000 </r>
       </set>
       <set comment="band 4">
        <r>  0.0018  0.0000  0.0093  0.0002  0.0000  0.0000  0.4340  0.0066  0.5189 </r>
       </set>
       <set comment="band 5">
        <r>  0.0000  0.0024  0.0000  0.0000  0.1952  0.7901  0.0000  0.0000  0.0000 </r>
       </set>
       <set comment="band 6">
        <r>  0.1522  0.0000  0.1890  0.0919  0.0000  0.0000  0.0773  0.2718  0.0583 </r>
       </set>
       <set comment="band 7">
        <r>  0.0000  0.5116  0.0000  0.0000  0.2211  0.0973  0.0000  0.0000  0.0000 </r>
       </set>
       <set comment="band 8">
        <r>  0.3695  0.0000  0.0134  0.0938  0.0000  0.0000  0.0768  0.0375  0.1670 </r>
       </set>
       <set comment="band 9">
        <r>  0.1052  0.0000  0.2866  0.0805  0.0000  0.0000  0.2053  0.0583  0.0018 </r>
       </set>
       <set comment="band 10">
        <r>  0.0464  0.0000  0.0219  0.1992  0.0000  0.0000  0.0027  0.2018  0.1103 </r>
       </set>
       <set comment="band 11">
        <r>  0.0000  0.0615  0.0000  0.0000  0.4227  0.0198  0.0000  0.0000  0.0000 </r>
       </set>
       <set comment="band 12">
        <r>  0.0184  0.0000  0.0001  0.2898  0.0000  0.0000  0.1646  0.2969  0.0277 </r>
       </set>
      </set>
      <set comment="kpoint 51">
       <set comment="band 1">
        <r>  0.0538  0.0088  0.0000  0.0129  0.0008  0.0000  0.2307  0.0000  0.5559 </r>
       </set>
       <set comment="band 2">
        <r>  0.0000  0.0000  0.0137  0.0000  0.0000  0.0011  0.0000  0.9205  0.0000 </r>
       </set>
       <set comment="band 3">
        <r>  0.0090  0.1237  0.0000  0.0006  0.7574  0.0000  0.0436  0.0000  0.0001 </r>
       </set>
       <set comment="band 4">
        <r>  0.0000  0.0071  0.0000  0.0027  0.0242  0.0000  0.6498  0.0000  0.3022 </r>
       </set>
       <set comment="band 5">
        <r>  0.0000  0.0000  0.0013  0.0000  0.0000  0.9910  0.0000  0.0016  0.0000 </r>
       </set>
       <set comment="band 6">
        <r>  0.0500  0.4857  0.0000  0.0039  0.2240  0.0000  0.0189  0.0000  0.0307 </r>
       </set>
       <set comment="band 7">
        <r>  0.2747  0.0773  0.0000  0.0296  0.0056  0.0000  0.1195  0.0000  0.3064 </r>
       </set>
       <set comment="band 8">
        <r>  0.0000  0.0000  0.5452  0.0000  0.0000  0.0090  0.0000  0.1979  0.0000 </r>
       </set>
       <set comment="band 9">
        <r>  0.1807  0.0034  0.0000  0.4362  0.0071  0.0000  0.0485  0.0000  0.0007 </r>
       </set>
       <set comment="band 10">
        <r>  0.0000  0.0000  0.0856  0.0000  0.0000  0.0016  0.0000  0.7515  0.0000 </r>
       </set>
       <set comment="band 11">
        <r>  0.3159  0.0094  0.0000  0.1591  0.0013  0.0000  0.0322  0.0000  0.1828 </r>
       </set>
       <set comment="band 12">
        <r>  0.0162  0.0157  0.0000  0.0139  0.2126  0.0000  0.0191  0.0000  0.0519 </r>
       </set>
      </set>
      <set comment="kpoint 52">
       <set comment="band 1">
        <r>  0.0302  0.0000  0.0016  0.0247  0.0000  0.0000  0.2811  0.0094  0.5250 </r>
       </set>
       <set comment="band 2">
        <r>  0.0011  0.0000  0.0314  0.0050  0.0000  0.0000  0.0029  0.8871  0.0032 </r>
       </set>
       <set comment="band 3">
        <r>  0.0000  0.1356  0.0000  0.0000  0.7345  0.0558  0.0000  0.0000  0.0000 </r>
       </set>
       <set comment="band 4">
        <r>  0.0030  0.0000  0.0008  0.0045  0.0000  0.0000  0.6302  0.0001  0.3425 </r>
       </set>
       <set comment="band 5">
        <r>  0.0000  0.0007  0.0000  0.0000  0.0779  0.9155  0.0000  0.0000  0.0000 </r>
       </set>
       <set comment="band 6">
        <r>  0.0000  0.5568  0.0000  0.0000  0.2239  0.0289  0.0000  0.0000  0.0000 </r>
       </set>
       <set comment="band 7">
        <r>  0.0898  0.0000  0.1157  0.1429  0.0000  0.0000  0.1448  0.0405  0.2510 </r>
       </set>
       <set comment="band 8">
        <r>  0.3802  0.0000  0.1931  0.0291  0.0000  0.0000  0.0033  0.1396  0.0485 </r>
       </set>
       <set comment="band 9">
        <r>  0.1246  0.0000  0.2274  0.2171  0.0000  0.0000  0.0837  0.0616  0.0001 </r>
       </set>
       <set comment="band 10">
        <r>  0.0585  0.0000  0.0547  0.0477  0.0000  0.0000  0.0015  0.5403  0.0439 </r>
       </set>
       <set comment="band 11">
        <r>  0.1764  0.0000  0.0357  0.1936  0.0000  0.0000  0.0216  0.1312  0.1524 </r>
       </set>
       <set comment="band 12">
        <r>  0.0000  0.0332  0.0000  0.0000  0.3319  0.0050  0.0000  0.0000  0.0000 </r>
       </set>
      </set>
      <set comment="kpoint 53">
       <set comment="band 1">
        <r>  0.0999  0.0916  0.0000  0.0520  0.0790  0.0000  0.2330  0.0000  0.2763 </r>
       </set>
       <set comment="band 2">
        <r>  0.0000  0.0000  0.0481  0.0000  0.0000  0.0502  0.0000  0.8342  0.0000 </r>
       </set>
       <set comment="band 3">
        <r>  0.0385  0.0529  0.0000  0.0015  0.5518  0.0000  0.2268  0.0000  0.0544 </r>
       </set>
       <set comment="band 4">
        <r>  0.0002  0.0203  0.0000  0.0038  0.0078  0.0000  0.3584  0.0000  0.5808 </r>
       </set>
       <set comment="band 5">
        <r>  0.0000  0.0000  0.0056  0.0000  0.0000  0.9137  0.0000  0.0672  0.0000 </r>
       </set>
       <set comment="band 6">
        <r>  0.1316  0.1804  0.0000  0.0349  0.3629  0.0000  0.1328  0.0000  0.0432 </r>
       </set>
       <set comment="band 7">
        <r>  0.0000  0.0000  0.4925  0.0000  0.0000  0.0747  0.0000  0.2537  0.0000 </r>
       </set>
       <set comment="band 8">
        <r>  0.2304  0.0045  0.0000  0.2336  0.0577  0.0000  0.1698  0.0000  0.0147 </r>
       </set>
       <set comment="band 9">
        <r>  0.1932  0.2702  0.0000  0.0083  0.0233  0.0000  0.0455  0.0000  0.2127 </r>
       </set>
       <set comment="band 10">
        <r>  0.0000  0.0000  0.0927  0.0000  0.0000  0.0185  0.0000  0.5344  0.0000 </r>
       </set>
       <set comment="band 11">
        <r>  0.0277  0.0573  0.0000  0.3603  0.0142  0.0000  0.0323  0.0000  0.0034 </r>
       </set>
       <set comment="band 12">
        <r>  0.1731  0.0048  0.0000  0.0142  0.2183  0.0000  0.0321  0.0000  0.3877 </r>
       </set>
      </set>
      <set comment="kpoint 54">
       <set comment="band 1">
        <r>  0.0156  0.0318  0.0003  0.0562  0.0300  0.0027  0.4549  0.0194  0.2584 </r>
       </set>
       <set comment="band 2">
        <r>  0.0227  0.0154  0.0519  0.0038  0.1961  0.0435  0.0638  0.5164  0.0046 </r>
       </set>
       <set comment="band 3">
        <r>  0.0118  0.0587  0.0235  0.0021  0.5189  0.0002  0.0362  0.2738  0.0006 </r>
       </set>
       <set comment="band 4">
        <r>  0.0040  0.0090  0.0013  0.0008  0.0069  0.0447  0.2789  0.0003  0.6243 </r>
       </set>
       <set comment="band 5">
        <r>  0.0009  0.0000  0.0021  0.0000  0.0263  0.8717  0.0125  0.0507  0.0264 </r>
       </set>
       <set comment="band 6">
        <r>  0.1026  0.2721  0.0175  0.0645  0.2373  0.0060  0.0873  0.0036  0.0421 </r>
       </set>
       <set comment="band 7">
        <r>  0.1536  0.0016  0.3302  0.0341  0.0209  0.0401  0.0326  0.2047  0.0018 </r>
       </set>
       <set comment="band 8">
        <r>  0.1100  0.0031  0.1485  0.1488  0.0285  0.0057  0.2220  0.0572  0.0185 </r>
       </set>
       <set comment="band 9">
        <r>  0.2821  0.2302  0.0195  0.0205  0.0349  0.0046  0.0149  0.0002  0.1591 </r>
       </set>
       <set comment="band 10">
        <r>  0.0027  0.0219  0.0374  0.1979  0.0394  0.0018  0.0101  0.1986  0.0053 </r>
       </set>
       <set comment="band 11">
        <r>  0.0190  0.0182  0.0231  0.0494  0.1728  0.0091  0.0436  0.2492  0.0535 </r>
       </set>
       <set comment="band 12">
        <r>  0.1014  0.0003  0.0157  0.1858  0.1653  0.0000  0.0000  0.0692  0.2401 </r>
       </set>
      </set>
      <set comment="kpoint 55">
       <set comment="band 1">
        <r>  0.0190  0.0075  0.0000  0.0434  0.0027  0.0000  0.3808  0.0000  0.4176 </r>
       </set>
       <set comment="band 2">
        <r>  0.0000  0.0000  0.0509  0.0000  0.0000  0.0050  0.0000  0.8747  0.0000 </r>
       </set>
       <set comment="band 3">
        <r>  0.0104  0.1153  0.0000  0.0000  0.7711  0.0000  0.0253  0.0000  0.0000 </r>
       </set>
       <set comment="band 4">
        <r>  0.0067  0.0046  0.0000  0.0034  0.0104  0.0000  0.4773  0.0000  0.4720 </r>
       </set>
       <set comment="band 5">
        <r>  0.0000  0.0000  0.0012  0.0000  0.0000  0.9854  0.0000  0.0074  0.0000 </r>
       </set>
       <set comment="band 6">
        <r>  0.0652  0.4275  0.0000  0.0184  0.2531  0.0000  0.0307  0.0000  0.0305 </r>
       </set>
       <set comment="band 7">
        <r>  0.0000  0.0000  0.5313  0.0000  0.0000  0.0101  0.0000  0.2632  0.0000 </r>
       </set>
       <set comment="band 8">
        <r>  0.0754  0.0868  0.0000  0.1661  0.0285  0.0000  0.1927  0.0000  0.2137 </r>
       </set>
       <set comment="band 9">
        <r>  0.5056  0.0249  0.0000  0.1293  0.0004  0.0000  0.0683  0.0000  0.0168 </r>
       </set>
       <set comment="band 10">
        <r>  0.0000  0.0000  0.0875  0.0000  0.0000  0.0022  0.0000  0.5916  0.0000 </r>
       </set>
       <set comment="band 11">
        <r>  0.1227  0.0116  0.0000  0.3479  0.0022  0.0000  0.0183  0.0000  0.1440 </r>
       </set>
       <set comment="band 12">
        <r>  0.0440  0.0304  0.0000  0.0002  0.3651  0.0000  0.0118  0.0000  0.0966 </r>
       </set>
      </set>
      <set comment="kpoint 56">
       <set comment="band 1">
        <r>  0.0013  0.0000  0.0032  0.0546  0.0000  0.0000  0.5278  0.0001  0.2888 </r>
       </set>
       <set comment="band 2">
        <r>  0.0076  0.0000  0.0743  0.0018  0.0000  0.0000  0.0002  0.8369  0.0034 </r>
       </set>
       <set comment="band 3">
        <r>  0.0000  0.0997  0.0000  0.0000  0.8093  0.0155  0.0000  0.0000  0.0000 </r>
       </set>
       <set comment="band 4">
        <r>  0.0137  0.0000  0.0018  0.0005  0.0000  0.0000  0.3367  0.0033  0.6137 </r>
       </set>
       <set comment="band 5">
        <r>  0.0000  0.0010  0.0000  0.0000  0.0230  0.9700  0.0000  0.0000  0.0000 </r>
       </set>
       <set comment="band 6">
        <r>  0.0000  0.5395  0.0000  0.0000  0.2629  0.0148  0.0000  0.0000  0.0000 </r>
       </set>
       <set comment="band 7">
        <r>  0.0685  0.0000  0.3647  0.0681  0.0000  0.0000  0.0691  0.2178  0.0169 </r>
       </set>
       <set comment="band 8">
        <r>  0.2701  0.0000  0.0106  0.1377  0.0000  0.0000  0.1372  0.0232  0.1910 </r>
       </set>
       <set comment="band 9">
        <r>  0.3400  0.0000  0.1562  0.0763  0.0000  0.0000  0.1414  0.0431  0.0040 </r>
       </set>
       <set comment="band 10">
        <r>  0.0154  0.0000  0.0554  0.1038  0.0000  0.0000  0.0002  0.3932  0.0421 </r>
       </set>
       <set comment="band 11">
        <r>  0.0000  0.0614  0.0000  0.0000  0.4739  0.0026  0.0000  0.0000  0.0000 </r>
       </set>
       <set comment="band 12">
        <r>  0.0179  0.0000  0.0157  0.3619  0.0000  0.0000  0.0458  0.1543  0.0541 </r>
       </set>
      </set>
     </set>
    </set>
   </array>
  </projected>
 </calculation>
 <structure name="finalpos" >
  <crystal>
   <varray name="basis" >
    <v>       1.76500000       1.76500000       0.00000000 </v>
    <v>       0.00000000       1.76500000       1.76500000 </v>
    <v>       1.76500000       0.00000000       1.76500000 </v>
   </varray>
   <i name="volume">     10.99674425 </i>
   <varray name="rec_basis" >
    <v>       0.28328612       0.28328612      -0.28328612 </v>
    <v>      -0.28328612       0.28328612       0.28328612 </v>
    <v>       0.28328612      -0.28328612       0.28328612 </v>
   </varray>
  </crystal>
  <varray name="positions" >
   <v>       0.00000000       0.00000000       0.00000000 </v>
  </varray>
 </structure>
</modeling>
