fcc Ni                                  
   3.20000000000000     
     0.500000    0.500000    0.000000
     0.000000    0.500000    0.500000
     0.500000    0.000000    0.500000
   Ni
     1
Direct
  0.000000  0.000000  0.000000
 
   20   20   20
  112.70      106.73      90.557      68.571      46.000      27.102      14.143      7.2179      4.6919      4.0829    
  3.8940      4.0829      4.6919      7.2179      14.143      27.102      46.000      68.571      90.557      106.73    
  106.73      95.674      76.691      54.661      34.343      18.956      9.6037      5.4258      4.2622      3.9078    
  3.9078      4.2621      5.4258      9.6037      18.956      34.343      54.661      76.691      95.674      106.73    
  90.557      76.691      57.866      38.617      22.649      11.902      6.3624      4.4582      3.9437      3.7657    
  3.9436      4.4581      6.3624      11.902      22.649      38.617      57.867      76.691      90.557      95.674    
  68.571      54.661      38.617      24.035      13.316      7.1631      4.6826      3.9872      3.6714      3.6713    
  3.9871      4.6825      7.1631      13.316      24.035      38.617      54.661      68.572      76.691      76.691    
  46.000      34.343      22.649      13.316      7.4785      4.8412      4.0217      3.6212      3.4788      3.6212    
  4.0217      4.8412      7.4785      13.316      22.649      34.343      46.000      54.661      57.867      54.661    
  27.102      18.956      11.902      7.1631      4.8412      4.0348      3.6018      3.3707      3.3707      3.6017    
  4.0347      4.8412      7.1631      11.902      18.956      27.102      34.343      38.617      38.617      34.343    
  14.143      9.6037      6.3624      4.6826      4.0217      3.6018      3.3367      3.2482      3.3367      3.6017    
  4.0217      4.6826      6.3624      9.6037      14.143      18.956      22.649      24.035      22.649      18.956    
  7.2179      5.4258      4.4582      3.9872      3.6212      3.3707      3.2482      3.2482      3.3707      3.6212    
  3.9872      4.4582      5.4258      7.2179      9.6037      11.902      13.316      13.316      11.902      9.6037    
  4.6919      4.2622      3.9437      3.6714      3.4788      3.3707      3.3367      3.3707      3.4788      3.6714    
  3.9437      4.2622      4.6919      5.4258      6.3624      7.1631      7.4785      7.1631      6.3624      5.4258    
  4.0829      3.9078      3.7657      3.6713      3.6212      3.6017      3.6017      3.6212      3.6714      3.7657    
  3.9078      4.0829      4.2622      4.4582      4.6826      4.8412      4.8412      4.6825      4.4581      4.2621    
  3.8940      3.9078      3.9436      3.9871      4.0217      4.0347      4.0217      3.9872      3.9437      3.9078    
  3.8940      3.9078      3.9437      3.9872      4.0217      4.0347      4.0217      3.9871      3.9436      3.9078    
  4.0829      4.2621      4.4581      4.6825      4.8412      4.8412      4.6826      4.4582      4.2622      4.0829    
  3.9078      3.7657      3.6714      3.6212      3.6017      3.6017      3.6212      3.6713      3.7657      3.9078    
  4.6919      5.4258      6.3624      7.1631      7.4785      7.1631      6.3624      5.4258      4.6919      4.2622    
  3.9437      3.6714      3.4788      3.3707      3.3367      3.3707      3.4788      3.6714      3.9437      4.2622    
  7.2179      9.6037      11.902      13.316      13.316      11.902      9.6037      7.2179      5.4258      4.4582    
  3.9872      3.6212      3.3707      3.2482      3.2482      3.3707      3.6212      3.9872      4.4582      5.4258    
  14.143      18.956      22.649      24.035      22.649      18.956      14.143      9.6037      6.3624      4.6826    
  4.0217      3.6017      3.3367      3.2482      3.3367      3.6018      4.0217      4.6826      6.3624      9.6037    
  27.102      34.343      38.617      38.617      34.343      27.102      18.956      11.902      7.1631      4.8412    
  4.0347      3.6017      3.3707      3.3707      3.6018      4.0348      4.8412      7.1631      11.902      18.956    
  46.000      54.661      57.867      54.661      46.000      34.343      22.649      13.316      7.4785      4.8412    
  4.0217      3.6212      3.4788      3.6212      4.0217      4.8412      7.4785      13.316      22.649      34.343    
  68.571      76.691      76.691      68.572      54.661      38.617      24.035      13.316      7.1631      4.6825    
  3.9871      3.6713      3.6714      3.9872      4.6826      7.1631      13.316      24.035      38.617      54.661    
  90.557      95.674      90.557      76.691      57.867      38.617      22.649      11.902      6.3624      4.4581    
  3.9436      3.7657      3.9437      4.4582      6.3624      11.902      22.649      38.617      57.866      76.691    
  106.73      106.73      95.674      76.691      54.661      34.343      18.956      9.6037      5.4258      4.2621    
  3.9078      3.9078      4.2622      5.4258      9.6037      18.956      34.343      54.661      76.691      95.674    
  106.73      95.674      76.691      54.661      34.343      18.956      9.6037      5.4258      4.2622      3.9078    
  3.9078      4.2621      5.4258      9.6037      18.956      34.343      54.661      76.691      95.674      106.73    
  95.674      80.997      61.107      40.797      23.943      12.553      6.6162      4.5357      3.9984      3.8176    
  3.9984      4.5356      6.6162      12.553      23.943      40.797      61.107      80.997      95.674      101.10    
  76.691      61.107      43.182      26.893      14.852      7.8222      4.8901      4.0893      3.7633      3.7633    
  4.0893      4.8901      7.8222      14.852      26.893      43.182      61.107      76.691      85.808      85.808    
  54.661      40.797      26.893      15.719      8.5822      5.2129      4.1617      3.7412      3.5887      3.7412    
  4.1617      5.2129      8.5822      15.719      26.893      40.797      54.661      64.987      68.817      64.987    
  34.343      23.943      14.852      8.5822      5.3444      4.2053      3.7374      3.4823      3.4823      3.7374    
  4.2052      5.3444      8.5822      14.852      23.943      34.343      43.574      49.030      49.030      43.574    
  18.956      12.553      7.8222      5.2129      4.2053      3.7381      3.4344      3.3312      3.4344      3.7381    
  4.2052      5.2129      7.8222      12.553      18.956      25.646      30.753      32.667      30.753      25.646    
  9.6037      6.6162      4.8901      4.1617      3.7374      3.4344      3.2826      3.2826      3.4344      3.7374    
  4.1617      4.8901      6.6162      9.6037      13.396      16.963      19.134      19.134      16.963      13.396    
  5.4258      4.5357      4.0893      3.7412      3.4823      3.3312      3.2826      3.3312      3.4823      3.7412    
  4.0893      4.5357      5.4258      6.9166      8.6986      10.164      10.731      10.164      8.6986      6.9166    
  4.2622      3.9984      3.7633      3.5887      3.4823      3.4344      3.4344      3.4823      3.5887      3.7633    
  3.9984      4.2622      4.5989      5.1198      5.7056      6.0986      6.0986      5.7056      5.1198      4.5989    
  3.9078      3.8176      3.7633      3.7412      3.7374      3.7381      3.7374      3.7412      3.7633      3.8176    
  3.9078      4.0235      4.1433      4.2549      4.3566      4.4003      4.3566      4.2548      4.1432      4.0234    
  3.9078      3.9984      4.0893      4.1617      4.2052      4.2052      4.1617      4.0893      3.9984      3.9078    
  3.8372      3.7978      3.7882      3.7957      3.8048      3.8048      3.7957      3.7881      3.7978      3.8372    
  4.2621      4.5356      4.8901      5.2129      5.3444      5.2129      4.8901      4.5357      4.2622      4.0235    
  3.7978      3.6199      3.5037      3.4432      3.4251      3.4432      3.5037      3.6198      3.7978      4.0234    
  5.4258      6.6162      7.8222      8.5822      8.5822      7.8222      6.6162      5.4258      4.5989      4.1433    
  3.7882      3.5037      3.3181      3.2300      3.2300      3.3181      3.5037      3.7882      4.1433      4.5989    
  9.6037      12.553      14.852      15.719      14.852      12.553      9.6037      6.9166      5.1198      4.2549    
  3.7957      3.4432      3.2300      3.1603      3.2301      3.4432      3.7958      4.2549      5.1198      6.9166    
  18.956      23.943      26.893      26.893      23.943      18.956      13.396      8.6986      5.7056      4.3566    
  3.8048      3.4251      3.2300      3.2301      3.4251      3.8049      4.3566      5.7057      8.6986      13.396    
  34.343      40.797      43.182      40.797      34.343      25.646      16.963      10.164      6.0986      4.4003    
  3.8048      3.4432      3.3181      3.4432      3.8049      4.4004      6.0987      10.164      16.963      25.646    
  54.661      61.107      61.107      54.661      43.574      30.753      19.134      10.731      6.0986      4.3566    
  3.7957      3.5037      3.5037      3.7958      4.3566      6.0987      10.731      19.134      30.753      43.574    
  76.691      80.997      76.691      64.987      49.030      32.667      19.134      10.164      5.7056      4.2548    
  3.7881      3.6198      3.7882      4.2549      5.7057      10.164      19.134      32.667      49.030      64.987    
  95.674      95.674      85.808      68.817      49.030      30.753      16.963      8.6986      5.1198      4.1432    
  3.7978      3.7978      4.1433      5.1198      8.6986      16.963      30.753      49.030      68.817      85.808    
  106.73      101.10      85.808      64.987      43.574      25.646      13.396      6.9166      4.5989      4.0234    
  3.8372      4.0234      4.5989      6.9166      13.396      25.646      43.574      64.987      85.808      101.10    
  90.557      76.691      57.866      38.617      22.649      11.902      6.3624      4.4582      3.9437      3.7657    
  3.9436      4.4582      6.3624      11.902      22.649      38.617      57.867      76.691      90.557      95.674    
  76.691      61.107      43.182      26.893      14.852      7.8222      4.8901      4.0893      3.7633      3.7633    
  4.0893      4.8901      7.8222      14.852      26.893      43.182      61.107      76.691      85.808      85.808    
  57.866      43.182      28.462      16.615      9.0024      5.3591      4.2110      3.7834      3.6277      3.7834    
  4.2110      5.3592      9.0025      16.615      28.462      43.182      57.867      68.817      72.882      68.817    
  38.617      26.893      16.615      9.4548      5.6690      4.3032      3.8109      3.5440      3.5440      3.8109    
  4.3032      5.6690      9.4548      16.615      26.893      38.617      49.030      55.192      55.192      49.030    
  22.649      14.852      9.0024      5.6690      4.3402      3.8295      3.5032      3.3907      3.5032      3.8296    
  4.3403      5.6690      9.0025      14.852      22.649      30.753      36.934      39.252      36.934      30.753    
  11.902      7.8222      5.3591      4.3032      3.8295      3.4916      3.3190      3.3190      3.4916      3.8296    
  4.3032      5.3592      7.8222      11.902      16.963      21.676      24.532      24.532      21.676      16.963    
  6.3624      4.8901      4.2110      3.8109      3.5032      3.3190      3.2590      3.3190      3.5032      3.8109    
  4.2110      4.8901      6.3624      8.6985      11.390      13.563      14.398      13.563      11.391      8.6986    
  4.4582      4.0893      3.7834      3.5440      3.3907      3.3190      3.3190      3.3907      3.5440      3.7834    
  4.0893      4.4582      5.1198      6.1320      7.2095      7.9098      7.9098      7.2095      6.1320      5.1198    
  3.9437      3.7633      3.6277      3.5440      3.5032      3.4916      3.5032      3.5440      3.6277      3.7633    
  3.9437      4.1433      4.3581      4.6397      4.9085      5.0208      4.9084      4.6397      4.3581      4.1433    
  3.7657      3.7633      3.7834      3.8109      3.8296      3.8296      3.8109      3.7834      3.7633      3.7657    
  3.7978      3.8546      3.9212      3.9790      4.0129      4.0129      3.9790      3.9211      3.8545      3.7978    
  3.9436      4.0893      4.2110      4.3032      4.3403      4.3032      4.2110      4.0893      3.9437      3.7978    
  3.6775      3.5975      3.5565      3.5416      3.5386      3.5415      3.5564      3.5974      3.6775      3.7978    
  4.4582      4.8901      5.3592      5.6690      5.6690      5.3592      4.8901      4.4582      4.1433      3.8546    
  3.5975      3.4062      3.2887      3.2354      3.2354      3.2887      3.4061      3.5975      3.8545      4.1432    
  6.3624      7.8222      9.0025      9.4548      9.0025      7.8222      6.3624      5.1198      4.3581      3.9212    
  3.5565      3.2887      3.1335      3.0838      3.1335      3.2887      3.5565      3.9212      4.3581      5.1197    
  11.902      14.852      16.615      16.615      14.852      11.902      8.6985      6.1320      4.6397      3.9790    
  3.5416      3.2354      3.0838      3.0838      3.2354      3.5416      3.9791      4.6397      6.1320      8.6986    
  22.649      26.893      28.462      26.893      22.649      16.963      11.390      7.2095      4.9085      4.0129    
  3.5386      3.2354      3.1335      3.2354      3.5386      4.0130      4.9085      7.2096      11.391      16.963    
  38.617      43.182      43.182      38.617      30.753      21.676      13.563      7.9098      5.0208      4.0129    
  3.5415      3.2887      3.2887      3.5416      4.0130      5.0209      7.9099      13.563      21.676      30.753    
  57.867      61.107      57.867      49.030      36.934      24.532      14.398      7.9098      4.9084      3.9790    
  3.5564      3.4061      3.5565      3.9791      4.9085      7.9099      14.399      24.532      36.934      49.030    
  76.691      76.691      68.817      55.192      39.252      24.532      13.563      7.2095      4.6397      3.9211    
  3.5974      3.5975      3.9212      4.6397      7.2096      13.563      24.532      39.252      55.192      68.817    
  90.557      85.808      72.882      55.192      36.934      21.676      11.391      6.1320      4.3581      3.8545    
  3.6775      3.8545      4.3581      6.1320      11.391      21.676      36.934      55.192      72.882      85.808    
  95.674      85.808      68.817      49.030      30.753      16.963      8.6986      5.1198      4.1433      3.7978    
  3.7978      4.1432      5.1197      8.6986      16.963      30.753      49.030      68.817      85.808      95.674    
  68.571      54.661      38.617      24.035      13.316      7.1631      4.6826      3.9872      3.6714      3.6713    
  3.9871      4.6825      7.1631      13.316      24.035      38.617      54.661      68.572      76.691      76.691    
  54.661      40.797      26.893      15.719      8.5822      5.2129      4.1617      3.7412      3.5887      3.7412    
  4.1617      5.2129      8.5822      15.719      26.893      40.797      54.661      64.987      68.817      64.987    
  38.617      26.893      16.615      9.4548      5.6690      4.3032      3.8109      3.5440      3.5440      3.8109    
  4.3032      5.6690      9.4548      16.615      26.893      38.617      49.030      55.192      55.192      49.030    
  24.035      15.719      9.4548      5.8492      4.3925      3.8616      3.5279      3.4124      3.5280      3.8616    
  4.3926      5.8493      9.4548      15.719      24.035      32.667      39.252      41.721      39.252      32.667    
  13.316      8.5822      5.6690      4.3925      3.8800      3.5252      3.3420      3.3420      3.5253      3.8801    
  4.3926      5.6690      8.5822      13.316      19.134      24.532      27.802      27.802      24.532      19.134    
  7.1631      5.2129      4.3032      3.8616      3.5252      3.3206      3.2534      3.3206      3.5253      3.8616    
  4.3032      5.2129      7.1631      10.164      13.563      16.285      17.329      16.285      13.563      10.164    
  4.6826      4.1617      3.8109      3.5279      3.3420      3.2534      3.2534      3.3420      3.5280      3.8109    
  4.1617      4.6825      5.7056      7.2095      8.7628      9.7572      9.7572      8.7629      7.2096      5.7057    
  3.9872      3.7412      3.5440      3.4124      3.3420      3.3206      3.3420      3.4124      3.5440      3.7411    
  3.9871      4.2548      4.6396      5.1690      5.6545      5.8526      5.6545      5.1690      4.6397      4.2549    
  3.6714      3.5887      3.5440      3.5280      3.5253      3.5253      3.5280      3.5440      3.5887      3.6714    
  3.7881      3.9212      4.0464      4.1593      4.2381      4.2381      4.1593      4.0464      3.9212      3.7881    
  3.6713      3.7412      3.8109      3.8616      3.8801      3.8616      3.8109      3.7411      3.6714      3.6199    
  3.5975      3.6033      3.6256      3.6481      3.6574      3.6481      3.6255      3.6032      3.5974      3.6198    
  3.9871      4.1617      4.3032      4.3926      4.3926      4.3032      4.1617      3.9871      3.7881      3.5975    
  3.4441      3.3413      3.2848      3.2618      3.2618      3.2848      3.3412      3.4441      3.5974      3.7881    
  4.6825      5.2129      5.6690      5.8493      5.6690      5.2129      4.6825      4.2548      3.9212      3.6033    
  3.3413      3.1603      3.0598      3.0283      3.0598      3.1603      3.3412      3.6032      3.9211      4.2548    
  7.1631      8.5822      9.4548      9.4548      8.5822      7.1631      5.7056      4.6396      4.0464      3.6256    
  3.2848      3.0598      2.9519      2.9519      3.0598      3.2848      3.6256      4.0464      4.6397      5.7056    
  13.316      15.719      16.615      15.719      13.316      10.164      7.2095      5.1690      4.1593      3.6481    
  3.2618      3.0283      2.9519      3.0283      3.2618      3.6482      4.1593      5.1690      7.2095      10.164    
  24.035      26.893      26.893      24.035      19.134      13.563      8.7628      5.6545      4.2381      3.6574    
  3.2618      3.0598      3.0598      3.2618      3.6574      4.2381      5.6545      8.7629      13.563      19.134    
  38.617      40.797      38.617      32.667      24.532      16.285      9.7572      5.8526      4.2381      3.6481    
  3.2848      3.1603      3.2848      3.6482      4.2381      5.8527      9.7572      16.285      24.532      32.667    
  54.661      54.661      49.030      39.252      27.802      17.329      9.7572      5.6545      4.1593      3.6255    
  3.3412      3.3412      3.6256      4.1593      5.6545      9.7572      17.329      27.802      39.252      49.030    
  68.572      64.987      55.192      41.721      27.802      16.285      8.7629      5.1690      4.0464      3.6032    
  3.4441      3.6032      4.0464      5.1690      8.7629      16.285      27.802      41.721      55.192      64.987    
  76.691      68.817      55.192      39.252      24.532      13.563      7.2096      4.6397      3.9212      3.5974    
  3.5974      3.9211      4.6397      7.2095      13.563      24.532      39.252      55.192      68.817      76.691    
  76.691      64.987      49.030      32.667      19.134      10.164      5.7057      4.2549      3.7881      3.6198    
  3.7881      4.2548      5.7056      10.164      19.134      32.667      49.030      64.987      76.691      80.997    
  46.000      34.343      22.649      13.316      7.4785      4.8412      4.0217      3.6213      3.4788      3.6212    
  4.0217      4.8412      7.4785      13.316      22.649      34.343      46.000      54.661      57.867      54.661    
  34.343      23.943      14.852      8.5822      5.3444      4.2053      3.7374      3.4823      3.4822      3.7374    
  4.2052      5.3444      8.5822      14.852      23.943      34.343      43.574      49.030      49.030      43.574    
  22.649      14.852      9.0024      5.6690      4.3402      3.8295      3.5032      3.3907      3.5032      3.8296    
  4.3403      5.6690      9.0025      14.852      22.649      30.753      36.934      39.252      36.934      30.753    
  13.316      8.5822      5.6690      4.3925      3.8800      3.5252      3.3420      3.3420      3.5253      3.8801    
  4.3926      5.6690      8.5822      13.316      19.134      24.532      27.802      27.802      24.532      19.134    
  7.4785      5.3444      4.3402      3.8800      3.5344      3.3229      3.2532      3.3229      3.5345      3.8801    
  4.3403      5.3444      7.4785      10.731      14.398      17.328      18.451      17.329      14.399      10.731    
  4.8412      4.2053      3.8295      3.5252      3.3229      3.2256      3.2256      3.3229      3.5253      3.8296    
  4.2052      4.8412      6.0986      7.9098      9.7571      10.933      10.933      9.7572      7.9099      6.0987    
  4.0217      3.7374      3.5032      3.3420      3.2532      3.2256      3.2533      3.3420      3.5032      3.7374    
  4.0217      4.3566      4.9084      5.6544      6.3226      6.5922      6.3227      5.6545      4.9085      4.3566    
  3.6213      3.4823      3.3907      3.3420      3.3229      3.3229      3.3420      3.3907      3.4822      3.6212    
  3.7957      3.9790      4.1593      4.3539      4.4924      4.4924      4.3539      4.1593      3.9791      3.7958    
  3.4788      3.4822      3.5032      3.5253      3.5345      3.5253      3.5032      3.4822      3.4788      3.5037    
  3.5565      3.6256      3.6931      3.7416      3.7592      3.7416      3.6931      3.6256      3.5565      3.5037    
  3.6212      3.7374      3.8296      3.8801      3.8801      3.8296      3.7374      3.6212      3.5037      3.4062    
  3.3413      3.3090      3.2993      3.2989      3.2989      3.2992      3.3089      3.3412      3.4061      3.5037    
  4.0217      4.2052      4.3403      4.3926      4.3403      4.2052      4.0217      3.7957      3.5565      3.3413    
  3.1764      3.0693      3.0127      2.9955      3.0127      3.0692      3.1763      3.3412      3.5564      3.7957    
  4.8412      5.3444      5.6690      5.6690      5.3444      4.8412      4.3566      3.9790      3.6256      3.3090    
  3.0693      2.9178      2.8470      2.8470      2.9178      3.0692      3.3089      3.6255      3.9790      4.3566    
  7.4785      8.5822      9.0025      8.5822      7.4785      6.0986      4.9084      4.1593      3.6931      3.2993    
  3.0127      2.8470      2.7939      2.8470      3.0127      3.2993      3.6931      4.1593      4.9084      6.0986    
  13.316      14.852      14.852      13.316      10.731      7.9098      5.6544      4.3539      3.7416      3.2989    
  2.9955      2.8470      2.8470      2.9955      3.2989      3.7416      4.3539      5.6545      7.9098      10.731    
  22.649      23.943      22.649      19.134      14.398      9.7571      6.3226      4.4924      3.7592      3.2989    
  3.0127      2.9178      3.0127      3.2989      3.7592      4.4925      6.3227      9.7572      14.398      19.134    
  34.343      34.343      30.753      24.532      17.328      10.933      6.5922      4.4924      3.7416      3.2992    
  3.0692      3.0692      3.2993      3.7416      4.4925      6.5922      10.933      17.329      24.532      30.753    
  46.000      43.574      36.934      27.802      18.451      10.933      6.3227      4.3539      3.6931      3.3089    
  3.1763      3.3089      3.6931      4.3539      6.3227      10.933      18.451      27.802      36.934      43.574    
  54.661      49.030      39.252      27.802      17.329      9.7572      5.6545      4.1593      3.6256      3.3412    
  3.3412      3.6255      4.1593      5.6545      9.7572      17.329      27.802      39.252      49.030      54.661    
  57.867      49.030      36.934      24.532      14.399      7.9099      4.9085      3.9791      3.5565      3.4061    
  3.5564      3.9790      4.9084      7.9098      14.398      24.532      36.934      49.030      57.867      61.107    
  54.661      43.574      30.753      19.134      10.731      6.0987      4.3566      3.7958      3.5037      3.5037    
  3.7957      4.3566      6.0986      10.731      19.134      30.753      43.574      54.661      61.107      61.107    
  27.102      18.956      11.902      7.1631      4.8412      4.0348      3.6018      3.3707      3.3707      3.6017    
  4.0347      4.8412      7.1631      11.902      18.956      27.102      34.343      38.617      38.617      34.343    
  18.956      12.553      7.8222      5.2129      4.2053      3.7381      3.4344      3.3312      3.4344      3.7381    
  4.2052      5.2129      7.8222      12.553      18.956      25.646      30.753      32.667      30.753      25.646    
  11.902      7.8222      5.3592      4.3032      3.8295      3.4916      3.3190      3.3190      3.4916      3.8296    
  4.3032      5.3592      7.8222      11.902      16.963      21.676      24.532      24.532      21.676      16.963    
  7.1631      5.2129      4.3032      3.8616      3.5252      3.3206      3.2534      3.3206      3.5253      3.8616    
  4.3032      5.2129      7.1631      10.164      13.563      16.285      17.329      16.285      13.563      10.164    
  4.8412      4.2053      3.8295      3.5252      3.3229      3.2256      3.2256      3.3229      3.5253      3.8296    
  4.2052      4.8412      6.0986      7.9098      9.7571      10.933      10.933      9.7572      7.9099      6.0987    
  4.0348      3.7381      3.4916      3.3206      3.2256      3.1959      3.2256      3.3206      3.4916      3.7381    
  4.0347      4.4003      5.0208      5.8526      6.5922      6.8896      6.5922      5.8527      5.0209      4.4004    
  3.6018      3.4344      3.3190      3.2534      3.2256      3.2256      3.2534      3.3190      3.4344      3.6017    
  3.8048      4.0129      4.2380      4.4924      4.6724      4.6724      4.4925      4.2381      4.0130      3.8049    
  3.3707      3.3312      3.3190      3.3206      3.3229      3.3206      3.3190      3.3312      3.3707      3.4432    
  3.5416      3.6481      3.7416      3.8045      3.8271      3.8046      3.7416      3.6482      3.5416      3.4432    
  3.3707      3.4344      3.4916      3.5253      3.5253      3.4916      3.4344      3.3707      3.3181      3.2887    
  3.2848      3.2993      3.3195      3.3333      3.3333      3.3195      3.2993      3.2848      3.2887      3.3181    
  3.6017      3.7381      3.8296      3.8616      3.8296      3.7381      3.6017      3.4432      3.2887      3.1603    
  3.0693      3.0146      2.9881      2.9804      2.9880      3.0146      3.0692      3.1603      3.2887      3.4432    
  4.0347      4.2052      4.3032      4.3032      4.2052      4.0347      3.8048      3.5416      3.2848      3.0693    
  2.9131      2.8172      2.7730      2.7730      2.8172      2.9130      3.0692      3.2848      3.5415      3.8048    
  4.8412      5.2129      5.3592      5.2129      4.8412      4.4003      4.0129      3.6481      3.2993      3.0146    
  2.8172      2.7060      2.6707      2.7060      2.8172      3.0146      3.2993      3.6481      4.0129      4.4003    
  7.1631      7.8222      7.8222      7.1631      6.0986      5.0208      4.2380      3.7416      3.3195      2.9881    
  2.7730      2.6707      2.6707      2.7730      2.9880      3.3195      3.7416      4.2381      5.0208      6.0986    
  11.902      12.553      11.902      10.164      7.9098      5.8526      4.4924      3.8045      3.3333      2.9804    
  2.7730      2.7060      2.7730      2.9804      3.3333      3.8046      4.4924      5.8526      7.9098      10.164    
  18.956      18.956      16.963      13.563      9.7571      6.5922      4.6724      3.8271      3.3333      2.9880    
  2.8172      2.8172      2.9880      3.3333      3.8271      4.6724      6.5922      9.7572      13.563      16.963    
  27.102      25.646      21.676      16.285      10.933      6.8896      4.6724      3.8046      3.3195      3.0146    
  2.9130      3.0146      3.3195      3.8046      4.6724      6.8896      10.933      16.285      21.676      25.646    
  34.343      30.753      24.532      17.329      10.933      6.5922      4.4925      3.7416      3.2993      3.0692    
  3.0692      3.2993      3.7416      4.4924      6.5922      10.933      17.328      24.532      30.753      34.343    
  38.617      32.667      24.532      16.285      9.7572      5.8527      4.2381      3.6482      3.2848      3.1603    
  3.2848      3.6481      4.2381      5.8526      9.7572      16.285      24.532      32.667      38.617      40.797    
  38.617      30.753      21.676      13.563      7.9099      5.0209      4.0130      3.5416      3.2887      3.2887    
  3.5415      4.0129      5.0208      7.9098      13.563      21.676      30.753      38.617      43.182      43.182    
  34.343      25.646      16.963      10.164      6.0987      4.4004      3.8049      3.4432      3.3181      3.4432    
  3.8048      4.4003      6.0986      10.164      16.963      25.646      34.343      40.797      43.182      40.797    
  14.143      9.6037      6.3624      4.6826      4.0217      3.6018      3.3367      3.2482      3.3367      3.6017    
  4.0217      4.6826      6.3624      9.6037      14.143      18.956      22.649      24.035      22.649      18.956    
  9.6037      6.6162      4.8901      4.1617      3.7374      3.4344      3.2826      3.2826      3.4344      3.7374    
  4.1617      4.8901      6.6162      9.6037      13.396      16.963      19.134      19.134      16.963      13.396    
  6.3624      4.8901      4.2110      3.8108      3.5032      3.3190      3.2590      3.3190      3.5032      3.8109    