fcc Ni                                  
   3.20000000000000     
     0.500000    0.500000    0.000000
     0.000000    0.500000    0.500000
     0.500000    0.000000    0.500000
   Ni
     1
Direct
  0.000000  0.000000  0.000000
 
   20   20   20
 0.11269663836E+03 0.10672983743E+03 0.90556769207E+02 0.68571449825E+02 0.45999903641E+02
 0.27101560962E+02 0.14142685821E+02 0.72179334393E+01 0.46918728223E+01 0.40828909766E+01
 0.38939595112E+01 0.40828909766E+01 0.46918728223E+01 0.72179334393E+01 0.14142685821E+02
 0.27101560962E+02 0.45999903641E+02 0.68571449825E+02 0.90556769207E+02 0.10672983743E+03
 0.10672983743E+03 0.95674002031E+02 0.76690549680E+02 0.54660541684E+02 0.34342697164E+02
 0.18955835030E+02 0.96036688746E+01 0.54257878991E+01 0.42621600960E+01 0.39078101687E+01
 0.39078057116E+01 0.42621458428E+01 0.54257678895E+01 0.96036575587E+01 0.18955845832E+02
 0.34342729224E+02 0.54660584020E+02 0.76690591555E+02 0.95674034264E+02 0.10672984997E+03
 0.90556769207E+02 0.76690549680E+02 0.57866493171E+02 0.38617317664E+02 0.22648864814E+02
 0.11902468503E+02 0.63624093508E+01 0.44581837370E+01 0.39436664866E+01 0.37657271366E+01
 0.39436477091E+01 0.44581486230E+01 0.63623757732E+01 0.11902463062E+02 0.22648898602E+02
 0.38617380657E+02 0.57866570377E+02 0.76690625319E+02 0.90556818856E+02 0.95674034264E+02
 0.68571449825E+02 0.54660541684E+02 0.38617317664E+02 0.24034725635E+02 0.13315898516E+02
 0.71631231049E+01 0.46825981120E+01 0.39871773033E+01 0.36713620808E+01 0.36713483843E+01
 0.39871367092E+01 0.46825437407E+01 0.71630867892E+01 0.13315906305E+02 0.24034776592E+02
 0.38617396496E+02 0.54660634028E+02 0.68571531426E+02 0.76690625319E+02 0.76690591555E+02
 0.45999903641E+02 0.34342697164E+02 0.22648864814E+02 0.13315898516E+02 0.74785250503E+01
 0.48412476430E+01 0.40217234718E+01 0.36212486431E+01 0.34788350840E+01 0.36212180838E+01
 0.40216646452E+01 0.48411843416E+01 0.74784936441E+01 0.13315913726E+02 0.22648913912E+02
 0.34342764227E+02 0.45999975120E+02 0.54660634028E+02 0.57866570377E+02 0.54660584020E+02
 0.27101560962E+02 0.18955835030E+02 0.11902468503E+02 0.71631231049E+01 0.48412476430E+01
 0.40347644736E+01 0.36017676156E+01 0.33707145957E+01 0.33707031603E+01 0.36017290679E+01
 0.40347032441E+01 0.48411914477E+01 0.71630989329E+01 0.11902475949E+02 0.18955859480E+02
 0.27101595036E+02 0.34342764227E+02 0.38617396496E+02 0.38617380657E+02 0.34342729224E+02
 0.14142685821E+02 0.96036688746E+01 0.63624093508E+01 0.46825981120E+01 0.40217234718E+01
 0.36017676156E+01 0.33367207598E+01 0.32482103902E+01 0.33367063729E+01 0.36017330476E+01
 0.40216777327E+01 0.46825622113E+01 0.63623919488E+01 0.96036628148E+01 0.14142688177E+02
 0.18955859480E+02 0.22648913912E+02 0.24034776592E+02 0.22648898602E+02 0.18955845832E+02
 0.72179334393E+01 0.54257878991E+01 0.44581837370E+01 0.39871773033E+01 0.36212486431E+01
 0.33707145957E+01 0.32482103902E+01 0.32482069897E+01 0.33707014249E+01 0.36212259881E+01
 0.39871571076E+01 0.44581747524E+01 0.54257852526E+01 0.72179322573E+01 0.96036628148E+01
 0.11902475949E+02 0.13315913726E+02 0.13315906305E+02 0.11902463062E+02 0.96036575587E+01
 0.46918728223E+01 0.42621600960E+01 0.39436664866E+01 0.36713620808E+01 0.34788350840E+01
 0.33707031603E+01 0.33367063729E+01 0.33707014249E+01 0.34788289387E+01 0.36713570748E+01
 0.39436732471E+01 0.42621790463E+01 0.46918934521E+01 0.54257852526E+01 0.63623919488E+01
 0.71630989329E+01 0.74784936441E+01 0.71630867892E+01 0.63623757732E+01 0.54257678895E+01
 0.40828909766E+01 0.39078101687E+01 0.37657271366E+01 0.36713483843E+01 0.36212180838E+01
 0.36017290679E+01 0.36017330476E+01 0.36212259881E+01 0.36713570748E+01 0.37657427564E+01
 0.39078385183E+01 0.40829269108E+01 0.42621790463E+01 0.44581747524E+01 0.46825622113E+01
 0.48411914477E+01 0.48411843416E+01 0.46825437407E+01 0.44581486230E+01 0.42621458428E+01
 0.38939595112E+01 0.39078057116E+01 0.39436477091E+01 0.39871367092E+01 0.40216646452E+01
 0.40347032441E+01 0.40216777327E+01 0.39871571076E+01 0.39436732471E+01 0.39078385183E+01
 0.38939964023E+01 0.39078385183E+01 0.39436732471E+01 0.39871571076E+01 0.40216777327E+01
 0.40347032441E+01 0.40216646452E+01 0.39871367092E+01 0.39436477091E+01 0.39078057116E+01
 0.40828909766E+01 0.42621458428E+01 0.44581486230E+01 0.46825437407E+01 0.48411843416E+01
 0.48411914477E+01 0.46825622113E+01 0.44581747524E+01 0.42621790463E+01 0.40829269108E+01
 0.39078385183E+01 0.37657427564E+01 0.36713570748E+01 0.36212259881E+01 0.36017330476E+01
 0.36017290679E+01 0.36212180838E+01 0.36713483843E+01 0.37657271366E+01 0.39078101687E+01
 0.46918728223E+01 0.54257678895E+01 0.63623757732E+01 0.71630867892E+01 0.74784936441E+01
 0.71630989329E+01 0.63623919488E+01 0.54257852526E+01 0.46918934521E+01 0.42621790463E+01
 0.39436732471E+01 0.36713570748E+01 0.34788289387E+01 0.33707014249E+01 0.33367063729E+01
 0.33707031603E+01 0.34788350840E+01 0.36713620808E+01 0.39436664866E+01 0.42621600960E+01
 0.72179334393E+01 0.96036575587E+01 0.11902463062E+02 0.13315906305E+02 0.13315913726E+02
 0.11902475949E+02 0.96036628148E+01 0.72179322573E+01 0.54257852526E+01 0.44581747524E+01
 0.39871571076E+01 0.36212259881E+01 0.33707014249E+01 0.32482069897E+01 0.32482103902E+01
 0.33707145957E+01 0.36212486431E+01 0.39871773033E+01 0.44581837370E+01 0.54257878991E+01
 0.14142685821E+02 0.18955845832E+02 0.22648898602E+02 0.24034776592E+02 0.22648913912E+02
 0.18955859480E+02 0.14142688177E+02 0.96036628148E+01 0.63623919488E+01 0.46825622113E+01
 0.40216777327E+01 0.36017330476E+01 0.33367063729E+01 0.32482103902E+01 0.33367207598E+01
 0.36017676156E+01 0.40217234718E+01 0.46825981120E+01 0.63624093508E+01 0.96036688746E+01
 0.27101560962E+02 0.34342729224E+02 0.38617380657E+02 0.38617396496E+02 0.34342764227E+02
 0.27101595036E+02 0.18955859480E+02 0.11902475949E+02 0.71630989329E+01 0.48411914477E+01
 0.40347032441E+01 0.36017290679E+01 0.33707031603E+01 0.33707145957E+01 0.36017676156E+01
 0.40347644736E+01 0.48412476430E+01 0.71631231049E+01 0.11902468503E+02 0.18955835030E+02
 0.45999903641E+02 0.54660584020E+02 0.57866570377E+02 0.54660634028E+02 0.45999975120E+02
 0.34342764227E+02 0.22648913912E+02 0.13315913726E+02 0.74784936441E+01 0.48411843416E+01
 0.40216646452E+01 0.36212180838E+01 0.34788350840E+01 0.36212486431E+01 0.40217234718E+01
 0.48412476430E+01 0.74785250503E+01 0.13315898516E+02 0.22648864814E+02 0.34342697164E+02
 0.68571449825E+02 0.76690591555E+02 0.76690625319E+02 0.68571531426E+02 0.54660634028E+02
 0.38617396496E+02 0.24034776592E+02 0.13315906305E+02 0.71630867892E+01 0.46825437407E+01
 0.39871367092E+01 0.36713483843E+01 0.36713620808E+01 0.39871773033E+01 0.46825981120E+01
 0.71631231049E+01 0.13315898516E+02 0.24034725635E+02 0.38617317664E+02 0.54660541684E+02
 0.90556769207E+02 0.95674034264E+02 0.90556818856E+02 0.76690625319E+02 0.57866570377E+02
 0.38617380657E+02 0.22648898602E+02 0.11902463062E+02 0.63623757732E+01 0.44581486230E+01
 0.39436477091E+01 0.37657271366E+01 0.39436664866E+01 0.44581837370E+01 0.63624093508E+01
 0.11902468503E+02 0.22648864814E+02 0.38617317664E+02 0.57866493171E+02 0.76690549680E+02
 0.10672983743E+03 0.10672984997E+03 0.95674034264E+02 0.76690591555E+02 0.54660584020E+02
 0.34342729224E+02 0.18955845832E+02 0.96036575587E+01 0.54257678895E+01 0.42621458428E+01
 0.39078057116E+01 0.39078101687E+01 0.42621600960E+01 0.54257878991E+01 0.96036688746E+01
 0.18955835030E+02 0.34342697164E+02 0.54660541684E+02 0.76690549680E+02 0.95674002031E+02
 0.10672983248E+03 0.95673994061E+02 0.76690544620E+02 0.54660539863E+02 0.34342695220E+02
 0.18955834121E+02 0.96036723254E+01 0.54257931184E+01 0.42621615732E+01 0.39078084390E+01
 0.39078051534E+01 0.42621461152E+01 0.54257660051E+01 0.96036558417E+01 0.18955848995E+02
 0.34342735643E+02 0.54660588267E+02 0.76690593279E+02 0.95674036324E+02 0.10672985048E+03
 0.95673994061E+02 0.80997353025E+02 0.61107260184E+02 0.40796967628E+02 0.23942786316E+02
 0.12553095338E+02 0.66162434141E+01 0.45356790608E+01 0.39983774152E+01 0.38175638141E+01
 0.39983622635E+01 0.45356478134E+01 0.66162171373E+01 0.12553107098E+02 0.23942842799E+02
 0.40797046300E+02 0.61107342293E+02 0.80997430044E+02 0.95674045850E+02 0.10109618109E+03
 0.76690544620E+02 0.61107260184E+02 0.43181770790E+02 0.26892786373E+02 0.14851762470E+02
 0.78222054545E+01 0.48901145855E+01 0.40893462832E+01 0.37632987316E+01 0.37632926616E+01
 0.40893253887E+01 0.48900882598E+01 0.78222059320E+01 0.14851812611E+02 0.26892873546E+02
 0.43181870291E+02 0.61107360685E+02 0.76690629933E+02 0.85808328691E+02 0.85808293389E+02
 0.54660539863E+02 0.40796967628E+02 0.26892786373E+02 0.15719270785E+02 0.85821936494E+01
 0.52129315519E+01 0.41617355981E+01 0.37411626016E+01 0.35886770997E+01 0.37411564824E+01
 0.41617180106E+01 0.52129189727E+01 0.85822174592E+01 0.15719338908E+02 0.26892878409E+02
 0.40797065350E+02 0.54660632650E+02 0.64987051139E+02 0.68817235233E+02 0.64986989007E+02
 0.34342695220E+02 0.23942786316E+02 0.14851762470E+02 0.85821936494E+01 0.53443836669E+01
 0.42052578704E+01 0.37374470982E+01 0.34822530348E+01 0.34822526054E+01 0.37374387830E+01
 0.42052401677E+01 0.53443790600E+01 0.85822234283E+01 0.14851819390E+02 0.23942850765E+02
 0.34342758463E+02 0.43574442012E+02 0.49030457760E+02 0.49030435283E+02 0.43574388390E+02
 0.18955834121E+02 0.12553095338E+02 0.78222054545E+01 0.52129315519E+01 0.42052578704E+01
 0.37381339967E+01 0.34344323186E+01 0.33311632427E+01 0.34344294602E+01 0.37381212697E+01
 0.42052415156E+01 0.52129282442E+01 0.78222181245E+01 0.12553111638E+02 0.18955849457E+02
 0.25645655057E+02 0.30752784318E+02 0.32667093776E+02 0.30752767550E+02 0.25645636073E+02
 0.96036723254E+01 0.66162434141E+01 0.48901145855E+01 0.41617355981E+01 0.37374470982E+01
 0.34344323186E+01 0.32825978064E+01 0.32825986950E+01 0.34344299685E+01 0.37374366435E+01
 0.41617220569E+01 0.48901024553E+01 0.66162288376E+01 0.96036543966E+01 0.13395975547E+02
 0.16963306334E+02 0.19133896524E+02 0.19133893821E+02 0.16963305967E+02 0.13395987040E+02
 0.54257931184E+01 0.45356790608E+01 0.40893462832E+01 0.37411626016E+01 0.34822530348E+01
 0.33311632427E+01 0.32825986950E+01 0.33311659822E+01 0.34822508822E+01 0.37411528654E+01
 0.40893341463E+01 0.45356668883E+01 0.54257795620E+01 0.69165587501E+01 0.86985652167E+01
 0.10163809883E+02 0.10731339771E+02 0.10163808367E+02 0.86985694434E+01 0.69165704686E+01
 0.42621615732E+01 0.39983774152E+01 0.37632987316E+01 0.35886770997E+01 0.34822526054E+01
 0.34344294602E+01 0.34344299685E+01 0.34822508822E+01 0.35886707876E+01 0.37632933618E+01
 0.39983807613E+01 0.42621737394E+01 0.45988911578E+01 0.51197668654E+01 0.57056091938E+01
 0.60986466202E+01 0.60986418531E+01 0.57055975435E+01 0.51197523478E+01 0.45988759928E+01
 0.39078084390E+01 0.38175638141E+01 0.37632926616E+01 0.37411564824E+01 0.37374387830E+01
 0.37381212697E+01 0.37374366435E+01 0.37411528654E+01 0.37632933618E+01 0.38175769277E+01
 0.39078357072E+01 0.40234722630E+01 0.41432669744E+01 0.42548687077E+01 0.43565799405E+01
 0.44003124540E+01 0.43565589281E+01 0.42548346999E+01 0.41432287250E+01 0.40234361410E+01
 0.39078051534E+01 0.39983622635E+01 0.40893253887E+01 0.41617180106E+01 0.42052401677E+01
 0.42052415156E+01 0.41617220569E+01 0.40893341463E+01 0.39983807613E+01 0.39078357072E+01
 0.38371926273E+01 0.37978211697E+01 0.37881564613E+01 0.37957369201E+01 0.38047868465E+01
 0.38047730306E+01 0.37957025248E+01 0.37881146413E+01 0.37977793016E+01 0.38371538848E+01
 0.42621461152E+01 0.45356478134E+01 0.48900882598E+01 0.52129189727E+01 0.53443790600E+01
 0.52129282442E+01 0.48901024553E+01 0.45356668883E+01 0.42621737394E+01 0.40234722630E+01
 0.37978211697E+01 0.36198658198E+01 0.35036863220E+01 0.34431763628E+01 0.34251069232E+01
 0.34431613980E+01 0.35036629497E+01 0.36198375103E+01 0.37977880117E+01 0.40234381430E+01
 0.54257660051E+01 0.66162171373E+01 0.78222059320E+01 0.85822174592E+01 0.85822234283E+01
 0.78222181245E+01 0.66162288376E+01 0.54257795620E+01 0.45988911578E+01 0.41432669744E+01
 0.37881564613E+01 0.35036863220E+01 0.33181134522E+01 0.32300487059E+01 0.32300492767E+01
 0.33181160047E+01 0.35036885054E+01 0.37881505909E+01 0.41432504557E+01 0.45988726312E+01
 0.96036558417E+01 0.12553107098E+02 0.14851812611E+02 0.15719338908E+02 0.14851819390E+02
 0.12553111638E+02 0.96036543966E+01 0.69165587501E+01 0.51197668654E+01 0.42548687077E+01
 0.37957369201E+01 0.34431763628E+01 0.32300487059E+01 0.31602903709E+01 0.32300621062E+01
 0.34432045002E+01 0.37957710540E+01 0.42548936764E+01 0.51197784045E+01 0.69165635323E+01
 0.18955848995E+02 0.23942842799E+02 0.26892873546E+02 0.26892878409E+02 0.23942850765E+02
 0.18955849457E+02 0.13395975547E+02 0.86985652167E+01 0.57056091938E+01 0.43565799405E+01
 0.38047868465E+01 0.34251069232E+01 0.32300492767E+01 0.32300621062E+01 0.34251475682E+01
 0.38048507422E+01 0.43566467529E+01 0.57056578883E+01 0.86985917442E+01 0.13395986752E+02
 0.34342735643E+02 0.40797046300E+02 0.43181870291E+02 0.40797065350E+02 0.34342758463E+02
 0.25645655057E+02 0.16963306334E+02 0.10163809883E+02 0.60986466202E+01 0.44003124540E+01
 0.38047730306E+01 0.34431613980E+01 0.33181160047E+01 0.34432045002E+01 0.38048507422E+01
 0.44004013819E+01 0.60987173526E+01 0.10163847604E+02 0.16963314953E+02 0.25645643401E+02
 0.54660588267E+02 0.61107342293E+02 0.61107360685E+02 0.54660632650E+02 0.43574442012E+02
 0.30752784318E+02 0.19133896524E+02 0.10731339771E+02 0.60986418531E+01 0.43565589281E+01
 0.37957025248E+01 0.35036629497E+01 0.35036885054E+01 0.37957710540E+01 0.43566467529E+01
 0.60987173526E+01 0.10731380071E+02 0.19133897231E+02 0.30752753932E+02 0.43574394580E+02
 0.76690593279E+02 0.80997430044E+02 0.76690629933E+02 0.64987051139E+02 0.49030457760E+02
 0.32667093776E+02 0.19133893821E+02 0.10163808367E+02 0.57055975435E+01 0.42548346999E+01
 0.37881146413E+01 0.36198375103E+01 0.37881505909E+01 0.42548936764E+01 0.57056578883E+01
 0.10163847604E+02 0.19133897231E+02 0.32667060350E+02 0.49030400622E+02 0.64986992552E+02
 0.95674036324E+02 0.95674045850E+02 0.85808328691E+02 0.68817235233E+02 0.49030435283E+02
 0.30752767550E+02 0.16963305967E+02 0.86985694434E+01 0.51197523478E+01 0.41432287250E+01
 0.37977793016E+01 0.37977880117E+01 0.41432504557E+01 0.51197784045E+01 0.86985917442E+01
 0.16963314953E+02 0.30752753932E+02 0.49030400622E+02 0.68817195256E+02 0.85808300509E+02
 0.10672985048E+03 0.10109618109E+03 0.85808293389E+02 0.64986989007E+02 0.43574388390E+02
 0.25645636073E+02 0.13395987040E+02 0.69165704686E+01 0.45988759928E+01 0.40234361410E+01
 0.38371538848E+01 0.40234381430E+01 0.45988726312E+01 0.69165635323E+01 0.13395986752E+02
 0.25645643401E+02 0.43574394580E+02 0.64986992552E+02 0.85808300509E+02 0.10109618957E+03
 0.90556758294E+02 0.76690538660E+02 0.57866491180E+02 0.38617321128E+02 0.22648866109E+02
 0.11902470453E+02 0.63624169723E+01 0.44581907994E+01 0.39436650723E+01 0.37657221192E+01
 0.39436476000E+01 0.44581507258E+01 0.63623743589E+01 0.11902463004E+02 0.22648906224E+02
 0.38617389728E+02 0.57866571672E+02 0.76690621662E+02 0.90556816864E+02 0.95674030365E+02
 0.76690538660E+02 0.61107257135E+02 0.43181773858E+02 0.26892791658E+02 0.14851765709E+02
 0.78222083134E+01 0.48901187560E+01 0.40893481263E+01 0.37632958400E+01 0.37632893738E+01
 0.40893258378E+01 0.48900900902E+01 0.78222064019E+01 0.14851814270E+02 0.26892878004E+02
 0.43181872942E+02 0.61107357734E+02 0.76690624552E+02 0.85808324639E+02 0.85808288979E+02
 0.57866491180E+02 0.43181773858E+02 0.28462395515E+02 0.16615343336E+02 0.90024324378E+01
 0.53591480386E+01 0.42109743326E+01 0.37834251559E+01 0.36277269426E+01 0.37834283599E+01
 0.42109756878E+01 0.53591611613E+01 0.90024823419E+01 0.16615431893E+02 0.28462499074E+02
 0.43181873593E+02 0.57866579258E+02 0.68817247983E+02 0.72882214298E+02 0.68817191204E+02
 0.38617321128E+02 0.26892791658E+02 0.16615343336E+02 0.94547591630E+01 0.56689517331E+01
 0.43031574338E+01 0.38108510240E+01 0.35440361621E+01 0.35440473285E+01 0.38108763308E+01
 0.43031888131E+01 0.56689986225E+01 0.94548307337E+01 0.16615428482E+02 0.26892871946E+02
 0.38617389373E+02 0.49030453872E+02 0.55192444427E+02 0.55192424098E+02 0.49030402361E+02
 0.22648866109E+02 0.14851765709E+02 0.90024324378E+01 0.56689517331E+01 0.43402382422E+01
 0.38295296739E+01 0.35031667844E+01 0.33907301914E+01 0.35031885257E+01 0.38295635739E+01
 0.43402794118E+01 0.56690008220E+01 0.90024827022E+01 0.14851804560E+02 0.22648890831E+02
 0.30752768360E+02 0.36934087724E+02 0.39251759448E+02 0.36934076190E+02 0.30752750980E+02
 0.11902470453E+02 0.78222083134E+01 0.53591480386E+01 0.43031574338E+01 0.38295296739E+01
 0.34915830171E+01 0.33189611561E+01 0.33189692287E+01 0.34916040758E+01 0.38295575341E+01
 0.43031851466E+01 0.53591658666E+01 0.78222061286E+01 0.11902447717E+02 0.16963280325E+02
 0.21675713733E+02 0.24532365999E+02 0.24532373688E+02 0.21675736019E+02 0.16963310485E+02
 0.63624169723E+01 0.48901187560E+01 0.42109743326E+01 0.38108510240E+01 0.35031667844E+01
 0.33189611561E+01 0.32589673109E+01 0.33189733464E+01 0.35031842876E+01 0.38108635053E+01
 0.42109721905E+01 0.48900958141E+01 0.63623744650E+01 0.86985434864E+01 0.11390494468E+02
 0.13563195696E+02 0.14398469914E+02 0.13563223844E+02 0.11390542203E+02 0.86985962024E+01
 0.44581907994E+01 0.40893481263E+01 0.37834251559E+01 0.35440361621E+01 0.33907301914E+01
 0.33189692287E+01 0.33189733464E+01 0.33907391486E+01 0.35440417907E+01 0.37834194343E+01
 0.40893289214E+01 0.44581613332E+01 0.51197524537E+01 0.61319730326E+01 0.72095032545E+01
 0.79098290892E+01 0.79098395248E+01 0.72095303586E+01 0.61320076592E+01 0.51197871839E+01
 0.39436650723E+01 0.37632958400E+01 0.36277269426E+01 0.35440473285E+01 0.35031885257E+01
 0.34916040758E+01 0.35031842876E+01 0.35440417907E+01 0.36277223491E+01 0.37632924771E+01
 0.39436642650E+01 0.41432545095E+01 0.43580680817E+01 0.46396566785E+01 0.49084501254E+01
 0.50208069435E+01 0.49084475687E+01 0.46396511743E+01 0.43580616230E+01 0.41432509256E+01
 0.37657221192E+01 0.37632893738E+01 0.37834283599E+01 0.38108763308E+01 0.38295635739E+01
 0.38295575341E+01 0.38108635053E+01 0.37834194343E+01 0.37632924771E+01 0.37657400112E+01
 0.37978146653E+01 0.38545837496E+01 0.39211833583E+01 0.39790227306E+01 0.40128919769E+01
 0.40128794428E+01 0.39789890497E+01 0.39211391333E+01 0.38545413769E+01 0.37977827220E+01
 0.39436476000E+01 0.40893258378E+01 0.42109756878E+01 0.43031888131E+01 0.43402794118E+01
 0.43031851466E+01 0.42109721905E+01 0.40893289214E+01 0.39436642650E+01 0.37978146653E+01
 0.36775203413E+01 0.35974977142E+01 0.35564701680E+01 0.35415635242E+01 0.35385778862E+01
 0.35415323115E+01 0.35564173547E+01 0.35974382387E+01 0.36774685647E+01 0.37977797507E+01
 0.44581507258E+01 0.48900900902E+01 0.53591611613E+01 0.56689986225E+01 0.56690008220E+01
 0.53591658666E+01 0.48900958141E+01 0.44581613332E+01 0.41432545095E+01 0.38545837496E+01
 0.35974977142E+01 0.34061873456E+01 0.32887156533E+01 0.32353834160E+01 0.32353720817E+01
 0.32886848709E+01 0.34061449460E+01 0.35974540730E+01 0.38545484972E+01 0.41432325574E+01
 0.63623743589E+01 0.78222064019E+01 0.90024823419E+01 0.94548307337E+01 0.90024827022E+01
 0.78222061286E+01 0.63623744650E+01 0.51197524537E+01 0.43580680817E+01 0.39211833583E+01
 0.35564701680E+01 0.32887156533E+01 0.31335281017E+01 0.30837640321E+01 0.31335233466E+01
 0.32887087257E+01 0.35564628968E+01 0.39211757615E+01 0.43580616230E+01 0.51197494562E+01
 0.11902463004E+02 0.14851814270E+02 0.16615431893E+02 0.16615428482E+02 0.14851804560E+02
 0.11902447717E+02 0.86985434864E+01 0.61319730326E+01 0.46396566785E+01 0.39790227306E+01
 0.35415635242E+01 0.32353834160E+01 0.30837640321E+01 0.30837700197E+01 0.32354022132E+01
 0.35415944755E+01 0.39790596243E+01 0.46396912456E+01 0.61320005390E+01 0.86985641663E+01
 0.22648906224E+02 0.26892878004E+02 0.28462499074E+02 0.26892871946E+02 0.22648890831E+02
 0.16963280325E+02 0.11390494468E+02 0.72095032545E+01 0.49084501254E+01 0.40128919769E+01
 0.35385778862E+01 0.32353720817E+01 0.31335233466E+01 0.32354022132E+01 0.35386321856E+01
 0.40129606617E+01 0.49085219518E+01 0.72095669385E+01 0.11390542203E+02 0.16963310137E+02
 0.38617389728E+02 0.43181872942E+02 0.43181873593E+02 0.38617389373E+02 0.30752768360E+02
 0.21675713733E+02 0.13563195696E+02 0.79098290892E+01 0.50208069435E+01 0.40128794428E+01
 0.35415323115E+01 0.32886848709E+01 0.32887087257E+01 0.35415944755E+01 0.40129606617E+01
 0.50208910853E+01 0.79099042258E+01 0.13563250844E+02 0.21675743139E+02 0.30752777529E+02
 0.57866571672E+02 0.61107357734E+02 0.57866579258E+02 0.49030453872E+02 0.36934087724E+02
 0.24532365999E+02 0.14398469914E+02 0.79098395248E+01 0.49084475687E+01 0.39789890497E+01
 0.35564173547E+01 0.34061449460E+01 0.35564628968E+01 0.39790596243E+01 0.49085219518E+01
 0.79099042258E+01 0.14398512450E+02 0.24532377568E+02 0.36934076190E+02 0.49030438522E+02
 0.76690621662E+02 0.76690624552E+02 0.68817247983E+02 0.55192444427E+02 0.39251759448E+02
 0.24532373688E+02 0.13563223844E+02 0.72095303586E+01 0.46396511743E+01 0.39211391333E+01
 0.35974382387E+01 0.35974540730E+01 0.39211757615E+01 0.46396912456E+01 0.72095669385E+01
 0.13563250844E+02 0.24532377568E+02 0.39251737877E+02 0.55192416978E+02 0.68817233398E+02
 0.90556816864E+02 0.85808324639E+02 0.72882214298E+02 0.55192424098E+02 0.36934076190E+02
 0.21675736019E+02 0.11390542203E+02 0.61320076592E+01 0.43580616230E+01 0.38545413769E+01
 0.36774685647E+01 0.38545484972E+01 0.43580616230E+01 0.61320005390E+01 0.11390542203E+02
 0.21675743139E+02 0.36934076190E+02 0.55192416978E+02 0.72882214298E+02 0.85808331759E+02
 0.95674030365E+02 0.85808288979E+02 0.68817191204E+02 0.49030402361E+02 0.30752750980E+02
 0.16963310485E+02 0.86985962024E+01 0.51197871839E+01 0.41432509256E+01 0.37977827220E+01
 0.37977797507E+01 0.41432325574E+01 0.51197494562E+01 0.86985641663E+01 0.16963310137E+02
 0.30752777529E+02 0.49030438522E+02 0.68817233398E+02 0.85808331759E+02 0.95674049921E+02
 0.68571441191E+02 0.54660536182E+02 0.38617323406E+02 0.24034733372E+02 0.13315899081E+02
 0.71631235111E+01 0.46826049565E+01 0.39871815991E+01 0.36713565152E+01 0.36713426438E+01
 0.39871398323E+01 0.46825480239E+01 0.71630845852E+01 0.13315905512E+02 0.24034783724E+02
 0.38617401600E+02 0.54660628402E+02 0.68571523592E+02 0.76690623940E+02 0.76690589598E+02
 0.54660536182E+02 0.40796970095E+02 0.26892797175E+02 0.15719280344E+02 0.85821961587E+01
 0.52129328664E+01 0.41617389918E+01 0.37411616781E+01 0.35886700568E+01 0.37411524716E+01
 0.41617216919E+01 0.52129229835E+01 0.85822171396E+01 0.15719339832E+02 0.26892882378E+02
 0.40797064035E+02 0.54660622778E+02 0.64987041580E+02 0.68817231794E+02 0.64986986539E+02
 0.38617323406E+02 0.26892797175E+02 0.16615351069E+02 0.94547634367E+01 0.56689510033E+01
 0.43031558895E+01 0.38108502471E+01 0.35440333955E+01 0.35440431773E+01 0.38108756077E+01
 0.43031920453E+01 0.56690008028E+01 0.94548299441E+01 0.16615427746E+02 0.26892871457E+02
 0.38617385406E+02 0.49030446952E+02 0.55192440250E+02 0.55192424712E+02 0.49030404303E+02
 0.24034733372E+02 0.15719280344E+02 0.94547634367E+01 0.58491858430E+01 0.43925250251E+01
 0.38615745918E+01 0.35279213892E+01 0.34124170081E+01 0.35279594633E+01 0.38616408853E+01
 0.43926033058E+01 0.58492597307E+01 0.94548216372E+01 0.15719318939E+02 0.24034754814E+02
 0.32667075772E+02 0.39251752152E+02 0.41721291933E+02 0.39251749271E+02 0.32667066363E+02
 0.13315899081E+02 0.85821961587E+01 0.56689510033E+01 0.43925250251E+01 0.38800438918E+01
 0.35252395179E+01 0.33420169818E+01 0.33420373685E+01 0.35252968156E+01 0.38801227329E+01
 0.43925974572E+01 0.56689917951E+01 0.85821982511E+01 0.13315872244E+02 0.19133854104E+02
 0.24532342093E+02 0.27801535847E+02 0.27801549785E+02 0.24532376838E+02 0.19133893550E+02
 0.71631235111E+01 0.52129328664E+01 0.43031558895E+01 0.38615745918E+01 0.35252395179E+01
 0.33205669186E+01 0.32533818033E+01 0.33205968245E+01 0.35252919530E+01 0.38616272099E+01
 0.43031793539E+01 0.52129122663E+01 0.71630653457E+01 0.10163761993E+02 0.13563162399E+02
 0.16285198529E+02 0.17328525285E+02 0.16285250395E+02 0.13563242180E+02 0.10163841592E+02
 0.46826049565E+01 0.41617389918E+01 0.38108502471E+01 0.35279213892E+01 0.33420169818E+01
 0.32533818033E+01 0.32533910464E+01 0.33420427964E+01 0.35279514446E+01 0.38108608091E+01
 0.41617124238E+01 0.46825432243E+01 0.57055782279E+01 0.72094759278E+01 0.87628313990E+01
 0.97571651606E+01 0.97571952984E+01 0.87629065149E+01 0.72095661616E+01 0.57056615695E+01
 0.39871815991E+01 0.37411616781E+01 0.35440333955E+01 0.34124170081E+01 0.33420373685E+01
 0.33205968245E+01 0.33420427964E+01 0.34124283656E+01 0.35440406150E+01 0.37411482028E+01
 0.39871434188E+01 0.42548471051E+01 0.46396391423E+01 0.51689715864E+01 0.56544519914E+01
 0.58526007238E+01 0.56544858770E+01 0.51690238755E+01 0.46396955992E+01 0.42548996892E+01
 0.36713565152E+01 0.35886700568E+01 0.35440431773E+01 0.35279594633E+01 0.35252968156E+01
 0.35252919530E+01 0.35279514446E+01 0.35440406150E+01 0.35886705842E+01 0.36713538313E+01
 0.37881427918E+01 0.39211708649E+01 0.40464408684E+01 0.41593035856E+01 0.42380522545E+01
 0.42380540364E+01 0.41593057721E+01 0.40464405181E+01 0.39211716103E+01 0.37881469096E+01
 0.36713426438E+01 0.37411524716E+01 0.38108756077E+01 0.38616408853E+01 0.38801227329E+01
 0.38616272099E+01 0.38108608091E+01 0.37411482028E+01 0.36713538313E+01 0.36198602986E+01
 0.35974911988E+01 0.36032574974E+01 0.36255691545E+01 0.36481432923E+01 0.36574001601E+01
 0.36481231931E+01 0.36255292926E+01 0.36032071120E+01 0.35974462297E+01 0.36198314975E+01
 0.39871398323E+01 0.41617216919E+01 0.43031920453E+01 0.43926033058E+01 0.43925974572E+01
 0.43031793539E+01 0.41617124238E+01 0.39871434188E+01 0.37881427918E+01 0.35974911988E+01
 0.34441321168E+01 0.33412685489E+01 0.32848277340E+01 0.32617865680E+01 0.32617716671E+01
 0.32847838881E+01 0.33412036460E+01 0.34440648885E+01 0.35974414709E+01 0.37881183225E+01
 0.46825480239E+01 0.52129229835E+01 0.56690008028E+01 0.58492597307E+01 0.56689917951E+01
 0.52129122663E+01 0.46825432243E+01 0.42548471051E+01 0.39211708649E+01 0.36032574974E+01
 0.33412685489E+01 0.31603370633E+01 0.30598390388E+01 0.30283345498E+01 0.30598138616E+01
 0.31602924490E+01 0.33412179678E+01 0.36032171356E+01 0.39211484339E+01 0.42548407127E+01
 0.71630845852E+01 0.85822171396E+01 0.94548299441E+01 0.94548216372E+01 0.85821982511E+01
 0.71630653457E+01 0.57055782279E+01 0.46396391423E+01 0.40464408684E+01 0.36255691545E+01
 0.32848277340E+01 0.30598390388E+01 0.29519408685E+01 0.29519367720E+01 0.30598275404E+01
 0.32848138274E+01 0.36255613951E+01 0.40464438797E+01 0.46396503847E+01 0.57055938622E+01
 0.13315905512E+02 0.15719339832E+02 0.16615427746E+02 0.15719318939E+02 0.13315872244E+02
 0.10163761993E+02 0.72094759278E+01 0.51689715864E+01 0.41593035856E+01 0.36481432923E+01
 0.32617865680E+01 0.30283345498E+01 0.29519367720E+01 0.30283466127E+01 0.32618056308E+01
 0.36481694730E+01 0.41593414691E+01 0.51690187862E+01 0.72095225026E+01 0.10163802355E+02
 0.24034783724E+02 0.26892882378E+02 0.26892871457E+02 0.24034754814E+02 0.19133854104E+02
 0.13563162399E+02 0.87628313990E+01 0.56544519914E+01 0.42380522545E+01 0.36574001601E+01
 0.32617716671E+01 0.30598138616E+01 0.30598275404E+01 0.32618056308E+01 0.36574453624E+01
 0.42381111236E+01 0.56545257996E+01 0.87629068025E+01 0.13563223355E+02 0.19133897502E+02
 0.38617401600E+02 0.40797064035E+02 0.38617385406E+02 0.32667075772E+02 0.24532342093E+02
 0.16285198529E+02 0.97571651606E+01 0.58526007238E+01 0.42380540364E+01 0.36481231931E+01
 0.32847838881E+01 0.31602924490E+01 0.32848138274E+01 0.36481694730E+01 0.42381111236E+01
 0.58526709894E+01 0.97572384948E+01 0.16285255094E+02 0.24532376842E+02 0.32667099789E+02
 0.54660628402E+02 0.54660622778E+02 0.49030446952E+02 0.39251752152E+02 0.27801535847E+02
 0.17328525285E+02 0.97571952984E+01 0.56544858770E+01 0.41593057721E+01 0.36255292926E+01
 0.33412036460E+01 0.33412179678E+01 0.36255613951E+01 0.41593414691E+01 0.56545257996E+01
 0.97572384948E+01 0.17328555349E+02 0.27801543595E+02 0.39251752528E+02 0.49030454079E+02
 0.68571523592E+02 0.64987041580E+02 0.55192440250E+02 0.41721291933E+02 0.27801549785E+02
 0.16285250395E+02 0.87629065149E+01 0.51690238755E+01 0.40464405181E+01 0.36032071120E+01
 0.34440648885E+01 0.36032171356E+01 0.40464438797E+01 0.51690187862E+01 0.87629068025E+01
 0.16285255094E+02 0.27801543595E+02 0.41721276361E+02 0.55192433130E+02 0.64987045126E+02
 0.76690623940E+02 0.68817231794E+02 0.55192424712E+02 0.39251749271E+02 0.24532376838E+02
 0.13563242180E+02 0.72095661616E+01 0.46396955992E+01 0.39211716103E+01 0.35974462297E+01
 0.35974414709E+01 0.39211484339E+01 0.46396503847E+01 0.72095225026E+01 0.13563223355E+02
 0.24532376842E+02 0.39251752528E+02 0.55192433130E+02 0.68817248597E+02 0.76690633614E+02
 0.76690589598E+02 0.64986986539E+02 0.49030404303E+02 0.32667066363E+02 0.19133893550E+02
 0.10163841592E+02 0.57056615695E+01 0.42548996892E+01 0.37881469096E+01 0.36198314975E+01
 0.37881183225E+01 0.42548407127E+01 0.57055938622E+01 0.10163802355E+02 0.19133897502E+02
 0.32667099789E+02 0.49030454079E+02 0.64987045126E+02 0.76690633614E+02 0.80997436056E+02
 0.45999897538E+02 0.34342694069E+02 0.22648870917E+02 0.13315901611E+02 0.74785189468E+01
 0.48412445478E+01 0.40217295754E+01 0.36212517384E+01 0.34788289804E+01 0.36212149885E+01
 0.40216707488E+01 0.48411874369E+01 0.74784875406E+01 0.13315910631E+02 0.22648920016E+02
 0.34342767322E+02 0.45999969016E+02 0.54660630932E+02 0.57866576481E+02 0.54660587116E+02
 0.34342694069E+02 0.23942791190E+02 0.14851773633E+02 0.85821985657E+01 0.53443795075E+01
 0.42052556835E+01 0.37374497509E+01 0.34822509108E+01 0.34822450246E+01 0.37374374174E+01