   1   1   1   0
  0.8192000E+01  0.2262742E-09  0.2262742E-09  0.2262742E-09  0.5000000E-15
  1.000000000000000E-004
  CAR 
 fcc Ni                                  
     67.64561824     -0.18792155  301     14.05846701      1.00000000
     -0.188  0.0000E+00  0.0000E+00  0.0000E+00  0.0000E+00
      0.038  0.0000E+00  0.0000E+00  0.0000E+00  0.0000E+00
      0.264  0.0000E+00  0.0000E+00  0.0000E+00  0.0000E+00
      0.490  0.0000E+00  0.0000E+00  0.0000E+00  0.0000E+00
      0.717  0.0000E+00  0.0000E+00  0.0000E+00  0.0000E+00
      0.943  0.0000E+00  0.0000E+00  0.0000E+00  0.0000E+00
      1.169 -0.1509E-34 -0.3451E-34 -0.3413E-35 -0.7804E-35
      1.395 -0.1225E-26 -0.2511E-26 -0.2770E-27 -0.5677E-27
      1.621 -0.7543E-20 -0.1385E-19 -0.1706E-20 -0.3132E-20
      1.847 -0.3369E-14 -0.5536E-14 -0.7618E-15 -0.1252E-14
      2.073 -0.1129E-09 -0.1659E-09 -0.2554E-10 -0.3752E-10
      2.299 -0.2640E-06 -0.3456E-06 -0.5973E-07 -0.7819E-07
      2.525 -0.3615E-04 -0.4148E-04 -0.8233E-05 -0.9457E-05
      2.752  0.8976E-04  0.1421E-03  0.1206E-04  0.2268E-04
      2.978  0.1930E-02  0.1924E-02  0.4485E-03  0.4576E-03
      3.204  0.4152E-02  0.4795E-02  0.1387E-02  0.1542E-02
      3.430  0.3139E-01  0.3190E-01  0.8486E-02  0.8755E-02
      3.656  0.1221E-01  0.1096E-01  0.1125E-01  0.1123E-01
      3.882  0.9391E-02  0.1032E-01  0.1337E-01  0.1357E-01
      4.108  0.2731E-01  0.2687E-01  0.1954E-01  0.1964E-01
      4.334  0.5327E-01  0.5425E-01  0.3159E-01  0.3191E-01
      4.560  0.5735E-01  0.5599E-01  0.4456E-01  0.4457E-01
      4.787  0.9696E-03  0.9323E-03  0.4478E-01  0.4478E-01
      5.013  0.1172E-01  0.1171E-01  0.4743E-01  0.4743E-01
      5.239  0.5350E-01  0.4926E-01  0.5952E-01  0.5856E-01
      5.465  0.1035E+00  0.1066E+00  0.8293E-01  0.8266E-01
      5.691  0.3195E-01  0.2688E-01  0.9016E-01  0.8873E-01
      5.917  0.7061E-01  0.6646E-01  0.1061E+00  0.1038E+00
      6.143  0.8194E-01  0.8485E-01  0.1246E+00  0.1229E+00
      6.369  0.8375E-02  0.1823E-01  0.1265E+00  0.1271E+00
      6.595  0.3043E-01  0.8101E-02  0.1334E+00  0.1289E+00
      6.822  0.2018E+00  0.1547E+00  0.1791E+00  0.1639E+00
      7.048  0.1390E+00  0.1472E+00  0.2105E+00  0.1972E+00
      7.274  0.1387E+00  0.1204E+00  0.2419E+00  0.2244E+00
      7.500  0.2604E+00  0.1189E+00  0.3007E+00  0.2513E+00
      7.726  0.3815E+00  0.1416E+00  0.3870E+00  0.2833E+00
      7.952  0.4454E+00  0.3386E+00  0.4877E+00  0.3599E+00
      8.178  0.7288E+00  0.5141E+00  0.6525E+00  0.4761E+00
      8.404  0.4693E+00  0.4942E+00  0.7586E+00  0.5878E+00
      8.630  0.6770E+00  0.4078E+00  0.9117E+00  0.6800E+00
      8.857  0.8617E+00  0.4339E+00  0.1107E+01  0.7782E+00
      9.083  0.5610E+00  0.7678E+00  0.1233E+01  0.9518E+00
      9.309  0.6188E+00  0.6851E+00  0.1373E+01  0.1107E+01
      9.535  0.6676E+00  0.5396E+00  0.1524E+01  0.1229E+01
      9.761  0.4289E+00  0.6283E+00  0.1621E+01  0.1371E+01
      9.987  0.6530E+00  0.6154E+00  0.1769E+01  0.1510E+01
     10.213  0.9452E+00  0.4346E+00  0.1983E+01  0.1608E+01
     10.439  0.6346E+00  0.5527E+00  0.2126E+01  0.1733E+01
     10.665  0.9494E+00  0.9472E+00  0.2341E+01  0.1947E+01
     10.892  0.9423E+00  0.5383E+00  0.2554E+01  0.2069E+01
     11.118  0.1155E+01  0.9139E+00  0.2815E+01  0.2276E+01
     11.344  0.1029E+01  0.8336E+00  0.3048E+01  0.2464E+01
     11.570  0.7631E+00  0.1026E+01  0.3220E+01  0.2696E+01
     11.796  0.6311E+00  0.1062E+01  0.3363E+01  0.2936E+01
     12.022  0.6854E+00  0.8815E+00  0.3518E+01  0.3135E+01
     12.248  0.7604E+00  0.6804E+00  0.3690E+01  0.3289E+01
     12.474  0.1178E+01  0.6871E+00  0.3956E+01  0.3445E+01
     12.700  0.7326E+00  0.6243E+00  0.4122E+01  0.3586E+01
     12.927  0.5757E+00  0.8142E+00  0.4252E+01  0.3770E+01
     13.153  0.1076E+01  0.1192E+01  0.4495E+01  0.4040E+01
     13.379  0.9431E+00  0.5476E+00  0.4708E+01  0.4163E+01
     13.605  0.1631E+01  0.5421E+00  0.5077E+01  0.4286E+01
     13.831  0.9096E+00  0.9681E+00  0.5283E+01  0.4505E+01
     14.057  0.1057E-01  0.9211E+00  0.5285E+01  0.4713E+01
     14.283  0.4382E-02  0.1476E+01  0.5286E+01  0.5047E+01
     14.509  0.9362E-01  0.9165E+00  0.5308E+01  0.5254E+01
     14.735  0.1171E+00  0.1439E+00  0.5334E+01  0.5287E+01
     14.962  0.2437E+00  0.6464E-01  0.5389E+01  0.5301E+01
     15.188  0.2276E+00  0.8753E-01  0.5441E+01  0.5321E+01
     15.414  0.1412E+00  0.1759E+00  0.5473E+01  0.5361E+01
     15.640  0.3831E-01  0.3405E+00  0.5481E+01  0.5438E+01
     15.866  0.8544E-01  0.1598E+00  0.5501E+01  0.5474E+01
     16.092  0.7895E-01  0.5334E-01  0.5518E+01  0.5486E+01
     16.318  0.4096E-01  0.1293E+00  0.5528E+01  0.5515E+01
     16.544  0.1854E+00  0.2751E-01  0.5570E+01  0.5522E+01
     16.770  0.1032E+00  0.7919E-01  0.5593E+01  0.5539E+01
     16.997  0.1216E+00  0.1517E+00  0.5620E+01  0.5574E+01
     17.223  0.6637E-01  0.8841E-01  0.5635E+01  0.5594E+01
     17.449  0.2180E+00  0.1200E+00  0.5685E+01  0.5621E+01
     17.675  0.7538E-01  0.1502E+00  0.5702E+01  0.5655E+01
     17.901  0.2157E+00  0.1985E+00  0.5751E+01  0.5700E+01
     18.127  0.3192E-01  0.1673E+00  0.5758E+01  0.5737E+01
     18.353 -0.5719E-02  0.9180E-01  0.5756E+01  0.5758E+01
     18.579 -0.7651E-02 -0.7095E-02  0.5755E+01  0.5757E+01
     18.805  0.1089E+00 -0.6760E-02  0.5779E+01  0.5755E+01
     19.032  0.2287E+00  0.4639E-01  0.5831E+01  0.5766E+01
     19.258  0.6620E-01  0.2460E+00  0.5846E+01  0.5821E+01
     19.484  0.5129E-01  0.9171E-01  0.5858E+01  0.5842E+01
     19.710  0.2833E-01  0.4087E-01  0.5864E+01  0.5851E+01
     19.936  0.4849E-01  0.5474E-01  0.5875E+01  0.5864E+01
     20.162  0.1800E+00  0.2161E-01  0.5916E+01  0.5868E+01
     20.388  0.4854E-01  0.1887E+00  0.5927E+01  0.5911E+01
     20.614  0.4252E-01  0.6108E-01  0.5936E+01  0.5925E+01
     20.840  0.4206E-01  0.4935E-01  0.5946E+01  0.5936E+01
     21.067  0.1190E+00  0.2698E-01  0.5973E+01  0.5942E+01
     21.293  0.2658E-02  0.1268E+00  0.5973E+01  0.5971E+01
     21.519 -0.2345E-02  0.1143E-01  0.5973E+01  0.5973E+01
     21.745  0.5582E-02 -0.3044E-02  0.5974E+01  0.5973E+01
     21.971  0.2856E-01  0.3826E-02  0.5980E+01  0.5974E+01
     22.197  0.2938E-01  0.3121E-01  0.5987E+01  0.5981E+01
     22.423  0.1394E+00  0.3820E-02  0.6019E+01  0.5982E+01
     22.649  0.1463E+00  0.8904E-01  0.6052E+01  0.6002E+01
     22.875  0.1273E+00  0.1534E+00  0.6081E+01  0.6036E+01
     23.102  0.1986E+00  0.1339E+00  0.6125E+01  0.6067E+01
     23.328  0.2234E+00  0.2268E+00  0.6176E+01  0.6118E+01
     23.554  0.1192E+00  0.2552E+00  0.6203E+01  0.6176E+01
     23.780  0.1237E+00  0.8409E-01  0.6231E+01  0.6195E+01
     24.006  0.2865E-01  0.1403E+00  0.6237E+01  0.6226E+01
     24.232  0.1786E+00  0.3409E-01  0.6278E+01  0.6234E+01
     24.458  0.9795E-01  0.1786E+00  0.6300E+01  0.6275E+01
     24.684  0.1788E+00  0.1006E+00  0.6340E+01  0.6297E+01
     24.910  0.6836E-01  0.1784E+00  0.6356E+01  0.6338E+01
     25.137  0.1603E-01  0.6553E-01  0.6359E+01  0.6352E+01
     25.363  0.6011E-01  0.2848E-01  0.6373E+01  0.6359E+01
     25.589  0.2485E-01  0.5734E-01  0.6379E+01  0.6372E+01
     25.815  0.1287E+00  0.3482E-01  0.6408E+01  0.6380E+01
     26.041  0.2002E+00  0.1310E+00  0.6453E+01  0.6409E+01
     26.267  0.3792E-01  0.1904E+00  0.6462E+01  0.6452E+01
     26.493  0.1276E+00  0.4080E-01  0.6490E+01  0.6462E+01
     26.719  0.1106E+00  0.1346E+00  0.6515E+01  0.6492E+01
     26.945  0.1618E+00  0.1057E+00  0.6552E+01  0.6516E+01
     27.172  0.3472E+00  0.2036E+00  0.6630E+01  0.6562E+01
     27.398  0.7979E-01  0.3235E+00  0.6649E+01  0.6635E+01
     27.624  0.1070E+00  0.6556E-01  0.6673E+01  0.6650E+01
     27.850  0.1929E+00  0.1241E+00  0.6716E+01  0.6678E+01
     28.076  0.1238E+00  0.1946E+00  0.6744E+01  0.6722E+01
     28.302  0.1834E+00  0.1240E+00  0.6786E+01  0.6750E+01
     28.528  0.2319E-01  0.1701E+00  0.6791E+01  0.6788E+01
     28.754  0.9277E-01  0.1138E-01  0.6812E+01  0.6791E+01
     28.981  0.1532E+00  0.1353E+00  0.6847E+01  0.6822E+01
     29.207  0.2021E+00  0.1329E+00  0.6892E+01  0.6852E+01
     29.433  0.2734E+00  0.2784E+00  0.6954E+01  0.6915E+01
     29.659  0.2349E+00  0.2441E+00  0.7007E+01  0.6970E+01
     29.885  0.2092E+00  0.2520E+00  0.7055E+01  0.7027E+01
     30.111  0.1182E+00  0.1707E+00  0.7081E+01  0.7065E+01
     30.337  0.6457E-01  0.8761E-01  0.7096E+01  0.7085E+01
     30.563  0.3450E-01  0.5590E-01  0.7104E+01  0.7098E+01
     30.789  0.1784E+00  0.8179E-01  0.7144E+01  0.7116E+01
     31.016  0.2115E+00  0.2514E+00  0.7192E+01  0.7173E+01
     31.242  0.2445E+00  0.1415E+00  0.7247E+01  0.7205E+01
     31.468  0.3842E+00  0.3482E+00  0.7334E+01  0.7284E+01
     31.694  0.1288E+00  0.3227E+00  0.7363E+01  0.7357E+01
     31.920  0.1176E-01  0.1887E-01  0.7366E+01  0.7361E+01
     32.146  0.2585E+00  0.1409E+00  0.7424E+01  0.7393E+01
     32.372  0.1546E+00  0.2457E+00  0.7459E+01  0.7449E+01
     32.598  0.1649E+00  0.1153E+00  0.7496E+01  0.7475E+01
     32.824  0.1281E+00  0.1447E+00  0.7525E+01  0.7507E+01
     33.051  0.3851E+00  0.2459E+00  0.7613E+01  0.7563E+01
     33.277  0.2938E+00  0.4404E+00  0.7679E+01  0.7663E+01
     33.503  0.4886E-01  0.7686E-01  0.7690E+01  0.7680E+01
     33.729  0.1630E+00  0.1432E+00  0.7727E+01  0.7712E+01
     33.955  0.1564E+00  0.1736E+00  0.7762E+01  0.7752E+01
     34.181  0.9953E-01  0.9275E-01  0.7785E+01  0.7773E+01
     34.407  0.1136E+00  0.1087E+00  0.7810E+01  0.7797E+01
     34.633  0.1534E+00  0.1312E+00  0.7845E+01  0.7827E+01
     34.859  0.1170E+00  0.1551E+00  0.7872E+01  0.7862E+01
     35.086  0.5326E-01  0.4873E-01  0.7884E+01  0.7873E+01
     35.312  0.5078E+00  0.3531E+00  0.7998E+01  0.7953E+01
     35.538  0.3435E+00  0.4390E+00  0.8076E+01  0.8052E+01
     35.764  0.2150E+00  0.2624E+00  0.8125E+01  0.8111E+01
     35.990  0.7713E-01  0.8508E-01  0.8142E+01  0.8131E+01
     36.216  0.9971E-01  0.1298E+00  0.8165E+01  0.8160E+01
     36.442  0.2536E-02  0.2436E-01  0.8165E+01  0.8165E+01
     36.668  0.4851E-01  0.2016E-01  0.8176E+01  0.8170E+01
     36.894  0.2015E+00  0.1477E+00  0.8222E+01  0.8203E+01
     37.121  0.1145E+00  0.1884E+00  0.8248E+01  0.8246E+01
     37.347  0.1105E+00  0.1161E+00  0.8273E+01  0.8272E+01
     37.573  0.1401E+00  0.1217E+00  0.8304E+01  0.8300E+01
     37.799  0.1502E+00  0.1260E+00  0.8338E+01  0.8328E+01
     38.025  0.3776E+00  0.2787E+00  0.8424E+01  0.8391E+01
     38.251  0.1537E+00  0.2547E+00  0.8458E+01  0.8449E+01
     38.477  0.1050E+00  0.1382E+00  0.8482E+01  0.8480E+01
     38.703  0.1785E+00  0.1706E+00  0.8523E+01  0.8519E+01
     38.929  0.1330E+00  0.1198E+00  0.8553E+01  0.8546E+01
     39.156  0.2001E+00  0.1427E+00  0.8598E+01  0.8578E+01
     39.382  0.2321E+00  0.2585E+00  0.8650E+01  0.8636E+01
     39.608  0.3834E-01  0.1102E+00  0.8659E+01  0.8661E+01
     39.834  0.1400E+00  0.8970E-01  0.8691E+01  0.8682E+01
     40.060  0.1597E+00  0.1567E+00  0.8727E+01  0.8717E+01
     40.286  0.2123E+00  0.1905E+00  0.8775E+01  0.8760E+01
     40.512  0.1576E+00  0.1878E+00  0.8810E+01  0.8803E+01
     40.738  0.1687E+00  0.1649E+00  0.8849E+01  0.8840E+01
     40.964  0.2159E+00  0.1833E+00  0.8897E+01  0.8881E+01
     41.191  0.3382E+00  0.3071E+00  0.8974E+01  0.8951E+01
     41.417  0.2824E+00  0.3441E+00  0.9038E+01  0.9029E+01
     41.643  0.1723E+00  0.1409E+00  0.9077E+01  0.9060E+01
     41.869  0.1542E+00  0.2017E+00  0.9112E+01  0.9106E+01
     42.095  0.5834E-01  0.7242E-01  0.9125E+01  0.9122E+01
     42.321  0.2169E+00  0.1400E+00  0.9174E+01  0.9154E+01
     42.547  0.3217E+00  0.3333E+00  0.9246E+01  0.9229E+01
     42.773  0.9460E-01  0.1519E+00  0.9268E+01  0.9264E+01
     42.999  0.5627E-01  0.4954E-01  0.9281E+01  0.9275E+01
     43.226  0.3024E+00  0.2534E+00  0.9349E+01  0.9332E+01
     43.452  0.4135E+00  0.4407E+00  0.9442E+01  0.9432E+01
     43.678  0.1576E+00  0.1494E+00  0.9478E+01  0.9466E+01
     43.904  0.2542E+00  0.2819E+00  0.9536E+01  0.9529E+01
     44.130  0.1474E+00  0.1317E+00  0.9569E+01  0.9559E+01
     44.356  0.2948E+00  0.2231E+00  0.9636E+01  0.9610E+01
     44.582  0.1753E+00  0.2697E+00  0.9675E+01  0.9671E+01
     44.808  0.1007E+00  0.1103E+00  0.9698E+01  0.9696E+01
     45.034  0.3262E+00  0.2529E+00  0.9772E+01  0.9753E+01
     45.261  0.1720E+00  0.2115E+00  0.9811E+01  0.9801E+01
     45.487  0.1246E+00  0.1414E+00  0.9839E+01  0.9833E+01
     45.713  0.7936E-01  0.1022E+00  0.9857E+01  0.9856E+01
     45.939  0.8654E-01  0.4855E-01  0.9876E+01  0.9867E+01
     46.165  0.1825E+00  0.1558E+00  0.9918E+01  0.9902E+01
     46.391  0.1448E+00  0.1543E+00  0.9950E+01  0.9937E+01
     46.617  0.9230E-01  0.9691E-01  0.9971E+01  0.9959E+01
     46.843  0.3350E-01  0.8011E-01  0.9979E+01  0.9977E+01
     47.069  0.1871E+00  0.1481E+00  0.1002E+02  0.1001E+02
     47.296  0.1673E+00  0.2019E+00  0.1006E+02  0.1006E+02
     47.522  0.1727E+00  0.1789E+00  0.1010E+02  0.1010E+02
     47.748  0.6970E-01  0.7905E-01  0.1011E+02  0.1011E+02
     47.974  0.3627E-01  0.3332E-01  0.1012E+02  0.1012E+02
     48.200  0.1712E+00  0.1204E+00  0.1016E+02  0.1015E+02
     48.426  0.4736E-01  0.8193E-01  0.1017E+02  0.1017E+02
     48.652  0.9927E-01  0.7710E-01  0.1019E+02  0.1019E+02
     48.878  0.1471E+00  0.1219E+00  0.1023E+02  0.1021E+02
     49.104  0.1910E+00  0.1581E+00  0.1027E+02  0.1025E+02
     49.331  0.1665E+00  0.1999E+00  0.1031E+02  0.1029E+02
     49.557  0.5580E+00  0.3942E+00  0.1043E+02  0.1038E+02
     49.783  0.6356E+00  0.7784E+00  0.1058E+02  0.1056E+02
     50.009  0.3537E+00  0.3731E+00  0.1066E+02  0.1064E+02
     50.235  0.2279E+00  0.2718E+00  0.1071E+02  0.1070E+02
     50.461  0.1194E+00  0.8887E-01  0.1074E+02  0.1072E+02
     50.687  0.1703E+00  0.1520E+00  0.1077E+02  0.1076E+02
     50.913  0.1419E+00  0.1585E+00  0.1081E+02  0.1079E+02
     51.139  0.1953E+00  0.2037E+00  0.1085E+02  0.1084E+02
     51.366  0.7618E-01  0.1120E+00  0.1087E+02  0.1087E+02
     51.592  0.2438E+00  0.2071E+00  0.1092E+02  0.1091E+02
     51.818  0.1182E+00  0.9923E-01  0.1095E+02  0.1094E+02
     52.044  0.1433E+00  0.2009E+00  0.1098E+02  0.1098E+02
     52.270  0.3137E+00  0.2672E+00  0.1105E+02  0.1104E+02
     52.496  0.2312E+00  0.2233E+00  0.1111E+02  0.1109E+02
     52.722  0.8242E-01  0.1521E+00  0.1112E+02  0.1113E+02
     52.948  0.6258E-02 -0.3364E-02  0.1113E+02  0.1113E+02
     53.174  0.1269E+00  0.1126E+00  0.1115E+02  0.1115E+02
     53.401  0.8714E-01  0.8645E-01  0.1117E+02  0.1117E+02
     53.627  0.1769E+00  0.1497E+00  0.1121E+02  0.1120E+02
     53.853  0.2668E+00  0.2891E+00  0.1127E+02  0.1127E+02
     54.079  0.1231E+00  0.1324E+00  0.1130E+02  0.1130E+02
     54.305  0.2360E+00  0.1897E+00  0.1136E+02  0.1134E+02
     54.531  0.2797E+00  0.2008E+00  0.1142E+02  0.1139E+02
     54.757  0.3146E+00  0.4015E+00  0.1149E+02  0.1148E+02
     54.983  0.7831E-01  0.8679E-01  0.1151E+02  0.1150E+02
     55.209  0.2054E-01  0.4419E-01  0.1151E+02  0.1151E+02
     55.436  0.1596E+00  0.1293E+00  0.1155E+02  0.1154E+02
     55.662  0.2052E+00  0.2527E+00  0.1159E+02  0.1159E+02
     55.888  0.1075E+00  0.1008E+00  0.1162E+02  0.1162E+02
     56.114  0.1283E+00  0.4172E-01  0.1165E+02  0.1163E+02
     56.340  0.1427E+00  0.1382E+00  0.1168E+02  0.1166E+02
     56.566  0.7740E-01  0.1348E+00  0.1170E+02  0.1169E+02
     56.792  0.6488E-01  0.7669E-01  0.1171E+02  0.1171E+02
     57.018  0.1232E+00  0.1325E+00  0.1174E+02  0.1174E+02
     57.244  0.1751E+00  0.1723E+00  0.1178E+02  0.1177E+02
     57.471  0.4104E-01  0.6510E-01  0.1179E+02  0.1179E+02
     57.697 -0.5281E-02 -0.6417E-02  0.1179E+02  0.1179E+02
     57.923 -0.3200E-02 -0.3469E-02  0.1179E+02  0.1179E+02
     58.149  0.2319E-01  0.2735E-01  0.1179E+02  0.1179E+02
     58.375  0.1396E+00  0.1404E+00  0.1182E+02  0.1183E+02
     58.601  0.1413E+00  0.1198E+00  0.1186E+02  0.1185E+02
     58.827  0.1241E+00  0.1230E+00  0.1188E+02  0.1188E+02
     59.053  0.7649E-01  0.5548E-01  0.1190E+02  0.1189E+02
     59.279  0.1924E-01  0.5530E-01  0.1191E+02  0.1191E+02
     59.506 -0.2370E-02  0.1076E-02  0.1191E+02  0.1191E+02
     59.732 -0.1162E-03 -0.8374E-03  0.1191E+02  0.1191E+02
     59.958 -0.1670E-02 -0.1495E-02  0.1190E+02  0.1190E+02
     60.184  0.1287E-01  0.1559E-01  0.1191E+02  0.1191E+02
     60.410  0.7393E-01  0.7109E-01  0.1192E+02  0.1192E+02
     60.636  0.1732E-01  0.1629E-01  0.1193E+02  0.1193E+02
     60.862  0.5643E-01  0.5314E-01  0.1194E+02  0.1194E+02
     61.088  0.6971E-01  0.5878E-01  0.1196E+02  0.1195E+02
     61.314  0.3352E-01  0.4797E-01  0.1196E+02  0.1196E+02
     61.541 -0.2719E-02 -0.1706E-02  0.1196E+02  0.1196E+02
     61.767 -0.1654E-03 -0.4025E-03  0.1196E+02  0.1196E+02
     61.993 -0.1515E-04 -0.1573E-05  0.1196E+02  0.1196E+02
     62.219 -0.8880E-03 -0.4967E-07  0.1196E+02  0.1196E+02
     62.445  0.6467E-02 -0.4604E-04  0.1197E+02  0.1196E+02
     62.671  0.2890E-01 -0.2090E-02  0.1197E+02  0.1196E+02
     62.897  0.3225E-01  0.1785E-01  0.1198E+02  0.1197E+02
     63.123  0.7352E-01  0.6193E-01  0.1200E+02  0.1198E+02
     63.349  0.1658E-01  0.2784E-02  0.1200E+02  0.1198E+02
     63.576  0.3189E-02 -0.1332E-02  0.1200E+02  0.1198E+02
     63.802 -0.5024E-03  0.2713E-01  0.1200E+02  0.1199E+02
     64.028 -0.9979E-05  0.1407E-01  0.1200E+02  0.1199E+02
     64.254 -0.9937E-08  0.5333E-02  0.1200E+02  0.1199E+02
     64.480 -0.6699E-12  0.1785E-01  0.1200E+02  0.1200E+02
     64.706 -0.4427E-17  0.1548E-01  0.1200E+02  0.1200E+02
     64.932  0.0000E+00  0.7839E-03  0.1200E+02  0.1200E+02
     65.158  0.0000E+00 -0.2495E-03  0.1200E+02  0.1200E+02
     65.385  0.0000E+00 -0.2074E-05  0.1200E+02  0.1200E+02
     65.611  0.0000E+00 -0.9956E-09  0.1200E+02  0.1200E+02
     65.837  0.0000E+00 -0.3322E-13  0.1200E+02  0.1200E+02
     66.063  0.0000E+00  0.0000E+00  0.1200E+02  0.1200E+02
     66.289  0.0000E+00  0.0000E+00  0.1200E+02  0.1200E+02
     66.515  0.0000E+00  0.0000E+00  0.1200E+02  0.1200E+02
     66.741  0.0000E+00  0.0000E+00  0.1200E+02  0.1200E+02
     66.967  0.0000E+00  0.0000E+00  0.1200E+02  0.1200E+02
     67.193  0.0000E+00  0.0000E+00  0.1200E+02  0.1200E+02
     67.420  0.0000E+00  0.0000E+00  0.1200E+02  0.1200E+02
     67.646  0.0000E+00  0.0000E+00  0.1200E+02  0.1200E+02
     67.64561824     -0.18792155  301     14.05846701      1.00000000
     -0.188  0.0000E+00  0.0000E+00  0.0000E+00  0.0000E+00  0.0000E+00  0.0000E+00  0.0000E+00  0.0000E+00  0.0000E+00  0.0000E+00  0.0000E+00  0.0000E+00  0.0000E+00  0.0000E+00  0.0000E+00  0.0000E+00  0.0000E+00  0.0000E+00
      0.038  0.0000E+00  0.0000E+00  0.0000E+00  0.0000E+00  0.0000E+00  0.0000E+00  0.0000E+00  0.0000E+00  0.0000E+00  0.0000E+00  0.0000E+00  0.0000E+00  0.0000E+00  0.0000E+00  0.0000E+00  0.0000E+00  0.0000E+00  0.0000E+00
      0.264  0.0000E+00  0.0000E+00  0.0000E+00  0.0000E+00  0.0000E+00  0.0000E+00  0.0000E+00  0.0000E+00  0.0000E+00  0.0000E+00  0.0000E+00  0.0000E+00  0.0000E+00  0.0000E+00  0.0000E+00  0.0000E+00  0.0000E+00  0.0000E+00
      0.490  0.0000E+00  0.0000E+00  0.0000E+00  0.0000E+00  0.0000E+00  0.0000E+00  0.0000E+00  0.0000E+00  0.0000E+00  0.0000E+00  0.0000E+00  0.0000E+00  0.0000E+00  0.0000E+00  0.0000E+00  0.0000E+00  0.0000E+00  0.0000E+00
      0.717  0.0000E+00  0.0000E+00  0.0000E+00  0.0000E+00  0.0000E+00  0.0000E+00  0.0000E+00  0.0000E+00  0.0000E+00  0.0000E+00  0.0000E+00  0.0000E+00  0.0000E+00  0.0000E+00  0.0000E+00  0.0000E+00  0.0000E+00  0.0000E+00
      0.943  0.0000E+00  0.0000E+00  0.0000E+00  0.0000E+00  0.0000E+00  0.0000E+00  0.0000E+00  0.0000E+00  0.0000E+00  0.0000E+00  0.0000E+00  0.0000E+00  0.0000E+00  0.0000E+00  0.0000E+00  0.0000E+00  0.0000E+00  0.0000E+00
      1.169 -0.1536E-34 -0.3526E-34 -0.3054E-48 -0.4750E-48 -0.3054E-48 -0.4750E-48 -0.3054E-48 -0.4750E-48 -0.4506E-46 -0.4873E-45 -0.4506E-46 -0.4873E-45 -0.2411E-48 -0.6108E-49 -0.4506E-46 -0.4873E-45 -0.2411E-48 -0.6108E-49
      1.395 -0.1247E-26 -0.2565E-26 -0.2479E-40 -0.3456E-40 -0.2479E-40 -0.3456E-40 -0.2479E-40 -0.3456E-40 -0.3657E-38 -0.3545E-37 -0.3657E-38 -0.3545E-37 -0.1957E-40 -0.4444E-41 -0.3657E-38 -0.3545E-37 -0.1957E-40 -0.4444E-41
      1.621 -0.7675E-20 -0.1415E-19 -0.2832E-33 -0.4638E-33 -0.2832E-33 -0.4638E-33 -0.2832E-33 -0.4638E-33 -0.2252E-31 -0.1956E-30 -0.2252E-31 -0.1956E-30 -0.1205E-33 -0.2451E-34 -0.2252E-31 -0.1956E-30 -0.1205E-33 -0.2451E-34
      1.847 -0.3428E-14 -0.5655E-14 -0.5866E-26 -0.1105E-25 -0.5866E-26 -0.1105E-25 -0.5866E-26 -0.1105E-25 -0.1022E-25 -0.7846E-25 -0.1022E-25 -0.7846E-25 -0.5383E-28 -0.9821E-29 -0.1022E-25 -0.7846E-25 -0.5383E-28 -0.9821E-29
      2.073 -0.1149E-09 -0.1695E-09 -0.1950E-19 -0.3336E-19 -0.1950E-19 -0.3336E-19 -0.1950E-19 -0.3336E-19 -0.8979E-21 -0.3211E-20 -0.8979E-21 -0.3211E-20 -0.1992E-23 -0.6108E-24 -0.8979E-21 -0.3211E-20 -0.1992E-23 -0.6108E-24
      2.299 -0.2687E-06 -0.3531E-06 -0.4726E-14 -0.7306E-14 -0.4726E-14 -0.7306E-14 -0.4726E-14 -0.7306E-14 -0.1366E-15 -0.1948E-15 -0.1366E-15 -0.1948E-15 -0.2124E-18 -0.3177E-18 -0.1366E-15 -0.1948E-15 -0.2124E-18 -0.3177E-18
      2.525 -0.3678E-04 -0.4237E-04 -0.8575E-10 -0.1196E-09 -0.8575E-10 -0.1196E-09 -0.8575E-10 -0.1196E-09 -0.2456E-11 -0.3098E-11 -0.2456E-11 -0.3098E-11 -0.1736E-13 -0.2398E-13 -0.2456E-11 -0.3098E-11 -0.1736E-13 -0.2398E-13
      2.752  0.9166E-04  0.1456E-03 -0.1077E-06 -0.1351E-06 -0.1077E-06 -0.1351E-06 -0.1077E-06 -0.1351E-06 -0.3031E-08 -0.3435E-08 -0.3031E-08 -0.3435E-08 -0.1034E-09 -0.1290E-09 -0.3031E-08 -0.3435E-08 -0.1034E-09 -0.1290E-09
      2.978  0.1987E-02  0.1991E-02 -0.7693E-05 -0.8525E-05 -0.7693E-05 -0.8525E-05 -0.7693E-05 -0.8525E-05 -0.1956E-06 -0.1941E-06 -0.1956E-06 -0.1941E-06 -0.3960E-07 -0.4425E-07 -0.1956E-06 -0.1941E-06 -0.3960E-07 -0.4425E-07
      3.204  0.4111E-02  0.4756E-02  0.3778E-04  0.4729E-04  0.3778E-04  0.4729E-04  0.3778E-04  0.4729E-04  0.1383E-05  0.1483E-05  0.1383E-05  0.1483E-05 -0.4543E-06 -0.4037E-06  0.1383E-05  0.1483E-05 -0.4543E-06 -0.4037E-06
      3.430  0.3067E-01  0.3129E-01  0.4204E-03  0.4313E-03  0.4204E-03  0.4313E-03  0.4204E-03  0.4313E-03  0.7357E-05  0.6619E-05  0.7357E-05  0.6619E-05  0.7214E-05  0.7277E-05  0.7357E-05  0.6619E-05  0.7214E-05  0.7277E-05
      3.656  0.1191E-01  0.1073E-01  0.1711E-03  0.1529E-03  0.1711E-03  0.1529E-03  0.1711E-03  0.1529E-03 -0.1269E-05 -0.1374E-05 -0.1269E-05 -0.1374E-05  0.7183E-05  0.6281E-05 -0.1269E-05 -0.1374E-05  0.7183E-05  0.6281E-05
      3.882  0.8607E-02  0.9510E-02  0.3008E-03  0.3311E-03  0.3008E-03  0.3311E-03  0.3008E-03  0.3311E-03  0.1809E-04  0.1782E-04  0.1809E-04  0.1782E-04  0.5444E-05  0.5648E-05  0.1809E-04  0.1782E-04  0.5444E-05  0.5648E-05
      4.108  0.2524E-01  0.2494E-01  0.8116E-03  0.8048E-03  0.8116E-03  0.8048E-03  0.8116E-03  0.8048E-03  0.4456E-04  0.3965E-04  0.4456E-04  0.3965E-04  0.1310E-04  0.1261E-04  0.4456E-04  0.3965E-04  0.1310E-04  0.1261E-04
      4.334  0.4704E-01  0.4813E-01  0.2182E-02  0.2244E-02  0.2182E-02  0.2244E-02  0.2182E-02  0.2244E-02  0.1434E-03  0.1297E-03  0.1434E-03  0.1297E-03  0.1526E-03  0.1459E-03  0.1434E-03  0.1297E-03  0.1526E-03  0.1459E-03
      4.560  0.5045E-01  0.4949E-01  0.2382E-02  0.2348E-02  0.2382E-02  0.2348E-02  0.2382E-02  0.2348E-02  0.2307E-03  0.2007E-03  0.2307E-03  0.2007E-03  0.1113E-03  0.9989E-04  0.2307E-03  0.2007E-03  0.1113E-03  0.9989E-04
      4.787  0.7272E-03  0.6977E-03  0.6962E-04  0.6959E-04  0.6962E-04  0.6959E-04  0.6962E-04  0.6959E-04  0.2994E-05  0.2760E-05  0.2994E-05  0.2760E-05  0.2161E-04  0.1957E-04  0.2994E-05  0.2760E-05  0.2161E-04  0.1957E-04
      5.013  0.9674E-02  0.9722E-02  0.6503E-03  0.6532E-03  0.6503E-03  0.6532E-03  0.6503E-03  0.6532E-03 -0.4636E-04 -0.4138E-04 -0.4636E-04 -0.4138E-04  0.2204E-03  0.2030E-03 -0.4636E-04 -0.4138E-04  0.2204E-03  0.2030E-03
      5.239  0.4210E-01  0.3907E-01  0.3376E-02  0.3154E-02  0.3376E-02  0.3154E-02  0.3376E-02  0.3154E-02  0.6456E-03  0.5192E-03  0.6456E-03  0.5192E-03  0.2408E-03  0.2037E-03  0.6456E-03  0.5192E-03  0.2408E-03  0.2037E-03
      5.465  0.8073E-01  0.8370E-01  0.6785E-02  0.7074E-02  0.6785E-02  0.7074E-02  0.6785E-02  0.7074E-02  0.9810E-03  0.9018E-03  0.9810E-03  0.9018E-03  0.8296E-03  0.7743E-03  0.9810E-03  0.9018E-03  0.8296E-03  0.7743E-03
      5.691  0.2351E-01  0.2014E-01  0.2239E-02  0.1920E-02  0.2239E-02  0.1920E-02  0.2239E-02  0.1920E-02  0.6253E-03  0.4033E-03  0.6253E-03  0.4033E-03  0.2693E-03  0.2269E-03  0.6253E-03  0.4033E-03  0.2693E-03  0.2269E-03
      5.917  0.5013E-01  0.4819E-01  0.5011E-02  0.4861E-02  0.5011E-02  0.4861E-02  0.5011E-02  0.4861E-02  0.1885E-02  0.1462E-02  0.1885E-02  0.1462E-02  0.6836E-03  0.5194E-03  0.1885E-02  0.1462E-02  0.6836E-03  0.5194E-03
      6.143  0.5513E-01  0.5817E-01  0.6346E-02  0.6709E-02  0.6346E-02  0.6709E-02  0.6346E-02  0.6709E-02  0.1302E-02  0.1275E-02  0.1302E-02  0.1275E-02  0.2692E-02  0.2339E-02  0.1302E-02  0.1275E-02  0.2692E-02  0.2339E-02
      6.369  0.5921E-02  0.1252E-01  0.6807E-03  0.1474E-02  0.6807E-03  0.1474E-02  0.6807E-03  0.1474E-02 -0.1226E-03  0.9267E-04 -0.1226E-03  0.9267E-04  0.4475E-03  0.6937E-03 -0.1226E-03  0.9267E-04  0.4475E-03  0.6937E-03
      6.595  0.1848E-01  0.5470E-02  0.2665E-02  0.8433E-03  0.2665E-02  0.8433E-03  0.2665E-02  0.8433E-03  0.1245E-02  0.1474E-03  0.1245E-02  0.1474E-03  0.4467E-03 -0.6046E-04  0.1245E-02  0.1474E-03  0.4467E-03 -0.6046E-04
      6.822  0.1166E+00  0.9203E-01  0.1694E-01  0.1372E-01  0.1694E-01  0.1372E-01  0.1694E-01  0.1372E-01  0.9537E-02  0.6022E-02  0.9537E-02  0.6022E-02  0.5043E-02  0.3672E-02  0.9537E-02  0.6022E-02  0.5043E-02  0.3672E-02
      7.048  0.7261E-01  0.8636E-01  0.1066E-01  0.1316E-01  0.1066E-01  0.1316E-01  0.1066E-01  0.1316E-01  0.9417E-02  0.5711E-02  0.9417E-02  0.5711E-02  0.4540E-02  0.3935E-02  0.9417E-02  0.5711E-02  0.4540E-02  0.3935E-02
      7.274  0.6306E-01  0.5895E-01  0.9737E-02  0.9431E-02  0.9737E-02  0.9431E-02  0.9737E-02  0.9431E-02  0.1063E-01  0.7897E-02  0.1063E-01  0.7897E-02  0.8527E-02  0.6105E-02  0.1063E-01  0.7897E-02  0.8527E-02  0.6105E-02
      7.500  0.7097E-01  0.5579E-01  0.1030E-01  0.9415E-02  0.1030E-01  0.9415E-02  0.1030E-01  0.9415E-02  0.2297E-01  0.7752E-02  0.2297E-01  0.7752E-02  0.4545E-01  0.7050E-02  0.2297E-01  0.7752E-02  0.4545E-01  0.7050E-02
      7.726  0.7538E-01  0.4206E-01  0.8479E-02  0.7297E-02  0.8479E-02  0.7297E-02  0.8479E-02  0.7297E-02  0.4594E-01  0.6640E-02  0.4594E-01  0.6640E-02  0.7239E-01  0.2900E-01  0.4594E-01  0.6640E-02  0.7239E-01  0.2900E-01
      7.952  0.1045E+00  0.7507E-01  0.2118E-01  0.9175E-02  0.2118E-01  0.9175E-02  0.2118E-01  0.9175E-02  0.4376E-01  0.3877E-01  0.4376E-01  0.3877E-01  0.7403E-01  0.6146E-01  0.4376E-01  0.3877E-01  0.7403E-01  0.6146E-01
      8.178  0.1271E+00  0.1403E+00  0.2892E-01  0.2819E-01  0.2892E-01  0.2819E-01  0.2892E-01  0.2819E-01  0.8867E-01  0.5093E-01  0.8867E-01  0.5093E-01  0.1255E+00  0.7134E-01  0.8867E-01  0.5093E-01  0.1255E+00  0.7134E-01
      8.404  0.3648E-01  0.9715E-01  0.9132E-02  0.2438E-01  0.9132E-02  0.2438E-01  0.9132E-02  0.2438E-01  0.9395E-01  0.3466E-01  0.9395E-01  0.3466E-01  0.6332E-01  0.1095E+00  0.9395E-01  0.3466E-01  0.6332E-01  0.1095E+00
      8.630  0.3361E-01  0.5432E-01  0.1591E-01  0.1089E-01  0.1591E-01  0.1089E-01  0.1591E-01  0.1089E-01  0.1181E+00  0.5887E-01  0.1181E+00  0.5887E-01  0.1204E+00  0.7337E-01  0.1181E+00  0.5887E-01  0.1204E+00  0.7337E-01
      8.857  0.5181E-01  0.3154E-01  0.2888E-01  0.1033E-01  0.2888E-01  0.1033E-01  0.2888E-01  0.1033E-01  0.1757E+00  0.7694E-01  0.1757E+00  0.7694E-01  0.1007E+00  0.7137E-01  0.1757E+00  0.7694E-01  0.1007E+00  0.7137E-01
      9.083  0.1320E-01  0.5406E-01  0.2002E-01  0.2779E-01  0.2002E-01  0.2779E-01  0.2002E-01  0.2779E-01  0.1214E+00  0.1143E+00  0.1214E+00  0.1143E+00  0.6323E-01  0.1438E+00  0.1214E+00  0.1143E+00  0.6323E-01  0.1438E+00
      9.309  0.5929E-02  0.3601E-01  0.2155E-01  0.2392E-01  0.2155E-01  0.2392E-01  0.2155E-01  0.2392E-01  0.1342E+00  0.1495E+00  0.1342E+00  0.1495E+00  0.7304E-01  0.6837E-01  0.1342E+00  0.1495E+00  0.7304E-01  0.6837E-01
      9.535  0.5786E-02  0.8100E-02  0.2519E-01  0.1906E-01  0.2519E-01  0.1906E-01  0.2519E-01  0.1906E-01  0.1212E+00  0.1312E+00  0.1212E+00  0.1312E+00  0.1095E+00  0.4366E-01  0.1212E+00  0.1312E+00  0.1095E+00  0.4366E-01
      9.761  0.1254E-02  0.6102E-02  0.1324E-01  0.2467E-01  0.1324E-01  0.2467E-01  0.1324E-01  0.2467E-01  0.8516E-01  0.1229E+00  0.8516E-01  0.1229E+00  0.6443E-01  0.8998E-01  0.8516E-01  0.1229E+00  0.6443E-01  0.8998E-01
      9.987  0.5485E-02  0.6341E-02  0.2276E-01  0.2318E-01  0.2276E-01  0.2318E-01  0.2276E-01  0.2318E-01  0.1385E+00  0.1293E+00  0.1385E+00  0.1293E+00  0.8034E-01  0.7624E-01  0.1385E+00  0.1293E+00  0.8034E-01  0.7624E-01
     10.213  0.1449E-01  0.1063E-02  0.3760E-01  0.1474E-01  0.3760E-01  0.1474E-01  0.3760E-01  0.1474E-01  0.2029E+00  0.9004E-01  0.2029E+00  0.9004E-01  0.1035E+00  0.5878E-01  0.2029E+00  0.9004E-01  0.1035E+00  0.5878E-01
     10.439  0.1217E-01  0.2953E-02  0.2251E-01  0.2185E-01  0.2251E-01  0.2185E-01  0.2251E-01  0.2185E-01  0.1433E+00  0.1080E+00  0.1433E+00  0.1080E+00  0.6205E-01  0.7845E-01  0.1433E+00  0.1080E+00  0.6205E-01  0.7845E-01
     10.665  0.1700E-01  0.1164E-01  0.3075E-01  0.4157E-01  0.3075E-01  0.4157E-01  0.3075E-01  0.4157E-01  0.1983E+00  0.2094E+00  0.1983E+00  0.2094E+00  0.1229E+00  0.9164E-01  0.1983E+00  0.2094E+00  0.1229E+00  0.9164E-01
     10.892  0.1113E-01  0.9441E-02  0.2449E-01  0.2051E-01  0.2449E-01  0.2051E-01  0.2449E-01  0.2051E-01  0.1876E+00  0.1331E+00  0.1876E+00  0.1331E+00  0.1472E+00  0.3475E-01  0.1876E+00  0.1331E+00  0.1472E+00  0.3475E-01
     11.118  0.1010E-01  0.1420E-01  0.2918E-01  0.3138E-01  0.2918E-01  0.3138E-01  0.2918E-01  0.3138E-01  0.2471E+00  0.1889E+00  0.2471E+00  0.1889E+00  0.1573E+00  0.1203E+00  0.2471E+00  0.1889E+00  0.1573E+00  0.1203E+00