    1    1    1    2
  0.8192000E+01  0.2262742E-09  0.2262742E-09  0.2262742E-09  0.5000000E-15
  1.000000000000000E-004
  CAR 
 fcc Ni                                  
     10     56     12
 
  0.0000000E+00  0.0000000E+00  0.0000000E+00  0.7513148E-03
      1          2.905039        2.895421   1.000000   1.000000
      2         10.772466       11.427400   1.000000   1.000000
      3         10.772511       11.427400   1.000000   1.000000
      4         10.772511       11.427468   1.000000   1.000000
      5         12.498331       13.079027   1.000000   1.000000
      6         12.498331       13.079027   1.000000   1.000000
      7         40.180077       40.076652   0.000000   0.000000
      8         46.350354       46.322751   0.000000   0.000000
      9         46.350386       46.323019   0.000000   0.000000
     10         46.350386       46.323019   0.000000   0.000000
     11         51.701710       51.777147   0.000000   0.000000
     12         51.701747       51.777267   0.000000   0.000000
 
  0.9090909E-01  0.3027881E-17  0.3027881E-17  0.6010518E-02
      1          3.304306        3.295516   1.000000   1.000000
      2         10.638549       11.281844   1.000000   1.000000
      3         10.874815       11.532508   1.000000   1.000000
      4         10.874839       11.532582   1.000000   1.000000
      5         12.451943       13.030503   1.000000   1.000000
      6         12.451958       13.030517   1.000000   1.000000
      7         39.550295       39.508511   0.000000   0.000000
      8         43.094104       43.063088   0.000000   0.000000
      9         46.046912       46.049818   0.000000   0.000000
     10         46.046915       46.050063   0.000000   0.000000
     11         51.400061       51.403723   0.000000   0.000000
     12         52.000981       52.053017   0.000000   0.000000
 
  0.1818182E+00 -0.2270911E-17 -0.2270911E-17  0.6010518E-02
      1          4.428475        4.427515   1.000000   1.000000
      2         10.359182       10.963702   1.000000   1.000000
      3         11.065904       11.715853   1.000000   1.000000
      4         11.065931       11.715914   1.000000   1.000000
      5         12.430298       13.019539   1.000000   1.000000
      6         12.430353       13.019597   1.000000   1.000000
      7         35.584948       35.680306   0.000000   0.000000
      8         41.374885       41.290865   0.000000   0.000000
      9         45.449608       45.504180   0.000000   0.000000
     10         45.449670       45.504405   0.000000   0.000000
     11         51.061075       51.052535   0.000000   0.000000
     12         51.975290       52.003931   0.000000   0.000000
 
  0.2727273E+00 -0.2018587E-17 -0.2018587E-17  0.6010518E-02
      1          5.959157        6.010079   1.000000   1.000000
      2         10.309816       10.814532   1.000000   1.000000
      3         11.061727       11.673294   1.000000   1.000000
      4         11.061767       11.673319   1.000000   1.000000
      5         12.707844       13.341820   1.000000   1.000002
      6         12.707933       13.341932   1.000000   1.000002
      7         30.547331       30.720073   0.000000   0.000000
      8         40.361116       40.275853   0.000000   0.000000
      9         44.916227       45.006514   0.000000   0.000000
     10         44.916315       45.006713   0.000000   0.000000
     11         50.394579       50.429889   0.000000   0.000000
     12         50.394695       50.429934   0.000000   0.000000
 
  0.3636364E+00  0.1211152E-16  0.1211152E-16  0.6010518E-02
      1          7.072883        7.301609   1.000000   1.000000
      2         10.884930       11.465843   1.000000   1.000000
      3         10.884972       11.465852   1.000000   1.000000
      4         11.234879       11.490055   1.000000   1.000000
      5         13.178523       13.853667   1.000000   1.027442
      6         13.178635       13.853813   1.000000   1.027377
      7         25.967209       26.226900   0.000000   0.000000
      8         39.275662       39.182000   0.000000   0.000000
      9         44.457251       44.559365   0.000000   0.000000
     10         44.457313       44.559527   0.000000   0.000000
     11         48.542551       48.585827   0.000000   0.000000
     12         48.542585       48.586097   0.000000   0.000000
 
  0.4545455E+00 -0.1261617E-16 -0.1261617E-16  0.6010518E-02
      1          7.372062        7.735429   1.000000   1.000000
      2         10.747237       11.314478   1.000000   1.000000
      3         10.747278       11.314481   1.000000   1.000000
      4         12.901203       12.918584   1.000000   1.000000
      5         13.512929       14.210404   1.000395   0.020998
      6         13.513061       14.210573   1.000396   0.020751
      7         22.681833       23.052900   0.000000   0.000000
      8         38.604527       38.503877   0.000000   0.000000
      9         44.147128       44.242865   0.000000   0.000000
     10         44.147142       44.243004   0.000000   0.000000
     11         47.512622       47.566228   0.000000   0.000000
     12         47.512652       47.566606   0.000000   0.000000
 
  0.9090909E-01  0.9090909E-01  0.1816729E-17  0.4507889E-02
      1          3.435905        3.427272   1.000000   1.000000
      2         10.528602       11.169397   1.000000   1.000000
      3         10.950844       11.610564   1.000000   1.000000
      4         10.950873       11.610609   1.000000   1.000000
      5         12.277202       12.846572   1.000000   1.000000
      6         12.580333       13.163390   1.000000   1.000000
      7         39.828954       39.771863   0.000000   0.000000
      8         43.925112       43.875616   0.000000   0.000000
      9         44.105755       44.149478   0.000000   0.000000
     10         44.105760       44.149644   0.000000   0.000000
     11         53.078037       53.092015   0.000000   0.000000
     12         53.078163       53.092466   0.000000   0.000000
 
  0.1818182E+00  0.9090909E-01 -0.1135455E-17  0.1803156E-01
      1          4.316922        4.312784   1.000000   1.000000
      2         10.242762       10.860646   1.000000   1.000000
      3         11.147171       11.800613   1.000000   1.000000
      4         11.166599       11.825971   1.000000   1.000000
      5         12.109135       12.677091   1.000000   1.000000
      6         12.659283       13.250035   1.000000   1.000000
      7         37.447465       37.513202   0.000000   0.000000
      8         40.848622       40.807667   0.000000   0.000000
      9         42.521673       42.598665   0.000000   0.000000
     10         45.344357       45.334697   0.000000   0.000000
     11         51.161654       51.227765   0.000000   0.000000
     12         54.046769       54.038400   0.000000   0.000000
 
  0.2727273E+00  0.9090909E-01 -0.2270911E-17  0.1803156E-01
      1          5.741088        5.765970   1.000000   1.000000
      2         10.016604       10.580514   1.000000   1.000000
      3         11.082073       11.679668   1.000000   1.000000
      4         11.262921       11.895090   1.000000   1.000000
      5         12.417577       13.028711   1.000000   1.000000
      6         12.889625       13.516063   1.000000   1.000426
      7         32.423541       32.568321   0.000000   0.000000
      8         39.832073       39.792992   0.000000   0.000000
      9         41.479740       41.574757   0.000000   0.000000
     10         45.925395       45.971342   0.000000   0.000000
     11         49.685515       49.732524   0.000000   0.000000
     12         53.472793       53.553949   0.000000   0.000000
 
  0.3636364E+00  0.9090909E-01 -0.7569702E-17  0.1803156E-01
      1          7.073074        7.234856   1.000000   1.000000
      2         10.335387       10.744724   1.000000   1.000000
      3         10.808618       11.382166   1.000000   1.000000
      4         11.140933       11.738686   1.000000   1.000000
      5         13.268722       13.872807   1.000000   1.015997
      6         13.286169       13.955864   1.000000   0.877163
      7         27.589406       27.809985   0.000000   0.000000
      8         38.767755       38.724153   0.000000   0.000000
      9         40.999287       41.098459   0.000000   0.000000
     10         44.358776       44.461680   0.000000   0.000000
     11         49.752630       49.771691   0.000000   0.000000
     12         52.099396       52.128351   0.000000   0.000000
 
  0.4545455E+00  0.9090909E-01 -0.4541821E-17  0.1803156E-01
      1          7.571887        7.916577   1.000000   1.000000
      2         10.536290       11.030822   1.000000   1.000000
      3         10.973190       11.549681   1.000000   1.000000
      4         11.444286       11.800509   1.000000   1.000000
      5         13.556092       14.252598   1.001098  -0.021808
      6         14.517815       14.993863  -0.002735  -0.000000
      7         23.631139       23.952573   0.000000   0.000000
      8         37.856882       37.814798   0.000000   0.000000
      9         41.216226       41.311496   0.000000   0.000000
     10         42.633240       42.726966   0.000000   0.000000
     11         49.769316       49.800828   0.000000   0.000000
     12         50.510850       50.558749   0.000000   0.000000
 
 -0.4545455E+00  0.9090909E-01  0.4037175E-17  0.1803156E-01
      1          7.634891        8.020672   1.000000   1.000000
      2         10.505925       11.020055   1.000000   1.000000
      3         10.902053       11.470328   1.000000   1.000000
      4         11.900595       12.236334   1.000000   1.000000
      5         13.493254       14.193814   1.000239   0.048513
      6         15.254753       15.639294  -0.000000  -0.000000
      7         22.251699       22.636409   0.000000   0.000000
      8         37.338814       37.315427   0.000000   0.000000
      9         41.738053       41.801741   0.000000   0.000000
     10         42.299757       42.393040   0.000000   0.000000
     11         49.388761       49.449024   0.000000   0.000000
     12         49.951507       49.986099   0.000000   0.000000
 
 -0.3636364E+00  0.9090909E-01  0.1261617E-16  0.1803156E-01
      1          7.501901        7.799478   1.000000   1.000000
      2         10.654943       11.166389   1.000000   1.000000
      3         10.979093       11.502937   1.000000   1.000000
      4         11.162323       11.552083   1.000000   1.000000
      5         13.084746       13.767862   1.000000   1.029686
      6         14.356331       14.922997  -0.028125  -0.000000
      7         24.805633       25.091193   0.000000   0.000000
      8         37.262916       37.270594   0.000000   0.000000
      9         41.921442       41.955828   0.000000   0.000000
     10         44.301862       44.397542   0.000000   0.000000
     11         48.748742       48.814966   0.000000   0.000000
     12         50.033486       50.057879   0.000000   0.000000
 
 -0.2727273E+00  0.9090909E-01  0.1009294E-16  0.1803156E-01
      1          6.720650        6.817163   1.000000   1.000000
      2         10.206431       10.684641   1.000000   1.000000
      3         10.907613       11.484763   1.000000   1.000000
      4         11.169100       11.765049   1.000000   1.000000
      5         12.506890       13.153003   1.000000   1.000000
      6         13.494817       14.131571   1.000249   0.212389
      7         29.151440       29.346609   0.000000   0.000000
      8         37.607879       37.640225   0.000000   0.000000
      9         43.119826       43.134472   0.000000   0.000000
     10         47.025952       47.100755   0.000000   0.000000
     11         48.613699       48.695609   0.000000   0.000000
     12         49.191839       49.193996   0.000000   0.000000
 
 -0.1818182E+00  0.9090909E-01  0.2018587E-17  0.1803156E-01
      1          5.237387        5.246387   1.000000   1.000000
      2         10.126270       10.715228   1.000000   1.000000
      3         11.095467       11.710852   1.000000   1.000000
      4         11.259239       11.911292   1.000000   1.000000
      5         12.118391       12.700320   1.000000   1.000000
      6         12.887267       13.506121   1.000000   1.000332
      7         34.119948       34.242365   0.000000   0.000000
      8         38.323257       38.357768   0.000000   0.000000
      9         44.688812       44.679242   0.000000   0.000000
     10         48.018533       48.015755   0.000000   0.000000
     11         48.131688       48.132090   0.000000   0.000000
     12         50.530468       50.644465   0.000000   0.000000
 
 -0.9090909E-01  0.9090909E-01  0.5046468E-17  0.9015778E-02
      1          3.947178        3.940840   1.000000   1.000000
      2         10.414207       11.041630   1.000000   1.000000
      3         11.030210       11.690320   1.000000   1.000000
      4         11.040413       11.695201   1.000000   1.000000
      5         12.230349       12.797984   1.000000   1.000000
      6         12.583026       13.172043   1.000000   1.000000
      7         38.390526       38.422071   0.000000   0.000000
      8         40.142524       40.160092   0.000000   0.000000
      9         44.764114       44.742736   0.000000   0.000000
     10         47.682425       47.658349   0.000000   0.000000
     11         49.188208       49.211714   0.000000   0.000000
     12         51.616276       51.696098   0.000000   0.000000
 
  0.1818182E+00  0.1818182E+00  0.3633457E-17  0.4507889E-02
      1          4.904469        4.904771   1.000000   1.000000
      2          9.904579       10.510665   1.000000   1.000000
      3         11.475318       12.148658   1.000000   1.000000
      4         11.475348       12.148703   1.000000   1.000000
      5         11.764457       12.295586   1.000000   1.000000
      6         12.808046       13.397175   1.000000   1.000015
      7         39.178515       39.206584   0.000000   0.000000
      8         40.257696       40.345672   0.000000   0.000000
      9         40.257701       40.345996   0.000000   0.000000
     10         40.378842       40.346089   0.000000   0.000000
     11         50.388823       50.629514   0.000000   0.000000
     12         56.134656       56.105493   0.000000   0.000000
 
  0.2727273E+00  0.1818182E+00  0.1274233E-16  0.1803156E-01
      1          6.046398        6.071132   1.000000   1.000000
      2          9.561386       10.142714   1.000000   1.000000
      3         11.223816       11.776496   1.000000   1.000000
      4         11.729835       12.393118   1.000000   1.000000
      5         12.280057       12.900507   1.000000   1.000000
      6         13.010109       13.623059   1.000000   1.004330
      7         34.754000       34.865739   0.000000   0.000000
      8         38.575428       38.593256   0.000000   0.000000
      9         38.670549       38.764641   0.000000   0.000000
     10         41.655817       41.708172   0.000000   0.000000
     11         48.901137       49.112279   0.000000   0.000000
     12         55.675471       55.654086   0.000000   0.000000
 
  0.3636364E+00  0.1818182E+00  0.2826022E-16  0.1803156E-01
      1          7.327826        7.446704   1.000000   1.000000
      2          9.453464        9.972862   1.000000   1.000000
      3         10.792648       11.326042   1.000000   1.000000
      4         11.710739       12.335760   1.000000   1.000000
      5         13.362889       14.025741   1.000005   0.636439
      6         13.525962       14.096796   1.000543   0.341072
      7         29.729622       29.902646   0.000000   0.000000
      8         36.942234       36.984409   0.000000   0.000000
      9         37.864997       37.958465   0.000000   0.000000
     10         41.582500       41.676488   0.000000   0.000000
     11         50.955218       51.092356   0.000000   0.000000
     12         54.723096       54.716804   0.000000   0.000000
 
  0.4545455E+00  0.1818182E+00 -0.2018587E-17  0.1803156E-01
      1          8.031381        8.352564   1.000000   1.000000
      2          9.725974       10.122682   1.000000   1.000000
      3         10.673929       11.199499   1.000000   1.000000
      4         11.547892       12.143186   1.000000   1.000000
      5         13.609526       14.305973   1.003354  -0.035433
      6         15.424438       15.872366  -0.000000  -0.000000
      7         25.257868       25.505256   0.000000   0.000000
      8         35.262184       35.329844   0.000000   0.000000
      9         37.952932       38.043873   0.000000   0.000000
     10         40.948099       41.027897   0.000000   0.000000
     11         53.564442       53.575357   0.000000   0.000000
     12         54.480638       54.510329   0.000000   0.000000
 
 -0.4545455E+00  0.1818182E+00  0.6560409E-17  0.1803156E-01
      1          8.225461        8.642072   1.000000   1.000000
      2          9.854437       10.245218   1.000000   1.000000
      3         10.925210       11.415866   1.000000   1.000000
      4         11.412227       11.989523   1.000000   1.000000
      5         13.507202       14.214168   1.000342   0.015657
      6         17.330837       17.644453  -0.000000  -0.000000
      7         22.384766       22.732468   0.000000   0.000000
      8         33.886906       33.977639   0.000000   0.000000
      9         39.006279       39.099503   0.000000   0.000000
     10         40.645168       40.691300   0.000000   0.000000
     11         53.117179       53.120895   0.000000   0.000000
     12         53.178896       53.222249   0.000000   0.000000
 
 -0.3636364E+00  0.1818182E+00  0.4037175E-17  0.1803156E-01
      1          8.260442        8.628323   1.000000   1.000000
      2         10.059846       10.474614   1.000000   1.000000
      3         10.653186       11.122898   1.000000   1.000000
      4         11.397628       11.966503   1.000000   1.000000
      5         13.050644       13.748492   1.000000   1.025384
      6         16.466394       16.894035  -0.000000  -0.000000
      7         24.074902       24.364733   0.000000   0.000000
      8         33.057567       33.164448   0.000000   0.000000
      9         40.993616       41.092269   0.000000   0.000000
     10         41.075100       41.093991   0.000000   0.000000
     11         52.033613       52.024657   0.000000   0.000000
     12         52.489062       52.539296   0.000000   0.000000
 
 -0.2727273E+00  0.1818182E+00  0.1261617E-16  0.1803156E-01
      1          7.856884        8.021872   1.000000   1.000000
      2          9.933348       10.425673   1.000000   1.000000
      3         10.458686       10.980935   1.000000   1.000000
      4         11.529119       12.098534   1.000000   1.000000
      5         12.391081       13.070224   1.000000   1.000000
      6         14.847383       15.426850  -0.000000  -0.000000
      7         28.242039       28.450232   0.000000   0.000000
      8         32.865267       32.980629   0.000000   0.000000
      9         42.369521       42.376346   0.000000   0.000000
     10         43.684306       43.781085   0.000000   0.000000
     11         49.963944       49.923783   0.000000   0.000000
     12         52.229370       52.292461   0.000000   0.000000
 
 -0.1818182E+00  0.1818182E+00  0.4541821E-17  0.9015778E-02
      1          6.574203        6.613166   1.000000   1.000000
      2          9.840266       10.412489   1.000000   1.000000
      3         10.873164       11.435609   1.000000   1.000000
      4         11.717783       12.355264   1.000000   1.000000
      5         11.809208       12.408267   1.000000   1.000000
      6         13.688622       14.319202   1.012612  -0.034597
      7         32.764003       32.934768   0.000000   0.000000
      8         33.639010       33.723534   0.000000   0.000000
      9         44.431049       44.439533   0.000000   0.000000
     10         46.623557       46.687805   0.000000   0.000000
     11         47.483225       47.429490   0.000000   0.000000
     12         52.439608       52.502311   0.000000   0.000000
 
  0.2727273E+00  0.2727273E+00  0.5450186E-17  0.4507889E-02
      1          6.704408        6.772742   1.000000   1.000000
      2          9.134598        9.702639   1.000000   1.000000
      3         11.669255       12.087194   1.000000   1.000000
      4         12.261969       12.960340   1.000000   1.000000
      5         12.262000       12.960385   1.000000   1.000000
      6         13.106469       13.704624   1.000000   1.015642
      7         36.178819       36.228301   0.000000   0.000000
      8         36.576625       36.665138   0.000000   0.000000
      9         36.576627       36.665293   0.000000   0.000000
     10         38.549042       38.654914   0.000000   0.000000
     11         45.990064       46.199682   0.000000   0.000000
     12         60.202874       60.167223   0.000000   0.000000
 
  0.3636364E+00  0.2727273E+00  0.9966775E-17  0.1803156E-01
      1          7.445811        7.607701   1.000000   1.000000
      2          8.859917        9.407009   1.000000   1.000000
      3         11.540043       11.994752   1.000000   1.000000
      4         12.464657       13.130417   1.000000   1.000000
      5         13.387799       14.035686   1.000011   0.595706
      6         13.533976       14.093350   1.000659   0.354858
      7         32.143557       32.260808   0.000000   0.000000
      8         34.245095       34.355126   0.000000   0.000000
      9         35.354051       35.433998   0.000000   0.000000
     10         39.791281       39.892127   0.000000   0.000000
     11         46.263520       46.434025   0.000000   0.000000
     12         60.327056       60.328098   0.000000   0.000000
 
  0.4545455E+00  0.2727273E+00  0.6055762E-17  0.1803156E-01
      1          8.030963        8.316736   1.000000   1.000000
      2          8.865966        9.364944   1.000000   1.000000
      3         11.195308       11.682698   1.000000   1.000000
      4         12.347710       12.969667   1.000000   1.000000
      5         13.648797       14.347158   1.006817  -0.030082
      6         15.855283       16.274336  -0.000000  -0.000000
      7         27.570086       27.741725   0.000000   0.000000
      8         31.997062       32.134418   0.000000   0.000000
      9         35.140476       35.216260   0.000000   0.000000
     10         40.214523       40.314167   0.000000   0.000000
     11         49.595228       49.728399   0.000000   0.000000
     12         58.744167       58.760157   0.000000   0.000000
 
 -0.4545455E+00  0.2727273E+00  0.9083643E-17  0.1803156E-01
      1          8.459084        8.866258   1.000000   1.000000
      2          9.081296        9.491440   1.000000   1.000000
      3         10.859465       11.373305   1.000000   1.000000
      4         12.163207       12.754733   1.000000   1.000000
      5         13.554156       14.273475   1.001051  -0.031264
      6         18.769462       19.078108  -0.000000  -0.000000
      7         23.581974       23.828418   0.000000   0.000000
      8         30.232858       30.389267   0.000000   0.000000
      9         36.017979       36.100035   0.000000   0.000000
     10         40.183491       40.266986   0.000000   0.000000
     11         54.214151       54.317270   0.000000   0.000000
     12         57.074695       57.099326   0.000000   0.000000
 
 -0.3636364E+00  0.2727273E+00  0.6560409E-17  0.1803156E-01
      1          8.865761        9.326799   1.000000   1.000000
      2          9.346001        9.688029   1.000000   1.000000
      3         10.410758       10.929001   1.000000   1.000000
      4         12.011727       12.575900   1.000000   1.000000
      5         13.114052       13.838748   1.000000   1.032565
      6         19.121287       19.437275  -0.000000  -0.000000
      7         23.477206       23.750073   0.000000   0.000000
      8         29.104048       29.269824   0.000000   0.000000
      9         37.896035       37.990312   0.000000   0.000000
     10         40.476814       40.531668   0.000000   0.000000
     11         55.448607       55.408326   0.000000   0.000000
     12         55.793530       55.822642   0.000000   0.000000
 
 -0.2727273E+00  0.2727273E+00  0.4037175E-17  0.9015778E-02
      1          8.838459        9.115194   1.000000   1.000000
      2          9.845884       10.289116   1.000000   1.000000
      3          9.881936       10.411842   1.000000   1.000000
      4         11.867919       12.409900   1.000000   1.000000
      5         12.585634       13.308803   1.000000   1.000001
      6         16.731721       17.193645  -0.000000  -0.000000
      7         26.972084       27.201587   0.000000   0.000000
      8         29.211839       29.362496   0.000000   0.000000
      9         40.539605       40.641805   0.000000   0.000000
     10         41.256591       41.283929   0.000000   0.000000
     11         52.659435       52.603496   0.000000   0.000000
     12         54.641028       54.674347   0.000000   0.000000
 
  0.3636364E+00  0.3636364E+00  0.7266914E-17  0.4507889E-02
      1          7.450327        7.689335   1.000000   1.000000
      2          8.475257        9.012921   1.000000   1.000000
      3         13.124736       13.606582   1.000000   1.003168
      4         13.124768       13.858183   1.000000   1.025274
      5         13.391164       13.858233   1.000013   1.025248
      6         13.419875       13.997572   1.000030   0.744904
      7         31.167826       31.319440   0.000000   0.000000
      8         33.666694       33.729953   0.000000   0.000000
      9         33.666694       33.730110   0.000000   0.000000
     10         38.208073       38.362600   0.000000   0.000000
     11         44.148893       44.325702   0.000000   0.000000
     12         63.265865       64.562276   0.000000   0.000000
 
  0.4545455E+00  0.3636364E+00  0.8578996E-17  0.1803156E-01
      1          7.592205        7.885521   1.000000   1.000000
      2          8.349441        8.874759   1.000000   1.000000
      3         12.643422       13.189537   1.000000   1.000000
      4         13.141796       13.785963   1.000000   1.033050
      5         13.663597       14.373124   1.008678  -0.024303
      6         15.864252       16.166069  -0.000000  -0.000000
      7         28.784105       28.973184   0.000000   0.000000
      8         30.642658       30.747848   0.000000   0.000000
      9         33.049515       33.103283   0.000000   0.000000
     10         39.217000       39.350103   0.000000   0.000000
     11         45.221751       45.383748   0.000000   0.000000
     12         62.953690       62.974999   0.000000   0.000000
 
 -0.4545455E+00  0.3636364E+00  0.2270911E-16  0.1803156E-01
      1          7.937678        8.274765   1.000000   1.000000
      2          8.524650        9.027433   1.000000   1.000000
      3         11.880029       12.414661   1.000000   1.000000
      4         12.945708       13.546415   1.000000   1.000881
      5         13.635127       14.378367   1.005385  -0.023089
      6         18.877671       19.136778  -0.000000  -0.000000
      7         25.923960       26.101027   0.000000   0.000000
      8         27.777292       27.974675   0.000000   0.000000
      9         33.649584       33.709817   0.000000   0.000000
     10         39.865070       39.979769   0.000000   0.000000
     11         49.030490       49.173431   0.000000   0.000000
     12         60.794621       60.807453   0.000000   0.000000
 
 -0.3636364E+00  0.3636364E+00  0.2018587E-16  0.9015778E-02
      1          8.469892        8.861046   1.000000   1.000000
      2          8.904403        9.353036   1.000000   1.000000
      3         11.011591       11.533640   1.000000   1.000000
      4         12.593553       13.159374   1.000000   1.000000
      5         13.333067       14.085069   1.000002   0.388532
      6         21.848028       22.091243   0.000000   0.000000
      7         22.327811       22.555790   0.000000   0.000000
      8         27.145157       27.359753   0.000000   0.000000
      9         35.355777       35.434360   0.000000   0.000000
     10         40.114903       40.204283   0.000000   0.000000
     11         54.171150       54.318696   0.000000   0.000000
     12         58.493170       58.508127   0.000000   0.000000
 
  0.4545455E+00  0.4545455E+00  0.9083643E-17  0.4507889E-02
      1          7.360092        7.668811   1.000000   1.000000
      2          8.100544        8.622139   1.000000   1.000000
      3         13.563543       14.175057   1.001296   0.087784
      4         13.721726       14.486399   1.019263  -0.004962
      5         13.721760       14.486451   1.019271  -0.004957
      6         16.196520       16.229072  -0.000000  -0.000000
      7         26.927423       27.177255   0.000000   0.000000
      8         32.003483       32.039652   0.000000   0.000000
      9         32.003483       32.039813   0.000000   0.000000
     10         38.031142       38.210797   0.000000   0.000000
     11         43.634407       43.808244   0.000000   0.000000
     12         62.961470       64.296508   0.000000   0.000000
 
 -0.4545455E+00  0.4545455E+00  0.2523234E-16  0.9015778E-02
      1          7.484579        7.804272   1.000000   1.000000
      2          8.165245        8.683177   1.000000   1.000000
      3         13.109620       13.733701   1.000000   1.021967
      4         13.440989       14.045462   1.000057   0.554901
      5         13.752229       14.520031   1.026242  -0.002616
      6         17.727784       17.874039  -0.000000  -0.000000
      7         26.133221       26.403191   0.000000   0.000000
      8         29.811841       29.895733   0.000000   0.000000
      9         32.214779       32.254349   0.000000   0.000000
     10         39.056149       39.201839   0.000000   0.000000