       N       E                     dE             d eps       ncg     rms          rms(c)
DAV:   1     0.165162717420E+02    0.16516E+02   -0.29837E+03  3036   0.674E+02
DAV:   2    -0.533352872994E+01   -0.21850E+02   -0.20657E+02  2948   0.121E+02
DAV:   3    -0.566439985765E+01   -0.33087E+00   -0.33032E+00  3092   0.157E+01
DAV:   4    -0.566575231187E+01   -0.13525E-02   -0.13523E-02  3128   0.922E-01
DAV:   5    -0.566576446706E+01   -0.12155E-04   -0.12157E-04  2848   0.801E-02    0.143E+01
DAV:   6    -0.489034370973E+01    0.77542E+00   -0.72283E+00  3444   0.345E+01    0.517E+00
DAV:   7    -0.479491136350E+01    0.95432E-01   -0.54612E-01  3344   0.939E+00    0.336E+00
DAV:   8    -0.476834096158E+01    0.26570E-01   -0.24945E-02  3468   0.122E+00    0.618E-01
DAV:   9    -0.476823102642E+01    0.10994E-03   -0.23369E-04  3024   0.131E-01    0.222E-01
DAV:  10    -0.476811067826E+01    0.12035E-03   -0.12915E-04  2052   0.742E-02    0.563E-02
DAV:  11    -0.476812735399E+01   -0.16676E-04   -0.93274E-06  1492   0.295E-02
   1 F= -.47681274E+01 E0= -.47688621E+01  d E =0.220435E-02  mag=     0.5710
