PROCAR lm decomposed
# of k-points:   56         # of bands:   12         # of ions:    1

 k-point     1 :    0.00000000 0.00000000 0.00000000     weight = 0.00075131

band     1 # energy    2.90503864 # occ.  1.00000000
 
ion      s     py     pz     px    dxy    dyz    dz2    dxz  x2-y2    tot
    1  1.017  0.000  0.000  0.000  0.000  0.000  0.000  0.000  0.000  1.017
 
band     2 # energy   10.77246595 # occ.  1.00000000
 
ion      s     py     pz     px    dxy    dyz    dz2    dxz  x2-y2    tot
    1  0.000  0.000  0.000  0.000  0.336  0.336  0.000  0.336  0.000  1.009
 
band     3 # energy   10.77251088 # occ.  1.00000000
 
ion      s     py     pz     px    dxy    dyz    dz2    dxz  x2-y2    tot
    1  0.000  0.000  0.000  0.000  0.502  0.507  0.000  0.000  0.000  1.009
 
band     4 # energy   10.77251094 # occ.  1.00000000
 
ion      s     py     pz     px    dxy    dyz    dz2    dxz  x2-y2    tot
    1  0.000  0.000  0.000  0.000  0.171  0.165  0.000  0.673  0.000  1.009
 
band     5 # energy   12.49833119 # occ.  1.00000000
 
ion      s     py     pz     px    dxy    dyz    dz2    dxz  x2-y2    tot
    1  0.000  0.000  0.000  0.000  0.000  0.000  0.250  0.000  0.748  0.998
 
band     6 # energy   12.49833121 # occ.  1.00000000
 
ion      s     py     pz     px    dxy    dyz    dz2    dxz  x2-y2    tot
    1  0.000  0.000  0.000  0.000  0.000  0.000  0.748  0.000  0.250  0.998
 
band     7 # energy   40.18007682 # occ.  0.00000000
 
ion      s     py     pz     px    dxy    dyz    dz2    dxz  x2-y2    tot
    1  0.000  0.000  0.000  0.000  0.000  0.000  0.000  0.000  0.000  0.000
 
band     8 # energy   46.35035382 # occ.  0.00000000
 
ion      s     py     pz     px    dxy    dyz    dz2    dxz  x2-y2    tot
    1  0.000  0.089  0.089  0.089  0.000  0.000  0.000  0.000  0.000  0.267
 
band     9 # energy   46.35038597 # occ.  0.00000000
 
ion      s     py     pz     px    dxy    dyz    dz2    dxz  x2-y2    tot
    1  0.000  0.174  0.046  0.047  0.000  0.000  0.000  0.000  0.000  0.267
 
band    10 # energy   46.35038619 # occ.  0.00000000
 
ion      s     py     pz     px    dxy    dyz    dz2    dxz  x2-y2    tot
    1  0.000  0.004  0.132  0.130  0.000  0.000  0.000  0.000  0.000  0.267
 
band    11 # energy   51.70170966 # occ.  0.00000000
 
ion      s     py     pz     px    dxy    dyz    dz2    dxz  x2-y2    tot
    1  0.000  0.000  0.000  0.000  0.847  0.818  0.000  0.010  0.000  1.674
 
band    12 # energy   51.70174651 # occ.  0.00000000
 
ion      s     py     pz     px    dxy    dyz    dz2    dxz  x2-y2    tot
    1  0.000  0.000  0.000  0.000  0.093  0.064  0.000  1.517  0.000  1.674
 

 k-point     2 :    0.09090909 0.00000000 0.00000000     weight = 0.00601052

band     1 # energy    3.30430641 # occ.  1.00000000
 
ion      s     py     pz     px    dxy    dyz    dz2    dxz  x2-y2    tot
    1  0.981  0.012  0.012  0.012  0.000  0.000  0.000  0.000  0.000  1.018
 
band     2 # energy   10.63854938 # occ.  1.00000000
 
ion      s     py     pz     px    dxy    dyz    dz2    dxz  x2-y2    tot
    1  0.000  0.002  0.002  0.002  0.333  0.333  0.000  0.333  0.000  1.005
 
band     3 # energy   10.87481483 # occ.  1.00000000
 
ion      s     py     pz     px    dxy    dyz    dz2    dxz  x2-y2    tot
    1  0.000  0.000  0.001  0.000  0.667  0.166  0.005  0.167  0.000  1.006
 
band     4 # energy   10.87483893 # occ.  1.00000000
 
ion      s     py     pz     px    dxy    dyz    dz2    dxz  x2-y2    tot
    1  0.000  0.001  0.000  0.001  0.000  0.500  0.000  0.500  0.005  1.006
 
band     5 # energy   12.45194269 # occ.  1.00000000
 
ion      s     py     pz     px    dxy    dyz    dz2    dxz  x2-y2    tot
    1  0.000  0.000  0.000  0.000  0.000  0.002  0.000  0.002  0.992  0.996
 
band     6 # energy   12.45195772 # occ.  1.00000000
 
ion      s     py     pz     px    dxy    dyz    dz2    dxz  x2-y2    tot
    1  0.000  0.000  0.000  0.000  0.003  0.001  0.992  0.001  0.000  0.996
 
band     7 # energy   39.55029452 # occ.  0.00000000
 
ion      s     py     pz     px    dxy    dyz    dz2    dxz  x2-y2    tot
    1  0.003  0.015  0.015  0.015  0.098  0.098  0.000  0.098  0.000  0.340
 
band     8 # energy   43.09410353 # occ.  0.00000000
 
ion      s     py     pz     px    dxy    dyz    dz2    dxz  x2-y2    tot
    1  0.032  0.067  0.067  0.067  0.029  0.029  0.000  0.029  0.000  0.321
 
band     9 # energy   46.04691231 # occ.  0.00000000
 
ion      s     py     pz     px    dxy    dyz    dz2    dxz  x2-y2    tot
    1  0.000  0.044  0.177  0.045  0.138  0.035  0.048  0.034  0.000  0.522
 
band    10 # energy   46.04691510 # occ.  0.00000000
 
ion      s     py     pz     px    dxy    dyz    dz2    dxz  x2-y2    tot
    1  0.000  0.134  0.000  0.132  0.000  0.103  0.000  0.104  0.048  0.522
 
band    11 # energy   51.40006118 # occ.  0.00000000
 
ion      s     py     pz     px    dxy    dyz    dz2    dxz  x2-y2    tot
    1  0.023  0.030  0.030  0.030  0.224  0.224  0.000  0.226  0.000  0.786
 
band    12 # energy   52.00098065 # occ.  0.00000000
 
ion      s     py     pz     px    dxy    dyz    dz2    dxz  x2-y2    tot
    1  0.000  0.000  0.000  0.000  0.805  0.348  0.031  0.194  0.004  1.383
 

 k-point     3 :    0.18181818-0.00000000-0.00000000     weight = 0.00601052

band     1 # energy    4.42847467 # occ.  1.00000000
 
ion      s     py     pz     px    dxy    dyz    dz2    dxz  x2-y2    tot
    1  0.873  0.043  0.043  0.043  0.007  0.007  0.000  0.007  0.000  1.021
 
band     2 # energy   10.35918154 # occ.  1.00000000
 
ion      s     py     pz     px    dxy    dyz    dz2    dxz  x2-y2    tot
    1  0.005  0.011  0.011  0.011  0.321  0.321  0.000  0.321  0.000  1.001
 
band     3 # energy   11.06590432 # occ.  1.00000000
 
ion      s     py     pz     px    dxy    dyz    dz2    dxz  x2-y2    tot
    1  0.000  0.000  0.002  0.000  0.604  0.151  0.094  0.151  0.000  1.002
 
band     4 # energy   11.06593085 # occ.  1.00000000
 
ion      s     py     pz     px    dxy    dyz    dz2    dxz  x2-y2    tot
    1  0.000  0.001  0.000  0.001  0.000  0.453  0.000  0.453  0.094  1.002
 
band     5 # energy   12.43029839 # occ.  1.00000000
 
ion      s     py     pz     px    dxy    dyz    dz2    dxz  x2-y2    tot
    1  0.000  0.000  0.000  0.000  0.000  0.046  0.000  0.046  0.899  0.991
 
band     6 # energy   12.43035267 # occ.  1.00000000
 
ion      s     py     pz     px    dxy    dyz    dz2    dxz  x2-y2    tot
    1  0.000  0.000  0.000  0.000  0.061  0.015  0.899  0.015  0.000  0.991
 
band     7 # energy   35.58494846 # occ.  0.00000000
 
ion      s     py     pz     px    dxy    dyz    dz2    dxz  x2-y2    tot
    1  0.054  0.083  0.083  0.083  0.195  0.195  0.000  0.195  0.000  0.890
 
band     8 # energy   41.37488504 # occ.  0.00000000
 
ion      s     py     pz     px    dxy    dyz    dz2    dxz  x2-y2    tot
    1  0.030  0.007  0.007  0.007  0.017  0.017  0.000  0.017  0.000  0.101
 
band     9 # energy   45.44960822 # occ.  0.00000000
 
ion      s     py     pz     px    dxy    dyz    dz2    dxz  x2-y2    tot
    1  0.000  0.144  0.000  0.144  0.000  0.244  0.000  0.244  0.114  0.889
 
band    10 # energy   45.44966985 # occ.  0.00000000
 
ion      s     py     pz     px    dxy    dyz    dz2    dxz  x2-y2    tot
    1  0.000  0.048  0.192  0.048  0.325  0.081  0.114  0.081  0.000  0.889
 
band    11 # energy   51.06107536 # occ.  0.00000000
 
ion      s     py     pz     px    dxy    dyz    dz2    dxz  x2-y2    tot
    1  0.004  0.074  0.074  0.074  0.037  0.037  0.000  0.037  0.000  0.336
 
band    12 # energy   51.97529002 # occ.  0.00000000
 
ion      s     py     pz     px    dxy    dyz    dz2    dxz  x2-y2    tot
    1  0.000  0.018  0.029  0.005  0.263  0.042  0.322  0.161  0.058  0.897
 

 k-point     4 :    0.27272727-0.00000000-0.00000000     weight = 0.00601052

band     1 # energy    5.95915723 # occ.  1.00000000
 
ion      s     py     pz     px    dxy    dyz    dz2    dxz  x2-y2    tot
    1  0.679  0.065  0.065  0.065  0.050  0.050  0.000  0.050  0.000  1.026
 
band     2 # energy   10.30981598 # occ.  1.00000000
 
ion      s     py     pz     px    dxy    dyz    dz2    dxz  x2-y2    tot
    1  0.038  0.051  0.051  0.051  0.269  0.269  0.000  0.269  0.000  0.999
 
band     3 # energy   11.06172673 # occ.  1.00000000
 
ion      s     py     pz     px    dxy    dyz    dz2    dxz  x2-y2    tot
    1  0.000  0.000  0.001  0.000  0.435  0.109  0.346  0.109  0.000  1.000
 
band     4 # energy   11.06176658 # occ.  1.00000000
 
ion      s     py     pz     px    dxy    dyz    dz2    dxz  x2-y2    tot
    1  0.000  0.001  0.000  0.001  0.000  0.326  0.000  0.326  0.346  1.000
 
band     5 # energy   12.70784350 # occ.  1.00000000
 
ion      s     py     pz     px    dxy    dyz    dz2    dxz  x2-y2    tot
    1  0.000  0.001  0.000  0.001  0.000  0.171  0.000  0.171  0.645  0.989
 
band     6 # energy   12.70793303 # occ.  1.00000000
 
ion      s     py     pz     px    dxy    dyz    dz2    dxz  x2-y2    tot
    1  0.000  0.000  0.001  0.000  0.228  0.057  0.645  0.057  0.000  0.989
 
band     7 # energy   30.54733115 # occ.  0.00000000
 
ion      s     py     pz     px    dxy    dyz    dz2    dxz  x2-y2    tot
    1  0.139  0.103  0.103  0.103  0.184  0.184  0.000  0.184  0.000  1.000
 
band     8 # energy   40.36111554 # occ.  0.00000000
 
ion      s     py     pz     px    dxy    dyz    dz2    dxz  x2-y2    tot
    1  0.015  0.001  0.001  0.001  0.034  0.034  0.000  0.034  0.000  0.119
 
band     9 # energy   44.91622680 # occ.  0.00000000
 
ion      s     py     pz     px    dxy    dyz    dz2    dxz  x2-y2    tot
    1  0.000  0.179  0.000  0.179  0.000  0.273  0.000  0.273  0.124  1.028
 
band    10 # energy   44.91631540 # occ.  0.00000000
 
ion      s     py     pz     px    dxy    dyz    dz2    dxz  x2-y2    tot
    1  0.000  0.060  0.239  0.060  0.364  0.091  0.124  0.091  0.000  1.028
 
band    11 # energy   50.39457917 # occ.  0.00000000
 
ion      s     py     pz     px    dxy    dyz    dz2    dxz  x2-y2    tot
    1  0.000  0.065  0.000  0.065  0.000  0.003  0.000  0.003  0.713  0.849
 
band    12 # energy   50.39469451 # occ.  0.00000000
 
ion      s     py     pz     px    dxy    dyz    dz2    dxz  x2-y2    tot
    1  0.000  0.022  0.087  0.022  0.004  0.001  0.713  0.001  0.000  0.849
 

 k-point     5 :    0.36363636 0.00000000 0.00000000     weight = 0.00601052

band     1 # energy    7.07288256 # occ.  1.00000000
 
ion      s     py     pz     px    dxy    dyz    dz2    dxz  x2-y2    tot
    1  0.400  0.034  0.034  0.034  0.177  0.177  0.000  0.177  0.000  1.033
 
band     2 # energy   10.88493039 # occ.  1.00000000
 
ion      s     py     pz     px    dxy    dyz    dz2    dxz  x2-y2    tot
    1  0.000  0.000  0.000  0.000  0.322  0.081  0.515  0.081  0.000  1.000
 
band     3 # energy   10.88497159 # occ.  1.00000000
 
ion      s     py     pz     px    dxy    dyz    dz2    dxz  x2-y2    tot
    1  0.000  0.000  0.000  0.000  0.000  0.242  0.000  0.242  0.515  1.000
 
band     4 # energy   11.23487902 # occ.  1.00000000
 
ion      s     py     pz     px    dxy    dyz    dz2    dxz  x2-y2    tot
    1  0.110  0.167  0.167  0.167  0.127  0.127  0.000  0.127  0.000  0.994
 
band     5 # energy   13.17852309 # occ.  1.00000000
 
ion      s     py     pz     px    dxy    dyz    dz2    dxz  x2-y2    tot
    1  0.000  0.001  0.000  0.001  0.000  0.256  0.000  0.256  0.477  0.991
 
band     6 # energy   13.17863479 # occ.  1.00000000
 
ion      s     py     pz     px    dxy    dyz    dz2    dxz  x2-y2    tot
    1  0.000  0.000  0.001  0.000  0.341  0.085  0.477  0.085  0.000  0.991
 
band     7 # energy   25.96720910 # occ.  0.00000000
 
ion      s     py     pz     px    dxy    dyz    dz2    dxz  x2-y2    tot
    1  0.274  0.083  0.083  0.083  0.173  0.173  0.000  0.173  0.000  1.041
 
band     8 # energy   39.27566242 # occ.  0.00000000
 
ion      s     py     pz     px    dxy    dyz    dz2    dxz  x2-y2    tot
    1  0.005  0.008  0.008  0.008  0.016  0.016  0.000  0.016  0.000  0.075
 
band     9 # energy   44.45725093 # occ.  0.00000000
 
ion      s     py     pz     px    dxy    dyz    dz2    dxz  x2-y2    tot
    1  0.000  0.240  0.000  0.241  0.000  0.171  0.000  0.171  0.075  0.898
 
band    10 # energy   44.45731259 # occ.  0.00000000
 
ion      s     py     pz     px    dxy    dyz    dz2    dxz  x2-y2    tot
    1  0.000  0.080  0.321  0.080  0.228  0.057  0.075  0.057  0.000  0.898
 
band    11 # energy   48.54255061 # occ.  0.00000000
 
ion      s     py     pz     px    dxy    dyz    dz2    dxz  x2-y2    tot
    1  0.000  0.046  0.000  0.046  0.000  0.067  0.000  0.067  0.881  1.106
 
band    12 # energy   48.54258499 # occ.  0.00000000
 
ion      s     py     pz     px    dxy    dyz    dz2    dxz  x2-y2    tot
    1  0.000  0.015  0.061  0.015  0.089  0.022  0.881  0.022  0.000  1.106
 

 k-point     6 :    0.45454545-0.00000000-0.00000000     weight = 0.00601052

band     1 # energy    7.37206249 # occ.  1.00000000
 
ion      s     py     pz     px    dxy    dyz    dz2    dxz  x2-y2    tot
    1  0.249  0.003  0.003  0.003  0.259  0.259  0.000  0.259  0.000  1.035
 
band     2 # energy   10.74723700 # occ.  1.00000000
 
ion      s     py     pz     px    dxy    dyz    dz2    dxz  x2-y2    tot
    1  0.000  0.000  0.000  0.000  0.282  0.070  0.577  0.071  0.000  1.000
 
band     3 # energy   10.74727761 # occ.  1.00000000
 
ion      s     py     pz     px    dxy    dyz    dz2    dxz  x2-y2    tot
    1  0.000  0.000  0.000  0.000  0.000  0.212  0.000  0.211  0.577  1.000
 
band     4 # energy   12.90120274 # occ.  1.00000000
 
ion      s     py     pz     px    dxy    dyz    dz2    dxz  x2-y2    tot
    1  0.036  0.298  0.298  0.298  0.017  0.017  0.000  0.017  0.000  0.980
 
band     5 # energy   13.51292940 # occ.  1.00039450
 
ion      s     py     pz     px    dxy    dyz    dz2    dxz  x2-y2    tot
    1  0.000  0.000  0.000  0.000  0.000  0.288  0.000  0.288  0.417  0.993
 
band     6 # energy   13.51306065 # occ.  1.00039579
 
ion      s     py     pz     px    dxy    dyz    dz2    dxz  x2-y2    tot
    1  0.000  0.000  0.000  0.000  0.384  0.096  0.417  0.096  0.000  0.993
 
band     7 # energy   22.68183296 # occ.  0.00000000
 
ion      s     py     pz     px    dxy    dyz    dz2    dxz  x2-y2    tot
    1  0.457  0.020  0.020  0.020  0.186  0.186  0.000  0.186  0.000  1.074
 
band     8 # energy   38.60452723 # occ.  0.00000000
 
ion      s     py     pz     px    dxy    dyz    dz2    dxz  x2-y2    tot
    1  0.000  0.011  0.011  0.011  0.002  0.002  0.000  0.002  0.000  0.040
 
band     9 # energy   44.14712776 # occ.  0.00000000
 
ion      s     py     pz     px    dxy    dyz    dz2    dxz  x2-y2    tot
    1  0.000  0.298  0.000  0.299  0.000  0.026  0.000  0.025  0.010  0.658
 
band    10 # energy   44.14714165 # occ.  0.00000000
 
ion      s     py     pz     px    dxy    dyz    dz2    dxz  x2-y2    tot
    1  0.000  0.100  0.398  0.099  0.034  0.008  0.010  0.009  0.000  0.658
 
band    11 # energy   47.51262212 # occ.  0.00000000
 
ion      s     py     pz     px    dxy    dyz    dz2    dxz  x2-y2    tot
    1  0.000  0.007  0.000  0.007  0.000  0.200  0.000  0.200  0.988  1.401
 
band    12 # energy   47.51265197 # occ.  0.00000000
 
ion      s     py     pz     px    dxy    dyz    dz2    dxz  x2-y2    tot
    1  0.000  0.002  0.009  0.002  0.267  0.067  0.988  0.066  0.000  1.401
 

 k-point     7 :    0.09090909 0.09090909 0.00000000     weight = 0.00450789

band     1 # energy    3.43590459 # occ.  1.00000000
 
ion      s     py     pz     px    dxy    dyz    dz2    dxz  x2-y2    tot
    1  0.969  0.048  0.000  0.000  0.000  0.000  0.000  0.000  0.001  1.018
 
band     2 # energy   10.52860155 # occ.  1.00000000
 
ion      s     py     pz     px    dxy    dyz    dz2    dxz  x2-y2    tot
    1  0.000  0.000  0.000  0.000  0.000  0.000  0.000  1.006  0.000  1.006
 
band     3 # energy   10.95084356 # occ.  1.00000000
 
ion      s     py     pz     px    dxy    dyz    dz2    dxz  x2-y2    tot
    1  0.000  0.000  0.002  0.002  0.500  0.500  0.000  0.000  0.000  1.004
 
band     4 # energy   10.95087345 # occ.  1.00000000
 
ion      s     py     pz     px    dxy    dyz    dz2    dxz  x2-y2    tot
    1  0.000  0.000  0.002  0.002  0.500  0.500  0.000  0.000  0.000  1.004
 
band     5 # energy   12.27720250 # occ.  1.00000000
 
ion      s     py     pz     px    dxy    dyz    dz2    dxz  x2-y2    tot
    1  0.001  0.000  0.000  0.000  0.000  0.000  0.248  0.000  0.745  0.995
 
band     6 # energy   12.58033251 # occ.  1.00000000
 
ion      s     py     pz     px    dxy    dyz    dz2    dxz  x2-y2    tot
    1  0.000  0.000  0.000  0.000  0.000  0.000  0.748  0.000  0.249  0.997
 
band     7 # energy   39.82895428 # occ.  0.00000000
 
ion      s     py     pz     px    dxy    dyz    dz2    dxz  x2-y2    tot
    1  0.000  0.000  0.000  0.000  0.000  0.000  0.000  0.265  0.000  0.265
 
band     8 # energy   43.92511156 # occ.  0.00000000
 
ion      s     py     pz     px    dxy    dyz    dz2    dxz  x2-y2    tot
    1  0.045  0.104  0.000  0.000  0.000  0.000  0.034  0.000  0.101  0.283
 
band     9 # energy   44.10575474 # occ.  0.00000000
 
ion      s     py     pz     px    dxy    dyz    dz2    dxz  x2-y2    tot
    1  0.000  0.000  0.164  0.164  0.218  0.218  0.000  0.000  0.000  0.765
 
band    10 # energy   44.10576005 # occ.  0.00000000
 
ion      s     py     pz     px    dxy    dyz    dz2    dxz  x2-y2    tot
    1  0.000  0.000  0.164  0.164  0.218  0.218  0.000  0.000  0.000  0.765
 
band    11 # energy   53.07803656 # occ.  0.00000000
 
ion      s     py     pz     px    dxy    dyz    dz2    dxz  x2-y2    tot
    1  0.000  0.000  0.000  0.000  0.556  0.407  0.000  0.000  0.000  0.962
 
band    12 # energy   53.07816343 # occ.  0.00000000
 
ion      s     py     pz     px    dxy    dyz    dz2    dxz  x2-y2    tot
    1  0.000  0.000  0.000  0.000  0.406  0.555  0.000  0.002  0.000  0.963
 

 k-point     8 :    0.18181818 0.09090909-0.00000000     weight = 0.01803156

band     1 # energy    4.31692214 # occ.  1.00000000
 
ion      s     py     pz     px    dxy    dyz    dz2    dxz  x2-y2    tot
    1  0.884  0.101  0.011  0.011  0.003  0.003  0.002  0.001  0.005  1.020
 
band     2 # energy   10.24276182 # occ.  1.00000000
 
ion      s     py     pz     px    dxy    dyz    dz2    dxz  x2-y2    tot
    1  0.001  0.001  0.004  0.004  0.057  0.057  0.000  0.880  0.000  1.003
 
band     3 # energy   11.14717080 # occ.  1.00000000
 
ion      s     py     pz     px    dxy    dyz    dz2    dxz  x2-y2    tot
    1  0.000  0.002  0.003  0.003  0.407  0.406  0.016  0.113  0.049  0.999
 
band     4 # energy   11.16659912 # occ.  1.00000000
 
ion      s     py     pz     px    dxy    dyz    dz2    dxz  x2-y2    tot
    1  0.000  0.000  0.004  0.004  0.475  0.476  0.031  0.000  0.010  1.000
 
band     5 # energy   12.10913491 # occ.  1.00000000
 
ion      s     py     pz     px    dxy    dyz    dz2    dxz  x2-y2    tot
    1  0.005  0.003  0.000  0.000  0.028  0.028  0.230  0.007  0.689  0.990
 
band     6 # energy   12.65928275 # occ.  1.00000000
 
ion      s     py     pz     px    dxy    dyz    dz2    dxz  x2-y2    tot
    1  0.000  0.000  0.000  0.000  0.020  0.020  0.715  0.000  0.238  0.994
 
band     7 # energy   37.44746531 # occ.  0.00000000
 
ion      s     py     pz     px    dxy    dyz    dz2    dxz  x2-y2    tot
    1  0.025  0.025  0.087  0.087  0.147  0.147  0.003  0.293  0.008  0.824
 
band     8 # energy   40.84862177 # occ.  0.00000000
 
ion      s     py     pz     px    dxy    dyz    dz2    dxz  x2-y2    tot
    1  0.037  0.028  0.012  0.012  0.012  0.012  0.021  0.158  0.063  0.354
 
band     9 # energy   42.52167334 # occ.  0.00000000
 
ion      s     py     pz     px    dxy    dyz    dz2    dxz  x2-y2    tot
    1  0.000  0.000  0.191  0.191  0.266  0.267  0.017  0.000  0.006  0.937
 
band    10 # energy   45.34435660 # occ.  0.00000000
 
ion      s     py     pz     px    dxy    dyz    dz2    dxz  x2-y2    tot
    1  0.001  0.000  0.083  0.083  0.062  0.062  0.060  0.009  0.180  0.540
 
band    11 # energy   51.16165356 # occ.  0.00000000
 
ion      s     py     pz     px    dxy    dyz    dz2    dxz  x2-y2    tot
    1  0.022  0.248  0.003  0.003  0.160  0.160  0.000  0.291  0.000  0.887
 
band    12 # energy   54.04676908 # occ.  0.00000000
 
ion      s     py     pz     px    dxy    dyz    dz2    dxz  x2-y2    tot
    1  0.000  0.000  0.006  0.006  0.228  0.228  0.101  0.000  0.034  0.603
 

 k-point     9 :    0.27272727 0.09090909-0.00000000     weight = 0.01803156

band     1 # energy    5.74108817 # occ.  1.00000000
 
ion      s     py     pz     px    dxy    dyz    dz2    dxz  x2-y2    tot
    1  0.721  0.148  0.032  0.032  0.029  0.029  0.004  0.016  0.012  1.022
 
band     2 # energy   10.01660396 # occ.  1.00000000
 
ion      s     py     pz     px    dxy    dyz    dz2    dxz  x2-y2    tot
    1  0.011  0.015  0.024  0.024  0.095  0.095  0.001  0.731  0.004  1.001
 
band     3 # energy   11.08207265 # occ.  1.00000000
 
ion      s     py     pz     px    dxy    dyz    dz2    dxz  x2-y2    tot
    1  0.000  0.001  0.002  0.002  0.208  0.208  0.103  0.163  0.308  0.994
 
band     4 # energy   11.26292132 # occ.  1.00000000
 
ion      s     py     pz     px    dxy    dyz    dz2    dxz  x2-y2    tot
    1  0.000  0.000  0.004  0.004  0.375  0.375  0.179  0.000  0.060  0.998
 
band     5 # energy   12.41757727 # occ.  1.00000000
 
ion      s     py     pz     px    dxy    dyz    dz2    dxz  x2-y2    tot
    1  0.017  0.017  0.003  0.003  0.157  0.157  0.139  0.078  0.418  0.990
 
band     6 # energy   12.88962522 # occ.  1.00000000
 
ion      s     py     pz     px    dxy    dyz    dz2    dxz  x2-y2    tot
    1  0.000  0.000  0.001  0.001  0.118  0.118  0.565  0.000  0.188  0.991
 
band     7 # energy   32.42354130 # occ.  0.00000000
 
ion      s     py     pz     px    dxy    dyz    dz2    dxz  x2-y2    tot
    1  0.095  0.048  0.131  0.131  0.167  0.167  0.003  0.229  0.010  0.983
 
band     8 # energy   39.83207277 # occ.  0.00000000
 
ion      s     py     pz     px    dxy    dyz    dz2    dxz  x2-y2    tot
    1  0.020  0.001  0.001  0.001  0.001  0.001  0.032  0.241  0.095  0.393
 
band     9 # energy   41.47974036 # occ.  0.00000000
 
ion      s     py     pz     px    dxy    dyz    dz2    dxz  x2-y2    tot
    1  0.000  0.000  0.217  0.217  0.245  0.245  0.053  0.000  0.018  0.994
 
band    10 # energy   45.92539520 # occ.  0.00000000
 
ion      s     py     pz     px    dxy    dyz    dz2    dxz  x2-y2    tot
    1  0.043  0.176  0.009  0.009  0.010  0.010  0.099  0.129  0.298  0.781
 
band    11 # energy   49.68551513 # occ.  0.00000000
 
ion      s     py     pz     px    dxy    dyz    dz2    dxz  x2-y2    tot
    1  0.022  0.191  0.033  0.033  0.063  0.063  0.032  0.228  0.096  0.760
 
band    12 # energy   53.47279264 # occ.  0.00000000
 
ion      s     py     pz     px    dxy    dyz    dz2    dxz  x2-y2    tot
    1  0.019  0.098  0.126  0.134  0.048  0.044  0.056  0.053  0.210  0.789
 

 k-point    10 :    0.36363636 0.09090909-0.00000000     weight = 0.01803156

band     1 # energy    7.07307367 # occ.  1.00000000
 
ion      s     py     pz     px    dxy    dyz    dz2    dxz  x2-y2    tot
    1  0.460  0.122  0.025  0.025  0.124  0.124  0.005  0.126  0.015  1.027
 
band     2 # energy   10.33538727 # occ.  1.00000000
 
ion      s     py     pz     px    dxy    dyz    dz2    dxz  x2-y2    tot
    1  0.056  0.082  0.088  0.088  0.065  0.065  0.027  0.439  0.082  0.994
 
band     3 # energy   10.80861783 # occ.  1.00000000
 
ion      s     py     pz     px    dxy    dyz    dz2    dxz  x2-y2    tot
    1  0.006  0.003  0.000  0.000  0.101  0.101  0.122  0.296  0.367  0.996
 
band     4 # energy   11.14093289 # occ.  1.00000000
 
ion      s     py     pz     px    dxy    dyz    dz2    dxz  x2-y2    tot
    1  0.000  0.000  0.003  0.003  0.272  0.272  0.334  0.000  0.111  0.997
 
band     5 # energy   13.26872250 # occ.  1.00000018
 
ion      s     py     pz     px    dxy    dyz    dz2    dxz  x2-y2    tot
    1  0.042  0.054  0.018  0.018  0.190  0.193  0.091  0.108  0.279  0.993
 
band     6 # energy   13.28616876 # occ.  1.00000034
 
ion      s     py     pz     px    dxy    dyz    dz2    dxz  x2-y2    tot
    1  0.000  0.000  0.001  0.001  0.224  0.221  0.411  0.000  0.135  0.992
 
band     7 # energy   27.58940606 # occ.  0.00000000
 
ion      s     py     pz     px    dxy    dyz    dz2    dxz  x2-y2    tot
    1  0.206  0.044  0.130  0.130  0.153  0.153  0.002  0.206  0.007  1.031
 
band     8 # energy   38.76775515 # occ.  0.00000000
 
ion      s     py     pz     px    dxy    dyz    dz2    dxz  x2-y2    tot
    1  0.005  0.010  0.005  0.005  0.000  0.000  0.044  0.165  0.131  0.365
 
band     9 # energy   40.99928746 # occ.  0.00000000
 
ion      s     py     pz     px    dxy    dyz    dz2    dxz  x2-y2    tot
    1  0.000  0.000  0.240  0.240  0.179  0.179  0.098  0.000  0.033  0.969
 
band    10 # energy   44.35877613 # occ.  0.00000000
 
ion      s     py     pz     px    dxy    dyz    dz2    dxz  x2-y2    tot
    1  0.083  0.337  0.018  0.018  0.001  0.001  0.062  0.153  0.185  0.857
 
band    11 # energy   49.75263037 # occ.  0.00000000
 
ion      s     py     pz     px    dxy    dyz    dz2    dxz  x2-y2    tot
    1  0.009  0.045  0.006  0.006  0.070  0.070  0.134  0.257  0.401  0.998
 
band    12 # energy   52.09939564 # occ.  0.00000000
 
ion      s     py     pz     px    dxy    dyz    dz2    dxz  x2-y2    tot
    1  0.000  0.000  0.053  0.053  0.027  0.027  0.508  0.000  0.169  0.838
 

 k-point    11 :    0.45454545 0.09090909-0.00000000     weight = 0.01803156

band     1 # energy    7.57188717 # occ.  1.00000000
 
ion      s     py     pz     px    dxy    dyz    dz2    dxz  x2-y2    tot
    1  0.253  0.044  0.001  0.001  0.225  0.225  0.002  0.275  0.005  1.032
 
band     2 # energy   10.53629039 # occ.  1.00000000
 
ion      s     py     pz     px    dxy    dyz    dz2    dxz  x2-y2    tot
    1  0.000  0.005  0.015  0.015  0.086  0.085  0.169  0.104  0.508  0.988
 
band     3 # energy   10.97318975 # occ.  1.00000000
 
ion      s     py     pz     px    dxy    dyz    dz2    dxz  x2-y2    tot
    1  0.000  0.000  0.002  0.002  0.219  0.219  0.416  0.000  0.139  0.996
 
band     4 # energy   11.44428578 # occ.  1.00000000
 
ion      s     py     pz     px    dxy    dyz    dz2    dxz  x2-y2    tot
    1  0.039  0.143  0.130  0.130  0.019  0.019  0.010  0.473  0.031  0.995
 
band     5 # energy   13.55609151 # occ.  1.00109793
 
ion      s     py     pz     px    dxy    dyz    dz2    dxz  x2-y2    tot
    1  0.000  0.000  0.000  0.000  0.279  0.279  0.327  0.000  0.109  0.994
 
band     6 # energy   14.51781535 # occ. -0.00273492
 
ion      s     py     pz     px    dxy    dyz    dz2    dxz  x2-y2    tot
    1  0.047  0.145  0.088  0.088  0.134  0.134  0.067  0.089  0.202  0.995
 
band     7 # energy   23.63113891 # occ.  0.00000000
 
ion      s     py     pz     px    dxy    dyz    dz2    dxz  x2-y2    tot
    1  0.377  0.011  0.075  0.075  0.157  0.157  0.001  0.206  0.003  1.063
 
band     8 # energy   37.85688188 # occ.  0.00000000
 
ion      s     py     pz     px    dxy    dyz    dz2    dxz  x2-y2    tot
    1  0.000  0.048  0.003  0.003  0.006  0.006  0.051  0.093  0.153  0.362
 
band     9 # energy   41.21622605 # occ.  0.00000000
 
ion      s     py     pz     px    dxy    dyz    dz2    dxz  x2-y2    tot
    1  0.000  0.000  0.255  0.255  0.095  0.095  0.156  0.000  0.052  0.907
 
band    10 # energy   42.63323992 # occ.  0.00000000
 
ion      s     py     pz     px    dxy    dyz    dz2    dxz  x2-y2    tot
    1  0.078  0.319  0.063  0.063  0.013  0.013  0.032  0.067  0.097  0.744
 
band    11 # energy   49.76931552 # occ.  0.00000000
 
ion      s     py     pz     px    dxy    dyz    dz2    dxz  x2-y2    tot
    1  0.025  0.025  0.001  0.001  0.037  0.037  0.166  0.355  0.497  1.145
 
band    12 # energy   50.51084993 # occ.  0.00000000
 
ion      s     py     pz     px    dxy    dyz    dz2    dxz  x2-y2    tot
    1  0.000  0.000  0.056  0.056  0.122  0.122  0.531  0.000  0.177  1.064
 

 k-point    12 :   -0.45454545 0.09090909 0.00000000     weight = 0.01803156

band     1 # energy    7.63489092 # occ.  1.00000000
 
ion      s     py     pz     px    dxy    dyz    dz2    dxz  x2-y2    tot
    1  0.213  0.009  0.006  0.006  0.252  0.252  0.000  0.296  0.000  1.034
 
band     2 # energy   10.50592529 # occ.  1.00000000
 
ion      s     py     pz     px    dxy    dyz    dz2    dxz  x2-y2    tot
    1  0.000  0.001  0.011  0.011  0.056  0.056  0.163  0.204  0.488  0.990
 
band     3 # energy   10.90205335 # occ.  1.00000000
 
ion      s     py     pz     px    dxy    dyz    dz2    dxz  x2-y2    tot
    1  0.000  0.000  0.001  0.001  0.198  0.198  0.448  0.000  0.149  0.996
 
band     4 # energy   11.90059510 # occ.  1.00000000
 
ion      s     py     pz     px    dxy    dyz    dz2    dxz  x2-y2    tot
    1  0.001  0.148  0.145  0.145  0.095  0.095  0.027  0.254  0.081  0.991
 
band     5 # energy   13.49325441 # occ.  1.00023891
 
ion      s     py     pz     px    dxy    dyz    dz2    dxz  x2-y2    tot
    1  0.000  0.000  0.000  0.000  0.301  0.301  0.293  0.000  0.098  0.993
 
band     6 # energy   15.25475347 # occ. -0.00000000
 
ion      s     py     pz     px    dxy    dyz    dz2    dxz  x2-y2    tot
    1  0.005  0.163  0.164  0.164  0.029  0.029  0.061  0.194  0.182  0.992
 
band     7 # energy   22.25169857 # occ.  0.00000000
 
ion      s     py     pz     px    dxy    dyz    dz2    dxz  x2-y2    tot
    1  0.484  0.031  0.000  0.000  0.189  0.189  0.000  0.178  0.000  1.072
 
band     8 # energy   37.33881401 # occ.  0.00000000
 
ion      s     py     pz     px    dxy    dyz    dz2    dxz  x2-y2    tot