<?xml version="1.0" encoding="ISO-8859-1"?>
<modeling>
 <generator>
  <i name="program" type="string">vasp </i>
  <i name="version" type="string">6.3.0  </i>
  <i name="subversion" type="string">20Jan22 (build Feb 01 2022 16:52:37) complex                          parallel </i>
  <i name="platform" type="string">TETRA_NSC1 </i>
  <i name="date" type="string">2022 02 23 </i>
  <i name="time" type="string">15:19:15 </i>
 </generator>
 <incar>
  <i type="string" name="SYSTEM">fcc Ni</i>
  <i type="int" name="ISTART">     0</i>
  <i type="int" name="ISPIN">     2</i>
  <i type="int" name="ICHARG">     2</i>
  <i name="ENCUT">    270.00000000</i>
  <v name="MAGMOM">      1.00000000</v>
  <i type="int" name="ISMEAR">     1</i>
  <i name="SIGMA">      0.20000000</i>
  <i type="int" name="LORBIT">    11</i>
 </incar>
 <primitive_cell>
  <structure name="primitive_cell" >
   <crystal>
    <varray name="basis" >
     <v>       1.60000000       1.60000000       0.00000000 </v>
     <v>       0.00000000       1.60000000       1.60000000 </v>
     <v>       1.60000000       0.00000000       1.60000000 </v>
    </varray>
    <i name="volume">      8.19200000 </i>
    <varray name="rec_basis" >
     <v>       0.31250000       0.31250000      -0.31250000 </v>
     <v>      -0.31250000       0.31250000       0.31250000 </v>
     <v>       0.31250000      -0.31250000       0.31250000 </v>
    </varray>
   </crystal>
   <varray name="positions" >
    <v>       0.00000000       0.00000000       0.00000000 </v>
   </varray>
  </structure>
  <varray name="primitive_index" >
   <v type="int" >        1 </v>
  </varray>
 </primitive_cell>
 <kpoints>
  <generation param="Monkhorst-Pack">
   <v type="int" name="divisions">      11       11       11 </v>
   <v name="usershift">      0.00000000       0.00000000       0.00000000 </v>
   <v name="genvec1">      0.09090909       0.00000000       0.00000000 </v>
   <v name="genvec2">      0.00000000       0.09090909      -0.00000000 </v>
   <v name="genvec3">     -0.00000000      -0.00000000       0.09090909 </v>
   <v name="shift">      0.00000000       0.00000000       0.00000000 </v>
  </generation>
  <varray name="kpointlist" >
   <v>       0.00000000       0.00000000       0.00000000 </v>
   <v>       0.09090909       0.00000000       0.00000000 </v>
   <v>       0.18181818      -0.00000000      -0.00000000 </v>
   <v>       0.27272727      -0.00000000      -0.00000000 </v>
   <v>       0.36363636       0.00000000       0.00000000 </v>
   <v>       0.45454545      -0.00000000      -0.00000000 </v>
   <v>       0.09090909       0.09090909       0.00000000 </v>
   <v>       0.18181818       0.09090909      -0.00000000 </v>
   <v>       0.27272727       0.09090909      -0.00000000 </v>
   <v>       0.36363636       0.09090909      -0.00000000 </v>
   <v>       0.45454545       0.09090909      -0.00000000 </v>
   <v>      -0.45454545       0.09090909       0.00000000 </v>
   <v>      -0.36363636       0.09090909       0.00000000 </v>
   <v>      -0.27272727       0.09090909       0.00000000 </v>
   <v>      -0.18181818       0.09090909       0.00000000 </v>
   <v>      -0.09090909       0.09090909       0.00000000 </v>
   <v>       0.18181818       0.18181818       0.00000000 </v>
   <v>       0.27272727       0.18181818       0.00000000 </v>
   <v>       0.36363636       0.18181818       0.00000000 </v>
   <v>       0.45454545       0.18181818      -0.00000000 </v>
   <v>      -0.45454545       0.18181818       0.00000000 </v>
   <v>      -0.36363636       0.18181818       0.00000000 </v>
   <v>      -0.27272727       0.18181818       0.00000000 </v>
   <v>      -0.18181818       0.18181818       0.00000000 </v>
   <v>       0.27272727       0.27272727       0.00000000 </v>
   <v>       0.36363636       0.27272727       0.00000000 </v>
   <v>       0.45454545       0.27272727       0.00000000 </v>
   <v>      -0.45454545       0.27272727       0.00000000 </v>
   <v>      -0.36363636       0.27272727       0.00000000 </v>
   <v>      -0.27272727       0.27272727       0.00000000 </v>
   <v>       0.36363636       0.36363636       0.00000000 </v>
   <v>       0.45454545       0.36363636       0.00000000 </v>
   <v>      -0.45454545       0.36363636       0.00000000 </v>
   <v>      -0.36363636       0.36363636       0.00000000 </v>
   <v>       0.45454545       0.45454545       0.00000000 </v>
   <v>      -0.45454545       0.45454545       0.00000000 </v>
   <v>       0.27272727       0.18181818       0.09090909 </v>
   <v>       0.36363636       0.18181818       0.09090909 </v>
   <v>       0.45454545       0.18181818       0.09090909 </v>
   <v>      -0.45454545       0.18181818       0.09090909 </v>
   <v>       0.36363636       0.27272727       0.09090909 </v>
   <v>       0.45454545       0.27272727       0.09090909 </v>
   <v>      -0.45454545       0.27272727       0.09090909 </v>
   <v>      -0.36363636       0.27272727       0.09090909 </v>
   <v>      -0.27272727       0.27272727       0.09090909 </v>
   <v>      -0.18181818       0.27272727       0.09090909 </v>
   <v>       0.45454545       0.36363636       0.09090909 </v>
   <v>      -0.45454545       0.36363636       0.09090909 </v>
   <v>      -0.36363636       0.36363636       0.09090909 </v>
   <v>      -0.27272727       0.36363636       0.09090909 </v>
   <v>      -0.45454545       0.45454545       0.09090909 </v>
   <v>      -0.36363636       0.45454545       0.09090909 </v>
   <v>      -0.45454545       0.36363636       0.18181818 </v>
   <v>      -0.36363636       0.36363636       0.18181818 </v>
   <v>      -0.36363636       0.45454545       0.18181818 </v>
   <v>      -0.27272727       0.45454545       0.18181818 </v>
  </varray>
  <varray name="weights" >
   <v>       0.00075131 </v>
   <v>       0.00601052 </v>
   <v>       0.00601052 </v>
   <v>       0.00601052 </v>
   <v>       0.00601052 </v>
   <v>       0.00601052 </v>
   <v>       0.00450789 </v>
   <v>       0.01803156 </v>
   <v>       0.01803156 </v>
   <v>       0.01803156 </v>
   <v>       0.01803156 </v>
   <v>       0.01803156 </v>
   <v>       0.01803156 </v>
   <v>       0.01803156 </v>
   <v>       0.01803156 </v>
   <v>       0.00901578 </v>
   <v>       0.00450789 </v>
   <v>       0.01803156 </v>
   <v>       0.01803156 </v>
   <v>       0.01803156 </v>
   <v>       0.01803156 </v>
   <v>       0.01803156 </v>
   <v>       0.01803156 </v>
   <v>       0.00901578 </v>
   <v>       0.00450789 </v>
   <v>       0.01803156 </v>
   <v>       0.01803156 </v>
   <v>       0.01803156 </v>
   <v>       0.01803156 </v>
   <v>       0.00901578 </v>
   <v>       0.00450789 </v>
   <v>       0.01803156 </v>
   <v>       0.01803156 </v>
   <v>       0.00901578 </v>
   <v>       0.00450789 </v>
   <v>       0.00901578 </v>
   <v>       0.01803156 </v>
   <v>       0.03606311 </v>
   <v>       0.03606311 </v>
   <v>       0.03606311 </v>
   <v>       0.01803156 </v>
   <v>       0.03606311 </v>
   <v>       0.03606311 </v>
   <v>       0.03606311 </v>
   <v>       0.03606311 </v>
   <v>       0.01803156 </v>
   <v>       0.01803156 </v>
   <v>       0.03606311 </v>
   <v>       0.03606311 </v>
   <v>       0.01803156 </v>
   <v>       0.01803156 </v>
   <v>       0.01803156 </v>
   <v>       0.01803156 </v>
   <v>       0.03606311 </v>
   <v>       0.01803156 </v>
   <v>       0.01803156 </v>
  </varray>
 </kpoints>
 <parameters>
  <separator name="general" >
   <i type="string" name="SYSTEM">fcc Ni</i>
   <i type="logical" name="LCOMPAT"> F  </i>
  </separator>
  <separator name="electronic" >
   <i type="string" name="PREC">normal</i>
   <i name="ENMAX">    270.00000000</i>
   <i name="ENAUG">    544.56500000</i>
   <i name="EDIFF">      0.00010000</i>
   <i type="int" name="IALGO">    38</i>
   <i type="int" name="IWAVPR">    10</i>
   <i type="int" name="NBANDS">    12</i>
   <i type="int" name="NBANDSLOW">    -1</i>
   <i type="int" name="NBANDSHIGH">    -1</i>
   <i name="NELECT">     10.00000000</i>
   <i type="int" name="TURBO">     0</i>
   <i type="int" name="IRESTART">     0</i>
   <i type="int" name="NREBOOT">     0</i>
   <i type="int" name="NMIN">     0</i>
   <i name="EREF">      0.00000000</i>
   <separator name="electronic smearing" >
    <i type="int" name="ISMEAR">     1</i>
    <i name="SIGMA">      0.20000000</i>
    <i name="KSPACING">      0.50000000</i>
    <i type="logical" name="KGAMMA"> T  </i>
    <i type="logical" name="KBLOWUP"> T  </i>
   </separator>
   <separator name="electronic projectors" >
    <i type="logical" name="LREAL"> F  </i>
    <v name="ROPT">      0.00000000</v>
    <i type="int" name="LMAXPAW">  -100</i>
    <i type="int" name="LMAXMIX">     2</i>
    <i type="logical" name="NLSPLINE"> F  </i>
   </separator>
   <separator name="electronic startup" >
    <i type="int" name="ISTART">     0</i>
    <i type="int" name="ICHARG">     2</i>
    <i type="int" name="INIWAV">     1</i>
   </separator>
   <separator name="electronic spin" >
    <i type="int" name="ISPIN">     2</i>
    <i type="logical" name="LNONCOLLINEAR"> F  </i>
    <v name="MAGMOM">      1.00000000</v>
    <i name="NUPDOWN">     -1.00000000</i>
    <i type="logical" name="LSORBIT"> F  </i>
    <v name="SAXIS">      0.00000000      0.00000000      1.00000000</v>
    <i type="logical" name="LSPIRAL"> F  </i>
    <v name="QSPIRAL">      0.00000000      0.00000000      0.00000000</v>
    <i type="logical" name="LZEROZ"> F  </i>
   </separator>
   <separator name="electronic exchange-correlation" >
    <i type="logical" name="LASPH"> F  </i>
    <i type="logical" name="LMETAGGA"> F  </i>
   </separator>
   <separator name="electronic convergence" >
    <i type="int" name="NELM">    60</i>
    <i type="int" name="NELMDL">    -5</i>
    <i type="int" name="NELMIN">     2</i>
    <i name="ENINI">    270.00000000</i>
    <separator name="electronic convergence detail" >
     <i type="logical" name="LDIAG"> T  </i>
     <i type="logical" name="LSUBROT"> F  </i>
     <i name="WEIMIN">      0.00000000</i>
     <i name="EBREAK">      0.00000208</i>
     <i name="DEPER">      0.30000000</i>
     <i type="int" name="NRMM">     4</i>
     <i name="TIME">      0.40000000</i>
    </separator>
   </separator>
   <separator name="electronic mixer" >
    <i name="AMIX">      0.40000000</i>
    <i name="BMIX">      1.00000000</i>
    <i name="AMIN">      0.10000000</i>
    <i name="AMIX_MAG">      1.60000000</i>
    <i name="BMIX_MAG">      1.00000000</i>
    <separator name="electronic mixer details" >
     <i type="int" name="IMIX">     4</i>
     <i type="logical" name="MIXFIRST"> F  </i>
     <i type="int" name="MAXMIX">   -45</i>
     <i name="WC">    100.00000000</i>
     <i type="int" name="INIMIX">     1</i>
     <i type="int" name="MIXPRE">     1</i>
     <i type="int" name="MREMOVE">     5</i>
    </separator>
   </separator>
   <separator name="electronic dipolcorrection" >
    <i type="logical" name="LDIPOL"> F  </i>
    <i type="logical" name="LMONO"> F  </i>
    <i type="int" name="IDIPOL">     0</i>
    <i name="EPSILON">      1.00000000</i>
    <v name="DIPOL">   -100.00000000   -100.00000000   -100.00000000</v>
    <i name="EFIELD">      0.00000000</i>
   </separator>
  </separator>
  <separator name="grids" >
   <i type="int" name="NGX">    10</i>
   <i type="int" name="NGY">    10</i>
   <i type="int" name="NGZ">    10</i>
   <i type="int" name="NGXF">    20</i>
   <i type="int" name="NGYF">    20</i>
   <i type="int" name="NGZF">    20</i>
   <i type="logical" name="ADDGRID"> F  </i>
  </separator>
  <separator name="ionic" >
   <i type="int" name="NSW">     0</i>
   <i type="int" name="IBRION">    -1</i>
   <i type="int" name="MDALGO">     0</i>
   <i type="int" name="ISIF">     2</i>
   <i name="PSTRESS">      0.00000000</i>
   <i name="EDIFFG">      0.00100000</i>
   <i type="int" name="NFREE">     0</i>
   <i name="POTIM">      0.50000000</i>
   <i name="SMASS">     -3.00000000</i>
   <i name="SCALEE">      1.00000000</i>
  </separator>
  <separator name="ionic md" >
   <i name="TEBEG">      0.00010000</i>
   <i name="TEEND">      0.00010000</i>
   <i type="int" name="NBLOCK">     1</i>
   <i type="int" name="KBLOCK">     1</i>
   <i type="int" name="NPACO">   256</i>
   <i name="APACO">     10.00000000</i>
  </separator>
  <separator name="symmetry" >
   <i type="int" name="ISYM">     2</i>
   <i name="SYMPREC">      0.00001000</i>
  </separator>
  <separator name="dos" >
   <i type="int" name="LORBIT">    11</i>
   <v name="RWIGS">     -1.00000000</v>
   <i type="int" name="NEDOS">   301</i>
   <i name="EMIN">     10.00000000</i>
   <i name="EMAX">    -10.00000000</i>
   <i name="EFERMI">      0.00000000</i>
  </separator>
  <separator name="writing" >
   <i type="int" name="NWRITE">     2</i>
   <i type="logical" name="LWAVE"> T  </i>
   <i type="logical" name="LDOWNSAMPLE"> F  </i>
   <i type="logical" name="LCHARG"> T  </i>
   <i type="logical" name="LPARD"> F  </i>
   <i type="logical" name="LVTOT"> F  </i>
   <i type="logical" name="LVHAR"> F  </i>
   <i type="logical" name="LELF"> F  </i>
   <i type="logical" name="LOPTICS"> F  </i>
   <v name="STM">      0.00000000      0.00000000      0.00000000      0.00000000      0.00000000      0.00000000      0.00000000</v>
  </separator>
  <separator name="performance" >
   <i type="int" name="NPAR">     4</i>
   <i type="int" name="NSIM">     4</i>
   <i type="int" name="NBLK">    -1</i>
   <i type="logical" name="LPLANE"> T  </i>
   <i type="logical" name="LSCALAPACK"> T  </i>
   <i type="logical" name="LSCAAWARE"> F  </i>
   <i type="logical" name="LSCALU"> F  </i>
   <i type="logical" name="LASYNC"> F  </i>
   <i type="logical" name="LORBITALREAL"> F  </i>
  </separator>
  <separator name="miscellaneous" >
   <i type="int" name="IDIOT">     3</i>
   <i type="int" name="PHON_NSTRUCT">    -1</i>
   <i type="logical" name="LMUSIC"> F  </i>
   <v name="POMASS">     58.69000000</v>
   <v name="DARWINR">      0.00000000</v>
   <v name="DARWINV">      1.00000000</v>
   <i type="logical" name="LCORR"> T  </i>
  </separator>
  <i type="logical" name="GGA_COMPAT"> T  </i>
  <i type="logical" name="LBERRY"> F  </i>
  <i type="int" name="ICORELEVEL">     0</i>
  <i type="logical" name="LDAU"> F  </i>
  <i type="int" name="I_CONSTRAINED_M">     0</i>
  <separator name="electronic exchange-correlation" >
   <i type="string" name="GGA">--</i>
   <i type="int" name="VOSKOWN">     0</i>
   <i type="logical" name="LHFCALC"> F  </i>
   <i type="string" name="PRECFOCK"></i>
   <i type="logical" name="LSYMGRAD"> F  </i>
   <i type="logical" name="LHFONE"> F  </i>
   <i type="logical" name="LRHFCALC"> F  </i>
   <i type="logical" name="LTHOMAS"> F  </i>
   <i type="logical" name="LMODELHF"> F  </i>
   <i type="logical" name="LFOCKACE"> F  </i>
   <i name="ENCUT4O">     -1.00000000</i>
   <i type="int" name="EXXOEP">     0</i>
   <i type="int" name="FOURORBIT">     0</i>
   <i name="AEXX">      0.00000000</i>
   <i name="HFALPHA">      0.00000000</i>
   <i name="MCALPHA">      0.00000000</i>
   <i name="ALDAX">      1.00000000</i>
   <i name="AGGAX">      1.00000000</i>
   <i name="ALDAC">      1.00000000</i>
   <i name="AGGAC">      1.00000000</i>
   <i type="int" name="NKREDX">     1</i>
   <i type="int" name="NKREDY">     1</i>
   <i type="int" name="NKREDZ">     1</i>
   <i type="logical" name="SHIFTRED"> F  </i>
   <i type="logical" name="ODDONLY"> F  </i>
   <i type="logical" name="EVENONLY"> F  </i>
   <i type="int" name="LMAXFOCK">     0</i>
   <i type="int" name="NMAXFOCKAE">     0</i>
   <i type="logical" name="LFOCKAEDFT"> F  </i>
   <i name="HFSCREEN">      0.00000000</i>
   <i name="HFSCREENC">      0.00000000</i>
   <i type="int" name="NBANDSGWLOW">     0</i>
  </separator>
  <separator name="vdW DFT" >
   <i type="logical" name="LUSE_VDW"> F  </i>
   <i name="Zab_VDW">     -0.84910000</i>
   <i name="PARAM1">      0.12340000</i>
   <i name="PARAM2">      1.00000000</i>
   <i name="PARAM3">      0.00000000</i>
  </separator>
  <separator name="model GW" >
   <i type="int" name="MODEL_GW">     0</i>
   <i name="MODEL_EPS0">      4.91520000</i>
   <i name="MODEL_ALPHA">      1.00000000</i>
  </separator>
  <separator name="linear response parameters" >
   <i type="logical" name="LEPSILON"> F  </i>
   <i type="logical" name="LRPA"> F  </i>
   <i type="logical" name="LNABLA"> F  </i>
   <i type="logical" name="LVEL"> F  </i>
   <i name="CSHIFT">      0.10000000</i>
   <i name="OMEGAMAX">     -1.00000000</i>
   <i name="DEG_THRESHOLD">      0.00200000</i>
   <i name="RTIME">     -0.10000000</i>
   <i name="WPLASMAI">      0.00000000</i>
   <v name="DFIELD">      0.00000000      0.00000000      0.00000000</v>
   <v name="WPLASMA">      0.00000000      0.00000000      0.00000000      0.00000000      0.00000000      0.00000000      0.00000000      0.00000000      0.00000000</v>
  </separator>
  <separator name="orbital magnetization" >
   <i type="logical" name="NUCIND"> F  </i>
   <v name="MAGPOS">      0.00000000      0.00000000      0.00000000</v>
   <i type="logical" name="LNICSALL"> T  </i>
   <i type="logical" name="ORBITALMAG"> F  </i>
   <i type="logical" name="LMAGBLOCH"> F  </i>
   <i type="logical" name="LCHIMAG"> F  </i>
   <i type="logical" name="LGAUGE"> T  </i>
   <i type="int" name="MAGATOM">     0</i>
   <v name="MAGDIPOL">      0.00000000      0.00000000      0.00000000</v>
   <v name="AVECCONST">      0.00000000      0.00000000      0.00000000</v>
  </separator>
  <separator name="response functions" >
   <i type="logical" name="LFINITE_TEMPERATURE"> F  </i>
   <i type="logical" name="LADDER"> F  </i>
   <i type="logical" name="LRPAFORCE"> F  </i>
   <i type="logical" name="LFXC"> F  </i>
   <i type="logical" name="LHARTREE"> T  </i>
   <i type="int" name="IBSE">     0</i>
   <v type="int" name="KPOINT">    -1     0     0     0</v>
   <i type="logical" name="LTCTC"> F  </i>
   <i type="logical" name="LTCTE"> F  </i>
   <i type="logical" name="LTETE"> F  </i>
   <i type="logical" name="LTRIPLET"> F  </i>
   <i type="logical" name="LFXCEPS"> F  </i>
   <i type="logical" name="LFXHEG"> F  </i>
   <i type="int" name="NATURALO">     2</i>
   <i type="logical" name="LHOLEGF"> F  </i>
   <i type="logical" name="L2ORDER"> F  </i>
   <i type="logical" name="LDMP1"> F  </i>
   <i type="logical" name="LMP2LT"> F  </i>
   <i type="logical" name="LSMP2LT"> F  </i>
   <i type="logical" name="LGWLF"> F  </i>
   <i name="ENCUTGW">     -2.00000000</i>
   <i name="ENCUTGWSOFT">     -2.00000000</i>
   <i name="ENCUTLF">     -1.00000000</i>
   <i type="logical" name="LESF_SPLINES"> F  </i>
   <i type="int" name="LMAXMP2">    -1</i>
   <i name="SCISSOR">      0.00000000</i>
   <i type="int" name="NOMEGA">     0</i>
   <i type="int" name="NOMEGAR">     0</i>
   <i type="int" name="NBANDSGW">    -1</i>
   <i type="int" name="NBANDSO">    -1</i>
   <i type="int" name="NBANDSV">    -1</i>
   <i type="int" name="NELMGW">     1</i>
   <i type="int" name="NELMHF">     1</i>
   <i type="int" name="DIM">     3</i>
   <i type="int" name="IESPILON">     4</i>
   <i type="int" name="ANTIRES">     0</i>
   <i name="OMEGAMAX">    -30.00000000</i>
   <i name="OMEGAMIN">    -30.00000000</i>
   <i name="OMEGATL">   -200.00000000</i>
   <i type="int" name="OMEGAGRID">     0</i>
   <i name="CSHIFT">     -0.10000000</i>
   <i type="logical" name="LSELFENERGY"> F  </i>
   <i type="logical" name="LSPECTRAL"> F  </i>
   <i type="logical" name="LSPECTRALGW"> F  </i>
   <i type="logical" name="LSINGLES"> F  </i>
   <i type="logical" name="LFERMIGW"> F  </i>
   <i type="logical" name="ODDONLYGW"> F  </i>
   <i type="logical" name="EVENONLYGW"> F  </i>
   <i type="int" name="NKREDLFX">     1</i>
   <i type="int" name="NKREDLFY">     1</i>
   <i type="int" name="NKREDLFZ">     1</i>
   <i type="int" name="MAXMEM">  2800</i>
   <i type="int" name="TELESCOPE">     0</i>
   <i type="int" name="NTAUPAR">    -1</i>
   <i type="int" name="NOMEGAPAR">    -1</i>
   <i name="DAMP_NEWTON">      0.80000001</i>
   <i name="LAMBDA">      1.00000000</i>
  </separator>
  <separator name="External order field" >
   <i name="OFIELD_KAPPA">      0.00000000</i>
   <v name="OFIELD_K">      0.00000000      0.00000000      0.00000000</v>
   <i name="OFIELD_Q6_NEAR">      0.00000000</i>
   <i name="OFIELD_Q6_FAR">      0.00000000</i>
   <i name="OFIELD_A">      0.00000000</i>
  </separator>
  <separator name="optional k-points parameters" >
   <i type="int" name="KPOINTS_OPT_MODE">     1</i>
   <i type="logical" name="LKPOINTS_OPT"> F  </i>
  </separator>
 </parameters>
 <atominfo>
  <atoms>       1 </atoms>
  <types>       1 </types>
  <array name="atoms" >
   <dimension dim="1">ion</dimension>
   <field type="string">element</field>
   <field type="int">atomtype</field>
   <set>
    <rc><c>Ni</c><c>   1</c></rc>
   </set>
  </array>
  <array name="atomtypes" >
   <dimension dim="1">type</dimension>
   <field type="int">atomspertype</field>
   <field type="string">element</field>
   <field>mass</field>
   <field>valence</field>
   <field type="string">pseudopotential</field>
   <set>
    <rc><c>   1</c><c>Ni</c><c>     58.69000000</c><c>     10.00000000</c><c>  PAW_PBE Ni 02Aug2007                  </c></rc>
   </set>
  </array>
 </atominfo>
 <structure name="initialpos" >
  <crystal>
   <varray name="basis" >
    <v>       1.60000000       1.60000000       0.00000000 </v>
    <v>       0.00000000       1.60000000       1.60000000 </v>
    <v>       1.60000000       0.00000000       1.60000000 </v>
   </varray>
   <i name="volume">      8.19200000 </i>
   <varray name="rec_basis" >
    <v>       0.31250000       0.31250000      -0.31250000 </v>
    <v>      -0.31250000       0.31250000       0.31250000 </v>
    <v>       0.31250000      -0.31250000       0.31250000 </v>
   </varray>
  </crystal>
  <varray name="positions" >
   <v>       0.00000000       0.00000000       0.00000000 </v>
  </varray>
 </structure>
 <calculation>
  <scstep>
   <time name="dav">    0.20    0.20</time>
   <time name="total">    0.21    0.21</time>
   <energy>
    <i name="alphaZ">     62.25512817 </i>
    <i name="ewald">  -1031.57871949 </i>
    <i name="hartreedc">   -203.39239113 </i>
    <i name="XCdc">     32.78774249 </i>
    <i name="pawpsdc">    962.83317360 </i>
    <i name="pawaedc">  -1029.67071227 </i>
    <i name="eentropy">     -0.00205512 </i>
    <i name="bandstr">    145.64803081 </i>
    <i name="atom">   1077.63607467 </i>
    <i name="e_fr_energy">     16.51627174 </i>
    <i name="e_wo_entrp">     16.51832686 </i>
    <i name="e_0_energy">     16.51695678 </i>
   </energy>
  </scstep>
  <scstep>
   <time name="dav">    0.19    0.19</time>
   <time name="total">    0.19    0.19</time>
   <energy>
    <i name="e_fr_energy">     -5.33352873 </i>
    <i name="e_wo_entrp">     -5.34000705 </i>
    <i name="e_0_energy">     -5.33568817 </i>
   </energy>
  </scstep>
  <scstep>
   <time name="dav">    0.20    0.20</time>
   <time name="total">    0.20    0.20</time>
   <energy>
    <i name="e_fr_energy">     -5.66439986 </i>
    <i name="e_wo_entrp">     -5.67000923 </i>
    <i name="e_0_energy">     -5.66626965 </i>
   </energy>
  </scstep>
  <scstep>
   <time name="dav">    0.19    0.19</time>
   <time name="total">    0.19    0.19</time>
   <energy>
    <i name="e_fr_energy">     -5.66575231 </i>
    <i name="e_wo_entrp">     -5.67134167 </i>
    <i name="e_0_energy">     -5.66761543 </i>
   </energy>
  </scstep>
  <scstep>
   <time name="dav">    0.18    0.18</time>
   <time name="total">    0.18    0.18</time>
   <energy>
    <i name="e_fr_energy">     -5.66576447 </i>
    <i name="e_wo_entrp">     -5.67135364 </i>
    <i name="e_0_energy">     -5.66762752 </i>
   </energy>
  </scstep>
  <scstep>
   <time name="dav">    0.20    0.21</time>
   <time name="total">    0.22    0.22</time>
   <energy>
    <i name="e_fr_energy">     -4.89034371 </i>
    <i name="e_wo_entrp">     -4.89324267 </i>
    <i name="e_0_energy">     -4.89131003 </i>
   </energy>
  </scstep>
  <scstep>
   <time name="dav">    0.20    0.21</time>
   <time name="total">    0.22    0.22</time>
   <energy>
    <i name="e_fr_energy">     -4.79491136 </i>
    <i name="e_wo_entrp">     -4.79693029 </i>
    <i name="e_0_energy">     -4.79558434 </i>
   </energy>
  </scstep>
  <scstep>
   <time name="dav">    0.21    0.21</time>
   <time name="total">    0.22    0.22</time>
   <energy>
    <i name="e_fr_energy">     -4.76834096 </i>
    <i name="e_wo_entrp">     -4.77095761 </i>
    <i name="e_0_energy">     -4.76921318 </i>
   </energy>
  </scstep>
  <scstep>
   <time name="dav">    0.19    0.19</time>
   <time name="total">    0.20    0.20</time>
   <energy>
    <i name="e_fr_energy">     -4.76823103 </i>
    <i name="e_wo_entrp">     -4.77049947 </i>
    <i name="e_0_energy">     -4.76898718 </i>
   </energy>
  </scstep>
  <scstep>
   <time name="dav">    0.15    0.15</time>
   <time name="total">    0.16    0.16</time>
   <energy>
    <i name="e_fr_energy">     -4.76811068 </i>
    <i name="e_wo_entrp">     -4.77024507 </i>
    <i name="e_0_energy">     -4.76882214 </i>
   </energy>
  </scstep>
  <scstep>
   <time name="dav">    0.12    0.12</time>
   <time name="total">    0.13    0.13</time>
   <energy>
    <i name="alphaZ">     62.25512817 </i>
    <i name="ewald">  -1031.57871949 </i>
    <i name="hartreedc">   -181.93033781 </i>
    <i name="XCdc">     31.60758065 </i>
    <i name="pawpsdc">   1368.99036515 </i>
    <i name="pawaedc">  -1440.14601538 </i>
    <i name="eentropy">      0.00220435 </i>
    <i name="bandstr">    108.39559233 </i>
    <i name="atom">   1077.63607467 </i>
    <i name="e_fr_energy">     -4.76812735 </i>
    <i name="e_wo_entrp">     -4.77033171 </i>
    <i name="e_0_energy">     -4.76886214 </i>
   </energy>
  </scstep>
  <structure>
   <crystal>
    <varray name="basis" >
     <v>       1.60000000       1.60000000       0.00000000 </v>
     <v>       0.00000000       1.60000000       1.60000000 </v>
     <v>       1.60000000       0.00000000       1.60000000 </v>
    </varray>
    <i name="volume">      8.19200000 </i>
    <varray name="rec_basis" >
     <v>       0.31250000       0.31250000      -0.31250000 </v>
     <v>      -0.31250000       0.31250000       0.31250000 </v>
     <v>       0.31250000      -0.31250000       0.31250000 </v>
    </varray>
   </crystal>
   <varray name="positions" >
    <v>       0.00000000       0.00000000       0.00000000 </v>
   </varray>
  </structure>
  <varray name="forces" >
   <v>       0.00000000       0.00000000      -0.00000000 </v>
  </varray>
  <varray name="stress" >
   <v>    1059.79729791      -0.00000000       0.00000000 </v>
   <v>       0.00000000    1059.79729791      -0.00000000 </v>
   <v>       0.00000000      -0.00000000    1059.79729791 </v>
  </varray>
  <energy>
   <i name="e_fr_energy">     -4.76812735 </i>
   <i name="e_wo_entrp">     -4.77033171 </i>
   <i name="e_0_energy">     -4.76886214 </i>
  </energy>
  <time name="totalsc">    2.20    2.21</time>
  <eigenvalues>
   <array>
    <dimension dim="1">band</dimension>
    <dimension dim="2">kpoint</dimension>
    <dimension dim="3">spin</dimension>
    <field>eigene</field>
    <field>occ</field>
    <set>
     <set comment="spin 1">
      <set comment="kpoint 1">
       <r>    2.9050    1.0000 </r>
       <r>   10.7725    1.0000 </r>
       <r>   10.7725    1.0000 </r>
       <r>   10.7725    1.0000 </r>
       <r>   12.4983    1.0000 </r>
       <r>   12.4983    1.0000 </r>
       <r>   40.1801    0.0000 </r>
       <r>   46.3504    0.0000 </r>
       <r>   46.3504    0.0000 </r>
       <r>   46.3504    0.0000 </r>
       <r>   51.7017    0.0000 </r>
       <r>   51.7017    0.0000 </r>
      </set>
      <set comment="kpoint 2">
       <r>    3.3043    1.0000 </r>
       <r>   10.6385    1.0000 </r>
       <r>   10.8748    1.0000 </r>
       <r>   10.8748    1.0000 </r>
       <r>   12.4519    1.0000 </r>
       <r>   12.4520    1.0000 </r>
       <r>   39.5503    0.0000 </r>
       <r>   43.0941    0.0000 </r>
       <r>   46.0469    0.0000 </r>
       <r>   46.0469    0.0000 </r>
       <r>   51.4001    0.0000 </r>
       <r>   52.0010    0.0000 </r>
      </set>
      <set comment="kpoint 3">
       <r>    4.4285    1.0000 </r>
       <r>   10.3592    1.0000 </r>
       <r>   11.0659    1.0000 </r>
       <r>   11.0659    1.0000 </r>
       <r>   12.4303    1.0000 </r>
       <r>   12.4304    1.0000 </r>
       <r>   35.5849    0.0000 </r>
       <r>   41.3749    0.0000 </r>
       <r>   45.4496    0.0000 </r>
       <r>   45.4497    0.0000 </r>
       <r>   51.0611    0.0000 </r>
       <r>   51.9753    0.0000 </r>
      </set>
      <set comment="kpoint 4">
       <r>    5.9592    1.0000 </r>
       <r>   10.3098    1.0000 </r>
       <r>   11.0617    1.0000 </r>
       <r>   11.0618    1.0000 </r>
       <r>   12.7078    1.0000 </r>
       <r>   12.7079    1.0000 </r>
       <r>   30.5473    0.0000 </r>
       <r>   40.3611    0.0000 </r>
       <r>   44.9162    0.0000 </r>
       <r>   44.9163    0.0000 </r>
       <r>   50.3946    0.0000 </r>
       <r>   50.3947    0.0000 </r>
      </set>
      <set comment="kpoint 5">
       <r>    7.0729    1.0000 </r>
       <r>   10.8849    1.0000 </r>
       <r>   10.8850    1.0000 </r>
       <r>   11.2349    1.0000 </r>
       <r>   13.1785    1.0000 </r>
       <r>   13.1786    1.0000 </r>
       <r>   25.9672    0.0000 </r>
       <r>   39.2757    0.0000 </r>
       <r>   44.4573    0.0000 </r>
       <r>   44.4573    0.0000 </r>
       <r>   48.5426    0.0000 </r>
       <r>   48.5426    0.0000 </r>
      </set>
      <set comment="kpoint 6">
       <r>    7.3721    1.0000 </r>
       <r>   10.7472    1.0000 </r>
       <r>   10.7473    1.0000 </r>
       <r>   12.9012    1.0000 </r>
       <r>   13.5129    1.0004 </r>
       <r>   13.5131    1.0004 </r>
       <r>   22.6818    0.0000 </r>
       <r>   38.6045    0.0000 </r>
       <r>   44.1471    0.0000 </r>
       <r>   44.1471    0.0000 </r>
       <r>   47.5126    0.0000 </r>
       <r>   47.5127    0.0000 </r>
      </set>
      <set comment="kpoint 7">
       <r>    3.4359    1.0000 </r>
       <r>   10.5286    1.0000 </r>
       <r>   10.9508    1.0000 </r>
       <r>   10.9509    1.0000 </r>
       <r>   12.2772    1.0000 </r>
       <r>   12.5803    1.0000 </r>
       <r>   39.8290    0.0000 </r>
       <r>   43.9251    0.0000 </r>
       <r>   44.1058    0.0000 </r>
       <r>   44.1058    0.0000 </r>
       <r>   53.0780    0.0000 </r>
       <r>   53.0782    0.0000 </r>
      </set>
      <set comment="kpoint 8">
       <r>    4.3169    1.0000 </r>
       <r>   10.2428    1.0000 </r>
       <r>   11.1472    1.0000 </r>
       <r>   11.1666    1.0000 </r>
       <r>   12.1091    1.0000 </r>
       <r>   12.6593    1.0000 </r>
       <r>   37.4475    0.0000 </r>
       <r>   40.8486    0.0000 </r>
       <r>   42.5217    0.0000 </r>
       <r>   45.3444    0.0000 </r>
       <r>   51.1617    0.0000 </r>
       <r>   54.0468    0.0000 </r>
      </set>
      <set comment="kpoint 9">
       <r>    5.7411    1.0000 </r>
       <r>   10.0166    1.0000 </r>
       <r>   11.0821    1.0000 </r>
       <r>   11.2629    1.0000 </r>
       <r>   12.4176    1.0000 </r>
       <r>   12.8896    1.0000 </r>
       <r>   32.4235    0.0000 </r>
       <r>   39.8321    0.0000 </r>
       <r>   41.4797    0.0000 </r>
       <r>   45.9254    0.0000 </r>
       <r>   49.6855    0.0000 </r>
       <r>   53.4728    0.0000 </r>
      </set>
      <set comment="kpoint 10">
       <r>    7.0731    1.0000 </r>
       <r>   10.3354    1.0000 </r>
       <r>   10.8086    1.0000 </r>
       <r>   11.1409    1.0000 </r>
       <r>   13.2687    1.0000 </r>
       <r>   13.2862    1.0000 </r>
       <r>   27.5894    0.0000 </r>
       <r>   38.7678    0.0000 </r>
       <r>   40.9993    0.0000 </r>
       <r>   44.3588    0.0000 </r>
       <r>   49.7526    0.0000 </r>
       <r>   52.0994    0.0000 </r>
      </set>
      <set comment="kpoint 11">
       <r>    7.5719    1.0000 </r>
       <r>   10.5363    1.0000 </r>
       <r>   10.9732    1.0000 </r>
       <r>   11.4443    1.0000 </r>
       <r>   13.5561    1.0011 </r>
       <r>   14.5178   -0.0027 </r>
       <r>   23.6311    0.0000 </r>
       <r>   37.8569    0.0000 </r>
       <r>   41.2162    0.0000 </r>
       <r>   42.6332    0.0000 </r>
       <r>   49.7693    0.0000 </r>
       <r>   50.5108    0.0000 </r>
      </set>
      <set comment="kpoint 12">
       <r>    7.6349    1.0000 </r>
       <r>   10.5059    1.0000 </r>
       <r>   10.9021    1.0000 </r>
       <r>   11.9006    1.0000 </r>
       <r>   13.4933    1.0002 </r>
       <r>   15.2548   -0.0000 </r>
       <r>   22.2517    0.0000 </r>
       <r>   37.3388    0.0000 </r>
       <r>   41.7381    0.0000 </r>
       <r>   42.2998    0.0000 </r>
       <r>   49.3888    0.0000 </r>
       <r>   49.9515    0.0000 </r>
      </set>
      <set comment="kpoint 13">
       <r>    7.5019    1.0000 </r>
       <r>   10.6549    1.0000 </r>
       <r>   10.9791    1.0000 </r>
       <r>   11.1623    1.0000 </r>
       <r>   13.0847    1.0000 </r>
       <r>   14.3563   -0.0281 </r>
       <r>   24.8056    0.0000 </r>
       <r>   37.2629    0.0000 </r>
       <r>   41.9214    0.0000 </r>
       <r>   44.3019    0.0000 </r>
       <r>   48.7487    0.0000 </r>
       <r>   50.0335    0.0000 </r>
      </set>
      <set comment="kpoint 14">
       <r>    6.7207    1.0000 </r>
       <r>   10.2064    1.0000 </r>
       <r>   10.9076    1.0000 </r>
       <r>   11.1691    1.0000 </r>
       <r>   12.5069    1.0000 </r>
       <r>   13.4948    1.0002 </r>
       <r>   29.1514    0.0000 </r>
       <r>   37.6079    0.0000 </r>
       <r>   43.1198    0.0000 </r>
       <r>   47.0260    0.0000 </r>
       <r>   48.6137    0.0000 </r>
       <r>   49.1918    0.0000 </r>
      </set>
      <set comment="kpoint 15">
       <r>    5.2374    1.0000 </r>
       <r>   10.1263    1.0000 </r>
       <r>   11.0955    1.0000 </r>
       <r>   11.2592    1.0000 </r>
       <r>   12.1184    1.0000 </r>
       <r>   12.8873    1.0000 </r>
       <r>   34.1199    0.0000 </r>
       <r>   38.3233    0.0000 </r>
       <r>   44.6888    0.0000 </r>
       <r>   48.0185    0.0000 </r>
       <r>   48.1317    0.0000 </r>
       <r>   50.5305    0.0000 </r>
      </set>
      <set comment="kpoint 16">
       <r>    3.9472    1.0000 </r>
       <r>   10.4142    1.0000 </r>
       <r>   11.0302    1.0000 </r>
       <r>   11.0404    1.0000 </r>
       <r>   12.2303    1.0000 </r>
       <r>   12.5830    1.0000 </r>
       <r>   38.3905    0.0000 </r>
       <r>   40.1425    0.0000 </r>
       <r>   44.7641    0.0000 </r>
       <r>   47.6824    0.0000 </r>
       <r>   49.1882    0.0000 </r>
       <r>   51.6163    0.0000 </r>
      </set>
      <set comment="kpoint 17">
       <r>    4.9045    1.0000 </r>
       <r>    9.9046    1.0000 </r>
       <r>   11.4753    1.0000 </r>
       <r>   11.4753    1.0000 </r>
       <r>   11.7645    1.0000 </r>
       <r>   12.8080    1.0000 </r>
       <r>   39.1785    0.0000 </r>
       <r>   40.2577    0.0000 </r>
       <r>   40.2577    0.0000 </r>
       <r>   40.3788    0.0000 </r>
       <r>   50.3888    0.0000 </r>
       <r>   56.1347    0.0000 </r>
      </set>
      <set comment="kpoint 18">
       <r>    6.0464    1.0000 </r>
       <r>    9.5614    1.0000 </r>
       <r>   11.2238    1.0000 </r>
       <r>   11.7298    1.0000 </r>
       <r>   12.2801    1.0000 </r>
       <r>   13.0101    1.0000 </r>
       <r>   34.7540    0.0000 </r>
       <r>   38.5754    0.0000 </r>
       <r>   38.6705    0.0000 </r>
       <r>   41.6558    0.0000 </r>
       <r>   48.9011    0.0000 </r>
       <r>   55.6755    0.0000 </r>
      </set>
      <set comment="kpoint 19">
       <r>    7.3278    1.0000 </r>
       <r>    9.4535    1.0000 </r>
       <r>   10.7926    1.0000 </r>
       <r>   11.7107    1.0000 </r>
       <r>   13.3629    1.0000 </r>
       <r>   13.5260    1.0005 </r>
       <r>   29.7296    0.0000 </r>
       <r>   36.9422    0.0000 </r>
       <r>   37.8650    0.0000 </r>
       <r>   41.5825    0.0000 </r>
       <r>   50.9552    0.0000 </r>
       <r>   54.7231    0.0000 </r>
      </set>
      <set comment="kpoint 20">
       <r>    8.0314    1.0000 </r>
       <r>    9.7260    1.0000 </r>
       <r>   10.6739    1.0000 </r>
       <r>   11.5479    1.0000 </r>
       <r>   13.6095    1.0034 </r>
       <r>   15.4244   -0.0000 </r>
       <r>   25.2579    0.0000 </r>
       <r>   35.2622    0.0000 </r>
       <r>   37.9529    0.0000 </r>
       <r>   40.9481    0.0000 </r>
       <r>   53.5644    0.0000 </r>
       <r>   54.4806    0.0000 </r>
      </set>
      <set comment="kpoint 21">
       <r>    8.2255    1.0000 </r>
       <r>    9.8544    1.0000 </r>
       <r>   10.9252    1.0000 </r>
       <r>   11.4122    1.0000 </r>
       <r>   13.5072    1.0003 </r>
       <r>   17.3308   -0.0000 </r>
       <r>   22.3848    0.0000 </r>
       <r>   33.8869    0.0000 </r>
       <r>   39.0063    0.0000 </r>
       <r>   40.6452    0.0000 </r>
       <r>   53.1172    0.0000 </r>
       <r>   53.1789    0.0000 </r>
      </set>
      <set comment="kpoint 22">
       <r>    8.2604    1.0000 </r>
       <r>   10.0598    1.0000 </r>
       <r>   10.6532    1.0000 </r>
       <r>   11.3976    1.0000 </r>
       <r>   13.0506    1.0000 </r>
       <r>   16.4664   -0.0000 </r>
       <r>   24.0749    0.0000 </r>
       <r>   33.0576    0.0000 </r>
       <r>   40.9936    0.0000 </r>
       <r>   41.0751    0.0000 </r>
       <r>   52.0336    0.0000 </r>
       <r>   52.4891    0.0000 </r>
      </set>
      <set comment="kpoint 23">
       <r>    7.8569    1.0000 </r>
       <r>    9.9333    1.0000 </r>
       <r>   10.4587    1.0000 </r>
       <r>   11.5291    1.0000 </r>
       <r>   12.3911    1.0000 </r>
       <r>   14.8474   -0.0000 </r>
       <r>   28.2420    0.0000 </r>
       <r>   32.8653    0.0000 </r>
       <r>   42.3695    0.0000 </r>
       <r>   43.6843    0.0000 </r>
       <r>   49.9639    0.0000 </r>
       <r>   52.2294    0.0000 </r>
      </set>
      <set comment="kpoint 24">
       <r>    6.5742    1.0000 </r>
       <r>    9.8403    1.0000 </r>
       <r>   10.8732    1.0000 </r>
       <r>   11.7178    1.0000 </r>
       <r>   11.8092    1.0000 </r>
       <r>   13.6886    1.0126 </r>
       <r>   32.7640    0.0000 </r>
       <r>   33.6390    0.0000 </r>
       <r>   44.4310    0.0000 </r>
       <r>   46.6236    0.0000 </r>
       <r>   47.4832    0.0000 </r>
       <r>   52.4396    0.0000 </r>
      </set>
      <set comment="kpoint 25">
       <r>    6.7044    1.0000 </r>
       <r>    9.1346    1.0000 </r>
       <r>   11.6693    1.0000 </r>
       <r>   12.2620    1.0000 </r>
       <r>   12.2620    1.0000 </r>
       <r>   13.1065    1.0000 </r>
       <r>   36.1788    0.0000 </r>
       <r>   36.5766    0.0000 </r>
       <r>   36.5766    0.0000 </r>
       <r>   38.5490    0.0000 </r>
       <r>   45.9901    0.0000 </r>
       <r>   60.2029    0.0000 </r>
      </set>
      <set comment="kpoint 26">
       <r>    7.4458    1.0000 </r>
       <r>    8.8599    1.0000 </r>
       <r>   11.5400    1.0000 </r>
       <r>   12.4647    1.0000 </r>
       <r>   13.3878    1.0000 </r>
       <r>   13.5340    1.0007 </r>
       <r>   32.1436    0.0000 </r>
       <r>   34.2451    0.0000 </r>
       <r>   35.3541    0.0000 </r>
       <r>   39.7913    0.0000 </r>
       <r>   46.2635    0.0000 </r>
       <r>   60.3271    0.0000 </r>
      </set>
      <set comment="kpoint 27">
       <r>    8.0310    1.0000 </r>
       <r>    8.8660    1.0000 </r>
       <r>   11.1953    1.0000 </r>
       <r>   12.3477    1.0000 </r>
       <r>   13.6488    1.0068 </r>
       <r>   15.8553   -0.0000 </r>
       <r>   27.5701    0.0000 </r>
       <r>   31.9971    0.0000 </r>
       <r>   35.1405    0.0000 </r>
       <r>   40.2145    0.0000 </r>
       <r>   49.5952    0.0000 </r>
       <r>   58.7442    0.0000 </r>
      </set>
      <set comment="kpoint 28">
       <r>    8.4591    1.0000 </r>
       <r>    9.0813    1.0000 </r>
       <r>   10.8595    1.0000 </r>
       <r>   12.1632    1.0000 </r>
       <r>   13.5542    1.0011 </r>
       <r>   18.7695   -0.0000 </r>
       <r>   23.5820    0.0000 </r>
       <r>   30.2329    0.0000 </r>
       <r>   36.0180    0.0000 </r>
       <r>   40.1835    0.0000 </r>
       <r>   54.2142    0.0000 </r>
       <r>   57.0747    0.0000 </r>
      </set>
      <set comment="kpoint 29">
       <r>    8.8658    1.0000 </r>
       <r>    9.3460    1.0000 </r>
       <r>   10.4108    1.0000 </r>
       <r>   12.0117    1.0000 </r>
       <r>   13.1141    1.0000 </r>
       <r>   19.1213   -0.0000 </r>
       <r>   23.4772    0.0000 </r>
       <r>   29.1040    0.0000 </r>
       <r>   37.8960    0.0000 </r>
       <r>   40.4768    0.0000 </r>
       <r>   55.4486    0.0000 </r>
       <r>   55.7935    0.0000 </r>
      </set>
      <set comment="kpoint 30">
       <r>    8.8385    1.0000 </r>
       <r>    9.8459    1.0000 </r>
       <r>    9.8819    1.0000 </r>
       <r>   11.8679    1.0000 </r>
       <r>   12.5856    1.0000 </r>
       <r>   16.7317   -0.0000 </r>
       <r>   26.9721    0.0000 </r>
       <r>   29.2118    0.0000 </r>
       <r>   40.5396    0.0000 </r>
       <r>   41.2566    0.0000 </r>
       <r>   52.6594    0.0000 </r>
       <r>   54.6410    0.0000 </r>
      </set>
      <set comment="kpoint 31">
       <r>    7.4503    1.0000 </r>
       <r>    8.4753    1.0000 </r>
       <r>   13.1247    1.0000 </r>
       <r>   13.1248    1.0000 </r>
       <r>   13.3912    1.0000 </r>
       <r>   13.4199    1.0000 </r>
       <r>   31.1678    0.0000 </r>
       <r>   33.6667    0.0000 </r>
       <r>   33.6667    0.0000 </r>
       <r>   38.2081    0.0000 </r>
       <r>   44.1489    0.0000 </r>
       <r>   63.2659    0.0000 </r>
      </set>
      <set comment="kpoint 32">
       <r>    7.5922    1.0000 </r>
       <r>    8.3494    1.0000 </r>
       <r>   12.6434    1.0000 </r>
       <r>   13.1418    1.0000 </r>
       <r>   13.6636    1.0087 </r>
       <r>   15.8643   -0.0000 </r>
       <r>   28.7841    0.0000 </r>
       <r>   30.6427    0.0000 </r>
       <r>   33.0495    0.0000 </r>
       <r>   39.2170    0.0000 </r>
       <r>   45.2218    0.0000 </r>
       <r>   62.9537    0.0000 </r>
      </set>
      <set comment="kpoint 33">
       <r>    7.9377    1.0000 </r>
       <r>    8.5246    1.0000 </r>
       <r>   11.8800    1.0000 </r>
       <r>   12.9457    1.0000 </r>
       <r>   13.6351    1.0054 </r>
       <r>   18.8777   -0.0000 </r>
       <r>   25.9240    0.0000 </r>
       <r>   27.7773    0.0000 </r>
       <r>   33.6496    0.0000 </r>
       <r>   39.8651    0.0000 </r>
       <r>   49.0305    0.0000 </r>
       <r>   60.7946    0.0000 </r>
      </set>
      <set comment="kpoint 34">
       <r>    8.4699    1.0000 </r>
       <r>    8.9044    1.0000 </r>
       <r>   11.0116    1.0000 </r>
       <r>   12.5936    1.0000 </r>
       <r>   13.3331    1.0000 </r>
       <r>   21.8480    0.0000 </r>
       <r>   22.3278    0.0000 </r>
       <r>   27.1452    0.0000 </r>
       <r>   35.3558    0.0000 </r>
       <r>   40.1149    0.0000 </r>
       <r>   54.1711    0.0000 </r>
       <r>   58.4932    0.0000 </r>
      </set>
      <set comment="kpoint 35">
       <r>    7.3601    1.0000 </r>
       <r>    8.1005    1.0000 </r>
       <r>   13.5635    1.0013 </r>
       <r>   13.7217    1.0193 </r>
       <r>   13.7218    1.0193 </r>
       <r>   16.1965   -0.0000 </r>
       <r>   26.9274    0.0000 </r>
       <r>   32.0035    0.0000 </r>
       <r>   32.0035    0.0000 </r>
       <r>   38.0311    0.0000 </r>
       <r>   43.6344    0.0000 </r>
       <r>   62.9615    0.0000 </r>
      </set>
      <set comment="kpoint 36">
       <r>    7.4846    1.0000 </r>
       <r>    8.1652    1.0000 </r>
       <r>   13.1096    1.0000 </r>
       <r>   13.4410    1.0001 </r>
       <r>   13.7522    1.0262 </r>
       <r>   17.7278   -0.0000 </r>
       <r>   26.1332    0.0000 </r>
       <r>   29.8118    0.0000 </r>
       <r>   32.2148    0.0000 </r>
       <r>   39.0561    0.0000 </r>
       <r>   44.9434    0.0000 </r>
       <r>   62.5408    0.0000 </r>
      </set>
      <set comment="kpoint 37">
       <r>    5.3574    1.0000 </r>
       <r>    9.9197    1.0000 </r>
       <r>   11.1485    1.0000 </r>
       <r>   11.4949    1.0000 </r>
       <r>   12.0059    1.0000 </r>
       <r>   12.9446    1.0000 </r>
       <r>   35.9766    0.0000 </r>
       <r>   36.7319    0.0000 </r>
       <r>   43.3889    0.0000 </r>
       <r>   43.8768    0.0000 </r>
       <r>   51.6576    0.0000 </r>
       <r>   52.0725    0.0000 </r>
      </set>
      <set comment="kpoint 38">
       <r>    6.7789    1.0000 </r>
       <r>    9.7303    1.0000 </r>
       <r>   10.8106    1.0000 </r>
       <r>   11.6053    1.0000 </r>
       <r>   12.3800    1.0000 </r>
       <r>   13.6176    1.0039 </r>
       <r>   31.1985    0.0000 </r>
       <r>   35.5599    0.0000 </r>
       <r>   41.2433    0.0000 </r>
       <r>   44.9767    0.0000 </r>
       <r>   50.1461    0.0000 </r>
       <r>   52.3516    0.0000 </r>
      </set>
      <set comment="kpoint 39">
       <r>    7.8091    1.0000 </r>
       <r>   10.0622    1.0000 </r>
       <r>   10.5043    1.0000 </r>
       <r>   11.4312    1.0000 </r>
       <r>   13.0453    1.0000 </r>
       <r>   14.7646   -0.0000 </r>
       <r>   26.5107    0.0000 </r>
       <r>   35.2163    0.0000 </r>
       <r>   39.2807    0.0000 </r>
       <r>   44.2701    0.0000 </r>
       <r>   49.5987    0.0000 </r>
       <r>   53.6998    0.0000 </r>
      </set>
      <set comment="kpoint 40">
       <r>    8.0577    1.0000 </r>
       <r>   10.0855    1.0000 </r>
       <r>   10.9872    1.0000 </r>
       <r>   11.2876    1.0000 </r>
       <r>   13.4312    1.0000 </r>
       <r>   16.4118   -0.0000 </r>
       <r>   22.9160    0.0000 </r>
       <r>   35.2733    0.0000 </r>
       <r>   38.0252    0.0000 </r>
       <r>   43.3724    0.0000 </r>
       <r>   49.5118    0.0000 </r>
       <r>   54.1379    0.0000 </r>
      </set>
      <set comment="kpoint 41">
       <r>    7.0902    1.0000 </r>
       <r>    9.2517    1.0000 </r>
       <r>   10.9572    1.0000 </r>
       <r>   12.2631    1.0000 </r>
       <r>   12.5123    1.0000 </r>
       <r>   13.5966    1.0026 </r>
       <r>   33.4617    0.0000 </r>
       <r>   33.8291    0.0000 </r>
       <r>   37.8043    0.0000 </r>
       <r>   42.2761    0.0000 </r>
       <r>   48.1447    0.0000 </r>
       <r>   55.5249    0.0000 </r>
      </set>
      <set comment="kpoint 42">
       <r>    8.0453    1.0000 </r>
       <r>    9.1991    1.0000 </r>
       <r>   10.5902    1.0000 </r>
       <r>   12.2150    1.0000 </r>
       <r>   13.1264    1.0000 </r>
       <r>   15.0438   -0.0000 </r>
       <r>   28.7820    0.0000 </r>
       <r>   33.0756    0.0000 </r>
       <r>   35.5992    0.0000 </r>
       <r>   43.2548    0.0000 </r>
       <r>   49.8847    0.0000 </r>
       <r>   54.5817    0.0000 </r>
      </set>
      <set comment="kpoint 43">
       <r>    8.5072    1.0000 </r>
       <r>    9.3663    1.0000 </r>
       <r>   10.4795    1.0000 </r>
       <r>   11.9797    1.0000 </r>
       <r>   13.4673    1.0001 </r>
       <r>   17.3671   -0.0000 </r>
       <r>   24.5048    0.0000 </r>
       <r>   32.5262    0.0000 </r>
       <r>   34.4799    0.0000 </r>
       <r>   43.3034    0.0000 </r>
       <r>   51.4867    0.0000 </r>
       <r>   56.0616    0.0000 </r>
      </set>
      <set comment="kpoint 44">
       <r>    8.7404    1.0000 </r>
       <r>    9.4164    1.0000 </r>
       <r>   10.4796    1.0000 </r>
       <r>   11.8303    1.0000 </r>
       <r>   13.3726    1.0000 </r>
       <r>   18.8791   -0.0000 </r>
       <r>   22.6175    0.0000 </r>
       <r>   31.4648    0.0000 </r>
       <r>   35.2100    0.0000 </r>
       <r>   43.7297    0.0000 </r>
       <r>   50.9263    0.0000 </r>
       <r>   58.3767    0.0000 </r>
      </set>
      <set comment="kpoint 45">
       <r>    8.7197    1.0000 </r>
       <r>    9.6858    1.0000 </r>
       <r>   10.0323    1.0000 </r>
       <r>   11.9087    1.0000 </r>
       <r>   12.9311    1.0000 </r>
       <r>   16.8270   -0.0000 </r>
       <r>   25.8527    0.0000 </r>
       <r>   30.7889    0.0000 </r>
       <r>   36.8532    0.0000 </r>
       <r>   44.9750    0.0000 </r>
       <r>   49.5925    0.0000 </r>
       <r>   57.1763    0.0000 </r>
      </set>
      <set comment="kpoint 46">
       <r>    8.0283    1.0000 </r>
       <r>    9.5528    1.0000 </r>
       <r>   10.3209    1.0000 </r>
       <r>   12.0628    1.0000 </r>
       <r>   12.3177    1.0000 </r>
       <r>   14.9339   -0.0000 </r>
       <r>   29.9948    0.0000 </r>
       <r>   31.1705    0.0000 </r>
       <r>   39.0102    0.0000 </r>
       <r>   47.1626    0.0000 </r>
       <r>   47.3282    0.0000 </r>
       <r>   54.9471    0.0000 </r>
      </set>
      <set comment="kpoint 47">
       <r>    7.7984    1.0000 </r>
       <r>    8.6632    1.0000 </r>
       <r>   11.5715    1.0000 </r>
       <r>   13.1192    1.0000 </r>
       <r>   13.1487    1.0000 </r>
       <r>   15.1798   -0.0000 </r>
       <r>   30.9024    0.0000 </r>
       <r>   31.2347    0.0000 </r>
       <r>   32.8229    0.0000 </r>
       <r>   41.2090    0.0000 </r>
       <r>   46.4984    0.0000 </r>
       <r>   58.6695    0.0000 </r>
      </set>
      <set comment="kpoint 48">
       <r>    8.1591    1.0000 </r>
       <r>    8.7578    1.0000 </r>
       <r>   11.1928    1.0000 </r>
       <r>   12.7856    1.0000 </r>
       <r>   13.5557    1.0011 </r>
       <r>   17.7887   -0.0000 </r>
       <r>   26.9548    0.0000 </r>
       <r>   29.5513    0.0000 </r>
       <r>   32.0893    0.0000 </r>
       <r>   42.4174    0.0000 </r>
       <r>   49.4505    0.0000 </r>
       <r>   56.8094    0.0000 </r>
      </set>
      <set comment="kpoint 49">
       <r>    8.5900    1.0000 </r>
       <r>    9.0304    1.0000 </r>
       <r>   10.6808    1.0000 </r>
       <r>   12.4455    1.0000 </r>
       <r>   13.5007    1.0003 </r>
       <r>   20.9043    0.0000 </r>
       <r>   23.1807    0.0000 </r>
       <r>   28.1644    0.0000 </r>
       <r>   32.9972    0.0000 </r>
       <r>   43.0406    0.0000 </r>
       <r>   53.7262    0.0000 </r>
       <r>   55.3867    0.0000 </r>
      </set>
      <set comment="kpoint 50">
       <r>    9.1368    1.0000 </r>
       <r>    9.2285    1.0000 </r>
       <r>   10.0662    1.0000 </r>
       <r>   12.2177    1.0000 </r>
       <r>   13.1538    1.0000 </r>
       <r>   19.4620   -0.0000 </r>
       <r>   24.5555    0.0000 </r>
       <r>   27.9264    0.0000 </r>
       <r>   34.6884    0.0000 </r>
       <r>   43.9002    0.0000 </r>
       <r>   52.1502    0.0000 </r>
       <r>   58.9902    0.0000 </r>
      </set>
      <set comment="kpoint 51">
       <r>    7.6692    1.0000 </r>
       <r>    8.3261    1.0000 </r>
       <r>   12.4160    1.0000 </r>
       <r>   13.3068    1.0000 </r>
       <r>   13.7218    1.0193 </r>
       <r>   17.8060   -0.0000 </r>
       <r>   26.9975    0.0000 </r>
       <r>   29.8777    0.0000 </r>
       <r>   30.8842    0.0000 </r>
       <r>   40.7068    0.0000 </r>
       <r>   45.9984    0.0000 </r>
       <r>   61.0677    0.0000 </r>
      </set>
      <set comment="kpoint 52">
       <r>    8.0256    1.0000 </r>
       <r>    8.6081    1.0000 </r>
       <r>   11.6061    1.0000 </r>
       <r>   12.9369    1.0000 </r>
       <r>   13.7190    1.0187 </r>
       <r>   20.0621    0.0000 </r>
       <r>   25.6556    0.0000 </r>
       <r>   27.1959    0.0000 </r>
       <r>   31.3572    0.0000 </r>
       <r>   42.2078    0.0000 </r>
       <r>   49.3628    0.0000 </r>
       <r>   58.1903    0.0000 </r>
      </set>
      <set comment="kpoint 53">
       <r>    8.6300    1.0000 </r>
       <r>    9.2142    1.0000 </r>
       <r>   10.2019    1.0000 </r>
       <r>   12.5500    1.0000 </r>
       <r>   13.1173    1.0000 </r>
       <r>   17.2012   -0.0000 </r>
       <r>   27.7689    0.0000 </r>
       <r>   29.3422    0.0000 </r>
       <r>   33.1367    0.0000 </r>
       <r>   46.2376    0.0000 </r>
       <r>   48.9766    0.0000 </r>
       <r>   54.5294    0.0000 </r>
      </set>
      <set comment="kpoint 54">
       <r>    8.8612    1.0000 </r>
       <r>    9.3629    1.0000 </r>
       <r>   10.0305    1.0000 </r>
       <r>   12.3008    1.0000 </r>
       <r>   13.4710    1.0001 </r>
       <r>   19.9983    0.0000 </r>
       <r>   24.1441    0.0000 </r>
       <r>   29.2377    0.0000 </r>
       <r>   31.4158    0.0000 </r>
       <r>   46.9845    0.0000 </r>
       <r>   49.5977    0.0000 </r>
       <r>   56.3448    0.0000 </r>
      </set>
      <set comment="kpoint 55">
       <r>    8.3636    1.0000 </r>
       <r>    9.0013    1.0000 </r>
       <r>   10.7477    1.0000 </r>
       <r>   12.6473    1.0000 </r>
       <r>   13.7212    1.0192 </r>
       <r>   20.4134    0.0000 </r>
       <r>   26.4499    0.0000 </r>
       <r>   27.1125    0.0000 </r>
       <r>   29.4447    0.0000 </r>
       <r>   45.6040    0.0000 </r>
       <r>   50.6743    0.0000 </r>
       <r>   54.5255    0.0000 </r>
      </set>
      <set comment="kpoint 56">
       <r>    8.6221    1.0000 </r>
       <r>    9.4554    1.0000 </r>
       <r>   10.1152    1.0000 </r>
       <r>   12.3839    1.0000 </r>
       <r>   13.7213    1.0192 </r>
       <r>   23.0956    0.0000 </r>
       <r>   23.1821    0.0000 </r>
       <r>   26.9612    0.0000 </r>
       <r>   29.6784    0.0000 </r>
       <r>   47.3862    0.0000 </r>
       <r>   51.5059    0.0000 </r>
       <r>   54.4307    0.0000 </r>
      </set>
     </set>
     <set comment="spin 2">
      <set comment="kpoint 1">
       <r>    2.8954    1.0000 </r>
       <r>   11.4274    1.0000 </r>
       <r>   11.4274    1.0000 </r>
       <r>   11.4275    1.0000 </r>
       <r>   13.0790    1.0000 </r>
       <r>   13.0790    1.0000 </r>
       <r>   40.0767    0.0000 </r>
       <r>   46.3228    0.0000 </r>
       <r>   46.3230    0.0000 </r>
       <r>   46.3230    0.0000 </r>
       <r>   51.7771    0.0000 </r>
       <r>   51.7773    0.0000 </r>
      </set>
      <set comment="kpoint 2">
       <r>    3.2955    1.0000 </r>
       <r>   11.2818    1.0000 </r>
       <r>   11.5325    1.0000 </r>
       <r>   11.5326    1.0000 </r>
       <r>   13.0305    1.0000 </r>
       <r>   13.0305    1.0000 </r>
       <r>   39.5085    0.0000 </r>
       <r>   43.0631    0.0000 </r>
       <r>   46.0498    0.0000 </r>
       <r>   46.0501    0.0000 </r>
       <r>   51.4037    0.0000 </r>
       <r>   52.0530    0.0000 </r>
      </set>
      <set comment="kpoint 3">
       <r>    4.4275    1.0000 </r>
       <r>   10.9637    1.0000 </r>
       <r>   11.7159    1.0000 </r>
       <r>   11.7159    1.0000 </r>
       <r>   13.0195    1.0000 </r>
       <r>   13.0196    1.0000 </r>
       <r>   35.6803    0.0000 </r>
       <r>   41.2909    0.0000 </r>
       <r>   45.5042    0.0000 </r>
       <r>   45.5044    0.0000 </r>
       <r>   51.0525    0.0000 </r>
       <r>   52.0039    0.0000 </r>
      </set>
      <set comment="kpoint 4">
       <r>    6.0101    1.0000 </r>
       <r>   10.8145    1.0000 </r>
       <r>   11.6733    1.0000 </r>
       <r>   11.6733    1.0000 </r>
       <r>   13.3418    1.0000 </r>
       <r>   13.3419    1.0000 </r>
       <r>   30.7201    0.0000 </r>
       <r>   40.2759    0.0000 </r>
       <r>   45.0065    0.0000 </r>
       <r>   45.0067    0.0000 </r>
       <r>   50.4299    0.0000 </r>
       <r>   50.4299    0.0000 </r>
      </set>
      <set comment="kpoint 5">
       <r>    7.3016    1.0000 </r>
       <r>   11.4658    1.0000 </r>
       <r>   11.4659    1.0000 </r>
       <r>   11.4901    1.0000 </r>
       <r>   13.8537    1.0274 </r>
       <r>   13.8538    1.0274 </r>
       <r>   26.2269    0.0000 </r>
       <r>   39.1820    0.0000 </r>
       <r>   44.5594    0.0000 </r>
       <r>   44.5595    0.0000 </r>
       <r>   48.5858    0.0000 </r>
       <r>   48.5861    0.0000 </r>
      </set>
      <set comment="kpoint 6">
       <r>    7.7354    1.0000 </r>
       <r>   11.3145    1.0000 </r>
       <r>   11.3145    1.0000 </r>
       <r>   12.9186    1.0000 </r>
       <r>   14.2104    0.0210 </r>
       <r>   14.2106    0.0208 </r>
       <r>   23.0529    0.0000 </r>
       <r>   38.5039    0.0000 </r>
       <r>   44.2429    0.0000 </r>
       <r>   44.2430    0.0000 </r>
       <r>   47.5662    0.0000 </r>
       <r>   47.5666    0.0000 </r>
      </set>
      <set comment="kpoint 7">
       <r>    3.4273    1.0000 </r>
       <r>   11.1694    1.0000 </r>
       <r>   11.6106    1.0000 </r>
       <r>   11.6106    1.0000 </r>
       <r>   12.8466    1.0000 </r>
       <r>   13.1634    1.0000 </r>
       <r>   39.7719    0.0000 </r>
       <r>   43.8756    0.0000 </r>
       <r>   44.1495    0.0000 </r>
       <r>   44.1496    0.0000 </r>
       <r>   53.0920    0.0000 </r>
       <r>   53.0925    0.0000 </r>
      </set>
      <set comment="kpoint 8">
       <r>    4.3128    1.0000 </r>
       <r>   10.8606    1.0000 </r>
       <r>   11.8006    1.0000 </r>
       <r>   11.8260    1.0000 </r>
       <r>   12.6771    1.0000 </r>
       <r>   13.2500    1.0000 </r>
       <r>   37.5132    0.0000 </r>
       <r>   40.8077    0.0000 </r>
       <r>   42.5987    0.0000 </r>
       <r>   45.3347    0.0000 </r>
       <r>   51.2278    0.0000 </r>
       <r>   54.0384    0.0000 </r>
      </set>
      <set comment="kpoint 9">
       <r>    5.7660    1.0000 </r>
       <r>   10.5805    1.0000 </r>
       <r>   11.6797    1.0000 </r>
       <r>   11.8951    1.0000 </r>
       <r>   13.0287    1.0000 </r>
       <r>   13.5161    1.0004 </r>
       <r>   32.5683    0.0000 </r>
       <r>   39.7930    0.0000 </r>
       <r>   41.5748    0.0000 </r>
       <r>   45.9713    0.0000 </r>
       <r>   49.7325    0.0000 </r>
       <r>   53.5539    0.0000 </r>
      </set>
      <set comment="kpoint 10">
       <r>    7.2349    1.0000 </r>
       <r>   10.7447    1.0000 </r>
       <r>   11.3822    1.0000 </r>
       <r>   11.7387    1.0000 </r>
       <r>   13.8728    1.0160 </r>
       <r>   13.9559    0.8772 </r>
       <r>   27.8100    0.0000 </r>
       <r>   38.7242    0.0000 </r>
       <r>   41.0985    0.0000 </r>
       <r>   44.4617    0.0000 </r>
       <r>   49.7717    0.0000 </r>
       <r>   52.1284    0.0000 </r>
      </set>
      <set comment="kpoint 11">
       <r>    7.9166    1.0000 </r>
       <r>   11.0308    1.0000 </r>
       <r>   11.5497    1.0000 </r>
       <r>   11.8005    1.0000 </r>
       <r>   14.2526   -0.0218 </r>
       <r>   14.9939   -0.0000 </r>
       <r>   23.9526    0.0000 </r>
       <r>   37.8148    0.0000 </r>
       <r>   41.3115    0.0000 </r>
       <r>   42.7270    0.0000 </r>
       <r>   49.8008    0.0000 </r>
       <r>   50.5587    0.0000 </r>
      </set>
      <set comment="kpoint 12">
       <r>    8.0207    1.0000 </r>
       <r>   11.0201    1.0000 </r>
       <r>   11.4703    1.0000 </r>
       <r>   12.2363    1.0000 </r>
       <r>   14.1938    0.0485 </r>
       <r>   15.6393   -0.0000 </r>
       <r>   22.6364    0.0000 </r>
       <r>   37.3154    0.0000 </r>
       <r>   41.8017    0.0000 </r>
       <r>   42.3930    0.0000 </r>
       <r>   49.4490    0.0000 </r>
       <r>   49.9861    0.0000 </r>
      </set>
      <set comment="kpoint 13">
       <r>    7.7995    1.0000 </r>
       <r>   11.1664    1.0000 </r>
       <r>   11.5029    1.0000 </r>
       <r>   11.5521    1.0000 </r>
       <r>   13.7679    1.0297 </r>
       <r>   14.9230   -0.0000 </r>
       <r>   25.0912    0.0000 </r>
       <r>   37.2706    0.0000 </r>
       <r>   41.9558    0.0000 </r>
       <r>   44.3975    0.0000 </r>
       <r>   48.8150    0.0000 </r>
       <r>   50.0579    0.0000 </r>
      </set>
      <set comment="kpoint 14">
       <r>    6.8172    1.0000 </r>
       <r>   10.6846    1.0000 </r>
       <r>   11.4848    1.0000 </r>
       <r>   11.7650    1.0000 </r>
       <r>   13.1530    1.0000 </r>
       <r>   14.1316    0.2124 </r>
       <r>   29.3466    0.0000 </r>
       <r>   37.6402    0.0000 </r>
       <r>   43.1345    0.0000 </r>
       <r>   47.1008    0.0000 </r>
       <r>   48.6956    0.0000 </r>
       <r>   49.1940    0.0000 </r>
      </set>
      <set comment="kpoint 15">
       <r>    5.2464    1.0000 </r>
       <r>   10.7152    1.0000 </r>
       <r>   11.7109    1.0000 </r>
       <r>   11.9113    1.0000 </r>
       <r>   12.7003    1.0000 </r>
       <r>   13.5061    1.0003 </r>
       <r>   34.2424    0.0000 </r>
       <r>   38.3578    0.0000 </r>
       <r>   44.6792    0.0000 </r>
       <r>   48.0158    0.0000 </r>
       <r>   48.1321    0.0000 </r>
       <r>   50.6445    0.0000 </r>
      </set>
      <set comment="kpoint 16">
       <r>    3.9408    1.0000 </r>
       <r>   11.0416    1.0000 </r>
       <r>   11.6903    1.0000 </r>
       <r>   11.6952    1.0000 </r>
       <r>   12.7980    1.0000 </r>
       <r>   13.1720    1.0000 </r>
       <r>   38.4221    0.0000 </r>
       <r>   40.1601    0.0000 </r>
       <r>   44.7427    0.0000 </r>
       <r>   47.6583    0.0000 </r>
       <r>   49.2117    0.0000 </r>
       <r>   51.6961    0.0000 </r>
      </set>
      <set comment="kpoint 17">
       <r>    4.9048    1.0000 </r>
       <r>   10.5107    1.0000 </r>
       <r>   12.1487    1.0000 </r>
       <r>   12.1487    1.0000 </r>
       <r>   12.2956    1.0000 </r>
       <r>   13.3972    1.0000 </r>
       <r>   39.2066    0.0000 </r>
       <r>   40.3457    0.0000 </r>
       <r>   40.3460    0.0000 </r>
       <r>   40.3461    0.0000 </r>
       <r>   50.6295    0.0000 </r>
       <r>   56.1055    0.0000 </r>
      </set>
      <set comment="kpoint 18">
       <r>    6.0711    1.0000 </r>
       <r>   10.1427    1.0000 </r>
       <r>   11.7765    1.0000 </r>
       <r>   12.3931    1.0000 </r>
       <r>   12.9005    1.0000 </r>
       <r>   13.6231    1.0043 </r>
       <r>   34.8657    0.0000 </r>
       <r>   38.5933    0.0000 </r>
       <r>   38.7646    0.0000 </r>
       <r>   41.7082    0.0000 </r>
       <r>   49.1123    0.0000 </r>
       <r>   55.6541    0.0000 </r>
      </set>
      <set comment="kpoint 19">
       <r>    7.4467    1.0000 </r>
       <r>    9.9729    1.0000 </r>
       <r>   11.3260    1.0000 </r>
       <r>   12.3358    1.0000 </r>
       <r>   14.0257    0.6364 </r>
       <r>   14.0968    0.3411 </r>
       <r>   29.9026    0.0000 </r>
       <r>   36.9844    0.0000 </r>
       <r>   37.9585    0.0000 </r>
       <r>   41.6765    0.0000 </r>
       <r>   51.0924    0.0000 </r>
       <r>   54.7168    0.0000 </r>
      </set>
      <set comment="kpoint 20">
       <r>    8.3526    1.0000 </r>
       <r>   10.1227    1.0000 </r>
       <r>   11.1995    1.0000 </r>
       <r>   12.1432    1.0000 </r>
       <r>   14.3060   -0.0354 </r>
       <r>   15.8724   -0.0000 </r>
       <r>   25.5053    0.0000 </r>
       <r>   35.3298    0.0000 </r>
       <r>   38.0439    0.0000 </r>
       <r>   41.0279    0.0000 </r>
       <r>   53.5754    0.0000 </r>
       <r>   54.5103    0.0000 </r>
      </set>
      <set comment="kpoint 21">
       <r>    8.6421    1.0000 </r>
       <r>   10.2452    1.0000 </r>
       <r>   11.4159    1.0000 </r>
       <r>   11.9895    1.0000 </r>
       <r>   14.2142    0.0157 </r>
       <r>   17.6445   -0.0000 </r>
       <r>   22.7325    0.0000 </r>
       <r>   33.9776    0.0000 </r>
       <r>   39.0995    0.0000 </r>
       <r>   40.6913    0.0000 </r>
       <r>   53.1209    0.0000 </r>
       <r>   53.2222    0.0000 </r>
      </set>
      <set comment="kpoint 22">
       <r>    8.6283    1.0000 </r>
       <r>   10.4746    1.0000 </r>
       <r>   11.1229    1.0000 </r>
       <r>   11.9665    1.0000 </r>
       <r>   13.7485    1.0254 </r>
       <r>   16.8940   -0.0000 </r>
       <r>   24.3647    0.0000 </r>
       <r>   33.1644    0.0000 </r>
       <r>   41.0923    0.0000 </r>
       <r>   41.0940    0.0000 </r>
       <r>   52.0247    0.0000 </r>
       <r>   52.5393    0.0000 </r>
      </set>
      <set comment="kpoint 23">
       <r>    8.0219    1.0000 </r>
       <r>   10.4257    1.0000 </r>
       <r>   10.9809    1.0000 </r>
       <r>   12.0985    1.0000 </r>
       <r>   13.0702    1.0000 </r>
       <r>   15.4269   -0.0000 </r>
       <r>   28.4502    0.0000 </r>
       <r>   32.9806    0.0000 </r>
       <r>   42.3763    0.0000 </r>
       <r>   43.7811    0.0000 </r>
       <r>   49.9238    0.0000 </r>
       <r>   52.2925    0.0000 </r>
      </set>
      <set comment="kpoint 24">
       <r>    6.6132    1.0000 </r>
       <r>   10.4125    1.0000 </r>
       <r>   11.4356    1.0000 </r>
       <r>   12.3553    1.0000 </r>
       <r>   12.4083    1.0000 </r>
       <r>   14.3192   -0.0346 </r>
       <r>   32.9348    0.0000 </r>
       <r>   33.7235    0.0000 </r>
       <r>   44.4395    0.0000 </r>
       <r>   46.6878    0.0000 </r>
       <r>   47.4295    0.0000 </r>
       <r>   52.5023    0.0000 </r>
      </set>
      <set comment="kpoint 25">
       <r>    6.7727    1.0000 </r>
       <r>    9.7026    1.0000 </r>
       <r>   12.0872    1.0000 </r>
       <r>   12.9603    1.0000 </r>
       <r>   12.9604    1.0000 </r>
       <r>   13.7046    1.0156 </r>
       <r>   36.2283    0.0000 </r>
       <r>   36.6651    0.0000 </r>
       <r>   36.6653    0.0000 </r>
       <r>   38.6549    0.0000 </r>
       <r>   46.1997    0.0000 </r>
       <r>   60.1672    0.0000 </r>
      </set>
      <set comment="kpoint 26">
       <r>    7.6077    1.0000 </r>
       <r>    9.4070    1.0000 </r>
       <r>   11.9948    1.0000 </r>
       <r>   13.1304    1.0000 </r>
       <r>   14.0357    0.5957 </r>
       <r>   14.0933    0.3549 </r>
       <r>   32.2608    0.0000 </r>
       <r>   34.3551    0.0000 </r>
       <r>   35.4340    0.0000 </r>
       <r>   39.8921    0.0000 </r>
       <r>   46.4340    0.0000 </r>
       <r>   60.3281    0.0000 </r>
      </set>
      <set comment="kpoint 27">
       <r>    8.3167    1.0000 </r>
       <r>    9.3649    1.0000 </r>
       <r>   11.6827    1.0000 </r>
       <r>   12.9697    1.0000 </r>
       <r>   14.3472   -0.0301 </r>
       <r>   16.2743   -0.0000 </r>
       <r>   27.7417    0.0000 </r>
       <r>   32.1344    0.0000 </r>
       <r>   35.2163    0.0000 </r>
       <r>   40.3142    0.0000 </r>
       <r>   49.7284    0.0000 </r>
       <r>   58.7602    0.0000 </r>
      </set>
      <set comment="kpoint 28">
       <r>    8.8663    1.0000 </r>
       <r>    9.4914    1.0000 </r>
       <r>   11.3733    1.0000 </r>
       <r>   12.7547    1.0000 </r>
       <r>   14.2735   -0.0313 </r>
       <r>   19.0781   -0.0000 </r>
       <r>   23.8284    0.0000 </r>
       <r>   30.3893    0.0000 </r>
       <r>   36.1000    0.0000 </r>
       <r>   40.2670    0.0000 </r>
       <r>   54.3173    0.0000 </r>
       <r>   57.0993    0.0000 </r>
      </set>
      <set comment="kpoint 29">
       <r>    9.3268    1.0000 </r>
       <r>    9.6880    1.0000 </r>
       <r>   10.9290    1.0000 </r>
       <r>   12.5759    1.0000 </r>
       <r>   13.8387    1.0326 </r>
       <r>   19.4373   -0.0000 </r>
       <r>   23.7501    0.0000 </r>
       <r>   29.2698    0.0000 </r>
       <r>   37.9903    0.0000 </r>
       <r>   40.5317    0.0000 </r>
       <r>   55.4083    0.0000 </r>
       <r>   55.8226    0.0000 </r>
      </set>
      <set comment="kpoint 30">
       <r>    9.1152    1.0000 </r>
       <r>   10.2891    1.0000 </r>
       <r>   10.4118    1.0000 </r>
       <r>   12.4099    1.0000 </r>
       <r>   13.3088    1.0000 </r>
       <r>   17.1936   -0.0000 </r>
       <r>   27.2016    0.0000 </r>
       <r>   29.3625    0.0000 </r>
       <r>   40.6418    0.0000 </r>
       <r>   41.2839    0.0000 </r>
       <r>   52.6035    0.0000 </r>
       <r>   54.6743    0.0000 </r>
      </set>
      <set comment="kpoint 31">
       <r>    7.6893    1.0000 </r>
       <r>    9.0129    1.0000 </r>
       <r>   13.6066    1.0032 </r>
       <r>   13.8582    1.0253 </r>
       <r>   13.8582    1.0252 </r>
       <r>   13.9976    0.7449 </r>
       <r>   31.3194    0.0000 </r>
       <r>   33.7300    0.0000 </r>
       <r>   33.7301    0.0000 </r>
       <r>   38.3626    0.0000 </r>
       <r>   44.3257    0.0000 </r>
       <r>   64.5623    0.0000 </r>
      </set>
      <set comment="kpoint 32">
       <r>    7.8855    1.0000 </r>
       <r>    8.8748    1.0000 </r>
       <r>   13.1895    1.0000 </r>
       <r>   13.7860    1.0331 </r>
       <r>   14.3731   -0.0243 </r>
       <r>   16.1661   -0.0000 </r>
       <r>   28.9732    0.0000 </r>
       <r>   30.7478    0.0000 </r>
       <r>   33.1033    0.0000 </r>
       <r>   39.3501    0.0000 </r>
       <r>   45.3837    0.0000 </r>
       <r>   62.9750    0.0000 </r>
      </set>
      <set comment="kpoint 33">
       <r>    8.2748    1.0000 </r>
       <r>    9.0274    1.0000 </r>
       <r>   12.4147    1.0000 </r>
       <r>   13.5464    1.0009 </r>
       <r>   14.3784   -0.0231 </r>
       <r>   19.1368   -0.0000 </r>
       <r>   26.1010    0.0000 </r>
       <r>   27.9747    0.0000 </r>
       <r>   33.7098    0.0000 </r>
       <r>   39.9798    0.0000 </r>
       <r>   49.1734    0.0000 </r>
       <r>   60.8075    0.0000 </r>
      </set>
      <set comment="kpoint 34">
       <r>    8.8610    1.0000 </r>
       <r>    9.3530    1.0000 </r>
       <r>   11.5336    1.0000 </r>
       <r>   13.1594    1.0000 </r>
       <r>   14.0851    0.3885 </r>
       <r>   22.0912    0.0000 </r>
       <r>   22.5558    0.0000 </r>
       <r>   27.3598    0.0000 </r>
       <r>   35.4344    0.0000 </r>
       <r>   40.2043    0.0000 </r>
       <r>   54.3187    0.0000 </r>
       <r>   58.5081    0.0000 </r>
      </set>
      <set comment="kpoint 35">
       <r>    7.6688    1.0000 </r>
       <r>    8.6221    1.0000 </r>
       <r>   14.1751    0.0878 </r>
       <r>   14.4864   -0.0050 </r>
       <r>   14.4865   -0.0050 </r>
       <r>   16.2291   -0.0000 </r>
       <r>   27.1773    0.0000 </r>
       <r>   32.0397    0.0000 </r>
       <r>   32.0398    0.0000 </r>
       <r>   38.2108    0.0000 </r>
       <r>   43.8082    0.0000 </r>
       <r>   64.2965    0.0000 </r>
      </set>
      <set comment="kpoint 36">
       <r>    7.8043    1.0000 </r>
       <r>    8.6832    1.0000 </r>
       <r>   13.7337    1.0220 </r>
       <r>   14.0455    0.5549 </r>
       <r>   14.5200   -0.0026 </r>
       <r>   17.8740   -0.0000 </r>
       <r>   26.4032    0.0000 </r>
       <r>   29.8957    0.0000 </r>
       <r>   32.2543    0.0000 </r>
       <r>   39.2018    0.0000 </r>
       <r>   45.1110    0.0000 </r>
       <r>   63.7619    0.0000 </r>
      </set>
      <set comment="kpoint 37">
       <r>    5.3646    1.0000 </r>
       <r>   10.5165    1.0000 </r>
       <r>   11.7520    1.0000 </r>
       <r>   12.1724    1.0000 </r>
       <r>   12.5713    1.0000 </r>
       <r>   13.5592    1.0012 </r>
       <r>   36.0932    0.0000 </r>
       <r>   36.7850    0.0000 </r>
       <r>   43.4110    0.0000 </r>
       <r>   43.8758    0.0000 </r>
       <r>   51.8818    0.0000 </r>
       <r>   52.0583    0.0000 </r>
      </set>
      <set comment="kpoint 38">
       <r>    6.8377    1.0000 </r>
       <r>   10.2808    1.0000 </r>
       <r>   11.3704    1.0000 </r>
       <r>   12.2250    1.0000 </r>
       <r>   12.9993    1.0000 </r>
       <r>   14.2477   -0.0186 </r>
       <r>   31.3604    0.0000 </r>
       <r>   35.6449    0.0000 </r>
       <r>   41.2866    0.0000 </r>
       <r>   45.0093    0.0000 </r>
       <r>   50.1883    0.0000 </r>
       <r>   52.4400    0.0000 </r>
      </set>
      <set comment="kpoint 39">
       <r>    8.0515    1.0000 </r>
       <r>   10.4638    1.0000 </r>
       <r>   11.0599    1.0000 </r>
       <r>   12.0144    1.0000 </r>
       <r>   13.7103    1.0168 </r>
       <r>   15.3145   -0.0000 </r>
       <r>   26.7447    0.0000 </r>
       <r>   35.2923    0.0000 </r>
       <r>   39.3524    0.0000 </r>
       <r>   44.3212    0.0000 </r>
       <r>   49.6381    0.0000 </r>
       <r>   53.7157    0.0000 </r>
      </set>
      <set comment="kpoint 40">
       <r>    8.4490    1.0000 </r>
       <r>   10.5087    1.0000 </r>
       <r>   11.4500    1.0000 </r>
       <r>   11.8558    1.0000 </r>
       <r>   14.1315    0.2127 </r>
       <r>   16.7837   -0.0000 </r>
       <r>   23.2495    0.0000 </r>
       <r>   35.3285    0.0000 </r>
       <r>   38.1298    0.0000 </r>
       <r>   43.4048    0.0000 </r>
       <r>   49.5676    0.0000 </r>
       <r>   54.1456    0.0000 </r>
      </set>
      <set comment="kpoint 41">
       <r>    7.1690    1.0000 </r>
       <r>    9.8141    1.0000 </r>
       <r>   11.4781    1.0000 </r>
       <r>   12.9636    1.0000 </r>
       <r>   13.0640    1.0000 </r>
       <r>   14.2223    0.0052 </r>
       <r>   33.6100    0.0000 </r>
       <r>   33.9102    0.0000 </r>
       <r>   37.8853    0.0000 </r>
       <r>   42.3200    0.0000 </r>
       <r>   48.3232    0.0000 </r>
       <r>   55.5428    0.0000 </r>
      </set>
      <set comment="kpoint 42">
       <r>    8.2483    1.0000 </r>
       <r>    9.7144    1.0000 </r>
       <r>   11.0982    1.0000 </r>
       <r>   12.8197    1.0000 </r>
       <r>   13.7873    1.0332 </r>
       <r>   15.5677   -0.0000 </r>
       <r>   28.9589    0.0000 </r>
       <r>   33.1826    0.0000 </r>
       <r>   35.7065    0.0000 </r>
       <r>   43.3071    0.0000 </r>
       <r>   49.9881    0.0000 </r>
       <r>   54.6651    0.0000 </r>
      </set>
      <set comment="kpoint 43">
       <r>    8.8842    1.0000 </r>
       <r>    9.7747    1.0000 </r>
       <r>   10.9961    1.0000 </r>
       <r>   12.5621    1.0000 </r>
       <r>   14.1761    0.0855 </r>
       <r>   17.7399   -0.0000 </r>
       <r>   24.7513    0.0000 </r>
       <r>   32.6401    0.0000 </r>
       <r>   34.5975    0.0000 </r>
       <r>   43.3516    0.0000 </r>
       <r>   51.5155    0.0000 </r>
       <r>   56.2337    0.0000 </r>
      </set>
      <set comment="kpoint 44">
       <r>    9.1855    1.0000 </r>
       <r>    9.7800    1.0000 </r>
       <r>   10.9931    1.0000 </r>
       <r>   12.4007    1.0000 </r>
       <r>   14.0911    0.3641 </r>
       <r>   19.1706   -0.0000 </r>
       <r>   22.9323    0.0000 </r>
       <r>   31.5948    0.0000 </r>
       <r>   35.3191    0.0000 </r>
       <r>   43.7643    0.0000 </r>
       <r>   50.9573    0.0000 </r>
       <r>   58.3706    0.0000 </r>
      </set>
      <set comment="kpoint 45">
       <r>    9.0348    1.0000 </r>
       <r>   10.1109    1.0000 </r>
       <r>   10.5619    1.0000 </r>
       <r>   12.4688    1.0000 </r>
       <r>   13.6375    1.0056 </r>
       <r>   17.2657   -0.0000 </r>
       <r>   26.0883    0.0000 </r>
       <r>   30.9264    0.0000 </r>
       <r>   36.9490    0.0000 </r>
       <r>   45.0098    0.0000 </r>
       <r>   49.6076    0.0000 </r>
       <r>   57.2115    0.0000 </r>
      </set>
      <set comment="kpoint 46">
       <r>    8.1586    1.0000 </r>
       <r>   10.1001    1.0000 </r>
       <r>   10.8417    1.0000 </r>
       <r>   12.5972    1.0000 </r>
       <r>   13.0266    1.0000 </r>
       <r>   15.5065   -0.0000 </r>
       <r>   30.1931    0.0000 </r>
       <r>   31.2874    0.0000 </r>
       <r>   39.0848    0.0000 </r>
       <r>   47.2112    0.0000 </r>
       <r>   47.3271    0.0000 </r>
       <r>   55.1190    0.0000 </r>
      </set>
      <set comment="kpoint 47">
       <r>    8.0480    1.0000 </r>
       <r>    9.1980    1.0000 </r>
       <r>   12.0587    1.0000 </r>
       <r>   13.7126    1.0173 </r>
       <r>   13.8535    1.0275 </r>
       <r>   15.6357   -0.0000 </r>
       <r>   31.0284    0.0000 </r>
       <r>   31.3709    0.0000 </r>
       <r>   32.9314    0.0000 </r>
       <r>   41.2891    0.0000 </r>
       <r>   46.6582    0.0000 </r>
       <r>   58.7335    0.0000 </r>
      </set>
      <set comment="kpoint 48">
       <r>    8.4792    1.0000 </r>
       <r>    9.2683    1.0000 </r>
       <r>   11.7006    1.0000 </r>
       <r>   13.3753    1.0000 </r>
       <r>   14.2890   -0.0346 </r>
       <r>   18.1216   -0.0000 </r>
       <r>   27.1243    0.0000 </r>
       <r>   29.7224    0.0000 </r>
       <r>   32.1920    0.0000 </r>
       <r>   42.4880    0.0000 </r>
       <r>   49.5816    0.0000 </r>
       <r>   56.8661    0.0000 </r>
      </set>
      <set comment="kpoint 49">
       <r>    8.9637    1.0000 </r>
       <r>    9.4969    1.0000 </r>
       <r>   11.2000    1.0000 </r>
       <r>   13.0124    1.0000 </r>
       <r>   14.2472   -0.0183 </r>
       <r>   21.1617    0.0000 </r>
       <r>   23.4158    0.0000 </r>
       <r>   28.3528    0.0000 </r>
       <r>   33.1051    0.0000 </r>
       <r>   43.0984    0.0000 </r>
       <r>   53.7752    0.0000 </r>
       <r>   55.4785    0.0000 </r>
      </set>
      <set comment="kpoint 50">
       <r>    9.4794    1.0000 </r>
       <r>    9.6971    1.0000 </r>
       <r>   10.5875    1.0000 </r>
       <r>   12.7677    1.0000 </r>
       <r>   13.8958    0.9934 </r>
       <r>   19.7821    0.0000 </r>
       <r>   24.7895    0.0000 </r>
       <r>   28.1059    0.0000 </r>
       <r>   34.7980    0.0000 </r>
       <r>   43.9470    0.0000 </r>
       <r>   52.1448    0.0000 </r>
       <r>   59.1157    0.0000 </r>
      </set>
      <set comment="kpoint 51">
       <r>    7.9865    1.0000 </r>
       <r>    8.8462    1.0000 </r>
       <r>   12.9835    1.0000 </r>
       <r>   13.9016    0.9860 </r>
       <r>   14.4865   -0.0050 </r>
       <r>   18.0322   -0.0000 </r>
       <r>   27.2324    0.0000 </r>
       <r>   29.9890    0.0000 </r>
       <r>   30.9552    0.0000 </r>
       <r>   40.8085    0.0000 </r>
       <r>   46.1584    0.0000 </r>
       <r>   61.1138    0.0000 </r>
      </set>
      <set comment="kpoint 52">
       <r>    8.3638    1.0000 </r>
       <r>    9.1178    1.0000 </r>
       <r>   12.1458    1.0000 </r>
       <r>   13.5149    1.0004 </r>
       <r>   14.4842   -0.0052 </r>
       <r>   20.2835    0.0000 </r>
       <r>   25.8646    0.0000 </r>
       <r>   27.3850    0.0000 </r>
       <r>   31.4498    0.0000 </r>
       <r>   42.2839    0.0000 </r>
       <r>   49.5081    0.0000 </r>
       <r>   58.1789    0.0000 </r>
      </set>
      <set comment="kpoint 53">
       <r>    8.9101    1.0000 </r>
       <r>    9.7423    1.0000 </r>
       <r>   10.6935    1.0000 </r>
       <r>   13.0996    1.0000 </r>
       <r>   13.8538    1.0274 </r>
       <r>   17.6078   -0.0000 </r>
       <r>   27.9656    0.0000 </r>
       <r>   29.4778    0.0000 </r>
       <r>   33.2638    0.0000 </r>
       <r>   46.2616    0.0000 </r>
       <r>   49.0331    0.0000 </r>
       <r>   54.6975    0.0000 </r>
      </set>
      <set comment="kpoint 54">
       <r>    9.2066    1.0000 </r>
       <r>    9.8545    1.0000 </r>
       <r>   10.5427    1.0000 </r>
       <r>   12.8583    1.0000 </r>
       <r>   14.2171    0.0118 </r>
       <r>   20.2916    0.0000 </r>
       <r>   24.3789    0.0000 </r>
       <r>   29.3945    0.0000 </r>
       <r>   31.5527    0.0000 </r>
       <r>   47.0122    0.0000 </r>
       <r>   49.6237    0.0000 </r>
       <r>   56.5043    0.0000 </r>
      </set>
      <set comment="kpoint 55">
       <r>    8.7018    1.0000 </r>
       <r>    9.5188    1.0000 </r>
       <r>   11.2659    1.0000 </r>
       <r>   13.2099    1.0000 </r>
[...]
       </set>
       <set comment="band 5">
        <r>  0.0000  0.0047  0.0034  0.0002  0.1757  0.6531  0.0519  0.0109  0.0885 </r>
       </set>
       <set comment="band 6">
        <r>  0.1346  0.0137  0.1727  0.0828  0.0027  0.0012  0.1168  0.3721  0.1166 </r>
       </set>
       <set comment="band 7">
        <r>  0.1609  0.3585  0.0048  0.0400  0.2491  0.1503  0.0182  0.0522  0.0251 </r>
       </set>
       <set comment="band 8">
        <r>  0.1483  0.1819  0.0084  0.1009  0.0939  0.0468  0.1032  0.0860  0.1570 </r>
       </set>
       <set comment="band 9">
        <r>  0.1165  0.0095  0.3064  0.0091  0.0001  0.0060  0.3733  0.0413  0.0142 </r>
       </set>
       <set comment="band 10">
        <r>  0.0097  0.0128  0.0315  0.2765  0.0161  0.0002  0.0528  0.0628  0.1060 </r>
       </set>
       <set comment="band 11">
        <r>  0.0336  0.0525  0.0007  0.0004  0.4855  0.0459  0.0225  0.0632  0.1097 </r>
       </set>
       <set comment="band 12">
        <r>  0.0602  0.0230  0.0399  0.0720  0.0776  0.1651  0.2015  0.0007  0.0141 </r>
       </set>
      </set>
      <set comment="kpoint 46">
       <set comment="band 1">
        <r>  0.3997  0.0000  0.2260  0.1076  0.0000  0.0000  0.1088  0.1659  0.0100 </r>
       </set>
       <set comment="band 2">
        <r>  0.0000  0.0748  0.0000  0.0000  0.7563  0.1809  0.0000  0.0000  0.0000 </r>
       </set>
       <set comment="band 3">
        <r>  0.0093  0.0000  0.0004  0.0156  0.0000  0.0000  0.4240  0.3707  0.1647 </r>
       </set>
       <set comment="band 4">
        <r>  0.0063  0.0000  0.0307  0.0041  0.0000  0.0000  0.3347  0.0107  0.6008 </r>
       </set>
       <set comment="band 5">
        <r>  0.0000  0.0071  0.0000  0.0000  0.2069  0.7746  0.0000  0.0000  0.0000 </r>
       </set>
       <set comment="band 6">
        <r>  0.0923  0.0000  0.0801  0.0380  0.0000  0.0000  0.1186  0.4653  0.2122 </r>
       </set>
       <set comment="band 7">
        <r>  0.0000  0.4929  0.0000  0.0000  0.3767  0.2507  0.0000  0.0000  0.0000 </r>
       </set>
       <set comment="band 8">
        <r>  0.2153  0.0000  0.0324  0.1859  0.0000  0.0000  0.1023  0.1938  0.1142 </r>
       </set>
       <set comment="band 9">
        <r>  0.0868  0.0000  0.2723  0.0025  0.0000  0.0000  0.4424  0.0055  0.0075 </r>
       </set>
       <set comment="band 10">
        <r>  0.0009  0.0000  0.0414  0.2882  0.0000  0.0000  0.1283  0.0059  0.1762 </r>
       </set>
       <set comment="band 11">
        <r>  0.0000  0.1054  0.0000  0.0000  0.4806  0.0563  0.0000  0.0000  0.0000 </r>
       </set>
       <set comment="band 12">
        <r>  0.3295  0.0000  0.1668  0.1365  0.0000  0.0000  0.1792  0.1382  0.2212 </r>
       </set>
      </set>
      <set comment="kpoint 47">
       <set comment="band 1">
        <r>  0.1775  0.1160  0.0000  0.0253  0.0096  0.0000  0.1909  0.0000  0.4634 </r>
       </set>
       <set comment="band 2">
        <r>  0.0000  0.0000  0.0228  0.0000  0.0000  0.0111  0.0000  0.9856  0.0000 </r>
       </set>
       <set comment="band 3">
        <r>  0.0816  0.1945  0.0000  0.0026  0.5350  0.0000  0.1367  0.0000  0.0560 </r>
       </set>
       <set comment="band 4">
        <r>  0.0097  0.0434  0.0000  0.0063  0.0000  0.0000  0.5132  0.0000  0.4215 </r>
       </set>
       <set comment="band 5">
        <r>  0.0000  0.0000  0.0149  0.0000  0.0000  0.9611  0.0000  0.0148  0.0000 </r>
       </set>
       <set comment="band 6">
        <r>  0.1083  0.2480  0.0000  0.0199  0.4502  0.0000  0.1469  0.0000  0.0413 </r>
       </set>
       <set comment="band 7">
        <r>  0.0006  0.0875  0.0000  0.2156  0.0816  0.0000  0.2306  0.0000  0.3262 </r>
       </set>
       <set comment="band 8">
        <r>  0.0000  0.0000  0.5745  0.0000  0.0000  0.1183  0.0000  0.3164  0.0000 </r>
       </set>
       <set comment="band 9">
        <r>  0.2482  0.1474  0.0000  0.2645  0.0398  0.0000  0.0011  0.0000  0.1640 </r>
       </set>
       <set comment="band 10">
        <r>  0.0000  0.0000  0.0987  0.0000  0.0000  0.0254  0.0000  0.9621  0.0000 </r>
       </set>
       <set comment="band 11">
        <r>  0.3846  0.1106  0.0000  0.1732  0.0200  0.0000  0.0130  0.0000  0.0872 </r>
       </set>
       <set comment="band 12">
        <r>  0.2362  0.0006  0.0000  0.0356  0.1108  0.0000  0.0506  0.0000  0.2942 </r>
       </set>
      </set>
      <set comment="kpoint 48">
       <set comment="band 1">
        <r>  0.0768  0.0456  0.0013  0.0426  0.0075  0.0017  0.2665  0.0310  0.5018 </r>
       </set>
       <set comment="band 2">
        <r>  0.0007  0.0000  0.0543  0.0117  0.0040  0.0123  0.0115  0.9111  0.0158 </r>
       </set>
       <set comment="band 3">
        <r>  0.0436  0.2005  0.0004  0.0004  0.6331  0.0381  0.0720  0.0141  0.0069 </r>
       </set>
       <set comment="band 4">
        <r>  0.0000  0.0207  0.0031  0.0080  0.0000  0.1393  0.4762  0.0021  0.3398 </r>
       </set>
       <set comment="band 5">
        <r>  0.0003  0.0006  0.0042  0.0003  0.0858  0.7604  0.0805  0.0104  0.0512 </r>
       </set>
       <set comment="band 6">
        <r>  0.1047  0.4257  0.0078  0.0299  0.3023  0.0323  0.0690  0.0016  0.0587 </r>
       </set>
       <set comment="band 7">
        <r>  0.0718  0.0064  0.3293  0.1634  0.0361  0.0419  0.0709  0.2168  0.0505 </r>
       </set>
       <set comment="band 8">
        <r>  0.1595  0.1639  0.0558  0.0297  0.0253  0.0011  0.1650  0.0618  0.3364 </r>
       </set>
       <set comment="band 9">
        <r>  0.1976  0.0355  0.2222  0.2068  0.0142  0.0200  0.0651  0.0693  0.0368 </r>
       </set>
       <set comment="band 10">
        <r>  0.0515  0.0085  0.0609  0.0421  0.0009  0.0087  0.0000  0.7780  0.0238 </r>
       </set>
       <set comment="band 11">
        <r>  0.2542  0.0379  0.0307  0.2260  0.0023  0.0039  0.0183  0.1390  0.1050 </r>
       </set>
       <set comment="band 12">
        <r>  0.2139  0.0069  0.0023  0.0104  0.2890  0.0052  0.0329  0.0016  0.2456 </r>
       </set>
      </set>
      <set comment="kpoint 49">
       <set comment="band 1">
        <r>  0.0267  0.0104  0.0035  0.0521  0.0032  0.0016  0.3362  0.0798  0.4580 </r>
       </set>
       <set comment="band 2">
        <r>  0.0166  0.0014  0.0963  0.0394  0.0156  0.0109  0.0350  0.7849  0.0218 </r>
       </set>
       <set comment="band 3">
        <r>  0.0080  0.1962  0.0028  0.0007  0.6649  0.0967  0.0107  0.0336  0.0003 </r>
       </set>
       <set comment="band 4">
        <r>  0.0042  0.0047  0.0065  0.0057  0.0012  0.0564  0.5003  0.0003  0.4055 </r>
       </set>
       <set comment="band 5">
        <r>  0.0010  0.0015  0.0002  0.0001  0.1546  0.7757  0.0307  0.0054  0.0233 </r>
       </set>
       <set comment="band 6">
        <r>  0.0124  0.4671  0.0719  0.0717  0.2074  0.0515  0.0621  0.0295  0.0657 </r>
       </set>
       <set comment="band 7">
        <r>  0.1825  0.0831  0.2496  0.1009  0.0707  0.0426  0.0409  0.2207  0.0225 </r>
       </set>
       <set comment="band 8">
        <r>  0.2877  0.1101  0.0023  0.0486  0.0257  0.0038  0.1397  0.0473  0.3087 </r>
       </set>
       <set comment="band 9">
        <r>  0.1477  0.0057  0.2975  0.1390  0.0023  0.0057  0.1969  0.0874  0.0165 </r>
       </set>
       <set comment="band 10">
        <r>  0.0679  0.0042  0.0313  0.1277  0.0001  0.0014  0.0017  0.5111  0.0744 </r>
       </set>
       <set comment="band 11">
        <r>  0.0470  0.0298  0.0216  0.1545  0.1617  0.0142  0.0306  0.2176  0.0055 </r>
       </set>
       <set comment="band 12">
        <r>  0.2489  0.0072  0.0301  0.0663  0.2978  0.0077  0.0001  0.0884  0.1926 </r>
       </set>
      </set>
      <set comment="kpoint 50">
       <set comment="band 1">
        <r>  0.0083  0.0000  0.0766  0.1178  0.0000  0.0000  0.4364  0.0241  0.3082 </r>
       </set>
       <set comment="band 2">
        <r>  0.0732  0.0000  0.0751  0.0082  0.0000  0.0000  0.0249  0.7689  0.0687 </r>
       </set>
       <set comment="band 3">
        <r>  0.0000  0.1641  0.0000  0.0000  0.7003  0.1512  0.0000  0.0000  0.0000 </r>
       </set>
       <set comment="band 4">
        <r>  0.0028  0.0000  0.0177  0.0004  0.0000  0.0000  0.4367  0.0062  0.5197 </r>
       </set>
       <set comment="band 5">
        <r>  0.0000  0.0046  0.0000  0.0000  0.1964  0.7886  0.0000  0.0000  0.0000 </r>
       </set>
       <set comment="band 6">
        <r>  0.1519  0.0000  0.2611  0.1260  0.0000  0.0000  0.0956  0.2991  0.0803 </r>
       </set>
       <set comment="band 7">
        <r>  0.0000  0.6326  0.0000  0.0000  0.3134  0.1433  0.0000  0.0000  0.0000 </r>
       </set>
       <set comment="band 8">
        <r>  0.3611  0.0000  0.0037  0.0975  0.0000  0.0000  0.1288  0.0797  0.2556 </r>
       </set>
       <set comment="band 9">
        <r>  0.1315  0.0000  0.3134  0.0652  0.0000  0.0000  0.3133  0.0796  0.0139 </r>
       </set>
       <set comment="band 10">
        <r>  0.0487  0.0000  0.0237  0.2088  0.0000  0.0000  0.0170  0.2800  0.1260 </r>
       </set>
       <set comment="band 11">
        <r>  0.0000  0.0583  0.0000  0.0000  0.5569  0.0321  0.0000  0.0000  0.0000 </r>
       </set>
       <set comment="band 12">
        <r>  0.0804  0.0000  0.0017  0.3379  0.0000  0.0000  0.1453  0.4506  0.0218 </r>
       </set>
      </set>
      <set comment="kpoint 51">
       <set comment="band 1">
        <r>  0.0711  0.0110  0.0000  0.0224  0.0005  0.0000  0.2551  0.0000  0.6131 </r>
       </set>
       <set comment="band 2">
        <r>  0.0000  0.0000  0.0240  0.0000  0.0000  0.0011  0.0000  1.0011  0.0000 </r>
       </set>
       <set comment="band 3">
        <r>  0.0124  0.2200  0.0000  0.0011  0.7329  0.0000  0.0385  0.0000  0.0001 </r>
       </set>
       <set comment="band 4">
        <r>  0.0001  0.0125  0.0000  0.0055  0.0193  0.0000  0.6512  0.0000  0.3038 </r>
       </set>
       <set comment="band 5">
        <r>  0.0000  0.0000  0.0026  0.0000  0.0000  0.9911  0.0000  0.0016  0.0000 </r>
       </set>
       <set comment="band 6">
        <r>  0.0459  0.6681  0.0000  0.0057  0.2734  0.0000  0.0192  0.0000  0.0248 </r>
       </set>
       <set comment="band 7">
        <r>  0.2055  0.0699  0.0000  0.0640  0.0092  0.0000  0.2097  0.0000  0.4752 </r>
       </set>
       <set comment="band 8">
        <r>  0.0000  0.0000  0.6572  0.0000  0.0000  0.0155  0.0000  0.2743  0.0000 </r>
       </set>
       <set comment="band 9">
        <r>  0.2226  0.0070  0.0000  0.4899  0.0108  0.0000  0.0472  0.0000  0.0082 </r>
       </set>
       <set comment="band 10">
        <r>  0.0000  0.0000  0.0806  0.0000  0.0000  0.0026  0.0000  1.1228  0.0000 </r>
       </set>
       <set comment="band 11">
        <r>  0.4377  0.0133  0.0000  0.1566  0.0018  0.0000  0.0328  0.0000  0.2014 </r>
       </set>
       <set comment="band 12">
        <r>  0.1351  0.0166  0.0000  0.0098  0.2534  0.0000  0.0157  0.0000  0.0564 </r>
       </set>
      </set>
      <set comment="kpoint 52">
       <set comment="band 1">
        <r>  0.0414  0.0000  0.0024  0.0430  0.0000  0.0000  0.3045  0.0131  0.5666 </r>
       </set>
       <set comment="band 2">
        <r>  0.0013  0.0000  0.0547  0.0091  0.0000  0.0000  0.0036  0.9531  0.0043 </r>
       </set>
       <set comment="band 3">
        <r>  0.0000  0.2364  0.0000  0.0000  0.7212  0.0539  0.0000  0.0000  0.0000 </r>
       </set>
       <set comment="band 4">
        <r>  0.0047  0.0000  0.0016  0.0088  0.0000  0.0000  0.6262  0.0001  0.3452 </r>
       </set>
       <set comment="band 5">
        <r>  0.0000  0.0014  0.0000  0.0000  0.0790  0.9149  0.0000  0.0000  0.0000 </r>
       </set>
       <set comment="band 6">
        <r>  0.0000  0.7254  0.0000  0.0000  0.2833  0.0378  0.0000  0.0000  0.0000 </r>
       </set>
       <set comment="band 7">
        <r>  0.0142  0.0000  0.2159  0.2047  0.0000  0.0000  0.1949  0.1014  0.2698 </r>
       </set>
       <set comment="band 8">
        <r>  0.4000  0.0000  0.1871  0.0040  0.0000  0.0000  0.0429  0.1620  0.1772 </r>
       </set>
       <set comment="band 9">
        <r>  0.1637  0.0000  0.2493  0.2475  0.0000  0.0000  0.1123  0.0736  0.0098 </r>
       </set>
       <set comment="band 10">
        <r>  0.0523  0.0000  0.0564  0.0366  0.0000  0.0000  0.0001  0.8397  0.0365 </r>
       </set>
       <set comment="band 11">
        <r>  0.3149  0.0000  0.0300  0.2122  0.0000  0.0000  0.0227  0.1328  0.1883 </r>
       </set>
       <set comment="band 12">
        <r>  0.0000  0.0297  0.0000  0.0000  0.4089  0.0096  0.0000  0.0000  0.0000 </r>
       </set>
      </set>
      <set comment="kpoint 53">
       <set comment="band 1">
        <r>  0.1079  0.1154  0.0000  0.0872  0.0487  0.0000  0.2923  0.0000  0.3296 </r>
       </set>
       <set comment="band 2">
        <r>  0.0000  0.0000  0.0844  0.0000  0.0000  0.0512  0.0000  0.8827  0.0000 </r>
       </set>
       <set comment="band 3">
        <r>  0.0644  0.1057  0.0000  0.0010  0.6151  0.0000  0.1898  0.0000  0.0303 </r>
       </set>
       <set comment="band 4">
        <r>  0.0002  0.0386  0.0000  0.0074  0.0078  0.0000  0.3529  0.0000  0.5808 </r>
       </set>
       <set comment="band 5">
        <r>  0.0000  0.0000  0.0109  0.0000  0.0000  0.9117  0.0000  0.0677  0.0000 </r>
       </set>
       <set comment="band 6">
        <r>  0.1414  0.2675  0.0000  0.0517  0.3721  0.0000  0.1505  0.0000  0.0393 </r>
       </set>
       <set comment="band 7">
        <r>  0.0000  0.0000  0.5890  0.0000  0.0000  0.1210  0.0000  0.3738  0.0000 </r>
       </set>
       <set comment="band 8">
        <r>  0.1812  0.0005  0.0000  0.2591  0.1139  0.0000  0.2955  0.0000  0.0429 </r>
       </set>
       <set comment="band 9">
        <r>  0.2423  0.2825  0.0000  0.0001  0.0159  0.0000  0.0335  0.0000  0.3459 </r>
       </set>
       <set comment="band 10">
        <r>  0.0000  0.0000  0.0904  0.0000  0.0000  0.0304  0.0000  0.7319  0.0000 </r>
       </set>
       <set comment="band 11">
        <r>  0.0220  0.0590  0.0000  0.3292  0.0377  0.0000  0.0310  0.0000  0.0099 </r>
       </set>
       <set comment="band 12">
        <r>  0.4746  0.0151  0.0000  0.0518  0.2833  0.0000  0.0318  0.0000  0.4860 </r>
       </set>
      </set>
      <set comment="kpoint 54">
       <set comment="band 1">
        <r>  0.0147  0.0376  0.0008  0.0973  0.0103  0.0015  0.5141  0.0154  0.2774 </r>
       </set>
       <set comment="band 2">
        <r>  0.0314  0.0269  0.0920  0.0040  0.1939  0.0456  0.0407  0.5831  0.0010 </r>
       </set>
       <set comment="band 3">
        <r>  0.0187  0.1094  0.0370  0.0049  0.5700  0.0000  0.0266  0.2481  0.0000 </r>
       </set>
       <set comment="band 4">
        <r>  0.0061  0.0169  0.0026  0.0015  0.0061  0.0472  0.2765  0.0004  0.6260 </r>
       </set>
       <set comment="band 5">
        <r>  0.0014  0.0000  0.0041  0.0000  0.0261  0.8681  0.0131  0.0511  0.0284 </r>
       </set>
       <set comment="band 6">
        <r>  0.0912  0.3690  0.0301  0.0884  0.2721  0.0058  0.1171  0.0078  0.0477 </r>
       </set>
       <set comment="band 7">
        <r>  0.1531  0.0095  0.4224  0.0344  0.0395  0.0630  0.0384  0.2819  0.0025 </r>
       </set>
       <set comment="band 8">
        <r>  0.0552  0.0279  0.1429  0.1707  0.0676  0.0056  0.3664  0.0802  0.0599 </r>
       </set>
       <set comment="band 9">
        <r>  0.3586  0.2234  0.0400  0.0029  0.0281  0.0082  0.0003  0.0026  0.2432 </r>
       </set>
       <set comment="band 10">
        <r>  0.0028  0.0217  0.0404  0.1705  0.0575  0.0037  0.0030  0.3166  0.0009 </r>
       </set>
       <set comment="band 11">
        <r>  0.0223  0.0200  0.0198  0.0511  0.2544  0.0154  0.0461  0.3238  0.0774 </r>
       </set>
       <set comment="band 12">
        <r>  0.3062  0.0009  0.0121  0.2428  0.2401  0.0000  0.0000  0.0779  0.2578 </r>
       </set>
      </set>
      <set comment="kpoint 55">
       <set comment="band 1">
        <r>  0.0245  0.0095  0.0000  0.0758  0.0013  0.0000  0.4109  0.0000  0.4458 </r>
       </set>
       <set comment="band 2">
        <r>  0.0000  0.0000  0.0884  0.0000  0.0000  0.0050  0.0000  0.9294  0.0000 </r>
       </set>
       <set comment="band 3">
        <r>  0.0143  0.1978  0.0000  0.0000  0.7780  0.0000  0.0220  0.0000  0.0001 </r>
       </set>
       <set comment="band 4">
        <r>  0.0102  0.0085  0.0000  0.0067  0.0094  0.0000  0.4727  0.0000  0.4757 </r>
       </set>
       <set comment="band 5">
        <r>  0.0000  0.0000  0.0024  0.0000  0.0000  0.9855  0.0000  0.0076  0.0000 </r>
       </set>
       <set comment="band 6">
        <r>  0.0574  0.5776  0.0000  0.0242  0.3160  0.0000  0.0389  0.0000  0.0315 </r>
       </set>
       <set comment="band 7">
        <r>  0.0000  0.0000  0.6551  0.0000  0.0000  0.0165  0.0000  0.3745  0.0000 </r>
       </set>
       <set comment="band 8">
        <r>  0.0157  0.0754  0.0000  0.2409  0.0411  0.0000  0.3515  0.0000  0.2782 </r>
       </set>
       <set comment="band 9">
        <r>  0.5695  0.0413  0.0000  0.0919  0.0000  0.0000  0.0480  0.0000  0.0986 </r>
       </set>
       <set comment="band 10">
        <r>  0.0000  0.0000  0.0839  0.0000  0.0000  0.0035  0.0000  0.8481  0.0000 </r>
       </set>
       <set comment="band 11">
        <r>  0.1904  0.0183  0.0000  0.3548  0.0164  0.0000  0.0170  0.0000  0.1300 </r>
       </set>
       <set comment="band 12">
        <r>  0.1569  0.0235  0.0000  0.0072  0.4850  0.0000  0.0061  0.0000  0.1547 </r>
       </set>
      </set>
      <set comment="kpoint 56">
       <set comment="band 1">
        <r>  0.0020  0.0000  0.0041  0.0952  0.0000  0.0000  0.5583  0.0010  0.3059 </r>
       </set>
       <set comment="band 2">
        <r>  0.0099  0.0000  0.1280  0.0038  0.0000  0.0000  0.0007  0.8765  0.0022 </r>
       </set>
       <set comment="band 3">
        <r>  0.0000  0.1716  0.0000  0.0000  0.8301  0.0155  0.0000  0.0000  0.0000 </r>
       </set>
       <set comment="band 4">
        <r>  0.0205  0.0000  0.0033  0.0009  0.0000  0.0000  0.3358  0.0030  0.6162 </r>
       </set>
       <set comment="band 5">
        <r>  0.0000  0.0020  0.0000  0.0000  0.0235  0.9701  0.0000  0.0000  0.0000 </r>
       </set>
       <set comment="band 6">
        <r>  0.0000  0.6862  0.0000  0.0000  0.3526  0.0213  0.0000  0.0000  0.0000 </r>
       </set>
       <set comment="band 7">
        <r>  0.0540  0.0000  0.4685  0.0897  0.0000  0.0000  0.1028  0.2803  0.0315 </r>
       </set>
       <set comment="band 8">
        <r>  0.1627  0.0000  0.0559  0.1782  0.0000  0.0000  0.2648  0.0673  0.2582 </r>
       </set>
       <set comment="band 9">
        <r>  0.4652  0.0000  0.1420  0.0462  0.0000  0.0000  0.1514  0.0375  0.0471 </r>
       </set>
       <set comment="band 10">
        <r>  0.0141  0.0000  0.0560  0.0818  0.0000  0.0000  0.0005  0.5883  0.0387 </r>
       </set>
       <set comment="band 11">
        <r>  0.0000  0.0565  0.0000  0.0000  0.6281  0.0043  0.0000  0.0000  0.0000 </r>
       </set>
       <set comment="band 12">
        <r>  0.0522  0.0000  0.0107  0.4147  0.0000  0.0000  0.0414  0.1634  0.0631 </r>
       </set>
      </set>
     </set>
    </set>
   </array>
  </projected>
 </calculation>
 <structure name="finalpos" >
  <crystal>
   <varray name="basis" >
    <v>       1.60000000       1.60000000       0.00000000 </v>
    <v>       0.00000000       1.60000000       1.60000000 </v>
    <v>       1.60000000       0.00000000       1.60000000 </v>
   </varray>
   <i name="volume">      8.19200000 </i>
   <varray name="rec_basis" >
    <v>       0.31250000       0.31250000      -0.31250000 </v>
    <v>      -0.31250000       0.31250000       0.31250000 </v>
    <v>       0.31250000      -0.31250000       0.31250000 </v>
   </varray>
  </crystal>
  <varray name="positions" >
   <v>       0.00000000       0.00000000       0.00000000 </v>
  </varray>
 </structure>
</modeling>
