diamond Si                              
   5.40000000000000     
     0.000000    0.500000    0.500000
     0.500000    0.000000    0.500000
     0.500000    0.500000    0.000000
   Si
     2
Direct
  0.875000  0.875000  0.875000
  0.125000  0.125000  0.125000
 
   28   28   28
  22.782      22.679      22.292      21.379      19.738      17.650      15.855      15.143      15.855      17.650    
  19.738      21.379      22.292      22.679      22.782      22.679      22.292      21.379      19.738      17.650    
  15.855      15.143      15.855      17.650      19.738      21.379      22.292      22.679      22.679      22.923    
  22.490      20.925      18.329      15.520      13.683      13.683      15.520      18.329      20.925      22.490    
  22.923      22.679      22.144      21.437      20.532      19.348      17.877      16.423      15.499      15.499    
  16.423      17.877      19.348      20.532      21.438      22.144      22.292      22.490      21.332      18.605    
  14.977      11.838      10.594      11.838      14.977      18.605      21.332      22.490      22.292      21.438    
  20.364      19.207      17.990      16.731      15.537      14.634      14.293      14.634      15.537      16.731    
  17.990      19.207      20.364      21.438      21.379      20.925      18.605      14.726      10.575      7.8822    
  7.8822      10.575      14.726      18.605      20.925      21.379      20.532      19.208      17.782      16.392    
  15.088      13.925      13.016      12.507      12.507      13.015      13.925      15.088      16.392      17.782    
  19.207      20.532      19.738      18.329      14.977      10.575      6.8051      5.3192      6.8051      10.575    
  14.977      18.329      19.738      19.348      17.990      16.392      14.825      13.407      12.194      11.239    
  10.617      10.399      10.617      11.239      12.194      13.407      14.825      16.392      17.990      19.348    
  17.650      15.520      11.838      7.8822      5.3192      5.3191      7.8822      11.838      15.521      17.650    
  17.877      16.731      15.088      13.407      11.875      10.579      9.5613      8.8512      8.4834      8.4834    
  8.8512      9.5614      10.580      11.875      13.407      15.088      16.731      17.877      15.855      13.683    
  10.594      7.8822      6.8051      7.8822      10.594      13.683      15.855      16.423      15.537      13.925    
  12.194      10.580      9.2026      8.1130      7.3262      6.8489      6.6886      6.8489      7.3262      8.1130    
  9.2025      10.580      12.194      13.925      15.537      16.423      15.143      13.683      11.838      10.575    
  10.575      11.838      13.683      15.143      15.499      14.634      13.016      11.239      9.5613      8.1131    
  6.9551      6.0992      5.5368      5.2581      5.2582      5.5369      6.0991      6.9549      8.1130      9.5614    
  11.239      13.015      14.634      15.499      15.855      15.520      14.977      14.726      14.977      15.521    
  15.855      15.499      14.293      12.507      10.617      8.8511      7.3261      6.0990      5.1785      4.5463    
  4.1783      4.0576      4.1783      4.5463      5.1786      6.0991      7.3262      8.8512      10.617      12.507    
  14.293      15.499      17.650      18.329      18.605      18.605      18.329      17.650      16.423      14.634    
  12.507      10.398      8.4834      6.8490      5.5368      4.5460      3.8488      3.4090      3.1970      3.1969    
  3.4089      3.8489      4.5463      5.5369      6.8489      8.4834      10.399      12.507      14.634      16.423    
  19.738      20.925      21.332      20.925      19.738      17.877      15.537      13.016      10.617      8.4834    
  6.6886      5.2582      4.1783      3.4089      2.9019      2.6157      2.5233      2.6157      2.9019      3.4089    
  4.1783      5.2582      6.6886      8.4834      10.617      13.016      15.537      17.877      21.379      22.490    
  22.490      21.379      19.348      16.731      13.925      11.239      8.8511      6.8490      5.2582      4.0577    
  3.1970      2.6157      2.2599      2.0915      2.0916      2.2600      2.6157      3.1969      4.0576      5.2581    
  6.8489      8.8512      11.239      13.925      16.731      19.348      22.292      22.923      22.292      20.532    
  17.990      15.088      12.194      9.5613      7.3261      5.5368      4.1783      3.1970      2.5234      2.0916    
  1.8522      1.7755      1.8521      2.0916      2.5233      3.1970      4.1783      5.5368      7.3262      9.5613    
  12.194      15.088      17.990      20.532      22.679      22.679      21.438      19.208      16.392      13.407    
  10.580      8.1131      6.0990      4.5460      3.4089      2.6157      2.0916      1.7756      1.6272      1.6272    
  1.7755      2.0915      2.6157      3.4090      4.5463      6.0992      8.1130      10.579      13.407      16.392    
  19.207      21.437      22.782      22.144      20.364      17.782      14.825      11.875      9.2026      6.9551    
  5.1785      3.8488      2.9019      2.2599      1.8522      1.6272      1.5554      1.6272      1.8522      2.2599    
  2.9019      3.8488      5.1785      6.9551      9.2026      11.875      14.825      17.782      20.364      22.144    
  22.679      21.437      19.207      16.392      13.407      10.579      8.1130      6.0992      4.5463      3.4090    
  2.6157      2.0915      1.7755      1.6272      1.6272      1.7756      2.0916      2.6157      3.4089      4.5460    
  6.0990      8.1131      10.580      13.407      16.392      19.208      21.438      22.679      22.292      20.532    
  17.990      15.088      12.194      9.5613      7.3262      5.5368      4.1783      3.1970      2.5233      2.0916    
  1.8521      1.7755      1.8522      2.0916      2.5234      3.1970      4.1783      5.5368      7.3261      9.5613    
  12.194      15.088      17.990      20.532      22.292      22.923      21.379      19.348      16.731      13.925    
  11.239      8.8512      6.8489      5.2581      4.0576      3.1969      2.6157      2.2600      2.0916      2.0915    
  2.2599      2.6157      3.1970      4.0577      5.2582      6.8490      8.8511      11.239      13.925      16.731    
  19.348      21.379      22.490      22.490      19.738      17.877      15.537      13.016      10.617      8.4834    
  6.6886      5.2582      4.1783      3.4089      2.9019      2.6157      2.5233      2.6157      2.9019      3.4089    
  4.1783      5.2582      6.6886      8.4834      10.617      13.016      15.537      17.877      19.738      20.925    
  21.332      20.925      17.650      16.423      14.634      12.507      10.399      8.4834      6.8489      5.5369    
  4.5463      3.8489      3.4089      3.1969      3.1970      3.4090      3.8488      4.5460      5.5368      6.8490    
  8.4834      10.398      12.507      14.634      16.423      17.650      18.329      18.605      18.605      18.329    
  15.855      15.499      14.293      12.507      10.617      8.8512      7.3262      6.0991      5.1786      4.5463    
  4.1783      4.0576      4.1783      4.5463      5.1785      6.0990      7.3261      8.8511      10.617      12.507    
  14.293      15.499      15.855      15.521      14.977      14.726      14.977      15.520      15.143      15.499    
  14.634      13.015      11.239      9.5614      8.1130      6.9549      6.0991      5.5369      5.2582      5.2581    
  5.5368      6.0992      6.9551      8.1131      9.5613      11.239      13.016      14.634      15.499      15.143    
  13.683      11.838      10.575      10.575      11.838      13.683      15.855      16.423      15.537      13.925    
  12.194      10.580      9.2025      8.1130      7.3262      6.8489      6.6886      6.8489      7.3262      8.1130    
  9.2026      10.580      12.194      13.925      15.537      16.423      15.855      13.683      10.594      7.8822    
  6.8051      7.8822      10.594      13.683      17.650      17.877      16.731      15.088      13.407      11.875    
  10.580      9.5614      8.8512      8.4834      8.4834      8.8512      9.5613      10.579      11.875      13.407    
  15.088      16.731      17.877      17.650      15.521      11.838      7.8822      5.3191      5.3192      7.8822    
  11.838      15.520      19.738      19.348      17.990      16.392      14.825      13.407      12.194      11.239    
  10.617      10.399      10.617      11.239      12.194      13.407      14.825      16.392      17.990      19.348    
  19.738      18.329      14.977      10.575      6.8051      5.3192      6.8051      10.575      14.977      18.329    
  21.379      20.532      19.207      17.782      16.392      15.088      13.925      13.015      12.507      12.507    
  13.016      13.925      15.088      16.392      17.782      19.208      20.532      21.379      20.925      18.605    
  14.726      10.575      7.8822      7.8822      10.575      14.726      18.605      20.925      22.292      21.438    
  20.364      19.207      17.990      16.731      15.537      14.634      14.293      14.634      15.537      16.731    
  17.990      19.207      20.364      21.438      22.292      22.490      21.332      18.605      14.977      11.838    
  10.594      11.838      14.977      18.605      21.332      22.490      22.679      22.144      21.438      20.532    
  19.348      17.877      16.423      15.499      15.499      16.423      17.877      19.348      20.532      21.437    
  22.144      22.679      22.923      22.490      20.925      18.329      15.520      13.683      13.683      15.520    
  18.329      20.925      22.490      22.923      22.679      22.923      22.490      20.925      18.329      15.520    
  13.683      13.683      15.520      18.329      20.925      22.490      22.923      22.679      22.144      21.437    
  20.532      19.348      17.877      16.423      15.499      15.499      16.423      17.877      19.348      20.532    
  21.438      22.144      22.923      23.084      21.788      18.824      14.914      11.543      10.209      11.543    
  14.915      18.824      21.788      23.084      22.923      22.044      20.936      19.744      18.486      17.180    
  15.929      14.977      14.617      14.978      15.930      17.181      18.487      19.744      20.936      22.044    
  22.490      21.788      18.968      14.412      9.5958      6.4880      6.4882      9.5961      14.412      18.968    
  21.788      22.490      21.670      20.271      18.762      17.288      15.899      14.654      13.674      13.123    
  13.123      13.674      14.654      15.900      17.288      18.762      20.271      21.670      20.925      18.824    
  14.412      8.8145      4.0888      2.2364      4.0888      8.8145      14.411      18.824      20.925      20.813    
  19.424      17.705      16.009      14.469      13.145      12.095      11.406      11.164      11.406      12.095    
  13.145      14.470      16.009      17.705      19.424      20.813      18.329      14.914      9.5958      4.0888    
 0.57468     0.57468      4.0888      9.5958      14.914      18.329      19.282      18.341      16.600      14.769    
  13.085      11.651      10.517      9.7206      9.3061      9.3060      9.7205      10.517      11.651      13.085    
  14.769      16.600      18.341      19.282      15.520      11.543      6.4880      2.2364     0.57468      2.2364    
  6.4880      11.543      15.520      17.336      17.030      15.472      13.617      11.843      10.311      9.0887    
  8.1997      7.6573      7.4745      7.6574      8.1998      9.0888      10.311      11.843      13.617      15.472    
  17.030      17.336      13.683      10.209      6.4882      4.0888      4.0888      6.4880      10.208      13.683    
  15.660      15.747      14.428      12.602      10.792      9.1914      7.8926      6.9234      6.2822      5.9631    
  5.9632      6.2824      6.9233      7.8924      9.1913      10.792      12.602      14.428      15.747      15.660    
  13.683      11.543      9.5961      8.8145      9.5958      11.543      13.683      14.995      14.935      13.654    
  11.819      9.9752      8.3206      6.9578      5.9207      5.2019      4.7811      4.6426      4.7810      5.2019    
  5.9207      6.9578      8.3205      9.9751      11.819      13.654      14.934      14.995      15.520      14.915    
  14.412      14.411      14.914      15.520      15.660      14.935      13.364      11.385      9.4478      7.7199    
  6.2899      5.1885      4.4038      3.9050      3.6635      3.6634      3.9049      4.4039      5.1888      6.2899    
  7.7197      9.4477      11.385      13.364      14.934      15.660      18.329      18.824      18.968      18.824    
  18.329      17.336      15.747      13.654      11.385      9.2641      7.4110      5.8882      4.7122      3.8615    
  3.2958      2.9748      2.8710      2.9748      3.2958      3.8616      4.7123      5.8882      7.4111      9.2644    
  11.385      13.654      15.747      17.336      20.925      21.788      21.788      20.925      19.282      17.030    
  14.428      11.819      9.4478      7.4110      5.7538      4.4775      3.5484      2.9147      2.5246      2.3396    
  2.3396      2.5246      2.9146      3.5483      4.4775      5.7538      7.4111      9.4477      11.819      14.428    
  17.030      19.282      22.490      23.084      22.490      20.813      18.341      15.472      12.602      9.9752    
  7.7199      5.8882      4.4775      3.4460      2.7318      2.2717      2.0158      1.9338      2.0158      2.2716    
  2.7318      3.4460      4.4774      5.8881      7.7197      9.9751      12.602      15.473      18.341      20.813    
  22.923      22.923      21.670      19.424      16.600      13.617      10.792      8.3206      6.2899      4.7122    
  3.5484      2.7318      2.1902      1.8629      1.7091      1.7091      1.8628      2.1901      2.7318      3.5484    
  4.7121      6.2898      8.3206      10.792      13.617      16.600      19.424      21.670      22.679      22.044    
  20.271      17.705      14.769      11.843      9.1914      6.9578      5.1885      3.8615      2.9147      2.2717    
  1.8629      1.6372      1.5651      1.6372      1.8628      2.2716      2.9147      3.8617      5.1887      6.9579    
  9.1913      11.843      14.769      17.705      20.271      22.044      22.144      20.936      18.762      16.009    
  13.085      10.311      7.8926      5.9207      4.4038      3.2958      2.5246      2.0158      1.7091      1.5651    
  1.5652      1.7091      2.0158      2.5246      3.2958      4.4038      5.9207      7.8925      10.311      13.085    
  16.009      18.762      20.936      22.144      21.437      19.744      17.288      14.469      11.651      9.0887    
  6.9234      5.2019      3.9050      2.9748      2.3396      1.9338      1.7091      1.6372      1.7091      1.9339    
  2.3397      2.9747      3.9048      5.2016      6.9233      9.0889      11.651      14.470      17.288      19.744    
  21.438      22.044      20.532      18.486      15.899      13.145      10.517      8.1997      6.2822      4.7811    
  3.6635      2.8710      2.3396      2.0158      1.8628      1.8628      2.0158      2.3397      2.8710      3.6636    
  4.7811      6.2822      8.1997      10.517      13.145      15.899      18.486      20.532      21.670      21.670    
  19.348      17.180      14.654      12.095      9.7206      7.6573      5.9631      4.6426      3.6634      2.9748    
  2.5246      2.2716      2.1901      2.2716      2.5246      2.9747      3.6636      4.6429      5.9633      7.6573    
  9.7204      12.095      14.654      17.180      19.348      20.812      21.330      20.813      17.877      15.929    
  13.674      11.406      9.3061      7.4745      5.9632      4.7810      3.9049      3.2958      2.9146      2.7318    
  2.7318      2.9147      3.2958      3.9048      4.7811      5.9633      7.4745      9.3060      11.406      13.674    
  15.930      17.877      19.282      20.013      20.013      19.282      16.423      14.977      13.123      11.164    
  9.3060      7.6574      6.2824      5.2019      4.4039      3.8616      3.5483      3.4460      3.5484      3.8617    
  4.4038      5.2016      6.2822      7.6573      9.3060      11.164      13.123      14.978      16.423      17.336    
  17.787      17.916      17.787      17.336      15.499      14.617      13.123      11.406      9.7205      8.1998    
  6.9233      5.9207      5.1888      4.7123      4.4775      4.4774      4.7121      5.1887      5.9207      6.9233    
  8.1997      9.7204      11.406      13.123      14.617      15.499      15.660      15.359      15.042      15.041    
  15.359      15.660      15.499      14.978      13.674      12.095      10.517      9.0888      7.8924      6.9578    
  6.2899      5.8882      5.7538      5.8881      6.2898      6.9579      7.8925      9.0889      10.517      12.095    
  13.674      14.978      15.499      14.995      13.765      12.524      12.007      12.523      13.764      14.995    
  16.423      15.930      14.654      13.145      11.651      10.311      9.1913      8.3205      7.7197      7.4111    
  7.4111      7.7197      8.3206      9.1913      10.311      11.651      13.145      14.654      15.930      16.423    
  15.660      13.765      11.521      10.012      10.011      11.520      13.764      15.660      17.877      17.181    
  15.900      14.470      13.085      11.843      10.792      9.9751      9.4477      9.2644      9.4477      9.9751    
  10.792      11.843      13.085      14.470      15.899      17.180      17.877      17.336      15.359      12.524    
  10.012      9.0087      10.011      12.523      15.359      17.336      19.348      18.487      17.288      16.009    
  14.769      13.617      12.602      11.819      11.385      11.385      11.819      12.602      13.617      14.769    
  16.009      17.288      18.486      19.348      19.282      17.787      15.042      12.007      10.011      10.011    
  12.006      15.041      17.787      19.282      20.532      19.744      18.762      17.705      16.600      15.472    
  14.428      13.654      13.364      13.654      14.428      15.473      16.600      17.705      18.762      19.744    
  20.532      20.812      20.013      17.916      15.041      12.523      11.520      12.523      15.041      17.916    
  20.013      20.813      21.438      20.936      20.271      19.424      18.341      17.030      15.747      14.934    
  14.934      15.747      17.030      18.341      19.424      20.271      20.936      21.438      21.670      21.330    
  20.013      17.787      15.359      13.764      13.764      15.359      17.787      20.013      21.330      21.670    
  22.144      22.044      21.670      20.813      19.282      17.336      15.660      14.995      15.660      17.336    
  19.282      20.813      21.670      22.044      22.144      22.044      21.670      20.813      19.282      17.336    
  15.660      14.995      15.660      17.336      19.282      20.813      21.670      22.044      22.292      22.490    
  21.331      18.605      14.977      11.838      10.594      11.838      14.977      18.605      21.332      22.490    
  22.292      21.438      20.364      19.207      17.990      16.731      15.537      14.634      14.293      14.634    
  15.537      16.731      17.990      19.207      20.364      21.438      22.490      21.788      18.968      14.412    
  9.5958      6.4880      6.4882      9.5962      14.412      18.968      21.788      22.490      21.670      20.271    
  18.762      17.288      15.899      14.654      13.674      13.123      13.123      13.674      14.654      15.900    
  17.288      18.762      20.271      21.670      21.331      18.968      14.156      8.1116      3.0280      1.0384    
  3.0280      8.1116      14.156      18.968      21.332      21.330      19.936      18.173      16.430      14.847    
  13.483      12.399      11.685      11.435      11.685      12.399      13.483      14.847      16.430      18.173    
  19.936      21.330      18.605      14.412      8.1116      1.6776     -2.4045     -2.4048      1.6770      8.1114    
  14.412      18.605      20.013      19.220      17.433      15.518      13.747      12.237      11.039      10.195    
  9.7544      9.7542      10.195      11.039      12.237      13.747      15.517      17.433      19.220      20.013    
  14.977      9.5958      3.0280     -2.4045     -4.5140     -2.4044      3.0281      9.5958      14.977      17.787    
  17.980      16.517      14.578      12.695      11.057      9.7445      8.7860      8.1994      8.0013      8.1994    
  8.7860      9.7446      11.057      12.695      14.578      16.517      17.980      17.787      11.838      6.4880    
  1.0384     -2.4048     -2.4044      1.0391      6.4883      11.838      15.359      16.407      15.467      13.639    
  11.734      10.016      8.6094      7.5530      6.8512      6.5009      6.5011      6.8515      7.5530      8.6091    
  10.016      11.734      13.640      15.467      16.407      15.359      10.594      6.4882      3.0280      1.6770    
  3.0281      6.4883      10.594      13.764      15.050      14.466      12.792      10.905      9.1501      7.6763    
  6.5420      5.7506      5.2853      5.1318      5.2853      5.7506      6.5420      7.6762      9.1501      10.905    
  12.792      14.466      15.050      13.764      11.838      9.5962      8.1116      8.1114      9.5958      11.838    
  13.764      14.511      13.838      12.182      10.277      8.4887      6.9622      5.7645      4.9019      4.3503    
  4.0823      4.0821      4.3500      4.9019      5.7648      6.9622      8.4884      10.277      12.182      13.838    
  14.511      13.764      14.977      14.412      14.156      14.412      14.977      15.359      15.050      13.838    
  11.958      9.9335      8.0680      6.4765      5.2165      4.2909      3.6699      3.3159      3.2012      3.3159    
  3.6699      4.2909      5.2165      6.4765      8.0680      9.9336      11.958      13.838      15.050      15.359    
  18.605      18.968      18.968      18.605      17.787      16.407      14.466      12.182      9.9335      7.9228    
  6.2293      4.8902      3.8975      3.2127      2.7887      2.5871      2.5872      2.7889      3.2127      3.8974    
  4.8901      6.2295      7.9231      9.9337      12.182      14.466      16.407      17.787      21.332      21.788    
  21.332      20.013      17.980      15.467      12.792      10.277      8.0680      6.2293      4.7817      3.7049    
  2.9505      2.4612      2.1882      2.1007      2.1882      2.4612      2.9505      3.7049      4.7817      6.2293    
  8.0680      10.277      12.792      15.467      17.980      20.013      22.490      22.490      21.330      19.220    
  16.517      13.639      10.905      8.4887      6.4765      4.8902      3.7049      2.8650      2.3045      1.9648    
  1.8049      1.8049      1.9647      2.3045      2.8651      3.7049      4.8901      6.4762      8.4884      10.905    
  13.640      16.518      19.220      21.330      22.292      21.670      19.936      17.433      14.578      11.734    
  9.1501      6.9622      5.2165      3.8975      2.9505      2.3045      1.8928      1.6652      1.5925      1.6652    
  1.8928      2.3045      2.9505      3.8975      5.2165      6.9622      9.1501      11.734      14.578      17.433    
  19.936      21.670      21.438      20.271      18.173      15.518      12.695      10.016      7.6763      5.7645    
  4.2909      3.2127      2.4612      1.9648      1.6652      1.5246      1.5246      1.6652      1.9647      2.4611    
  3.2127      4.2910      5.7647      7.6765      10.016      12.695      15.517      18.173      20.271      21.438    
  20.364      18.762      16.430      13.747      11.057      8.6094      6.5420      4.9019      3.6699      2.7887    
  2.1882      1.8049      1.5925      1.5246      1.5926      1.8050      2.1883      2.7887      3.6699      4.9018    
  6.5420      8.6094      11.057      13.747      16.430      18.762      20.364      20.936      19.207      17.288    
  14.847      12.237      9.7445      7.5530      5.7506      4.3503      3.3159      2.5871      2.1007      1.8049    
  1.6652      1.6652      1.8050      2.1009      2.5873      3.3158      4.3500      5.7503      7.5530      9.7447    
  12.237      14.847      17.288      19.208      20.271      20.271      17.990      15.899      13.483      11.039    
  8.7860      6.8512      5.2853      4.0823      3.2012      2.5872      2.1882      1.9647      1.8928      1.9647    
  2.1883      2.5873      3.2013      4.0823      5.2853      6.8512      8.7861      11.039      13.483      15.899    
  17.990      19.424      19.936      19.424      16.731      14.654      12.399      10.195      8.1994      6.5009    
  5.1318      4.0821      3.3159      2.7889      2.4612      2.3045      2.3045      2.4611      2.7887      3.3158    
  4.0823      5.1322      6.5011      8.1993      10.195      12.399      14.654      16.731      18.341      19.220    
  19.220      18.341      15.537      13.674      11.685      9.7544      8.0013      6.5011      5.2853      4.3500    
  3.6699      3.2127      2.9505      2.8651      2.9505      3.2127      3.6699      4.3500      5.2853      6.5011    
  8.0013      9.7544      11.685      13.674      15.537      17.030      17.980      18.305      17.980      17.030    
  14.634      13.123      11.435      9.7542      8.1994      6.8515      5.7506      4.9019      4.2909      3.8974    
  3.7049      3.7049      3.8975      4.2910      4.9018      5.7503      6.8512      8.1993      9.7544      11.435    
  13.123      14.634      15.747      16.407      16.692      16.692      16.407      15.747      14.293      13.123    
  11.685      10.195      8.7860      7.5530      6.5420      5.7648      5.2165      4.8901      4.7817      4.8901    
  5.2165      5.7647      6.5420      7.5530      8.7861      10.195      11.685      13.123      14.293      14.934    
  15.050      14.899      14.802      14.899      15.050      14.934      14.634      13.674      12.399      11.039    
  9.7446      8.6091      7.6762      6.9622      6.4765      6.2295      6.2293      6.4762      6.9622      7.6765    
  8.6094      9.7447      11.039      12.399      13.674      14.634      14.934      14.511      13.711      13.101    
  13.101      13.711      14.511      14.934      15.537      14.654      13.483      12.237      11.057      10.016    
  9.1501      8.4884      8.0680      7.9231      8.0680      8.4884      9.1501      10.016      11.057      12.237    
  13.483      14.654      15.537      15.747      15.050      13.711      12.416      11.883      12.416      13.711    
  15.050      15.747      16.731      15.900      14.847      13.747      12.695      11.734      10.905      10.277    
  9.9336      9.9337      10.277      10.905      11.734      12.695      13.747      14.847      15.899      16.731    
  17.030      16.407      14.899      13.101      11.883      11.883      13.101      14.899      16.407      17.030    
  17.990      17.288      16.430      15.517      14.578      13.640      12.792      12.182      11.958      12.182    
  12.792      13.640      14.578      15.517      16.430      17.288      17.990      18.341      17.980      16.692    
  14.802      13.101      12.416      13.101      14.802      16.692      17.980      18.341      19.207      18.762    
  18.173      17.433      16.517      15.467      14.466      13.838      13.838      14.466      15.467      16.518    
  17.433      18.173      18.762      19.208      19.424      19.220      18.305      16.692      14.899      13.711    
  13.711      14.899      16.692      18.305      19.220      19.424      20.364      20.271      19.936      19.220    
  17.980      16.407      15.050      14.511      15.050      16.407      17.980      19.220      19.936      20.271    
  20.364      20.271      19.936      19.220      17.980      16.407      15.050      14.511      15.050      16.407    
  17.980      19.220      19.936      20.271      21.438      21.670      21.330      20.013      17.787      15.359    
  13.764      13.764      15.359      17.787      20.013      21.330      21.670      21.438      20.936      20.271    
  19.424      18.341      17.030      15.747      14.934      14.934      15.747      17.030      18.341      19.424    
  20.271      20.936      21.379      20.925      18.605      14.726      10.575      7.8822      7.8822      10.575    
  14.726      18.605      20.925      21.379      20.532      19.208      17.782      16.392      15.088      13.925    
  13.016      12.507      12.507      13.015      13.925      15.088      16.392      17.782      19.207      20.532    
  20.925      18.824      14.412      8.8146      4.0888      2.2364      4.0888      8.8145      14.411      18.824    
  20.925      20.813      19.424      17.705      16.009      14.469      13.145      12.095      11.406      11.164    
  11.406      12.095      13.145      14.470      16.009      17.705      19.424      20.813      18.605      14.412    
  8.1117      1.6776     -2.4045     -2.4048      1.6770      8.1114      14.412      18.605      20.013      19.220    
  17.433      15.518      13.747      12.237      11.039      10.195      9.7544      9.7542      10.195      11.039    
  12.237      13.747      15.517      17.433      19.220      20.013      14.726      8.8146      1.6776     -4.1989    
 -6.4771     -4.1997      1.6768      8.8146      14.727      17.916      18.305      16.886      14.918      12.997    