diamond Si                              
   5.40000000000000     
     0.000000    0.500000    0.500000
     0.500000    0.000000    0.500000
     0.500000    0.500000    0.000000
   Si
     2
Direct
  0.875000  0.875000  0.875000
  0.125000  0.125000  0.125000
 
   28   28   28
 0.22781676725E+02 0.22678598342E+02 0.22292281526E+02 0.21378886840E+02 0.19737755343E+02
 0.17650186167E+02 0.15854812376E+02 0.15143101548E+02 0.15854789386E+02 0.17650196916E+02
 0.19737814915E+02 0.21378950346E+02 0.22292325966E+02 0.22678646705E+02 0.22781735208E+02
 0.22678646705E+02 0.22292325966E+02 0.21378950346E+02 0.19737814915E+02 0.17650196916E+02
 0.15854789386E+02 0.15143101548E+02 0.15854812376E+02 0.17650186167E+02 0.19737755343E+02
 0.21378886840E+02 0.22292281526E+02 0.22678598342E+02 0.22678598342E+02 0.22922712447E+02
 0.22489801445E+02 0.20924734605E+02 0.18328660518E+02 0.15520153204E+02 0.13683074132E+02
 0.13683236032E+02 0.15520442586E+02 0.18328767271E+02 0.20924673301E+02 0.22489865528E+02
 0.22922992738E+02 0.22678798461E+02 0.22144268182E+02 0.21437314756E+02 0.20532266243E+02
 0.19348403439E+02 0.17877093774E+02 0.16422557628E+02 0.15498542361E+02 0.15498777066E+02
 0.16422941072E+02 0.17877152087E+02 0.19348201060E+02 0.20532231956E+02 0.21437538282E+02
 0.22144389553E+02 0.22292281526E+02 0.22489801445E+02 0.21331504928E+02 0.18604704666E+02
 0.14977247648E+02 0.11837935325E+02 0.10593872291E+02 0.11837878281E+02 0.14977224877E+02
 0.18604743443E+02 0.21331553091E+02 0.22489855627E+02 0.22292377144E+02 0.21437622016E+02
 0.20363733877E+02 0.19207356924E+02 0.17989761809E+02 0.16731371804E+02 0.15537269937E+02
 0.14634107637E+02 0.14292696894E+02 0.14634110800E+02 0.15537237430E+02 0.16731345352E+02
 0.17989824273E+02 0.19207468736E+02 0.20363761875E+02 0.21437538282E+02 0.21378886840E+02
 0.20924734605E+02 0.18604704666E+02 0.14726254854E+02 0.10575178512E+02 0.78822418534E+01
 0.78821759698E+01 0.10575058925E+02 0.14726186350E+02 0.18604669185E+02 0.20924686588E+02
 0.21378886366E+02 0.20532337188E+02 0.19207577601E+02 0.17782038672E+02 0.16391970220E+02
 0.15087863661E+02 0.13924967243E+02 0.13015586771E+02 0.12507333968E+02 0.12507200556E+02
 0.13015304296E+02 0.13924780005E+02 0.15087901760E+02 0.16392115120E+02 0.17782076800E+02
 0.19207468736E+02 0.20532231956E+02 0.19737755343E+02 0.18328660518E+02 0.14977247648E+02
 0.10575178512E+02 0.68050714789E+01 0.53191561716E+01 0.68051176342E+01 0.10575245949E+02
 0.14977315115E+02 0.18328727745E+02 0.19737823785E+02 0.19348248984E+02 0.17989822917E+02
 0.16392073219E+02 0.14824606203E+02 0.13406907156E+02 0.12194250721E+02 0.11239466444E+02
 0.10616571087E+02 0.10398600985E+02 0.10616551497E+02 0.11239420189E+02 0.12194196974E+02
 0.13406888650E+02 0.14824637694E+02 0.16392115120E+02 0.17989824273E+02 0.19348201060E+02
 0.17650186167E+02 0.15520153204E+02 0.11837935325E+02 0.78822418534E+01 0.53191561716E+01
 0.53190777245E+01 0.78821788905E+01 0.11838143092E+02 0.15520562913E+02 0.17650449905E+02
 0.17877092402E+02 0.16731174264E+02 0.15087904333E+02 0.13407038951E+02 0.11874661776E+02
 0.10579451562E+02 0.95612789487E+01 0.88511607613E+01 0.84834384483E+01 0.84834128257E+01
 0.88511700324E+01 0.95614069802E+01 0.10579574022E+02 0.11874608465E+02 0.13406888650E+02
 0.15087901760E+02 0.16731345352E+02 0.17877152087E+02 0.15854812376E+02 0.13683074132E+02
 0.10593872291E+02 0.78821759698E+01 0.68051176342E+01 0.78821788905E+01 0.10593901184E+02
 0.13683141071E+02 0.15854892210E+02 0.16422995214E+02 0.15537263685E+02 0.13924816876E+02
 0.12194266455E+02 0.10579645153E+02 0.92025533332E+01 0.81130308506E+01 0.73261676959E+01
 0.68489309515E+01 0.66886348306E+01 0.68489195904E+01 0.73261651283E+01 0.81130306816E+01
 0.92025209410E+01 0.10579574022E+02 0.12194196974E+02 0.13924780005E+02 0.15537237430E+02
 0.16422941072E+02 0.15143101548E+02 0.13683236032E+02 0.11837878281E+02 0.10575058925E+02
 0.10575245949E+02 0.11838143092E+02 0.13683141071E+02 0.15142733553E+02 0.15498621040E+02
 0.14634341073E+02 0.13015566572E+02 0.11239395306E+02 0.95612663944E+01 0.81131157413E+01
 0.69551394059E+01 0.60991686576E+01 0.55367751441E+01 0.52581091136E+01 0.52582297075E+01
 0.55369271773E+01 0.60990594518E+01 0.69548692211E+01 0.81130306816E+01 0.95614069802E+01
 0.11239420189E+02 0.13015304296E+02 0.14634110800E+02 0.15498777066E+02 0.15854789386E+02
 0.15520442586E+02 0.14977224877E+02 0.14726186350E+02 0.14977315115E+02 0.15520562913E+02
 0.15854892210E+02 0.15498621040E+02 0.14292747139E+02 0.12507208254E+02 0.10616525910E+02
 0.88511413466E+01 0.73261389984E+01 0.60990150479E+01 0.51784959899E+01 0.45462738525E+01
 0.41782853920E+01 0.40575528725E+01 0.41783080412E+01 0.45463252961E+01 0.51785587240E+01
 0.60990594518E+01 0.73261651283E+01 0.88511700324E+01 0.10616551497E+02 0.12507200556E+02
 0.14292696894E+02 0.15498542361E+02 0.17650196916E+02 0.18328767271E+02 0.18604743443E+02
 0.18604669185E+02 0.18328727745E+02 0.17650449905E+02 0.16422995214E+02 0.14634341073E+02
 0.12507208254E+02 0.10398387766E+02 0.84833875553E+01 0.68489613802E+01 0.55367568102E+01
 0.45459985536E+01 0.38488039483E+01 0.34090458799E+01 0.31969955403E+01 0.31968773289E+01
 0.34089076517E+01 0.38489466437E+01 0.45463252961E+01 0.55369271773E+01 0.68489195904E+01
 0.84834128257E+01 0.10398600985E+02 0.12507333968E+02 0.14634107637E+02 0.16422557628E+02
 0.19737814915E+02 0.20924673301E+02 0.21331553091E+02 0.20924686588E+02 0.19737823785E+02
 0.17877092402E+02 0.15537263685E+02 0.13015566572E+02 0.10616525910E+02 0.84833875553E+01
 0.66886092734E+01 0.52582253292E+01 0.41782941898E+01 0.34088794687E+01 0.29018884359E+01
 0.26156814362E+01 0.25233308918E+01 0.26156833428E+01 0.29019071680E+01 0.34089076517E+01
 0.41783080412E+01 0.52582297075E+01 0.66886348306E+01 0.84834384483E+01 0.10616571087E+02
 0.13015586771E+02 0.15537269937E+02 0.17877093774E+02 0.21378950346E+02 0.22489865528E+02
 0.22489855627E+02 0.21378886366E+02 0.19348248984E+02 0.16731174264E+02 0.13924816876E+02
 0.11239395306E+02 0.88511413466E+01 0.68489613802E+01 0.52582253292E+01 0.40577387054E+01
 0.31970260898E+01 0.26156995041E+01 0.22598730138E+01 0.20915410582E+01 0.20915929712E+01
 0.22599560028E+01 0.26156833428E+01 0.31968773289E+01 0.40575528725E+01 0.52581091136E+01
 0.68489309515E+01 0.88511607613E+01 0.11239466444E+02 0.13924967243E+02 0.16731371804E+02
 0.19348403439E+02 0.22292325966E+02 0.22922992738E+02 0.22292377144E+02 0.20532337188E+02
 0.17989822917E+02 0.15087904333E+02 0.12194266455E+02 0.95612663944E+01 0.73261389984E+01
 0.55367568102E+01 0.41782941898E+01 0.31970260898E+01 0.25233690305E+01 0.20916280755E+01
 0.18521635268E+01 0.17755292541E+01 0.18521413702E+01 0.20915929712E+01 0.25233308918E+01
 0.31969955403E+01 0.41782853920E+01 0.55367751441E+01 0.73261676959E+01 0.95612789487E+01
 0.12194250721E+02 0.15087863661E+02 0.17989761809E+02 0.20532266243E+02 0.22678646705E+02
 0.22678798461E+02 0.21437622016E+02 0.19207577601E+02 0.16392073219E+02 0.13407038951E+02
 0.10579645153E+02 0.81131157413E+01 0.60990150479E+01 0.45459985536E+01 0.34088794687E+01
 0.26156995041E+01 0.20916280755E+01 0.17755728305E+01 0.16272252388E+01 0.16272206195E+01
 0.17755292541E+01 0.20915410582E+01 0.26156814362E+01 0.34090458799E+01 0.45462738525E+01
 0.60991686576E+01 0.81130308506E+01 0.10579451562E+02 0.13406907156E+02 0.16391970220E+02
 0.19207356924E+02 0.21437314756E+02 0.22781735208E+02 0.22144268182E+02 0.20363733877E+02
 0.17782038672E+02 0.14824606203E+02 0.11874661776E+02 0.92025533332E+01 0.69551394059E+01
 0.51784959899E+01 0.38488039483E+01 0.29018884359E+01 0.22598730138E+01 0.18521635268E+01
 0.16272252388E+01 0.15554025356E+01 0.16272252388E+01 0.18521635268E+01 0.22598730138E+01
 0.29018884359E+01 0.38488039483E+01 0.51784959899E+01 0.69551394059E+01 0.92025533332E+01
 0.11874661776E+02 0.14824606203E+02 0.17782038672E+02 0.20363733877E+02 0.22144268182E+02
 0.22678646705E+02 0.21437314756E+02 0.19207356924E+02 0.16391970220E+02 0.13406907156E+02
 0.10579451562E+02 0.81130308506E+01 0.60991686576E+01 0.45462738525E+01 0.34090458799E+01
 0.26156814362E+01 0.20915410582E+01 0.17755292541E+01 0.16272206195E+01 0.16272252388E+01
 0.17755728305E+01 0.20916280755E+01 0.26156995041E+01 0.34088794687E+01 0.45459985536E+01
 0.60990150479E+01 0.81131157413E+01 0.10579645153E+02 0.13407038951E+02 0.16392073219E+02
 0.19207577601E+02 0.21437622016E+02 0.22678798461E+02 0.22292325966E+02 0.20532266243E+02
 0.17989761809E+02 0.15087863661E+02 0.12194250721E+02 0.95612789487E+01 0.73261676959E+01
 0.55367751441E+01 0.41782853920E+01 0.31969955403E+01 0.25233308918E+01 0.20915929712E+01
 0.18521413702E+01 0.17755292541E+01 0.18521635268E+01 0.20916280755E+01 0.25233690305E+01
 0.31970260898E+01 0.41782941898E+01 0.55367568102E+01 0.73261389984E+01 0.95612663944E+01
 0.12194266455E+02 0.15087904333E+02 0.17989822917E+02 0.20532337188E+02 0.22292377144E+02
 0.22922992738E+02 0.21378950346E+02 0.19348403439E+02 0.16731371804E+02 0.13924967243E+02
 0.11239466444E+02 0.88511607613E+01 0.68489309515E+01 0.52581091136E+01 0.40575528725E+01
 0.31968773289E+01 0.26156833428E+01 0.22599560028E+01 0.20915929712E+01 0.20915410582E+01
 0.22598730138E+01 0.26156995041E+01 0.31970260898E+01 0.40577387054E+01 0.52582253292E+01
 0.68489613802E+01 0.88511413466E+01 0.11239395306E+02 0.13924816876E+02 0.16731174264E+02
 0.19348248984E+02 0.21378886366E+02 0.22489855627E+02 0.22489865528E+02 0.19737814915E+02
 0.17877093774E+02 0.15537269937E+02 0.13015586771E+02 0.10616571087E+02 0.84834384483E+01
 0.66886348306E+01 0.52582297075E+01 0.41783080412E+01 0.34089076517E+01 0.29019071680E+01
 0.26156833428E+01 0.25233308918E+01 0.26156814362E+01 0.29018884359E+01 0.34088794687E+01
 0.41782941898E+01 0.52582253292E+01 0.66886092734E+01 0.84833875553E+01 0.10616525910E+02
 0.13015566572E+02 0.15537263685E+02 0.17877092402E+02 0.19737823785E+02 0.20924686588E+02
 0.21331553091E+02 0.20924673301E+02 0.17650196916E+02 0.16422557628E+02 0.14634107637E+02
 0.12507333968E+02 0.10398600985E+02 0.84834128257E+01 0.68489195904E+01 0.55369271773E+01
 0.45463252961E+01 0.38489466437E+01 0.34089076517E+01 0.31968773289E+01 0.31969955403E+01
 0.34090458799E+01 0.38488039483E+01 0.45459985536E+01 0.55367568102E+01 0.68489613802E+01
 0.84833875553E+01 0.10398387766E+02 0.12507208254E+02 0.14634341073E+02 0.16422995214E+02
 0.17650449905E+02 0.18328727745E+02 0.18604669185E+02 0.18604743443E+02 0.18328767271E+02
 0.15854789386E+02 0.15498542361E+02 0.14292696894E+02 0.12507200556E+02 0.10616551497E+02
 0.88511700324E+01 0.73261651283E+01 0.60990594518E+01 0.51785587240E+01 0.45463252961E+01
 0.41783080412E+01 0.40575528725E+01 0.41782853920E+01 0.45462738525E+01 0.51784959899E+01
 0.60990150479E+01 0.73261389984E+01 0.88511413466E+01 0.10616525910E+02 0.12507208254E+02
 0.14292747139E+02 0.15498621040E+02 0.15854892210E+02 0.15520562913E+02 0.14977315115E+02
 0.14726186350E+02 0.14977224877E+02 0.15520442586E+02 0.15143101548E+02 0.15498777066E+02
 0.14634110800E+02 0.13015304296E+02 0.11239420189E+02 0.95614069802E+01 0.81130306816E+01
 0.69548692211E+01 0.60990594518E+01 0.55369271773E+01 0.52582297075E+01 0.52581091136E+01
 0.55367751441E+01 0.60991686576E+01 0.69551394059E+01 0.81131157413E+01 0.95612663944E+01
 0.11239395306E+02 0.13015566572E+02 0.14634341073E+02 0.15498621040E+02 0.15142733553E+02
 0.13683141071E+02 0.11838143092E+02 0.10575245949E+02 0.10575058925E+02 0.11837878281E+02
 0.13683236032E+02 0.15854812376E+02 0.16422941072E+02 0.15537237430E+02 0.13924780005E+02
 0.12194196974E+02 0.10579574022E+02 0.92025209410E+01 0.81130306816E+01 0.73261651283E+01
 0.68489195904E+01 0.66886348306E+01 0.68489309515E+01 0.73261676959E+01 0.81130308506E+01
 0.92025533332E+01 0.10579645153E+02 0.12194266455E+02 0.13924816876E+02 0.15537263685E+02
 0.16422995214E+02 0.15854892210E+02 0.13683141071E+02 0.10593901184E+02 0.78821788905E+01
 0.68051176342E+01 0.78821759698E+01 0.10593872291E+02 0.13683074132E+02 0.17650186167E+02
 0.17877152087E+02 0.16731345352E+02 0.15087901760E+02 0.13406888650E+02 0.11874608465E+02
 0.10579574022E+02 0.95614069802E+01 0.88511700324E+01 0.84834128257E+01 0.84834384483E+01
 0.88511607613E+01 0.95612789487E+01 0.10579451562E+02 0.11874661776E+02 0.13407038951E+02
 0.15087904333E+02 0.16731174264E+02 0.17877092402E+02 0.17650449905E+02 0.15520562913E+02
 0.11838143092E+02 0.78821788905E+01 0.53190777245E+01 0.53191561716E+01 0.78822418534E+01
 0.11837935325E+02 0.15520153204E+02 0.19737755343E+02 0.19348201060E+02 0.17989824273E+02
 0.16392115120E+02 0.14824637694E+02 0.13406888650E+02 0.12194196974E+02 0.11239420189E+02
 0.10616551497E+02 0.10398600985E+02 0.10616571087E+02 0.11239466444E+02 0.12194250721E+02
 0.13406907156E+02 0.14824606203E+02 0.16392073219E+02 0.17989822917E+02 0.19348248984E+02
 0.19737823785E+02 0.18328727745E+02 0.14977315115E+02 0.10575245949E+02 0.68051176342E+01
 0.53191561716E+01 0.68050714789E+01 0.10575178512E+02 0.14977247648E+02 0.18328660518E+02
 0.21378886840E+02 0.20532231956E+02 0.19207468736E+02 0.17782076800E+02 0.16392115120E+02
 0.15087901760E+02 0.13924780005E+02 0.13015304296E+02 0.12507200556E+02 0.12507333968E+02
 0.13015586771E+02 0.13924967243E+02 0.15087863661E+02 0.16391970220E+02 0.17782038672E+02
 0.19207577601E+02 0.20532337188E+02 0.21378886366E+02 0.20924686588E+02 0.18604669185E+02
 0.14726186350E+02 0.10575058925E+02 0.78821759698E+01 0.78822418534E+01 0.10575178512E+02
 0.14726254854E+02 0.18604704666E+02 0.20924734605E+02 0.22292281526E+02 0.21437538282E+02
 0.20363761875E+02 0.19207468736E+02 0.17989824273E+02 0.16731345352E+02 0.15537237430E+02
 0.14634110800E+02 0.14292696894E+02 0.14634107637E+02 0.15537269937E+02 0.16731371804E+02
 0.17989761809E+02 0.19207356924E+02 0.20363733877E+02 0.21437622016E+02 0.22292377144E+02
 0.22489855627E+02 0.21331553091E+02 0.18604743443E+02 0.14977224877E+02 0.11837878281E+02
 0.10593872291E+02 0.11837935325E+02 0.14977247648E+02 0.18604704666E+02 0.21331504928E+02
 0.22489801445E+02 0.22678598342E+02 0.22144389553E+02 0.21437538282E+02 0.20532231956E+02
 0.19348201060E+02 0.17877152087E+02 0.16422941072E+02 0.15498777066E+02 0.15498542361E+02
 0.16422557628E+02 0.17877093774E+02 0.19348403439E+02 0.20532266243E+02 0.21437314756E+02
 0.22144268182E+02 0.22678798461E+02 0.22922992738E+02 0.22489865528E+02 0.20924673301E+02
 0.18328767271E+02 0.15520442586E+02 0.13683236032E+02 0.13683074132E+02 0.15520153204E+02
 0.18328660518E+02 0.20924734605E+02 0.22489801445E+02 0.22922712447E+02 0.22678573418E+02
 0.22922665516E+02 0.22489770518E+02 0.20924723573E+02 0.18328644515E+02 0.15520136763E+02
 0.13683083977E+02 0.13683263507E+02 0.15520453230E+02 0.18328761472E+02 0.20924679382E+02
 0.22489880447E+02 0.22922988692E+02 0.22678780722E+02 0.22144266816E+02 0.21437325741E+02
 0.20532259659E+02 0.19348383094E+02 0.17877090191E+02 0.16422569433E+02 0.15498543437E+02
 0.15498774005E+02 0.16422963802E+02 0.17877194066E+02 0.19348227269E+02 0.20532239092E+02
 0.21437549129E+02 0.22144396602E+02 0.22922665516E+02 0.23084379870E+02 0.21788397380E+02
 0.18824216270E+02 0.14914287586E+02 0.11542636681E+02 0.10208673287E+02 0.11543253234E+02
 0.14914903142E+02 0.18824366212E+02 0.21788281666E+02 0.23084466917E+02 0.22922998667E+02
 0.22043750055E+02 0.20936223661E+02 0.19744083588E+02 0.18486424305E+02 0.17180496739E+02
 0.15929486868E+02 0.14977455638E+02 0.14616761885E+02 0.14977699928E+02 0.15929677942E+02
 0.17180527508E+02 0.18486519511E+02 0.19744351512E+02 0.20936389237E+02 0.22043561517E+02
 0.22489770518E+02 0.21788397380E+02 0.18967859071E+02 0.14411588910E+02 0.95957603782E+01
 0.64880245663E+01 0.64882130321E+01 0.95961379294E+01 0.14411807558E+02 0.18967804719E+02
 0.21788291270E+02 0.22489854673E+02 0.21670366967E+02 0.20271349748E+02 0.18761629825E+02
 0.17287558513E+02 0.15899402621E+02 0.14653943741E+02 0.13673870953E+02 0.13123334073E+02
 0.13123334267E+02 0.13673858017E+02 0.14653943746E+02 0.15899510233E+02 0.17287779027E+02
 0.18761780247E+02 0.20271264885E+02 0.21670151368E+02 0.20924723573E+02 0.18824216270E+02
 0.14411588910E+02 0.88145167531E+01 0.40887632278E+01 0.22364395533E+01 0.40888329627E+01
 0.88145368730E+01 0.14411476944E+02 0.18824046553E+02 0.20924658643E+02 0.20812628855E+02
 0.19423871099E+02 0.17705105790E+02 0.16009211547E+02 0.14469430209E+02 0.13145185706E+02
 0.12095307479E+02 0.11405924792E+02 0.11163694480E+02 0.11405758297E+02 0.12095149246E+02
 0.13145197890E+02 0.14469590363E+02 0.16009340947E+02 0.17705064638E+02 0.19423707453E+02
 0.20812521981E+02 0.18328644515E+02 0.14914287586E+02 0.95957603782E+01 0.40887632278E+01
 0.57468356542E+00 0.57467934403E+00 0.40887693924E+01 0.95957955345E+01 0.14914315893E+02
 0.18328608700E+02 0.19282368030E+02 0.18341128844E+02 0.16600198353E+02 0.14769460200E+02
 0.13084547176E+02 0.11651153371E+02 0.10516959303E+02 0.97206394146E+01 0.93061111302E+01
 0.93060105791E+01 0.97204942513E+01 0.10516998024E+02 0.11651332044E+02 0.13084626692E+02
 0.14769355951E+02 0.16600067839E+02 0.18341119855E+02 0.19282440482E+02 0.15520136763E+02
 0.11542636681E+02 0.64880245663E+01 0.22364395533E+01 0.57467934403E+00 0.22363570989E+01
 0.64879744631E+01 0.11542713449E+02 0.15520287588E+02 0.17335843404E+02 0.17030086400E+02
 0.15472458694E+02 0.13616779793E+02 0.11843231641E+02 0.10311198016E+02 0.90887423757E+01
 0.81996750511E+01 0.76573267141E+01 0.74745483498E+01 0.76573798883E+01 0.81997922130E+01
 0.90888490204E+01 0.10311180354E+02 0.11843108311E+02 0.13616702522E+02 0.15472497936E+02
 0.17030129141E+02 0.17335766025E+02 0.13683083977E+02 0.10208673287E+02 0.64882130321E+01
 0.40888329627E+01 0.40887693924E+01 0.64879744631E+01 0.10208282166E+02 0.13682795179E+02
 0.15660140619E+02 0.15747308210E+02 0.14428122825E+02 0.12602029854E+02 0.10792306235E+02
 0.91914450056E+01 0.78925943245E+01 0.69233529793E+01 0.62822276133E+01 0.59631034833E+01
 0.59632294280E+01 0.62824278475E+01 0.69233422867E+01 0.78923746673E+01 0.91912874631E+01
 0.10792344288E+02 0.12602060036E+02 0.14427921711E+02 0.15747005044E+02 0.15660080506E+02
 0.13683263507E+02 0.11543253234E+02 0.95961379294E+01 0.88145368730E+01 0.95957955345E+01
 0.11542713449E+02 0.13682795179E+02 0.14995215783E+02 0.14934626919E+02 0.13654300754E+02
 0.11818862361E+02 0.99751729640E+01 0.83205855824E+01 0.69578387756E+01 0.59207316332E+01
 0.52018837865E+01 0.47810504281E+01 0.46425691367E+01 0.47810442019E+01 0.52018518800E+01
 0.59206629208E+01 0.69577586822E+01 0.83205257561E+01 0.99750977486E+01 0.11818686101E+02
 0.13654037280E+02 0.14934469351E+02 0.14995374744E+02 0.15520453230E+02 0.14914903142E+02
 0.14411807558E+02 0.14411476944E+02 0.14914315893E+02 0.15520287588E+02 0.15660140619E+02
 0.14934626919E+02 0.13364001159E+02 0.11384611887E+02 0.94477854566E+01 0.77199103584E+01
 0.62898879940E+01 0.51885006134E+01 0.44037652290E+01 0.39050475198E+01 0.36635432716E+01
 0.36633986586E+01 0.39048640486E+01 0.44038733960E+01 0.51887518408E+01 0.62898929776E+01
 0.77196823071E+01 0.94477182142E+01 0.11384815038E+02 0.13364083559E+02 0.14934320185E+02
 0.15659802053E+02 0.18328761472E+02 0.18824366212E+02 0.18967804719E+02 0.18824046553E+02
 0.18328608700E+02 0.17335843404E+02 0.15747308210E+02 0.13654300754E+02 0.11384611887E+02
 0.92640730515E+01 0.74110474870E+01 0.58882356641E+01 0.47121842098E+01 0.38614748982E+01
 0.32957761912E+01 0.29748295426E+01 0.28709950125E+01 0.29747593305E+01 0.32958111751E+01
 0.38616356075E+01 0.47122765172E+01 0.58881985247E+01 0.74111024815E+01 0.92643544373E+01
 0.11384846589E+02 0.13654119288E+02 0.15746799237E+02 0.17335519368E+02 0.20924679382E+02
 0.21788281666E+02 0.21788291270E+02 0.20924658643E+02 0.19282368030E+02 0.17030086400E+02
 0.14428122825E+02 0.11818862361E+02 0.94477854566E+01 0.74110474870E+01 0.57537621432E+01
 0.44774649986E+01 0.35484095571E+01 0.29146550070E+01 0.25245905590E+01 0.23396022147E+01
 0.23396436840E+01 0.25246473892E+01 0.29146304642E+01 0.35483332910E+01 0.44774553635E+01
 0.57538465977E+01 0.74111136353E+01 0.94477453962E+01 0.11818786951E+02 0.14428142555E+02
 0.17030206886E+02 0.19282472201E+02 0.22489880447E+02 0.23084466917E+02 0.22489854673E+02
 0.20812628855E+02 0.18341128844E+02 0.15472458694E+02 0.12602029854E+02 0.99751729640E+01
 0.77199103584E+01 0.58882356641E+01 0.44774649986E+01 0.34460164656E+01 0.27317920336E+01
 0.22716740534E+01 0.20157918797E+01 0.19338125359E+01 0.20157619775E+01 0.22716337206E+01
 0.27317585722E+01 0.34459731374E+01 0.44773624896E+01 0.58880551678E+01 0.77197289268E+01
 0.99751294746E+01 0.12602196283E+02 0.15472754479E+02 0.18341389316E+02 0.20812755977E+02
 0.22922988692E+02 0.22922998667E+02 0.21670366967E+02 0.19423871099E+02 0.16600198353E+02
 0.13616779793E+02 0.10792306235E+02 0.83205855824E+01 0.62898879940E+01 0.47121842098E+01
 0.35484095571E+01 0.27317920336E+01 0.21901556544E+01 0.18628690033E+01 0.17091076944E+01
 0.17090784798E+01 0.18628146929E+01 0.21901273996E+01 0.27317867528E+01 0.35483834667E+01
 0.47121285324E+01 0.62898490790E+01 0.83205978526E+01 0.10792338169E+02 0.13616772993E+02
 0.16600141052E+02 0.19423804699E+02 0.21670328637E+02 0.22678780722E+02 0.22043750055E+02
 0.20271349748E+02 0.17705105790E+02 0.14769460200E+02 0.11843231641E+02 0.91914450056E+01
 0.69578387756E+01 0.51885006134E+01 0.38614748982E+01 0.29146550070E+01 0.22716740534E+01
 0.18628690033E+01 0.16371950920E+01 0.15651450247E+01 0.16372128988E+01 0.18628273487E+01
 0.22715830533E+01 0.29146563295E+01 0.38616541368E+01 0.51887321758E+01 0.69579130097E+01
 0.91913168566E+01 0.11843039963E+02 0.14769305326E+02 0.17704931375E+02 0.20271100711E+02
 0.22043539330E+02 0.22144266816E+02 0.20936223661E+02 0.18761629825E+02 0.16009211547E+02
 0.13084547176E+02 0.10311198016E+02 0.78925943245E+01 0.59207316332E+01 0.44037652290E+01
 0.32957761912E+01 0.25245905590E+01 0.20157918797E+01 0.17091076944E+01 0.15651450247E+01
 0.15651667083E+01 0.17091416927E+01 0.20157920816E+01 0.25245635898E+01 0.32957650657E+01
 0.44037767479E+01 0.59207226195E+01 0.78925391289E+01 0.10311133968E+02 0.13084528411E+02
 0.16009239842E+02 0.18761660437E+02 0.20936229517E+02 0.22144263466E+02 0.21437325741E+02
 0.19744083588E+02 0.17287558513E+02 0.14469430209E+02 0.11651153371E+02 0.90887423757E+01
 0.69233529793E+01 0.52018837865E+01 0.39050475198E+01 0.29748295426E+01 0.23396022147E+01
 0.19338125359E+01 0.17090784798E+01 0.16372128988E+01 0.17091416927E+01 0.19339267060E+01
 0.23396811401E+01 0.29747480299E+01 0.39047978267E+01 0.52016405296E+01 0.69233015366E+01
 0.90888673839E+01 0.11651289545E+02 0.14469516460E+02 0.17287715831E+02 0.19744382815E+02
 0.21437596107E+02 0.22043565637E+02 0.20532259659E+02 0.18486424305E+02 0.15899402621E+02
 0.13145185706E+02 0.10516959303E+02 0.81996750511E+01 0.62822276133E+01 0.47810504281E+01
 0.36635432716E+01 0.28709950125E+01 0.23396436840E+01 0.20157619775E+01 0.18628146929E+01
 0.18628273487E+01 0.20157920816E+01 0.23396811401E+01 0.28710371527E+01 0.36635777027E+01
 0.47810533635E+01 0.62821994720E+01 0.81996544759E+01 0.10516979924E+02 0.13145239048E+02
 0.15899461487E+02 0.18486478168E+02 0.20532304476E+02 0.21670342495E+02 0.21670323598E+02
 0.19348383094E+02 0.17180496739E+02 0.14653943741E+02 0.12095307479E+02 0.97206394146E+01
 0.76573267141E+01 0.59631034833E+01 0.46425691367E+01 0.36633986586E+01 0.29747593305E+01
 0.25246473892E+01 0.22716337206E+01 0.21901273996E+01 0.22715830533E+01 0.25245635898E+01
 0.29747480299E+01 0.36635777027E+01 0.46428736103E+01 0.59632896363E+01 0.76572515247E+01
 0.97204457091E+01 0.12095229140E+02 0.14653990120E+02 0.17180460293E+02 0.19348157789E+02
 0.20812481410E+02 0.21330087224E+02 0.20812718455E+02 0.17877090191E+02 0.15929486868E+02
 0.13673870953E+02 0.11405924792E+02 0.93061111302E+01 0.74745483498E+01 0.59632294280E+01
 0.47810442019E+01 0.39048640486E+01 0.32958111751E+01 0.29146304642E+01 0.27317585722E+01
 0.27317867528E+01 0.29146563295E+01 0.32957650657E+01 0.39047978267E+01 0.47810533635E+01
 0.59632896363E+01 0.74745428803E+01 0.93060128911E+01 0.11405845697E+02 0.13673904209E+02
 0.15929581289E+02 0.17877131435E+02 0.19282424301E+02 0.20013053829E+02 0.20013083266E+02
 0.19282458715E+02 0.16422569433E+02 0.14977455638E+02 0.13123334073E+02 0.11163694480E+02
 0.93060105791E+01 0.76573798883E+01 0.62824278475E+01 0.52018518800E+01 0.44038733960E+01
 0.38616356075E+01 0.35483332910E+01 0.34459731374E+01 0.35483834667E+01 0.38616541368E+01
 0.44037767479E+01 0.52016405296E+01 0.62821994720E+01 0.76572515247E+01 0.93060128911E+01
 0.11163749437E+02 0.13123365594E+02 0.14977513351E+02 0.16422780406E+02 0.17335896848E+02
 0.17787407613E+02 0.17915801793E+02 0.17787104625E+02 0.17335531749E+02 0.15498543437E+02
 0.14616761885E+02 0.13123334267E+02 0.11405758297E+02 0.97204942513E+01 0.81997922130E+01
 0.69233422867E+01 0.59206629208E+01 0.51887518408E+01 0.47122765172E+01 0.44774553635E+01
 0.44773624896E+01 0.47121285324E+01 0.51887321758E+01 0.59207226195E+01 0.69233015366E+01
 0.81996544759E+01 0.97204457091E+01 0.11405845697E+02 0.13123365594E+02 0.14616638000E+02
 0.15498505889E+02 0.15660124340E+02 0.15359331069E+02 0.15041638051E+02 0.15041351237E+02
 0.15358762260E+02 0.15659787889E+02 0.15498774005E+02 0.14977699928E+02 0.13673858017E+02
 0.12095149246E+02 0.10516998024E+02 0.90888490204E+01 0.78923746673E+01 0.69577586822E+01
 0.62898929776E+01 0.58881985247E+01 0.57538465977E+01 0.58880551678E+01 0.62898490790E+01
 0.69579130097E+01 0.78925391289E+01 0.90888673839E+01 0.10516979924E+02 0.12095229140E+02
 0.13673904209E+02 0.14977513351E+02 0.15498505889E+02 0.14995420389E+02 0.13764806050E+02
 0.12523567096E+02 0.12006589844E+02 0.12522999762E+02 0.13764248883E+02 0.14995339936E+02
 0.16422963802E+02 0.15929677942E+02 0.14653943746E+02 0.13145197890E+02 0.11651332044E+02
 0.10311180354E+02 0.91912874631E+01 0.83205257561E+01 0.77196823071E+01 0.74111024815E+01
 0.74111136353E+01 0.77197289268E+01 0.83205978526E+01 0.91913168566E+01 0.10311133968E+02
 0.11651289545E+02 0.13145239048E+02 0.14653990120E+02 0.15929581289E+02 0.16422780406E+02
 0.15660124340E+02 0.13764806050E+02 0.11520935751E+02 0.10011625188E+02 0.10011314921E+02
 0.11520282949E+02 0.13764341345E+02 0.15660087046E+02 0.17877194066E+02 0.17180527508E+02
 0.15899510233E+02 0.14469590363E+02 0.13084626692E+02 0.11843108311E+02 0.10792344288E+02
 0.99750977486E+01 0.94477182142E+01 0.92643544373E+01 0.94477453962E+01 0.99751294746E+01
 0.10792338169E+02 0.11843039963E+02 0.13084528411E+02 0.14469516460E+02 0.15899461487E+02
 0.17180460293E+02 0.17877131435E+02 0.17335896848E+02 0.15359331069E+02 0.12523567096E+02
 0.10011625188E+02 0.90086948016E+01 0.10011227080E+02 0.12523045421E+02 0.15358985876E+02
 0.17335816106E+02 0.19348227269E+02 0.18486519511E+02 0.17287779027E+02 0.16009340947E+02
 0.14769355951E+02 0.13616702522E+02 0.12602060036E+02 0.11818686101E+02 0.11384815038E+02
 0.11384846589E+02 0.11818786951E+02 0.12602196283E+02 0.13616772993E+02 0.14769305326E+02
 0.16009239842E+02 0.17287715831E+02 0.18486478168E+02 0.19348157789E+02 0.19282424301E+02
 0.17787407613E+02 0.15041638051E+02 0.12006589844E+02 0.10011314921E+02 0.10011227080E+02
 0.12006380079E+02 0.15041440023E+02 0.17787337887E+02 0.19282475054E+02 0.20532239092E+02
 0.19744351512E+02 0.18761780247E+02 0.17705064638E+02 0.16600067839E+02 0.15472497936E+02
 0.14427921711E+02 0.13654037280E+02 0.13364083559E+02 0.13654119288E+02 0.14428142555E+02
 0.15472754479E+02 0.16600141052E+02 0.17704931375E+02 0.18761660437E+02 0.19744382815E+02
 0.20532304476E+02 0.20812481410E+02 0.20013053829E+02 0.17915801793E+02 0.15041351237E+02
 0.12522999762E+02 0.11520282949E+02 0.12523045421E+02 0.15041440023E+02 0.17915941408E+02
 0.20013203221E+02 0.20812534146E+02 0.21437549129E+02 0.20936389237E+02 0.20271264885E+02
 0.19423707453E+02 0.18341119855E+02 0.17030129141E+02 0.15747005044E+02 0.14934469351E+02
 0.14934320185E+02 0.15746799237E+02 0.17030206886E+02 0.18341389316E+02 0.19423804699E+02
 0.20271100711E+02 0.20936229517E+02 0.21437596107E+02 0.21670342495E+02 0.21330087224E+02
 0.20013083266E+02 0.17787104625E+02 0.15358762260E+02 0.13764248883E+02 0.13764341345E+02
 0.15358985876E+02 0.17787337887E+02 0.20013203221E+02 0.21330030617E+02 0.21670187690E+02
 0.22144396602E+02 0.22043561517E+02 0.21670151368E+02 0.20812521981E+02 0.19282440482E+02
 0.17335766025E+02 0.15660080506E+02 0.14995374744E+02 0.15659802053E+02 0.17335519368E+02
 0.19282472201E+02 0.20812755977E+02 0.21670328637E+02 0.22043539330E+02 0.22144263466E+02
 0.22043565637E+02 0.21670323598E+02 0.20812718455E+02 0.19282458715E+02 0.17335531749E+02
 0.15659787889E+02 0.14995339936E+02 0.15660087046E+02 0.17335816106E+02 0.19282475054E+02
 0.20812534146E+02 0.21670187690E+02 0.22043611464E+02 0.22292230278E+02 0.22489736503E+02
 0.21331485832E+02 0.18604721991E+02 0.14977250640E+02 0.11837932349E+02 0.10593904927E+02
 0.11837924938E+02 0.14977231265E+02 0.18604722575E+02 0.21331556434E+02 0.22489872423E+02
 0.22292360901E+02 0.21437588512E+02 0.20363732938E+02 0.19207374186E+02 0.17989747894E+02
 0.16731342014E+02 0.15537276261E+02 0.14634139213E+02 0.14292706672E+02 0.14634112559E+02
 0.15537276484E+02 0.16731400213E+02 0.17989836857E+02 0.19207445957E+02 0.20363750215E+02
 0.21437526905E+02 0.22489736503E+02 0.21788369691E+02 0.18967862276E+02 0.14411610813E+02
 0.95957736077E+01 0.64880327104E+01 0.64882325328E+01 0.95961555906E+01 0.14411801276E+02
 0.18967786938E+02 0.21788287438E+02 0.22489857704E+02 0.21670356446E+02 0.20271335946E+02
 0.18761634265E+02 0.17287570747E+02 0.15899400850E+02 0.14653938946E+02 0.13673886481E+02
 0.13123360749E+02 0.13123349282E+02 0.13673868200E+02 0.14653965950E+02 0.15899528893E+02
 0.17287768167E+02 0.18761749159E+02 0.20271239043E+02 0.21670128028E+02 0.21331485832E+02
 0.18967862276E+02 0.14156345680E+02 0.81116329321E+01 0.30280323893E+01 0.10384232777E+01