   2   2   0   0
  0.1968300E+02  0.3818377E-09  0.3818377E-09  0.3818377E-09  0.5000000E-15
  1.000000000000000E-004
  CAR 
 diamond Si                              
     16.99209803     -7.17472982  301      6.29113366      1.00000000
     -7.175  0.0000E+00  0.0000E+00
     -7.094  0.0000E+00  0.0000E+00
     -7.014  0.0000E+00  0.0000E+00
     -6.933  0.0000E+00  0.0000E+00
     -6.853  0.0000E+00  0.0000E+00
     -6.772  0.0000E+00  0.0000E+00
     -6.691  0.0000E+00  0.0000E+00
     -6.611  0.3748E-15  0.3020E-16
     -6.530  0.1261E-11  0.1016E-12
     -6.450  0.1192E-08  0.9610E-10
     -6.369  0.3199E-06  0.2587E-07
     -6.289  0.2498E-04  0.2039E-05
     -6.208  0.6074E-03  0.5097E-04
     -6.128  0.5718E-02  0.5116E-03
     -6.047  0.3042E-01  0.2962E-02
     -5.966  0.9023E-01  0.1023E-01
     -5.886  0.1214E+00  0.2001E-01
     -5.805  0.1275E+00  0.3028E-01
     -5.725  0.2089E+00  0.4710E-01
     -5.644  0.2871E+00  0.7024E-01
     -5.564  0.2037E+00  0.8664E-01
     -5.483  0.1403E+00  0.9795E-01
     -5.402  0.2868E+00  0.1210E+00
     -5.322  0.4088E+00  0.1540E+00
     -5.241  0.3348E+00  0.1810E+00
     -5.161  0.3317E+00  0.2077E+00
     -5.080  0.3430E+00  0.2353E+00
     -5.000  0.2369E+00  0.2544E+00
     -4.919  0.2450E+00  0.2741E+00
     -4.839  0.5292E+00  0.3168E+00
     -4.758  0.6314E+00  0.3676E+00
     -4.677  0.4106E+00  0.4007E+00
     -4.597  0.4295E+00  0.4353E+00
     -4.516  0.4746E+00  0.4735E+00
     -4.436  0.3314E+00  0.5002E+00
     -4.355  0.2753E+00  0.5224E+00
     -4.275  0.5364E+00  0.5656E+00
     -4.194  0.7804E+00  0.6285E+00
     -4.114  0.7970E+00  0.6927E+00
     -4.033  0.6779E+00  0.7473E+00
     -3.952  0.5589E+00  0.7923E+00
     -3.872  0.4867E+00  0.8315E+00
     -3.791  0.4828E+00  0.8704E+00
     -3.711  0.5093E+00  0.9114E+00
     -3.630  0.9428E+00  0.9874E+00
     -3.550  0.1368E+01  0.1098E+01
     -3.469  0.9957E+00  0.1178E+01
     -3.389  0.6068E+00  0.1227E+01
     -3.308  0.7767E+00  0.1289E+01
     -3.227  0.5954E+00  0.1337E+01
     -3.147  0.3814E+00  0.1368E+01
     -3.066  0.6397E+00  0.1419E+01
     -2.986  0.1065E+01  0.1505E+01
     -2.905  0.9861E+00  0.1585E+01
     -2.825  0.4964E+00  0.1625E+01
     -2.744  0.3237E+00  0.1651E+01
     -2.664  0.4141E+00  0.1684E+01
     -2.583  0.3882E+00  0.1715E+01
     -2.502  0.6643E+00  0.1769E+01
     -2.422  0.8239E+00  0.1835E+01
     -2.341  0.4898E+00  0.1875E+01
     -2.261  0.2795E+00  0.1897E+01
     -2.180  0.1688E+00  0.1911E+01
     -2.100  0.1825E+00  0.1925E+01
     -2.019  0.2801E+00  0.1948E+01
     -1.939  0.3212E+00  0.1974E+01
     -1.858  0.2696E+00  0.1996E+01
     -1.777  0.1717E+00  0.2009E+01
     -1.697  0.1100E+00  0.2018E+01
     -1.616  0.1423E+00  0.2030E+01
     -1.536  0.1943E+00  0.2045E+01
     -1.455  0.1148E+00  0.2055E+01
     -1.375  0.1299E+00  0.2065E+01
     -1.294  0.2252E+00  0.2083E+01
     -1.214  0.3570E+00  0.2112E+01
     -1.133  0.7684E+00  0.2174E+01
     -1.052  0.9652E+00  0.2252E+01
     -0.972  0.7432E+00  0.2312E+01
     -0.891  0.7434E+00  0.2371E+01
     -0.811  0.1278E+01  0.2474E+01
     -0.730  0.1456E+01  0.2592E+01
     -0.650  0.1047E+01  0.2676E+01
     -0.569  0.8645E+00  0.2746E+01
     -0.489  0.1010E+01  0.2827E+01
     -0.408  0.9692E+00  0.2905E+01
     -0.327  0.5494E+00  0.2949E+01
     -0.247  0.2905E+00  0.2973E+01
     -0.166  0.5619E+00  0.3018E+01
     -0.086  0.8686E+00  0.3088E+01
     -0.005  0.6247E+00  0.3138E+01
      0.075  0.3917E+00  0.3170E+01
      0.156  0.3593E+00  0.3199E+01
      0.236  0.4661E+00  0.3236E+01
      0.317  0.5924E+00  0.3284E+01
      0.398  0.3406E+00  0.3312E+01
      0.478  0.1688E+00  0.3325E+01
      0.559  0.3486E+00  0.3353E+01
      0.639  0.5986E+00  0.3401E+01
      0.720  0.5293E+00  0.3444E+01
      0.800  0.2711E+00  0.3466E+01
      0.881  0.1896E+00  0.3481E+01
      0.961  0.1999E+00  0.3497E+01
      1.042  0.2155E+00  0.3515E+01
      1.123  0.4811E+00  0.3553E+01
      1.203  0.5107E+00  0.3595E+01
      1.284  0.1807E+00  0.3609E+01
      1.364  0.2144E-01  0.3611E+01
      1.445  0.2013E-01  0.3612E+01
      1.525  0.1697E+00  0.3626E+01
      1.606  0.6467E+00  0.3678E+01
      1.686  0.1160E+01  0.3772E+01
      1.767  0.1215E+01  0.3870E+01
      1.848  0.1010E+01  0.3951E+01
      1.928  0.7823E+00  0.4014E+01
      2.009  0.7215E+00  0.4072E+01
      2.089  0.1086E+01  0.4160E+01
      2.170  0.1474E+01  0.4278E+01
      2.250  0.1493E+01  0.4399E+01
      2.331  0.8689E+00  0.4469E+01
      2.411  0.5700E+00  0.4514E+01
      2.492  0.8843E+00  0.4586E+01
      2.573  0.9986E+00  0.4666E+01
      2.653  0.8897E+00  0.4738E+01
      2.734  0.1071E+01  0.4824E+01
      2.814  0.1395E+01  0.4936E+01
      2.895  0.1532E+01  0.5060E+01
      2.975  0.1290E+01  0.5164E+01
      3.056  0.9669E+00  0.5242E+01
      3.136  0.9755E+00  0.5320E+01
      3.217  0.1508E+01  0.5442E+01
      3.298  0.2057E+01  0.5607E+01
      3.378  0.1980E+01  0.5767E+01
      3.459  0.1165E+01  0.5861E+01
      3.539  0.7549E+00  0.5922E+01
      3.620  0.1248E+01  0.6022E+01
      3.700  0.1674E+01  0.6157E+01
      3.781  0.1585E+01  0.6285E+01
      3.861  0.1143E+01  0.6377E+01
      3.942  0.7528E+00  0.6437E+01
      4.023  0.1087E+01  0.6525E+01
      4.103  0.1689E+01  0.6661E+01
      4.184  0.1696E+01  0.6798E+01
      4.264  0.1489E+01  0.6918E+01
      4.345  0.1098E+01  0.7006E+01
      4.425  0.8993E+00  0.7078E+01
      4.506  0.1318E+01  0.7185E+01
      4.586  0.1329E+01  0.7292E+01
      4.667  0.8271E+00  0.7358E+01
      4.748  0.5823E+00  0.7405E+01
      4.828  0.8767E+00  0.7476E+01
      4.909  0.1213E+01  0.7574E+01
      4.989  0.9161E+00  0.7647E+01
      5.070  0.5370E+00  0.7691E+01
      5.150  0.5947E+00  0.7739E+01
      5.231  0.7294E+00  0.7797E+01
      5.311  0.5962E+00  0.7845E+01
      5.392  0.3323E+00  0.7872E+01
      5.473  0.2431E+00  0.7892E+01
      5.553  0.3421E+00  0.7919E+01
      5.634  0.2937E+00  0.7943E+01
      5.714  0.1273E+00  0.7953E+01
      5.795  0.1122E+00  0.7962E+01
      5.875  0.2177E+00  0.7980E+01
      5.956  0.1676E+00  0.7993E+01
      6.036  0.6055E-01  0.7998E+01
      6.117  0.1945E-01  0.8000E+01
      6.198  0.3733E-02  0.8000E+01
      6.278  0.2465E-03  0.8000E+01
      6.359  0.1006E-03  0.8000E+01
      6.439  0.2751E-02  0.8000E+01
      6.520  0.2525E-01  0.8002E+01
      6.600  0.8000E-01  0.8009E+01
      6.681  0.1140E+00  0.8018E+01
      6.761  0.1729E+00  0.8032E+01
      6.842  0.2836E+00  0.8055E+01
      6.923  0.2974E+00  0.8079E+01
      7.003  0.3080E+00  0.8103E+01
      7.084  0.3225E+00  0.8129E+01
      7.164  0.2761E+00  0.8152E+01
      7.245  0.2755E+00  0.8174E+01
      7.325  0.5415E+00  0.8217E+01
      7.406  0.7429E+00  0.8277E+01
      7.486  0.5941E+00  0.8325E+01
      7.567  0.5542E+00  0.8370E+01
      7.648  0.9463E+00  0.8446E+01
      7.728  0.1203E+01  0.8543E+01
      7.809  0.1119E+01  0.8633E+01
      7.889  0.8345E+00  0.8700E+01
      7.970  0.8493E+00  0.8769E+01
      8.050  0.8728E+00  0.8839E+01
      8.131  0.8841E+00  0.8910E+01
      8.211  0.1307E+01  0.9016E+01
      8.292  0.1845E+01  0.9164E+01
      8.373  0.1800E+01  0.9309E+01
      8.453  0.1281E+01  0.9412E+01
      8.534  0.1111E+01  0.9502E+01
      8.614  0.8757E+00  0.9573E+01
      8.695  0.1163E+01  0.9666E+01
      8.775  0.1626E+01  0.9797E+01
      8.856  0.1530E+01  0.9920E+01
      8.936  0.1252E+01  0.1002E+02
      9.017  0.9501E+00  0.1010E+02
      9.098  0.1176E+01  0.1019E+02
      9.178  0.1329E+01  0.1030E+02
      9.259  0.1453E+01  0.1042E+02
      9.339  0.2311E+01  0.1060E+02
      9.420  0.2621E+01  0.1081E+02
      9.500  0.1851E+01  0.1096E+02
      9.581  0.1384E+01  0.1107E+02
      9.661  0.1607E+01  0.1120E+02
      9.742  0.1999E+01  0.1137E+02
      9.823  0.1932E+01  0.1152E+02
      9.903  0.1565E+01  0.1165E+02
      9.984  0.9140E+00  0.1172E+02
     10.064  0.6944E+00  0.1178E+02
     10.145  0.8651E+00  0.1185E+02
     10.225  0.8584E+00  0.1192E+02
     10.306  0.1054E+01  0.1200E+02
     10.386  0.1350E+01  0.1211E+02
     10.467  0.1275E+01  0.1221E+02
     10.548  0.9080E+00  0.1228E+02
     10.628  0.9202E+00  0.1236E+02
     10.709  0.1733E+01  0.1250E+02
     10.789  0.2490E+01  0.1270E+02
     10.870  0.2037E+01  0.1286E+02
     10.950  0.1306E+01  0.1297E+02
     11.031  0.1080E+01  0.1306E+02
     11.112  0.1298E+01  0.1316E+02
     11.192  0.1517E+01  0.1328E+02
     11.273  0.1153E+01  0.1337E+02
     11.353  0.8294E+00  0.1344E+02
     11.434  0.7429E+00  0.1350E+02
     11.514  0.6462E+00  0.1355E+02
     11.595  0.5773E+00  0.1360E+02
     11.675  0.7425E+00  0.1366E+02
     11.756  0.9690E+00  0.1374E+02
     11.837  0.1452E+01  0.1385E+02
     11.917  0.1419E+01  0.1397E+02
     11.998  0.8251E+00  0.1404E+02
     12.078  0.5987E+00  0.1408E+02
     12.159  0.8911E+00  0.1416E+02
     12.239  0.1184E+01  0.1425E+02
     12.320  0.1240E+01  0.1435E+02
     12.400  0.1172E+01  0.1445E+02
     12.481  0.1455E+01  0.1456E+02
     12.562  0.1567E+01  0.1469E+02
     12.642  0.9213E+00  0.1476E+02
     12.723  0.4806E+00  0.1480E+02
     12.803  0.7244E+00  0.1486E+02
     12.884  0.9807E+00  0.1494E+02
     12.964  0.7235E+00  0.1500E+02
     13.045  0.5990E+00  0.1505E+02
     13.125  0.4901E+00  0.1509E+02
     13.206  0.2822E+00  0.1511E+02
     13.287  0.5441E+00  0.1515E+02
     13.367  0.8502E+00  0.1522E+02
     13.448  0.8546E+00  0.1529E+02
     13.528  0.6631E+00  0.1534E+02
     13.609  0.3479E+00  0.1537E+02
     13.689  0.1845E+00  0.1539E+02
     13.770  0.4124E+00  0.1542E+02
     13.850  0.9227E+00  0.1549E+02
     13.931  0.1100E+01  0.1558E+02
     14.012  0.8693E+00  0.1565E+02
     14.092  0.5835E+00  0.1570E+02
     14.173  0.5630E+00  0.1574E+02
     14.253  0.7574E+00  0.1580E+02
     14.334  0.8329E+00  0.1587E+02
     14.414  0.4026E+00  0.1590E+02
     14.495  0.6533E-01  0.1591E+02
     14.575  0.3301E-02  0.1591E+02
     14.656  0.5018E-04  0.1591E+02
     14.737  0.2244E-06  0.1591E+02
     14.817  0.2900E-09  0.1591E+02
     14.898  0.1070E-12  0.1591E+02
     14.978  0.7381E-14  0.1591E+02
     15.059  0.2558E-10  0.1591E+02
     15.139  0.2486E-07  0.1591E+02
     15.220  0.6849E-05  0.1591E+02
     15.300  0.5434E-03  0.1591E+02
     15.381  0.1273E-01  0.1591E+02
     15.462  0.9185E-01  0.1592E+02
     15.542  0.2261E+00  0.1594E+02
     15.623  0.2518E+00  0.1596E+02
     15.703  0.1957E+00  0.1597E+02
     15.784  0.1085E+00  0.1598E+02
     15.864  0.8255E-01  0.1599E+02
     15.945  0.9688E-01  0.1600E+02
     16.025  0.4549E-01  0.1600E+02
     16.106  0.6673E-02  0.1600E+02
     16.187  0.2949E-03  0.1600E+02
     16.267  0.3828E-05  0.1600E+02
     16.348  0.1429E-07  0.1600E+02
     16.428  0.1513E-10  0.1600E+02
     16.509  0.4498E-14  0.1600E+02
     16.589  0.0000E+00  0.1600E+02
     16.670  0.0000E+00  0.1600E+02
     16.750  0.0000E+00  0.1600E+02
     16.831  0.0000E+00  0.1600E+02
     16.912  0.0000E+00  0.1600E+02
     16.992  0.0000E+00  0.1600E+02
