    2    2    1    1
  0.1968300E+02  0.3818377E-09  0.3818377E-09  0.3818377E-09  0.5000000E-15
  1.000000000000000E-004
  CAR 
 diamond Si                              
      8     56      8
 
  0.0000000E+00  0.0000000E+00  0.0000000E+00  0.7513148E-03
      1         -6.076238   1.000000
      2          6.012649   0.999959
      3          6.012719   0.999959
      4          6.012719   0.999959
      5          8.585463   0.000000
      6          8.585512   0.000000
      7          8.585512   0.000000
      8          9.570672   0.000000
 
  0.9090909E-01  0.2990500E-17 -0.1697342E-17  0.6010518E-02
      1         -5.966399   1.000000
      2          5.021510   1.000000
      3          5.841073   1.000000
      4          5.841134   1.000000
      5          8.645598   0.000000
      6          8.837824   0.000000
      7          8.837880   0.000000
      8         10.319151   0.000000
 
  0.1818182E+00 -0.9578944E-18  0.3544209E-17  0.6010518E-02
      1         -5.640855   1.000000
      2          3.324698   1.000000
      3          5.493287   1.000000
      4          5.493348   1.000000
      5          8.364960   0.000000
      6          9.319574   0.000000
      7          9.319670   0.000000
      8         11.891293   0.000000
 
  0.2727273E+00  0.1105317E-16 -0.7173695E-17  0.6010518E-02
      1         -5.116272   1.000000
      2          1.639524   1.000000
      3          5.162391   1.000000
      4          5.162460   1.000000
      5          8.023851   0.000000
      6          9.564894   0.000000
      7          9.565028   0.000000
      8         13.423924   0.000000
 
  0.3636364E+00  0.5023105E-17  0.1495250E-18  0.6010518E-02
      1         -4.442988   1.000000
      2          0.158727   1.000000
      3          4.927550   1.000000
      4          4.927621   1.000000
      5          7.765784   0.000000
      6          9.492022   0.000000
      7          9.492173   0.000000
      8         13.946284   0.000000
 
  0.4545455E+00  0.1911583E-16  0.1510553E-16  0.6010518E-02
      1         -3.816547   1.000000
      2         -0.879564   1.000000
      3          4.808047   1.000000
      4          4.808119   1.000000
      5          7.631727   0.000000
      6          9.375942   0.000000
      7          9.376096   0.000000
      8         13.786198   0.000000
 
  0.9090909E-01  0.9090909E-01  0.3405578E-17  0.4507889E-02
      1         -5.929564   1.000000
      2          5.222462   1.000000
      3          5.505426   1.000000
      4          5.505469   1.000000
      5          8.259587   0.000000
      6          9.273242   0.000000
      7          9.273279   0.000000
      8         10.278686   0.000000
 
  0.1818182E+00  0.9090909E-01  0.8889728E-18  0.1803156E-01
      1         -5.675237   1.000000
      2          3.837945   1.000000
      3          5.098734   1.000000
      4          5.297411   1.000000
      5          8.301684   0.000000
      6          9.381824   0.000000
      7          9.879248   0.000000
      8         11.090273   0.000000
 
  0.2727273E+00  0.9090909E-01  0.1098775E-16  0.1803156E-01
      1         -5.214398   1.000000
      2          2.189535   1.000000
      3          4.773714   1.000000
      4          4.918633   1.000000
      5          8.457346   0.000000
      6          9.356896   0.000000
      7         10.231809   0.000000
      8         11.413659   0.000000
 
  0.3636364E+00  0.9090909E-01  0.4433182E-17  0.1803156E-01
      1         -4.580872   1.000000
      2          0.654730   1.000000
      3          4.530430   1.000000
      4          4.585011   1.000000
      5          8.325644   0.000000
      6          9.357769   0.000000
      7         10.148731   0.000000
      8         12.198266   0.000000
 
  0.4545455E+00  0.9090909E-01  0.1938919E-16  0.1803156E-01
      1         -3.895622   1.000000
      2         -0.563257   1.000000
      3          4.225931   1.000000
      4          4.545345   1.000000
      5          8.193399   0.000000
      6          9.299128   0.000000
      7          9.896300   0.000000
      8         13.458648   0.000000
 
 -0.4545455E+00  0.9090909E-01  0.1693370E-16  0.1803156E-01
      1         -3.617313   1.000000
      2         -0.975563   1.000000
      3          4.043879   1.000000
      4          4.650230   1.000000
      5          8.174873   0.000000
      6          9.349782   0.000000
      7          9.702904   0.000000
      8         14.138139   0.000000
 
 -0.3636364E+00  0.9090909E-01  0.4134132E-17  0.1803156E-01
      1         -4.114577   1.000000
      2         -0.207778   1.000000
      3          4.004104   1.000000
      4          4.882745   1.000000
      5          8.281838   0.000000
      6          9.543546   0.000000
      7          9.628696   0.000000
      8         13.864949   0.000000
 
 -0.2727273E+00  0.9090909E-01  0.2436790E-17  0.1803156E-01
      1         -4.808772   1.000000
      2          1.146201   1.000000
      3          4.124083   1.000000
      4          5.214905   1.000000
      5          8.501690   0.000000
      6          9.569258   0.000000
      7          9.771516   0.000000
      8         12.830156   0.000000
 
 -0.1818182E+00  0.9090909E-01  0.7394478E-18  0.1803156E-01
      1         -5.390638   1.000000
      2          2.724944   1.000000
      3          4.421534   1.000000
      4          5.588136   1.000000
      5          8.798015   0.000000
      6          9.294229   0.000000
      7          9.670319   0.000000
      8         11.973584   0.000000
 
 -0.9090909E-01  0.9090909E-01  0.5980999E-17  0.9015778E-02
      1         -5.784395   1.000000
      2          4.218258   1.000000
      3          4.993282   1.000000
      4          5.868537   1.000000
      5          8.886887   0.000000
      6          9.029790   0.000000
      7          9.069417   0.000000
      8         11.159200   0.000000
 
  0.1818182E+00  0.1818182E+00  0.6811155E-17  0.4507889E-02
      1         -5.492149   1.000000
      2          3.718678   1.000000
      3          4.655329   1.000000
      4          4.655372   1.000000
      5          7.599425   0.000000
      6         10.202976   0.000000
      7         10.658270   0.000000
      8         10.658309   0.000000
 
  0.2727273E+00  0.1818182E+00  0.3475288E-17  0.1803156E-01
      1         -5.098782   1.000000
      2          2.533704   1.000000
      3          4.236443   1.000000
      4          4.305139   1.000000
      5          7.655026   0.000000
      6          9.748574   0.000000
      7         10.954822   0.000000
      8         11.248896   0.000000
 
  0.3636364E+00  0.1818182E+00  0.1079851E-16  0.1803156E-01
      1         -4.517412   1.000000
      2          1.130837   1.000000
      3          3.699258   1.000000
      4          4.105821   1.000000
      5          7.895143   0.000000
      6         10.113522   0.000000
      7         10.759541   0.000000
      8         11.315321   0.000000
 
  0.4545455E+00  0.1818182E+00  0.1673395E-16  0.1803156E-01
      1         -3.822893   1.000000
      2         -0.135139   1.000000
      3          3.215089   1.000000
      4          4.074125   1.000000
      5          7.935302   0.000000
      6         10.536104   0.000000
      7         11.041799   0.000000
      8         11.346403   0.000000
 
 -0.4545455E+00  0.1818182E+00  0.1427847E-16  0.1803156E-01
      1         -3.325953   1.000000
      2         -0.864781   1.000000
      3          2.871958   1.000000
      4          4.209270   1.000000
      5          8.042987   0.000000
      6         10.403173   0.000000
      7         10.741592   0.000000
      8         13.006634   0.000000
 
 -0.3636364E+00  0.1818182E+00  0.1952002E-16  0.1803156E-01
      1         -3.619901   1.000000
      2         -0.442076   1.000000
      3          2.712099   1.000000
      4          4.493537   1.000000
      5          8.309620   0.000000
      6         10.384412   0.000000
      7         10.514078   0.000000
      8         13.873822   0.000000
 
 -0.2727273E+00  0.1818182E+00 -0.2184467E-18  0.1803156E-01
      1         -4.307127   1.000000
      2          0.702286   1.000000
      3          2.788021   1.000000
      4          4.890096   1.000000
      5          8.698896   0.000000
      6         10.277501   0.000000
      7         10.426586   0.000000
      8         12.468612   0.000000
 
 -0.1818182E+00  0.1818182E+00 -0.1915789E-17  0.9015778E-02
      1         -4.935336   1.000000
      2          1.919020   1.000000
      3          3.273053   1.000000
      4          5.314742   1.000000
      5          9.056896   0.000000
      6          9.787599   0.000000
      7         10.112663   0.000000
      8         11.776956   0.000000
 
  0.2727273E+00  0.2727273E+00  0.1021673E-16  0.4507889E-02
      1         -4.772219   1.000000
      2          2.079210   1.000000
      3          3.919519   1.000000
      4          3.919560   1.000000
      5          6.996514   0.000000
      6          8.807006   0.000000
      7         12.257570   0.000000
      8         12.257593   0.000000
 
  0.3636364E+00  0.2727273E+00  0.8143271E-17  0.1803156E-01
      1         -4.250012   1.000000
      2          1.107123   1.000000
      3          3.370883   1.000000
      4          3.684173   1.000000
      5          7.130392   0.000000
      6          8.513221   0.000000
      7         12.563649   0.000000
      8         12.719176   0.000000
 
  0.4545455E+00  0.2727273E+00  0.6445929E-17  0.1803156E-01
      1         -3.577735   1.000000
      2          0.055414   1.000000
      3          2.628873   1.000000
      4          3.622405   1.000000
      5          7.326508   0.000000
      6          9.288254   0.000000
      7         12.412854   0.000000
      8         12.560958   0.000000
 
 -0.4545455E+00  0.2727273E+00  0.1856213E-16  0.1803156E-01
      1         -2.947500   1.000000
      2         -0.768569   1.000000
      3          2.044993   1.000000
      4          3.737571   1.000000
      5          7.464146   0.000000
      6         10.789352   0.000000
      7         12.218811   0.000000
      8         12.254096   0.000000
 
 -0.3636364E+00  0.2727273E+00  0.2380368E-16  0.1803156E-01
      1         -3.003539   1.000000
      2         -0.688284   1.000000
      3          1.751182   1.000000
      4          4.018388   1.000000
      5          7.763623   0.000000
      6         11.865574   0.000000
      7         11.900003   0.000000
      8         12.848329   0.000000
 
 -0.2727273E+00  0.2727273E+00  0.2210633E-16  0.9015778E-02
      1         -3.653432   1.000000
      2          0.088453   1.000000
      3          1.912192   1.000000
      4          4.430074   1.000000
      5          8.225912   0.000000
      6         11.269097   0.000000
      7         11.626490   0.000000
      8         12.553067   0.000000
 
  0.3636364E+00  0.3636364E+00  0.1362231E-16  0.4507889E-02
      1         -3.786283   1.000000
      2          0.436715   1.000000
      3          3.404478   1.000000
      4          3.404517   1.000000
      5          6.629648   0.000001
      6          7.648226   0.000000
      7         13.956083   0.000000
      8         13.956100   0.000000
 
  0.4545455E+00  0.3636364E+00  0.1315820E-16  0.1803156E-01
      1         -3.153271   1.000000
      2         -0.391298   1.000000
      3          2.854433   1.000000
      4          3.297417   1.000000
      5          6.837569   0.000000
      6          7.671158   0.000000
      7         14.272763   0.000000
      8         14.301700   0.000000
 
 -0.4545455E+00  0.3636364E+00  0.2284578E-16  0.1803156E-01
      1         -2.463755   1.000000
      2         -1.121620   1.000000
      3          2.053840   1.000000
      4          3.372221   1.000000
      5          7.006629   0.000000
      6          8.883795   0.000000
      7         13.971894   0.000000
      8         14.169096   0.000000
 
 -0.3636364E+00  0.3636364E+00  0.1004621E-16  0.9015778E-02
      1         -2.391917   1.000000
      2         -1.158957   1.000000
      3          1.555684   1.000000
      4          3.621339   1.000000
      5          7.292053   0.000000
      6         10.632766   0.000000
      7         13.291613   0.000000
      8         13.852457   0.000000
 
  0.4545455E+00  0.4545455E+00  0.1702789E-16  0.4507889E-02
      1         -2.560126   1.000000
      2         -1.133055   1.000000
      3          3.140699   1.000000
      4          3.140737   1.000000
      5          6.581811   0.000020
      6          6.908313   0.000000
      7         15.688128   0.000000
      8         15.688151   0.000000
 
 -0.4545455E+00  0.4545455E+00 -0.1727948E-16  0.9015778E-02
      1         -1.900768   1.000000
      2         -1.789613   1.000000
      3          2.685123   1.000000
      4          3.166392   1.000000
      5          6.763056   0.000000
      6          7.361675   0.000000
      7         15.613054   0.000000
      8         15.893606   0.000000
 
  0.2727273E+00  0.1818182E+00  0.9090909E-01  0.1803156E-01
      1         -5.351787   1.000000
      2          2.977591   1.000000
      3          4.135475   1.000000
      4          5.178347   1.000000
      5          8.358881   0.000000
      6          9.722620   0.000000
      7         10.444736   0.000000
      8         10.822652   0.000000
 
  0.3636364E+00  0.1818182E+00  0.9090909E-01  0.3606311E-01
      1         -4.829870   1.000000
      2          1.632800   1.000000
      3          3.569200   1.000000
      4          4.849560   1.000000
      5          8.686053   0.000000
      6          9.646608   0.000000
      7         10.754240   0.000000
      8         10.953370   0.000000
 
  0.4545455E+00  0.1818182E+00  0.9090909E-01  0.3606311E-01
      1         -4.158317   1.000000
      2          0.260655   1.000000
      3          3.315306   1.000000
      4          4.496110   1.000000
      5          8.740229   0.000000
      6          9.391007   0.000000
      7         10.869763   0.000000
      8         11.806269   0.000000
 
 -0.4545455E+00  0.1818182E+00  0.9090909E-01  0.3606311E-01
      1         -3.527786   1.000000
      2         -0.745065   1.000000
      3          3.218355   1.000000
      4          4.278879   1.000000
      5          8.736934   0.000000
      6          9.153204   0.000000
      7         10.796183   0.000000
      8         13.305243   0.000000
 
  0.3636364E+00  0.2727273E+00  0.9090909E-01  0.1803156E-01
      1         -4.641763   1.000000
      2          1.682141   1.000000
      3          3.406174   1.000000
      4          4.143444   1.000000
      5          7.784553   0.000000
      6          9.325459   0.000000
      7         11.076435   0.000000
      8         12.133541   0.000000
 
  0.4545455E+00  0.2727273E+00  0.9090909E-01  0.3606311E-01
      1         -4.012491   1.000000
      2          0.580324   1.000000
      3          2.824345   1.000000
      4          3.820433   1.000000
      5          8.148615   0.000000
      6          9.743299   0.000000
      7         10.758857   0.000000
      8         12.528577   0.000000
 
 -0.4545455E+00  0.2727273E+00  0.9090909E-01  0.3606311E-01
      1         -3.323895   1.000000
      2         -0.455422   1.000000
      3          2.436522   1.000000
      4          3.660060   1.000000
      5          8.282244   0.000000
      6         10.322552   0.000000
      7         11.167403   0.000000
      8         12.483451   0.000000
 
 -0.3636364E+00  0.2727273E+00  0.9090909E-01  0.3606311E-01
      1         -3.048530   1.000000
      2         -0.816212   1.000000
      3          2.201456   1.000000
      4          3.752201   1.000000
      5          8.502444   0.000000
      6         10.058093   0.000000
      7         12.360664   0.000000
      8         12.867676   0.000000
 
 -0.2727273E+00  0.2727273E+00  0.9090909E-01  0.3606311E-01
      1         -3.568947   1.000000
      2         -0.106762   1.000000
      3          2.184572   1.000000
      4          4.055605   1.000000
      5          8.879529   0.000000
      6          9.860951   0.000000
      7         11.630302   0.000000
      8         12.277163   0.000000
 
 -0.1818182E+00  0.2727273E+00  0.9090909E-01  0.1803156E-01
      1         -4.258615   1.000000
      2          0.896815   1.000000
      3          2.564568   1.000000
      4          4.482174   1.000000
      5          9.345002   0.000000
      6          9.441382   0.000000
      7         10.709402   0.000000
      8         11.829670   0.000000
 
  0.4545455E+00  0.3636364E+00  0.9090909E-01  0.1803156E-01
      1         -3.674325   1.000000
      2          0.297423   1.000000
      3          2.921545   1.000000
      4          3.319863   1.000000
      5          7.415967   0.000000
      6          8.265631   0.000000
      7         12.475333   0.000000
      8         13.918423   0.000000
 
 -0.4545455E+00  0.3636364E+00  0.9090909E-01  0.3606311E-01
      1         -2.979635   1.000000
      2         -0.539922   1.000000
      3          2.261282   1.000000
      4          3.137233   1.000000
      5          7.761293   0.000000
      6          9.103841   0.000000
      7         12.110114   0.000000
      8         14.288320   0.000000
 
 -0.3636364E+00  0.3636364E+00  0.9090909E-01  0.3606311E-01
      1         -2.496016   1.000000
      2         -1.052548   1.000000
      3          1.725992   1.000000
      4          3.256649   1.000000
      5          7.980519   0.000000
      6         10.694152   0.000000
      7         11.809415   0.000000
      8         13.433459   0.000000
 
 -0.2727273E+00  0.3636364E+00  0.9090909E-01  0.1803156E-01
      1         -2.891117   1.000000
      2         -0.645092   1.000000
      3          1.618992   1.000000
      4          3.587613   1.000000
      5          8.363048   0.000000
      6         11.135912   0.000000
      7         11.901156   0.000000
      8         12.797872   0.000000
 
 -0.4545455E+00  0.4545455E+00  0.9090909E-01  0.1803156E-01
      1         -2.483842   1.000000
      2         -1.128493   1.000000
      3          2.725594   1.000000
      4          2.848325   1.000000
      5          7.339214   0.000000
      6          7.609084   0.000000
      7         14.031712   0.000000
      8         15.514604   0.000000
 
 -0.3636364E+00  0.4545455E+00  0.9090909E-01  0.1803156E-01
      1         -1.963998   1.000000
      2         -1.585245   1.000000
      3          2.043907   1.000000
      4          2.922822   1.000000
      5          7.624060   0.000000
      6          8.896436   0.000000
      7         13.565467   0.000000
      8         13.800594   0.000000
 
 -0.4545455E+00  0.3636364E+00  0.1818182E+00  0.1803156E-01
      1         -3.355801   1.000000
      2         -0.105802   1.000000
      3          2.145232   1.000000
      4          3.340865   1.000000
      5          9.107042   0.000000
      6          9.725499   0.000000
      7         10.388802   0.000000
      8         13.801094   0.000000
 
 -0.3636364E+00  0.3636364E+00  0.1818182E+00  0.3606311E-01
      1         -2.705437   1.000000
      2         -0.821425   1.000000
      3          1.859364   1.000000
      4          3.012120   1.000000
      5          9.465873   0.000000
      6          9.864774   0.000000
      7         11.157684   0.000000
      8         13.058789   0.000000
 
 -0.3636364E+00  0.4545455E+00  0.1818182E+00  0.1803156E-01
      1         -2.290483   1.000000
      2         -1.170151   1.000000
      3          2.091139   1.000000
      4          2.479797   1.000000
      5          9.015130   0.000000
      6          9.218245   0.000000
      7         11.691046   0.000000
      8         13.305416   0.000000
 
 -0.2727273E+00  0.4545455E+00  0.1818182E+00  0.1803156E-01
      1         -2.083356   1.000000
      2         -1.338712   1.000000
      3          1.802163   1.000000
      4          2.518275   1.000000
      5          9.366720   0.000000
      6         10.649057   0.000000
      7         11.459706   0.000000
      8         11.483698   0.000000
