       N       E                     dE             d eps       ncg     rms          rms(c)
DAV:   1    -0.231295489822E+01   -0.23130E+01   -0.21357E+03   920   0.430E+02
DAV:   2    -0.109120521324E+02   -0.85991E+01   -0.80646E+01  1424   0.540E+01
DAV:   3    -0.109954768719E+02   -0.83425E-01   -0.83425E-01  1176   0.655E+00
DAV:   4    -0.109957076615E+02   -0.23079E-03   -0.23079E-03  1424   0.334E-01
DAV:   5    -0.109957077335E+02   -0.72050E-07   -0.71810E-07  1184   0.578E-03    0.559E+00
DAV:   6    -0.108643739947E+02    0.13133E+00   -0.87213E-02  1080   0.154E+00    0.343E+00
DAV:   7    -0.108055901739E+02    0.58784E-01   -0.16362E-01  1104   0.224E+00    0.212E-01
DAV:   8    -0.108065299392E+02   -0.93977E-03   -0.38450E-03   976   0.457E-01    0.715E-02
DAV:   9    -0.108067209932E+02   -0.19105E-03   -0.18344E-04  1320   0.104E-01    0.586E-02
DAV:  10    -0.108067461065E+02   -0.25113E-04   -0.28516E-05   584   0.402E-02
   1 F= -.10806746E+02 E0= -.10806746E+02  d E =-.111754E-06
