 vasp.6.3.0 20Jan22 (build Feb 01 2022 16:52:37) complex                        
  
 executed on           TETRA_NSC1 date 2022.02.23  07:07:31
 running    4 mpi-ranks, with    1 threads/rank
 distrk:  each k-point on    4 cores,    1 groups
 distr:  one band on NCORE=   1 cores,    4 groups


--------------------------------------------------------------------------------------------------------


 INCAR:
   SYSTEM = diamond Si
   ISTART = 0
   ICHARG = 2
   ENCUT = 240
   ISMEAR = 0
   SIGMA = 0.1

 POTCAR:    PAW_PBE Si 05Jan2001                  
 POTCAR:    PAW_PBE Si 05Jan2001                  
   VRHFIN =Si: s2p2                                                                                 
   LEXCH  = PE                                                                                      
   EATOM  =   103.0669 eV,    7.5752 Ry                                                             
                                                                                                    
   TITEL  = PAW_PBE Si 05Jan2001                                                                    
   LULTRA =        F    use ultrasoft PP ?                                                          
   IUNSCR =        1    unscreen: 0-lin 1-nonlin 2-no                                               
   RPACOR =    1.500    partial core radius                                                         
   POMASS =   28.085; ZVAL   =    4.000    mass and valenz                                          
   RCORE  =    1.900    outmost cutoff radius                                                       
   RWIGS  =    2.480; RWIGS  =    1.312    wigner-seitz radius (au A)                               
   ENMAX  =  245.345; ENMIN  =  184.009 eV                                                          
   ICORE  =        2    local potential                                                             
   LCOR   =        T    correct aug charges                                                         
   LPAW   =        T    paw PP                                                                      
   EAUG   =  322.069                                                                                
   DEXC   =    0.000                                                                                
   RMAX   =    1.950    core radius for proj-oper                                                   
   RAUG   =    1.300    factor for augmentation sphere                                              
   RDEP   =    1.993    radius for radial grids                                                     
   RDEPT  =    1.837    core radius for aug-charge                                                  
                                                                                                    
   Atomic configuration                                                                             
    6 entries                                                                                       
     n  l   j            E        occ.                                                              
     1  0  0.50     -1785.8828   2.0000                                                             
     2  0  0.50      -139.4969   2.0000                                                             
     2  1  1.50       -95.5546   6.0000                                                             
     3  0  0.50       -10.8127   2.0000                                                             
     3  1  0.50        -4.0811   2.0000                                                             
     3  2  1.50        -4.0817   0.0000                                                             
   Description                                                                                      
     l       E           TYP  RCUT    TYP  RCUT                                                     
     0    -10.8127223     23  1.900                                                                 
     0     -7.6451159     23  1.900                                                                 
     1     -4.0811372     23  1.900                                                                 
     1      2.4879257     23  1.900                                                                 
     2     -4.0817478      7  1.900                                                                 
  local pseudopotential read in
  partial core-charges read in
  partial kinetic energy density read in
  atomic valenz-charges read in
  non local Contribution for L=           0  read in
    real space projection operators read in
  non local Contribution for L=           0  read in
    real space projection operators read in
  non local Contribution for L=           1  read in
    real space projection operators read in
  non local Contribution for L=           1  read in
    real space projection operators read in
    PAW grid and wavefunctions read in
 
   number of l-projection  operators is LMAX  =           4
   number of lm-projection operators is LMMAX =           8
 
  PAW_PBE Si 05Jan2001                  :
 energy of atom  1       EATOM= -103.0669
 kinetic energy error for atom=    0.0061 (will be added to EATOM!!)
 
 
 POSCAR: cubic diamond Si
  positions in direct lattice
  No initial velocities read in
 exchange correlation table for  LEXCH =        8
   RHO(1)=    0.500       N(1)  =     2000
   RHO(2)=  100.500       N(2)  =     4000
 


--------------------------------------------------------------------------------------------------------


 ion  position               nearest neighbor table
   1  0.875  0.875  0.875-   2 2.34   2 2.34   2 2.34   2 2.34
   2  0.125  0.125  0.125-   1 2.34   1 2.34   1 2.34   1 2.34
 
  LATTYP: Found a face centered cubic cell.
 ALAT       =     5.4000000000
  
  Lattice vectors:
  
 A1 = (   0.0000000000,   2.7000000000,   2.7000000000)
 A2 = (   2.7000000000,   0.0000000000,   2.7000000000)
 A3 = (   2.7000000000,   2.7000000000,   0.0000000000)


Analysis of symmetry for initial positions (statically):
=====================================================================
 Subroutine PRICEL returns:
 Original cell was already a primitive cell.
 

 Routine SETGRP: Setting up the symmetry group for a 
 face centered cubic supercell.


 Subroutine GETGRP returns: Found 48 space group operations
 (whereof 12 operations were pure point group operations)
 out of a pool of 48 trial point group operations.


The static configuration has the point symmetry D_3d.
 The point group associated with its full space group is O_h .


Analysis of symmetry for dynamics (positions and initial velocities):
=====================================================================
 Subroutine PRICEL returns:
 Original cell was already a primitive cell.
 

 Routine SETGRP: Setting up the symmetry group for a 
 face centered cubic supercell.


 Subroutine GETGRP returns: Found 48 space group operations
 (whereof 12 operations were pure point group operations)
 out of a pool of 48 trial point group operations.


The dynamic configuration has the point symmetry D_3d.
 The point group associated with its full space group is O_h .


 Subroutine INISYM returns: Found 48 space group operations
 (whereof 12 operations are pure point group operations),
 and found     1 'primitive' translations


----------------------------------------------------------------------------------------

                                     Primitive cell                                     

  volume of cell :      39.3660

  direct lattice vectors                    reciprocal lattice vectors
     0.000000000  2.700000000  2.700000000    -0.185185185  0.185185185  0.185185185
     2.700000000  0.000000000  2.700000000     0.185185185 -0.185185185  0.185185185
     2.700000000  2.700000000  0.000000000     0.185185185  0.185185185 -0.185185185

  length of vectors
     3.818376618  3.818376618  3.818376618     0.320750150  0.320750150  0.320750150

  position of ions in fractional coordinates (direct lattice)
     0.875000000  0.875000000  0.875000000
     0.125000000  0.125000000  0.125000000

  ion indices of the primitive-cell ions
   primitive index   ion index
                 1           1
                 2           2

----------------------------------------------------------------------------------------

 
 
 KPOINTS: k-points                                

Automatic generation of k-mesh.
 Grid dimensions read from file:
 generate k-points for:   11   11   11

 Generating k-lattice:

  Cartesian coordinates                     Fractional coordinates (reciprocal lattice)
    -0.016835017  0.016835017  0.016835017     0.090909091  0.000000000 -0.000000000
     0.016835017 -0.016835017  0.016835017     0.000000000  0.090909091  0.000000000
     0.016835017  0.016835017 -0.016835017    -0.000000000 -0.000000000  0.090909091

  Length of vectors
     0.029159105  0.029159105  0.029159105

  Shift w.r.t. Gamma in fractional coordinates (k-lattice)
     0.000000000  0.000000000  0.000000000

 
 Subroutine IBZKPT returns following result:
 ===========================================
 
 Found     56 irreducible k-points:
 
 Following reciprocal coordinates:
            Coordinates               Weight
  0.000000  0.000000  0.000000      1.000000
  0.090909  0.000000 -0.000000      8.000000
  0.181818 -0.000000  0.000000      8.000000
  0.272727  0.000000 -0.000000      8.000000
  0.363636  0.000000  0.000000      8.000000
  0.454545  0.000000  0.000000      8.000000
  0.090909  0.090909  0.000000      6.000000
  0.181818  0.090909  0.000000     24.000000
  0.272727  0.090909  0.000000     24.000000
  0.363636  0.090909  0.000000     24.000000
  0.454545  0.090909  0.000000     24.000000
 -0.454545  0.090909  0.000000     24.000000
 -0.363636  0.090909  0.000000     24.000000
 -0.272727  0.090909  0.000000     24.000000
 -0.181818  0.090909  0.000000     24.000000
 -0.090909  0.090909  0.000000     12.000000
  0.181818  0.181818  0.000000      6.000000
  0.272727  0.181818  0.000000     24.000000
  0.363636  0.181818  0.000000     24.000000
  0.454545  0.181818  0.000000     24.000000
 -0.454545  0.181818  0.000000     24.000000
 -0.363636  0.181818  0.000000     24.000000
 -0.272727  0.181818 -0.000000     24.000000
 -0.181818  0.181818 -0.000000     12.000000
  0.272727  0.272727  0.000000      6.000000
  0.363636  0.272727  0.000000     24.000000
  0.454545  0.272727  0.000000     24.000000
 -0.454545  0.272727  0.000000     24.000000
 -0.363636  0.272727  0.000000     24.000000
 -0.272727  0.272727  0.000000     12.000000
  0.363636  0.363636  0.000000      6.000000
  0.454545  0.363636  0.000000     24.000000
 -0.454545  0.363636  0.000000     24.000000
 -0.363636  0.363636  0.000000     12.000000
  0.454545  0.454545  0.000000      6.000000
 -0.454545  0.454545 -0.000000     12.000000
  0.272727  0.181818  0.090909     24.000000
  0.363636  0.181818  0.090909     48.000000
  0.454545  0.181818  0.090909     48.000000
 -0.454545  0.181818  0.090909     48.000000
  0.363636  0.272727  0.090909     24.000000
  0.454545  0.272727  0.090909     48.000000
 -0.454545  0.272727  0.090909     48.000000
 -0.363636  0.272727  0.090909     48.000000
 -0.272727  0.272727  0.090909     48.000000
 -0.181818  0.272727  0.090909     24.000000
  0.454545  0.363636  0.090909     24.000000
 -0.454545  0.363636  0.090909     48.000000
 -0.363636  0.363636  0.090909     48.000000
 -0.272727  0.363636  0.090909     24.000000
 -0.454545  0.454545  0.090909     24.000000
 -0.363636  0.454545  0.090909     24.000000
 -0.454545  0.363636  0.181818     24.000000
 -0.363636  0.363636  0.181818     48.000000
 -0.363636  0.454545  0.181818     24.000000
 -0.272727  0.454545  0.181818     24.000000
 
 Following cartesian coordinates:
            Coordinates               Weight
  0.000000  0.000000  0.000000      1.000000
 -0.090909  0.090909  0.090909      8.000000
 -0.181818  0.181818  0.181818      8.000000
 -0.272727  0.272727  0.272727      8.000000
 -0.363636  0.363636  0.363636      8.000000
 -0.454545  0.454545  0.454545      8.000000
  0.000000 -0.000000  0.181818      6.000000
 -0.090909  0.090909  0.272727     24.000000
 -0.181818  0.181818  0.363636     24.000000
 -0.272727  0.272727  0.454545     24.000000
 -0.363636  0.363636  0.545455     24.000000
  0.545455 -0.545455 -0.363636     24.000000
  0.454545 -0.454545 -0.272727     24.000000
  0.363636 -0.363636 -0.181818     24.000000
  0.272727 -0.272727 -0.090909     24.000000
  0.181818 -0.181818 -0.000000     12.000000
  0.000000  0.000000  0.363636      6.000000
 -0.090909  0.090909  0.454545     24.000000
 -0.181818  0.181818  0.545455     24.000000
 -0.272727  0.272727  0.636364     24.000000
  0.636364 -0.636364 -0.272727     24.000000
  0.545455 -0.545455 -0.181818     24.000000
  0.454545 -0.454545 -0.090909     24.000000
  0.363636 -0.363636 -0.000000     12.000000
 -0.000000  0.000000  0.545455      6.000000
 -0.090909  0.090909  0.636364     24.000000
 -0.181818  0.181818  0.727273     24.000000
  0.727273 -0.727273 -0.181818     24.000000
  0.636364 -0.636364 -0.090909     24.000000
  0.545455 -0.545455 -0.000000     12.000000
  0.000000  0.000000  0.727273      6.000000
 -0.090909  0.090909  0.818182     24.000000
  0.818182 -0.818182 -0.090909     24.000000
  0.727273 -0.727273 -0.000000     12.000000
  0.000000  0.000000  0.909091      6.000000
  0.909091 -0.909091 -0.000000     12.000000
 -0.000000  0.181818  0.363636     24.000000
 -0.090909  0.272727  0.454545     48.000000
 -0.181818  0.363636  0.545455     48.000000
  0.727273 -0.545455 -0.363636     48.000000
 -0.000000  0.181818  0.545455     24.000000
 -0.090909  0.272727  0.636364     48.000000
  0.818182 -0.636364 -0.272727     48.000000
  0.727273 -0.545455 -0.181818     48.000000
  0.636364 -0.454545 -0.090909     48.000000
  0.545455 -0.363636  0.000000     24.000000
  0.000000  0.181818  0.727273     24.000000
  0.909091 -0.727273 -0.181818     48.000000
  0.818182 -0.636364 -0.090909     48.000000
  0.727273 -0.545455 -0.000000     24.000000
  1.000000 -0.818182 -0.090909     24.000000
  0.909091 -0.727273 -0.000000     24.000000
  1.000000 -0.636364 -0.272727     24.000000
  0.909091 -0.545455 -0.181818     48.000000
  1.000000 -0.636364 -0.090909     24.000000
  0.909091 -0.545455 -0.000000     24.000000
 


--------------------------------------------------------------------------------------------------------




 Dimension of arrays:
   k-points           NKPTS =     56   k-points in BZ     NKDIM =     56   number of bands    NBANDS=      8
   number of dos      NEDOS =    301   number of ions     NIONS =      2
   non local maximal  LDIM  =      4   non local SUM 2l+1 LMDIM =      8
   total plane-waves  NPLWV =   2744
   max r-space proj   IRMAX =      1   max aug-charges    IRDMAX=   2530
   dimension x,y,z NGX =    14 NGY =   14 NGZ =   14
   dimension x,y,z NGXF=    28 NGYF=   28 NGZF=   28
   support grid    NGXF=    28 NGYF=   28 NGZF=   28
   ions per type =               2
   NGX,Y,Z   is equivalent  to a cutoff of   6.10,  6.10,  6.10 a.u.
   NGXF,Y,Z  is equivalent  to a cutoff of  12.19, 12.19, 12.19 a.u.

 SYSTEM =  diamond Si                              
 POSCAR =  cubic diamond Si                        

 Startparameter for this run:
   NWRITE =      2    write-flag & timer
   PREC   = normal    normal or accurate (medium, high low for compatibility)
   ISTART =      0    job   : 0-new  1-cont  2-samecut
   ICHARG =      2    charge: 1-file 2-atom 10-const
   ISPIN  =      1    spin polarized calculation?
   LNONCOLLINEAR =      F non collinear calculations
   LSORBIT =      F    spin-orbit coupling
   INIWAV =      1    electr: 0-lowe 1-rand  2-diag
   LASPH  =      F    aspherical Exc in radial PAW
 Electronic Relaxation 1
   ENCUT  =  240.0 eV  17.64 Ry    4.20 a.u.   4.82  4.82  4.82*2*pi/ulx,y,z
   ENINI  =  240.0     initial cutoff
   ENAUG  =  322.1 eV  augmentation charge cutoff
   NELM   =     60;   NELMIN=  2; NELMDL= -5     # of ELM steps 
   EDIFF  = 0.1E-03   stopping-criterion for ELM
   LREAL  =      F    real-space projection
   NLSPLINE    = F    spline interpolate recip. space projectors
   LCOMPAT=      F    compatible to vasp.4.4
   GGA_COMPAT  = T    GGA compatible to vasp.4.4-vasp.4.6
   LMAXPAW     = -100 max onsite density
   LMAXMIX     =    2 max onsite mixed and CHGCAR
   VOSKOWN=      0    Vosko Wilk Nusair interpolation
   ROPT   =    0.00000
 Ionic relaxation
   EDIFFG = 0.1E-02   stopping-criterion for IOM
   NSW    =      0    number of steps for IOM
   NBLOCK =      1;   KBLOCK =      1    inner block; outer block 
   IBRION =     -1    ionic relax: 0-MD 1-quasi-New 2-CG
   NFREE  =      0    steps in history (QN), initial steepest desc. (CG)
   ISIF   =      2    stress and relaxation
   IWAVPR =     10    prediction:  0-non 1-charg 2-wave 3-comb
   ISYM   =      2    0-nonsym 1-usesym 2-fastsym
   LCORR  =      T    Harris-Foulkes like correction to forces

   POTIM  = 0.5000    time-step for ionic-motion
   TEIN   =    0.0    initial temperature
   TEBEG  =    0.0;   TEEND  =   0.0 temperature during run
   SMASS  =  -3.00    Nose mass-parameter (am)
   estimated Nose-frequenzy (Omega)   =  0.10E-29 period in steps = 0.13E+47 mass=  -0.333E-27a.u.
   SCALEE = 1.0000    scale energy and forces
   NPACO  =    256;   APACO  = 10.0  distance and # of slots for P.C.
   PSTRESS=    0.0 pullay stress

  Mass of Ions in am
   POMASS =  28.09
  Ionic Valenz
   ZVAL   =   4.00
  Atomic Wigner-Seitz radii
   RWIGS  =  -1.00
  virtual crystal weights 
   VCA    =   1.00
   NELECT =       8.0000    total number of electrons
   NUPDOWN=      -1.0000    fix difference up-down

 DOS related values:
   EMIN   =  10.00;   EMAX   =-10.00  energy-range for DOS
   EFERMI =   0.00
   ISMEAR =     0;   SIGMA  =   0.10  broadening in eV -4-tet -1-fermi 0-gaus

 Electronic relaxation 2 (details)
   IALGO  =     38    algorithm
   LDIAG  =      T    sub-space diagonalisation (order eigenvalues)
   LSUBROT=      F    optimize rotation matrix (better conditioning)
   TURBO    =      0    0=normal 1=particle mesh
   IRESTART =      0    0=no restart 2=restart with 2 vectors
   NREBOOT  =      0    no. of reboots
   NMIN     =      0    reboot dimension
   EREF     =   0.00    reference energy to select bands
   IMIX   =      4    mixing-type and parameters
     AMIX     =   0.40;   BMIX     =  1.00
     AMIX_MAG =   1.60;   BMIX_MAG =  1.00
     AMIN     =   0.10
     WC   =   100.;   INIMIX=   1;  MIXPRE=   1;  MAXMIX= -45

 Intra band minimization:
   WEIMIN = 0.0000     energy-eigenvalue tresh-hold
   EBREAK =  0.31E-05  absolut break condition
   DEPER  =   0.30     relativ break condition  

   TIME   =   0.40     timestep for ELM

  volume/ion in A,a.u.               =      19.68       132.83
  Fermi-wavevector in a.u.,A,eV,Ry     =   0.962493  1.818849 12.604348  0.926393
  Thomas-Fermi vector in A             =   2.091957
 
 Write flags
   LWAVE        =      T    write WAVECAR
   LDOWNSAMPLE  =      F    k-point downsampling of WAVECAR
   LCHARG       =      T    write CHGCAR
   LVTOT        =      F    write LOCPOT, total local potential
   LVHAR        =      F    write LOCPOT, Hartree potential only
   LELF         =      F    write electronic localiz. function (ELF)
   LORBIT       =      0    0 simple, 1 ext, 2 COOP (PROOUT), +10 PAW based schemes


 Dipole corrections
   LMONO  =      F    monopole corrections only (constant potential shift)
   LDIPOL =      F    correct potential (dipole corrections)
   IDIPOL =      0    1-x, 2-y, 3-z, 4-all directions 
   EPSILON=  1.0000000 bulk dielectric constant

 Exchange correlation treatment:
   GGA     =    --    GGA type
   LEXCH   =     8    internal setting for exchange type
   LIBXC   =     F    Libxc                    
   VOSKOWN =     0    Vosko Wilk Nusair interpolation
   LHFCALC =     F    Hartree Fock is set to
   LHFONE  =     F    Hartree Fock one center treatment
   AEXX    =    0.0000 exact exchange contribution

 Linear response parameters
   LEPSILON=     F    determine dielectric tensor
   LRPA    =     F    only Hartree local field effects (RPA)
   LNABLA  =     F    use nabla operator in PAW spheres
   LVEL    =     F    velocity operator in full k-point grid
   CSHIFT  =0.1000    complex shift for real part using Kramers Kronig
   OMEGAMAX=  -1.0    maximum frequency
   DEG_THRESHOLD= 0.2000000E-02 threshold for treating states as degnerate
   RTIME   =   -0.100 relaxation time in fs
  (WPLASMAI=    0.000 imaginary part of plasma frequency in eV, 0.658/RTIME)
   DFIELD  = 0.0000000 0.0000000 0.0000000 field for delta impulse in time
 
  Optional k-point grid parameters
   LKPOINTS_OPT  =     F    use optional k-point grid
   KPOINTS_OPT_MODE=     1    mode for optional k-point grid
 
 Orbital magnetization related:
   ORBITALMAG=     F  switch on orbital magnetization
   LCHIMAG   =     F  perturbation theory with respect to B field
   DQ        =  0.001000  dq finite difference perturbation B field
   LLRAUG    =     F  two centre corrections for induced B field



--------------------------------------------------------------------------------------------------------


 Static calculation
 charge density and potential will be updated during run
 non-spin polarized calculation
 Variant of blocked Davidson
 Davidson routine will perform the subspace rotation
 perform sub-space diagonalisation
    after iterative eigenvector-optimisation
 modified Broyden-mixing scheme, WC =      100.0
 initial mixing is a Kerker type mixing with AMIX =  0.4000 and BMIX =      1.0000
 Hartree-type preconditioning will be used
 using additional bands            4
 reciprocal scheme for non local part
 use partial core corrections
 calculate Harris-corrections to forces 
   (improved forces if not selfconsistent)
 use gradient corrections 
 use of overlap-Matrix (Vanderbilt PP)
 Gauss-broadening in eV      SIGMA  =   0.10


--------------------------------------------------------------------------------------------------------


  energy-cutoff  :      240.00
  volume of cell :       39.37
      direct lattice vectors                 reciprocal lattice vectors
     0.000000000  2.700000000  2.700000000    -0.185185185  0.185185185  0.185185185
     2.700000000  0.000000000  2.700000000     0.185185185 -0.185185185  0.185185185
     2.700000000  2.700000000  0.000000000     0.185185185  0.185185185 -0.185185185

  length of vectors
     3.818376618  3.818376618  3.818376618     0.320750150  0.320750150  0.320750150


 
 k-points in units of 2pi/SCALE and weight: k-points                                
   0.00000000  0.00000000  0.00000000       0.001
  -0.09090909  0.09090909  0.09090909       0.006
  -0.18181818  0.18181818  0.18181818       0.006
  -0.27272727  0.27272727  0.27272727       0.006
  -0.36363636  0.36363636  0.36363636       0.006
  -0.45454545  0.45454545  0.45454545       0.006
   0.00000000 -0.00000000  0.18181818       0.005
  -0.09090909  0.09090909  0.27272727       0.018
  -0.18181818  0.18181818  0.36363636       0.018
  -0.27272727  0.27272727  0.45454545       0.018
  -0.36363636  0.36363636  0.54545455       0.018
   0.54545455 -0.54545455 -0.36363636       0.018
   0.45454545 -0.45454545 -0.27272727       0.018
   0.36363636 -0.36363636 -0.18181818       0.018
   0.27272727 -0.27272727 -0.09090909       0.018
   0.18181818 -0.18181818 -0.00000000       0.009
   0.00000000  0.00000000  0.36363636       0.005
  -0.09090909  0.09090909  0.45454545       0.018
  -0.18181818  0.18181818  0.54545455       0.018
  -0.27272727  0.27272727  0.63636364       0.018
   0.63636364 -0.63636364 -0.27272727       0.018
   0.54545455 -0.54545455 -0.18181818       0.018
   0.45454545 -0.45454545 -0.09090909       0.018
   0.36363636 -0.36363636 -0.00000000       0.009
  -0.00000000  0.00000000  0.54545455       0.005
  -0.09090909  0.09090909  0.63636364       0.018
  -0.18181818  0.18181818  0.72727273       0.018
   0.72727273 -0.72727273 -0.18181818       0.018
   0.63636364 -0.63636364 -0.09090909       0.018
   0.54545455 -0.54545455 -0.00000000       0.009
   0.00000000  0.00000000  0.72727273       0.005
  -0.09090909  0.09090909  0.81818182       0.018
   0.81818182 -0.81818182 -0.09090909       0.018
   0.72727273 -0.72727273 -0.00000000       0.009
   0.00000000  0.00000000  0.90909091       0.005
   0.90909091 -0.90909091 -0.00000000       0.009
  -0.00000000  0.18181818  0.36363636       0.018
  -0.09090909  0.27272727  0.45454545       0.036
  -0.18181818  0.36363636  0.54545455       0.036
   0.72727273 -0.54545455 -0.36363636       0.036
  -0.00000000  0.18181818  0.54545455       0.018
  -0.09090909  0.27272727  0.63636364       0.036
   0.81818182 -0.63636364 -0.27272727       0.036
   0.72727273 -0.54545455 -0.18181818       0.036
   0.63636364 -0.45454545 -0.09090909       0.036
   0.54545455 -0.36363636  0.00000000       0.018
   0.00000000  0.18181818  0.72727273       0.018
   0.90909091 -0.72727273 -0.18181818       0.036
   0.81818182 -0.63636364 -0.09090909       0.036
   0.72727273 -0.54545455 -0.00000000       0.018
   1.00000000 -0.81818182 -0.09090909       0.018
   0.90909091 -0.72727273 -0.00000000       0.018
   1.00000000 -0.63636364 -0.27272727       0.018
   0.90909091 -0.54545455 -0.18181818       0.036
   1.00000000 -0.63636364 -0.09090909       0.018
   0.90909091 -0.54545455 -0.00000000       0.018
 
 k-points in reciprocal lattice and weights: k-points                                
   0.00000000  0.00000000  0.00000000       0.001
   0.09090909  0.00000000 -0.00000000       0.006
   0.18181818 -0.00000000  0.00000000       0.006
   0.27272727  0.00000000 -0.00000000       0.006
   0.36363636  0.00000000  0.00000000       0.006
   0.45454545  0.00000000  0.00000000       0.006
   0.09090909  0.09090909  0.00000000       0.005
   0.18181818  0.09090909  0.00000000       0.018
   0.27272727  0.09090909  0.00000000       0.018
   0.36363636  0.09090909  0.00000000       0.018
   0.45454545  0.09090909  0.00000000       0.018
  -0.45454545  0.09090909  0.00000000       0.018
  -0.36363636  0.09090909  0.00000000       0.018
  -0.27272727  0.09090909  0.00000000       0.018
  -0.18181818  0.09090909  0.00000000       0.018
  -0.09090909  0.09090909  0.00000000       0.009
   0.18181818  0.18181818  0.00000000       0.005
   0.27272727  0.18181818  0.00000000       0.018
   0.36363636  0.18181818  0.00000000       0.018
   0.45454545  0.18181818  0.00000000       0.018
  -0.45454545  0.18181818  0.00000000       0.018
  -0.36363636  0.18181818  0.00000000       0.018
  -0.27272727  0.18181818 -0.00000000       0.018
  -0.18181818  0.18181818 -0.00000000       0.009
   0.27272727  0.27272727  0.00000000       0.005
   0.36363636  0.27272727  0.00000000       0.018
   0.45454545  0.27272727  0.00000000       0.018
  -0.45454545  0.27272727  0.00000000       0.018
  -0.36363636  0.27272727  0.00000000       0.018
  -0.27272727  0.27272727  0.00000000       0.009
   0.36363636  0.36363636  0.00000000       0.005
   0.45454545  0.36363636  0.00000000       0.018
  -0.45454545  0.36363636  0.00000000       0.018
  -0.36363636  0.36363636  0.00000000       0.009
   0.45454545  0.45454545  0.00000000       0.005
  -0.45454545  0.45454545 -0.00000000       0.009
   0.27272727  0.18181818  0.09090909       0.018
   0.36363636  0.18181818  0.09090909       0.036
   0.45454545  0.18181818  0.09090909       0.036
  -0.45454545  0.18181818  0.09090909       0.036
   0.36363636  0.27272727  0.09090909       0.018
   0.45454545  0.27272727  0.09090909       0.036
  -0.45454545  0.27272727  0.09090909       0.036
  -0.36363636  0.27272727  0.09090909       0.036
  -0.27272727  0.27272727  0.09090909       0.036
  -0.18181818  0.27272727  0.09090909       0.018
   0.45454545  0.36363636  0.09090909       0.018
  -0.45454545  0.36363636  0.09090909       0.036
  -0.36363636  0.36363636  0.09090909       0.036
  -0.27272727  0.36363636  0.09090909       0.018
  -0.45454545  0.45454545  0.09090909       0.018
  -0.36363636  0.45454545  0.09090909       0.018
  -0.45454545  0.36363636  0.18181818       0.018
  -0.36363636  0.36363636  0.18181818       0.036
  -0.36363636  0.45454545  0.18181818       0.018
  -0.27272727  0.45454545  0.18181818       0.018
 
 position of ions in fractional coordinates (direct lattice) 
   0.87500000  0.87500000  0.87500000
   0.12500000  0.12500000  0.12500000
 
 position of ions in cartesian coordinates  (Angst):
   4.72500000  4.72500000  4.72500000
   0.67500000  0.67500000  0.67500000
 


--------------------------------------------------------------------------------------------------------


 k-point   1 :   0.0000 0.0000 0.0000  plane waves:     331
 k-point   2 :   0.0909 0.0000-0.0000  plane waves:     332
 k-point   3 :   0.1818-0.0000 0.0000  plane waves:     326
 k-point   4 :   0.2727 0.0000-0.0000  plane waves:     332
 k-point   5 :   0.3636 0.0000 0.0000  plane waves:     338
 k-point   6 :   0.4545 0.0000 0.0000  plane waves:     338
 k-point   7 :   0.0909 0.0909 0.0000  plane waves:     331
 k-point   8 :   0.1818 0.0909 0.0000  plane waves:     327
 k-point   9 :   0.2727 0.0909 0.0000  plane waves:     330
 k-point  10 :   0.3636 0.0909 0.0000  plane waves:     330
 k-point  11 :   0.4545 0.0909 0.0000  plane waves:     337
 k-point  12 :  -0.4545 0.0909 0.0000  plane waves:     334
 k-point  13 :  -0.3636 0.0909 0.0000  plane waves:     334
 k-point  14 :  -0.2727 0.0909 0.0000  plane waves:     333
 k-point  15 :  -0.1818 0.0909 0.0000  plane waves:     323
 k-point  16 :  -0.0909 0.0909 0.0000  plane waves:     329
 k-point  17 :   0.1818 0.1818 0.0000  plane waves:     331
 k-point  18 :   0.2727 0.1818 0.0000  plane waves:     331
 k-point  19 :   0.3636 0.1818 0.0000  plane waves:     328
 k-point  20 :   0.4545 0.1818 0.0000  plane waves:     331
 k-point  21 :  -0.4545 0.1818 0.0000  plane waves:     328
 k-point  22 :  -0.3636 0.1818 0.0000  plane waves:     335
 k-point  23 :  -0.2727 0.1818-0.0000  plane waves:     331
 k-point  24 :  -0.1818 0.1818-0.0000  plane waves:     325
 k-point  25 :   0.2727 0.2727 0.0000  plane waves:     331
 k-point  26 :   0.3636 0.2727 0.0000  plane waves:     331
 k-point  27 :   0.4545 0.2727 0.0000  plane waves:     334
 k-point  28 :  -0.4545 0.2727 0.0000  plane waves:     334
 k-point  29 :  -0.3636 0.2727 0.0000  plane waves:     335
 k-point  30 :  -0.2727 0.2727 0.0000  plane waves:     335
 k-point  31 :   0.3636 0.3636 0.0000  plane waves:     323
 k-point  32 :   0.4545 0.3636 0.0000  plane waves:     331
 k-point  33 :  -0.4545 0.3636 0.0000  plane waves:     335
 k-point  34 :  -0.3636 0.3636 0.0000  plane waves:     337
 k-point  35 :   0.4545 0.4545 0.0000  plane waves:     334
 k-point  36 :  -0.4545 0.4545-0.0000  plane waves:     338
 k-point  37 :   0.2727 0.1818 0.0909  plane waves:     330
 k-point  38 :   0.3636 0.1818 0.0909  plane waves:     331
 k-point  39 :   0.4545 0.1818 0.0909  plane waves:     331
 k-point  40 :  -0.4545 0.1818 0.0909  plane waves:     337
 k-point  41 :   0.3636 0.2727 0.0909  plane waves:     330
 k-point  42 :   0.4545 0.2727 0.0909  plane waves:     329
 k-point  43 :  -0.4545 0.2727 0.0909  plane waves:     331
 k-point  44 :  -0.3636 0.2727 0.0909  plane waves:     335
 k-point  45 :  -0.2727 0.2727 0.0909  plane waves:     336
 k-point  46 :  -0.1818 0.2727 0.0909  plane waves:     325
 k-point  47 :   0.4545 0.3636 0.0909  plane waves:     330
 k-point  48 :  -0.4545 0.3636 0.0909  plane waves:     336
 k-point  49 :  -0.3636 0.3636 0.0909  plane waves:     336
 k-point  50 :  -0.2727 0.3636 0.0909  plane waves:     336
 k-point  51 :  -0.4545 0.4545 0.0909  plane waves:     332
 k-point  52 :  -0.3636 0.4545 0.0909  plane waves:     335
 k-point  53 :  -0.4545 0.3636 0.1818  plane waves:     336
 k-point  54 :  -0.3636 0.3636 0.1818  plane waves:     329
 k-point  55 :  -0.3636 0.4545 0.1818  plane waves:     338
 k-point  56 :  -0.2727 0.4545 0.1818  plane waves:     333

 maximum and minimum number of plane-waves per node :       338      323

 maximum number of plane-waves:       338
 maximum index in each direction: 
   IXMAX=    5   IYMAX=    4   IZMAX=    4
   IXMIN=   -5   IYMIN=   -5   IZMIN=   -5


 serial   3D FFT for wavefunctions
 parallel 3D FFT for charge:
    minimum data exchange during FFTs selected (reduces bandwidth)


 total amount of memory used by VASP MPI-rank0    32464. kBytes
=======================================================================

   base      :      30000. kBytes
   nonl-proj :       1229. kBytes
   fftplans  :        204. kBytes
   grid      :        388. kBytes
   one-center:          6. kBytes
   wavefun   :        637. kBytes
 
     INWAV:  cpu time      0.0000: real time      0.0001
 Broyden mixing: mesh for mixing (old mesh)
   NGX =  9   NGY =  9   NGZ =  9
  (NGX  = 28   NGY  = 28   NGZ  = 28)
  gives a total of    729 points

 initial charge density was supplied:
 charge density of overlapping atoms calculated
 number of electron       8.0000000 magnetization 
 keeping initial charge density in first step


--------------------------------------------------------------------------------------------------------


 Maximum index for augmentation-charges          584 (set IRDMAX)


--------------------------------------------------------------------------------------------------------


 First call to EWALD:  gamma=   0.521
 Maximum number of real-space cells 3x 3x 3
 Maximum number of reciprocal cells 3x 3x 3

    FEWALD:  cpu time      0.0015: real time      0.0015


--------------------------------------- Iteration      1(   1)  ---------------------------------------


    POTLOK:  cpu time      0.0035: real time      0.0036
    SETDIJ:  cpu time      0.0014: real time      0.0014
     EDDAV:  cpu time      0.0690: real time      0.0692
       DOS:  cpu time      0.0007: real time      0.0007
    --------------------------------------------
      LOOP:  cpu time      0.0747: real time      0.0750

 eigenvalue-minimisations  :   920
 total energy-change (2. order) :-0.2312955E+01  (-0.2135682E+03)
 number of electron       8.0000000 magnetization 
 augmentation part        8.0000000 magnetization 

 Free energy of the ion-electron system (eV)
  ---------------------------------------------------
  alpha Z        PSCENC =         3.42052846
  Ewald energy   TEWEN  =      -229.83332229
  -Hartree energ DENC   =       -10.75307543
  -exchange      EXHF   =         0.00000000
  -V(xc)+E(xc)   XCENC  =       -18.53604980
  PAW double counting   =       176.24759923     -141.06103558
  entropy T*S    EENTRO =        -0.00335331
  eigenvalues    EBANDS =        12.08420067
  atomic energy  EATOM  =       206.12155316
  Solvation  Ediel_sol  =         0.00000000
  ---------------------------------------------------
  free energy    TOTEN  =        -2.31295490 eV

  energy without entropy =       -2.30960159  energy(sigma->0) =       -2.31127824


--------------------------------------------------------------------------------------------------------




--------------------------------------- Iteration      1(   2)  ---------------------------------------


     EDDAV:  cpu time      0.1091: real time      0.1094
       DOS:  cpu time      0.0004: real time      0.0004
    --------------------------------------------
      LOOP:  cpu time      0.1096: real time      0.1099

 eigenvalue-minimisations  :  1424
 total energy-change (2. order) :-0.8599097E+01  (-0.8064575E+01)
 number of electron       8.0000000 magnetization 
 augmentation part        8.0000000 magnetization 

 Free energy of the ion-electron system (eV)
  ---------------------------------------------------
  alpha Z        PSCENC =         3.42052846
  Ewald energy   TEWEN  =      -229.83332229
  -Hartree energ DENC   =       -10.75307543
  -exchange      EXHF   =         0.00000000
  -V(xc)+E(xc)   XCENC  =       -18.53604980
  PAW double counting   =       176.24759923     -141.06103558
  entropy T*S    EENTRO =        -0.00000000
  eigenvalues    EBANDS =         3.48175012
  atomic energy  EATOM  =       206.12155316
  Solvation  Ediel_sol  =         0.00000000
  ---------------------------------------------------
  free energy    TOTEN  =       -10.91205213 eV

  energy without entropy =      -10.91205213  energy(sigma->0) =      -10.91205213


--------------------------------------------------------------------------------------------------------




--------------------------------------- Iteration      1(   3)  ---------------------------------------


     EDDAV:  cpu time      0.0885: real time      0.0888
       DOS:  cpu time      0.0004: real time      0.0004
    --------------------------------------------
      LOOP:  cpu time      0.0889: real time      0.0892

 eigenvalue-minimisations  :  1176
 total energy-change (2. order) :-0.8342474E-01  (-0.8342474E-01)
 number of electron       8.0000000 magnetization 
 augmentation part        8.0000000 magnetization 

 Free energy of the ion-electron system (eV)
  ---------------------------------------------------
  alpha Z        PSCENC =         3.42052846
  Ewald energy   TEWEN  =      -229.83332229
  -Hartree energ DENC   =       -10.75307543
  -exchange      EXHF   =         0.00000000
  -V(xc)+E(xc)   XCENC  =       -18.53604980
  PAW double counting   =       176.24759923     -141.06103558
  entropy T*S    EENTRO =        -0.00000000
  eigenvalues    EBANDS =         3.39832538
  atomic energy  EATOM  =       206.12155316
  Solvation  Ediel_sol  =         0.00000000
  ---------------------------------------------------
  free energy    TOTEN  =       -10.99547687 eV

  energy without entropy =      -10.99547687  energy(sigma->0) =      -10.99547687


--------------------------------------------------------------------------------------------------------




--------------------------------------- Iteration      1(   4)  ---------------------------------------


     EDDAV:  cpu time      0.1080: real time      0.1084
       DOS:  cpu time      0.0004: real time      0.0004
    --------------------------------------------
      LOOP:  cpu time      0.1085: real time      0.1088

 eigenvalue-minimisations  :  1424
 total energy-change (2. order) :-0.2307896E-03  (-0.2307898E-03)
 number of electron       8.0000000 magnetization 
 augmentation part        8.0000000 magnetization 

 Free energy of the ion-electron system (eV)
  ---------------------------------------------------
  alpha Z        PSCENC =         3.42052846
  Ewald energy   TEWEN  =      -229.83332229
  -Hartree energ DENC   =       -10.75307543
  -exchange      EXHF   =         0.00000000
  -V(xc)+E(xc)   XCENC  =       -18.53604980
  PAW double counting   =       176.24759923     -141.06103558
  entropy T*S    EENTRO =        -0.00000000
  eigenvalues    EBANDS =         3.39809460
  atomic energy  EATOM  =       206.12155316
  Solvation  Ediel_sol  =         0.00000000
  ---------------------------------------------------
  free energy    TOTEN  =       -10.99570766 eV

  energy without entropy =      -10.99570766  energy(sigma->0) =      -10.99570766


--------------------------------------------------------------------------------------------------------




--------------------------------------- Iteration      1(   5)  ---------------------------------------


     EDDAV:  cpu time      0.0880: real time      0.0886
       DOS:  cpu time      0.0004: real time      0.0004
    CHARGE:  cpu time      0.0026: real time      0.0027
    MIXING:  cpu time      0.0004: real time      0.0004
    --------------------------------------------
      LOOP:  cpu time      0.0915: real time      0.0921

 eigenvalue-minimisations  :  1184
 total energy-change (2. order) :-0.7204966E-07  (-0.7181005E-07)
 number of electron       7.9999973 magnetization 
 augmentation part       -0.4700644 magnetization 

 Broyden mixing:
  rms(total) = 0.55879E+00    rms(broyden)= 0.55877E+00
  rms(prec ) = 0.10024E+01
  weight for this iteration     100.00

 Free energy of the ion-electron system (eV)
  ---------------------------------------------------
  alpha Z        PSCENC =         3.42052846
  Ewald energy   TEWEN  =      -229.83332229
  -Hartree energ DENC   =       -10.75307543
  -exchange      EXHF   =         0.00000000
  -V(xc)+E(xc)   XCENC  =       -18.53604980
  PAW double counting   =       176.24759923     -141.06103558
  entropy T*S    EENTRO =        -0.00000000
  eigenvalues    EBANDS =         3.39809452
  atomic energy  EATOM  =       206.12155316
  Solvation  Ediel_sol  =         0.00000000
  ---------------------------------------------------
  free energy    TOTEN  =       -10.99570773 eV

  energy without entropy =      -10.99570773  energy(sigma->0) =      -10.99570773


--------------------------------------------------------------------------------------------------------




--------------------------------------- Iteration      1(   6)  ---------------------------------------


    POTLOK:  cpu time      0.0030: real time      0.0030
    SETDIJ:  cpu time      0.0012: real time      0.0012
     EDDAV:  cpu time      0.0789: real time      0.0792
       DOS:  cpu time      0.0005: real time      0.0005
    CHARGE:  cpu time      0.0024: real time      0.0024
    MIXING:  cpu time      0.0004: real time      0.0004
    --------------------------------------------
      LOOP:  cpu time      0.0864: real time      0.0867

 eigenvalue-minimisations  :  1080
 total energy-change (2. order) : 0.1313337E+00  (-0.8721330E-02)
 number of electron       7.9999974 magnetization 
 augmentation part       -0.4640179 magnetization 

 Broyden mixing:
  rms(total) = 0.34331E+00    rms(broyden)= 0.34331E+00
  rms(prec ) = 0.59647E+00
  weight for this iteration     100.00

 eigenvalues of (default mixing * dielectric matrix)
  average eigenvalue GAMMA=   2.5848
  2.5848

 Free energy of the ion-electron system (eV)
  ---------------------------------------------------
  alpha Z        PSCENC =         3.42052846
  Ewald energy   TEWEN  =      -229.83332229
  -Hartree energ DENC   =       -12.27199540
  -exchange      EXHF   =         0.00000000
  -V(xc)+E(xc)   XCENC  =       -18.28960893
  PAW double counting   =       433.66517157     -398.59889584
  entropy T*S    EENTRO =        -0.00000000
  eigenvalues    EBANDS =         4.92219529
  atomic energy  EATOM  =       206.12155316
  Solvation  Ediel_sol  =         0.00000000
  ---------------------------------------------------
  free energy    TOTEN  =       -10.86437399 eV

  energy without entropy =      -10.86437399  energy(sigma->0) =      -10.86437399


--------------------------------------------------------------------------------------------------------




--------------------------------------- Iteration      1(   7)  ---------------------------------------


    POTLOK:  cpu time      0.0031: real time      0.0031
    SETDIJ:  cpu time      0.0012: real time      0.0012
     EDDAV:  cpu time      0.0797: real time      0.0799
       DOS:  cpu time      0.0005: real time      0.0005
    CHARGE:  cpu time      0.0024: real time      0.0024
    MIXING:  cpu time      0.0003: real time      0.0003
    --------------------------------------------
      LOOP:  cpu time      0.0871: real time      0.0874

 eigenvalue-minimisations  :  1104
 total energy-change (2. order) : 0.5878382E-01  (-0.1636248E-01)
 number of electron       7.9999974 magnetization 
 augmentation part       -0.4566571 magnetization 

 Broyden mixing:
  rms(total) = 0.21155E-01    rms(broyden)= 0.21155E-01
  rms(prec ) = 0.43836E-01
  weight for this iteration     100.00

 eigenvalues of (default mixing * dielectric matrix)
  average eigenvalue GAMMA=   2.0714
  1.7436  2.3993

 Free energy of the ion-electron system (eV)
  ---------------------------------------------------
  alpha Z        PSCENC =         3.42052846
  Ewald energy   TEWEN  =      -229.83332229
  -Hartree energ DENC   =       -14.74776397
  -exchange      EXHF   =         0.00000000
  -V(xc)+E(xc)   XCENC  =       -17.88250580
  PAW double counting   =      1086.74463433    -1051.83632303
  entropy T*S    EENTRO =        -0.00000025
  eigenvalues    EBANDS =         7.20760923
  atomic energy  EATOM  =       206.12155316
  Solvation  Ediel_sol  =         0.00000000
  ---------------------------------------------------
  free energy    TOTEN  =       -10.80559017 eV

  energy without entropy =      -10.80558992  energy(sigma->0) =      -10.80559005


--------------------------------------------------------------------------------------------------------




--------------------------------------- Iteration      1(   8)  ---------------------------------------


    POTLOK:  cpu time      0.0031: real time      0.0032
    SETDIJ:  cpu time      0.0012: real time      0.0012
     EDDAV:  cpu time      0.0701: real time      0.0703
       DOS:  cpu time      0.0006: real time      0.0006
    CHARGE:  cpu time      0.0024: real time      0.0024
    MIXING:  cpu time      0.0003: real time      0.0003
    --------------------------------------------
      LOOP:  cpu time      0.0777: real time      0.0779

 eigenvalue-minimisations  :   976
 total energy-change (2. order) :-0.9397653E-03  (-0.3845032E-03)
 number of electron       7.9999974 magnetization 
 augmentation part       -0.4576513 magnetization 

 Broyden mixing:
  rms(total) = 0.71516E-02    rms(broyden)= 0.71511E-02
  rms(prec ) = 0.13172E-01
  weight for this iteration     100.00

 eigenvalues of (default mixing * dielectric matrix)
  average eigenvalue GAMMA=   2.2177
  2.8141  1.9195  1.9195

 Free energy of the ion-electron system (eV)
  ---------------------------------------------------
  alpha Z        PSCENC =         3.42052846
  Ewald energy   TEWEN  =      -229.83332229
  -Hartree energ DENC   =       -14.66337478
  -exchange      EXHF   =         0.00000000
  -V(xc)+E(xc)   XCENC  =       -17.88374671
  PAW double counting   =      1103.11280836    -1068.17671685
  entropy T*S    EENTRO =        -0.00000013
  eigenvalues    EBANDS =         7.09574083
  atomic energy  EATOM  =       206.12155316
  Solvation  Ediel_sol  =         0.00000000
  ---------------------------------------------------
  free energy    TOTEN  =       -10.80652994 eV

  energy without entropy =      -10.80652981  energy(sigma->0) =      -10.80652988


--------------------------------------------------------------------------------------------------------




--------------------------------------- Iteration      1(   9)  ---------------------------------------


    POTLOK:  cpu time      0.0032: real time      0.0033
    SETDIJ:  cpu time      0.0011: real time      0.0011
     EDDAV:  cpu time      0.0993: real time      0.0996
       DOS:  cpu time      0.0006: real time      0.0006
    CHARGE:  cpu time      0.0024: real time      0.0024
    MIXING:  cpu time      0.0003: real time      0.0003
    --------------------------------------------
      LOOP:  cpu time      0.1068: real time      0.1071

 eigenvalue-minimisations  :  1320
 total energy-change (2. order) :-0.1910540E-03  (-0.1834358E-04)
 number of electron       7.9999974 magnetization 
 augmentation part       -0.4577838 magnetization 

 Broyden mixing:
  rms(total) = 0.58635E-02    rms(broyden)= 0.58634E-02
  rms(prec ) = 0.66922E-02
  weight for this iteration     100.00

 eigenvalues of (default mixing * dielectric matrix)
  average eigenvalue GAMMA=   2.0949
  0.9336  2.5216  2.5216  2.4030

 Free energy of the ion-electron system (eV)
  ---------------------------------------------------
  alpha Z        PSCENC =         3.42052846
  Ewald energy   TEWEN  =      -229.83332229
  -Hartree energ DENC   =       -14.70287146
  -exchange      EXHF   =         0.00000000
  -V(xc)+E(xc)   XCENC  =       -17.87548287
  PAW double counting   =      1108.47628654    -1073.53758803
  entropy T*S    EENTRO =        -0.00000012
  eigenvalues    EBANDS =         7.12417561
  atomic energy  EATOM  =       206.12155316
  Solvation  Ediel_sol  =         0.00000000
  ---------------------------------------------------
  free energy    TOTEN  =       -10.80672099 eV

  energy without entropy =      -10.80672088  energy(sigma->0) =      -10.80672093


--------------------------------------------------------------------------------------------------------




--------------------------------------- Iteration      1(  10)  ---------------------------------------


    POTLOK:  cpu time      0.0032: real time      0.0032
    SETDIJ:  cpu time      0.0011: real time      0.0011
     EDDAV:  cpu time      0.0463: real time      0.0465
       DOS:  cpu time      0.0005: real time      0.0005
    --------------------------------------------
      LOOP:  cpu time      0.0511: real time      0.0513

 eigenvalue-minimisations  :   584
 total energy-change (2. order) :-0.2511335E-04  (-0.2851640E-05)
 number of electron       7.9999974 magnetization 
 augmentation part       -0.4577838 magnetization 

 Free energy of the ion-electron system (eV)
  ---------------------------------------------------
  alpha Z        PSCENC =         3.42052846
  Ewald energy   TEWEN  =      -229.83332229
  -Hartree energ DENC   =       -14.71134989
  -exchange      EXHF   =         0.00000000
  -V(xc)+E(xc)   XCENC  =       -17.87504954
  PAW double counting   =      1094.28919048    -1059.35036153
  entropy T*S    EENTRO =        -0.00000011
  eigenvalues    EBANDS =         7.13206517
  atomic energy  EATOM  =       206.12155316
  Solvation  Ediel_sol  =         0.00000000
  ---------------------------------------------------
  free energy    TOTEN  =       -10.80674611 eV

  energy without entropy =      -10.80674599  energy(sigma->0) =      -10.80674605


--------------------------------------------------------------------------------------------------------




 average (electrostatic) potential at core
  the test charge radii are     0.9892
  (the norm of the test charge is              1.0000)
       1 -83.0594       2 -83.0594
 
 
 
 E-fermi :   6.2911     XC(G=0):  -9.4771     alpha+bet :-12.1854

 Fermi energy:         6.2911336616

 k-point     1 :       0.0000    0.0000    0.0000
  band No.  band energies     occupation 
      1      -6.0762      2.00000
      2       6.0126      1.99992
      3       6.0127      1.99992
      4       6.0127      1.99992
      5       8.5855      0.00000
      6       8.5855      0.00000
      7       8.5855      0.00000
      8       9.5707      0.00000

 k-point     2 :       0.0909    0.0000   -0.0000
  band No.  band energies     occupation 
      1      -5.9664      2.00000
      2       5.0215      2.00000
      3       5.8411      2.00000
      4       5.8411      2.00000
      5       8.6456      0.00000
      6       8.8378      0.00000
      7       8.8379      0.00000
      8      10.3192      0.00000

 k-point     3 :       0.1818   -0.0000    0.0000
  band No.  band energies     occupation 
      1      -5.6409      2.00000
      2       3.3247      2.00000
      3       5.4933      2.00000
      4       5.4933      2.00000
      5       8.3650      0.00000
      6       9.3196      0.00000
      7       9.3197      0.00000
      8      11.8913      0.00000

 k-point     4 :       0.2727    0.0000   -0.0000
  band No.  band energies     occupation 
      1      -5.1163      2.00000
      2       1.6395      2.00000
      3       5.1624      2.00000
      4       5.1625      2.00000
      5       8.0239      0.00000
      6       9.5649      0.00000
      7       9.5650      0.00000
      8      13.4239      0.00000

 k-point     5 :       0.3636    0.0000    0.0000
  band No.  band energies     occupation 
      1      -4.4430      2.00000
      2       0.1587      2.00000
      3       4.9275      2.00000
      4       4.9276      2.00000
      5       7.7658      0.00000
      6       9.4920      0.00000
      7       9.4922      0.00000
      8      13.9463      0.00000

 k-point     6 :       0.4545    0.0000    0.0000
  band No.  band energies     occupation 
      1      -3.8165      2.00000
      2      -0.8796      2.00000
      3       4.8080      2.00000
      4       4.8081      2.00000
      5       7.6317      0.00000
      6       9.3759      0.00000
      7       9.3761      0.00000
      8      13.7862      0.00000

 k-point     7 :       0.0909    0.0909    0.0000
  band No.  band energies     occupation 
      1      -5.9296      2.00000
      2       5.2225      2.00000
      3       5.5054      2.00000
      4       5.5055      2.00000
      5       8.2596      0.00000
      6       9.2732      0.00000
      7       9.2733      0.00000
      8      10.2787      0.00000

 k-point     8 :       0.1818    0.0909    0.0000
  band No.  band energies     occupation 
      1      -5.6752      2.00000
      2       3.8379      2.00000
      3       5.0987      2.00000
      4       5.2974      2.00000
      5       8.3017      0.00000
      6       9.3818      0.00000
      7       9.8792      0.00000
      8      11.0903      0.00000

 k-point     9 :       0.2727    0.0909    0.0000
  band No.  band energies     occupation 
      1      -5.2144      2.00000
      2       2.1895      2.00000
      3       4.7737      2.00000
      4       4.9186      2.00000
      5       8.4573      0.00000
      6       9.3569      0.00000
      7      10.2318      0.00000
      8      11.4137      0.00000

 k-point    10 :       0.3636    0.0909    0.0000
  band No.  band energies     occupation 
      1      -4.5809      2.00000
      2       0.6547      2.00000
      3       4.5304      2.00000
      4       4.5850      2.00000
      5       8.3256      0.00000
      6       9.3578      0.00000
      7      10.1487      0.00000
      8      12.1983      0.00000

 k-point    11 :       0.4545    0.0909    0.0000
  band No.  band energies     occupation 
      1      -3.8956      2.00000
      2      -0.5633      2.00000
      3       4.2259      2.00000
      4       4.5453      2.00000
      5       8.1934      0.00000
      6       9.2991      0.00000
      7       9.8963      0.00000
      8      13.4586      0.00000

 k-point    12 :      -0.4545    0.0909    0.0000
  band No.  band energies     occupation 
      1      -3.6173      2.00000
      2      -0.9756      2.00000
      3       4.0439      2.00000
      4       4.6502      2.00000
      5       8.1749      0.00000
      6       9.3498      0.00000
      7       9.7029      0.00000
      8      14.1381      0.00000

 k-point    13 :      -0.3636    0.0909    0.0000
  band No.  band energies     occupation 
      1      -4.1146      2.00000
      2      -0.2078      2.00000
      3       4.0041      2.00000
      4       4.8827      2.00000
      5       8.2818      0.00000
      6       9.5435      0.00000
      7       9.6287      0.00000
      8      13.8649      0.00000

 k-point    14 :      -0.2727    0.0909    0.0000
  band No.  band energies     occupation 
      1      -4.8088      2.00000
      2       1.1462      2.00000
      3       4.1241      2.00000
      4       5.2149      2.00000
      5       8.5017      0.00000
      6       9.5693      0.00000
      7       9.7715      0.00000
      8      12.8302      0.00000

 k-point    15 :      -0.1818    0.0909    0.0000
  band No.  band energies     occupation 
      1      -5.3906      2.00000
      2       2.7249      2.00000
      3       4.4215      2.00000
      4       5.5881      2.00000
      5       8.7980      0.00000
      6       9.2942      0.00000
      7       9.6703      0.00000
      8      11.9736      0.00000

 k-point    16 :      -0.0909    0.0909    0.0000
  band No.  band energies     occupation 
      1      -5.7844      2.00000
      2       4.2183      2.00000
      3       4.9933      2.00000
      4       5.8685      2.00000
      5       8.8869      0.00000
      6       9.0298      0.00000
      7       9.0694      0.00000
      8      11.1592      0.00000

 k-point    17 :       0.1818    0.1818    0.0000
  band No.  band energies     occupation 
      1      -5.4921      2.00000
      2       3.7187      2.00000
      3       4.6553      2.00000
      4       4.6554      2.00000
      5       7.5994      0.00000
      6      10.2030      0.00000
      7      10.6583      0.00000
      8      10.6583      0.00000

 k-point    18 :       0.2727    0.1818    0.0000
  band No.  band energies     occupation 
      1      -5.0988      2.00000
      2       2.5337      2.00000
      3       4.2364      2.00000
      4       4.3051      2.00000
      5       7.6550      0.00000
      6       9.7486      0.00000
      7      10.9548      0.00000
      8      11.2489      0.00000

 k-point    19 :       0.3636    0.1818    0.0000
  band No.  band energies     occupation 
      1      -4.5174      2.00000
      2       1.1308      2.00000
      3       3.6993      2.00000
      4       4.1058      2.00000
      5       7.8951      0.00000
      6      10.1135      0.00000
      7      10.7595      0.00000
      8      11.3153      0.00000

 k-point    20 :       0.4545    0.1818    0.0000
  band No.  band energies     occupation 
      1      -3.8229      2.00000
      2      -0.1351      2.00000
      3       3.2151      2.00000
      4       4.0741      2.00000
      5       7.9353      0.00000
      6      10.5361      0.00000
      7      11.0418      0.00000
      8      11.3464      0.00000

 k-point    21 :      -0.4545    0.1818    0.0000
  band No.  band energies     occupation 
      1      -3.3260      2.00000
      2      -0.8648      2.00000
      3       2.8720      2.00000
      4       4.2093      2.00000
      5       8.0430      0.00000
      6      10.4032      0.00000
      7      10.7416      0.00000
      8      13.0066      0.00000

 k-point    22 :      -0.3636    0.1818    0.0000
  band No.  band energies     occupation 
      1      -3.6199      2.00000
      2      -0.4421      2.00000
      3       2.7121      2.00000
      4       4.4935      2.00000
      5       8.3096      0.00000
      6      10.3844      0.00000
      7      10.5141      0.00000
      8      13.8738      0.00000

 k-point    23 :      -0.2727    0.1818   -0.0000
  band No.  band energies     occupation 
      1      -4.3071      2.00000
      2       0.7023      2.00000
      3       2.7880      2.00000
      4       4.8901      2.00000
      5       8.6989      0.00000
      6      10.2775      0.00000
      7      10.4266      0.00000
      8      12.4686      0.00000

 k-point    24 :      -0.1818    0.1818   -0.0000
  band No.  band energies     occupation 
      1      -4.9353      2.00000
      2       1.9190      2.00000
      3       3.2731      2.00000
      4       5.3147      2.00000
      5       9.0569      0.00000
      6       9.7876      0.00000
      7      10.1127      0.00000
      8      11.7770      0.00000

 k-point    25 :       0.2727    0.2727    0.0000
  band No.  band energies     occupation 
      1      -4.7722      2.00000
      2       2.0792      2.00000
      3       3.9195      2.00000
      4       3.9196      2.00000
      5       6.9965      0.00000
      6       8.8070      0.00000
      7      12.2576      0.00000
      8      12.2576      0.00000

 k-point    26 :       0.3636    0.2727    0.0000
  band No.  band energies     occupation 
      1      -4.2500      2.00000
      2       1.1071      2.00000
      3       3.3709      2.00000
      4       3.6842      2.00000
      5       7.1304      0.00000
      6       8.5132      0.00000
      7      12.5636      0.00000
      8      12.7192      0.00000

 k-point    27 :       0.4545    0.2727    0.0000
  band No.  band energies     occupation 
      1      -3.5777      2.00000
      2       0.0554      2.00000
      3       2.6289      2.00000
      4       3.6224      2.00000
      5       7.3265      0.00000
      6       9.2883      0.00000
      7      12.4129      0.00000
      8      12.5610      0.00000

 k-point    28 :      -0.4545    0.2727    0.0000
  band No.  band energies     occupation 
      1      -2.9475      2.00000
      2      -0.7686      2.00000
      3       2.0450      2.00000
      4       3.7376      2.00000
      5       7.4641      0.00000
      6      10.7894      0.00000
      7      12.2188      0.00000
      8      12.2541      0.00000

 k-point    29 :      -0.3636    0.2727    0.0000
  band No.  band energies     occupation 
      1      -3.0035      2.00000
      2      -0.6883      2.00000
      3       1.7512      2.00000
      4       4.0184      2.00000
      5       7.7636      0.00000
      6      11.8656      0.00000
      7      11.9000      0.00000
      8      12.8483      0.00000

 k-point    30 :      -0.2727    0.2727    0.0000
  band No.  band energies     occupation 
      1      -3.6534      2.00000
      2       0.0885      2.00000
      3       1.9122      2.00000
      4       4.4301      2.00000
      5       8.2259      0.00000
      6      11.2691      0.00000
      7      11.6265      0.00000
      8      12.5531      0.00000

 k-point    31 :       0.3636    0.3636    0.0000
  band No.  band energies     occupation 
      1      -3.7863      2.00000
      2       0.4367      2.00000
      3       3.4045      2.00000
      4       3.4045      2.00000
      5       6.6296      0.00000
      6       7.6482      0.00000
      7      13.9561      0.00000
      8      13.9561      0.00000

 k-point    32 :       0.4545    0.3636    0.0000
  band No.  band energies     occupation 
      1      -3.1533      2.00000
      2      -0.3913      2.00000
      3       2.8544      2.00000
      4       3.2974      2.00000
      5       6.8376      0.00000
      6       7.6712      0.00000
      7      14.2728      0.00000
      8      14.3017      0.00000

 k-point    33 :      -0.4545    0.3636    0.0000
  band No.  band energies     occupation 
      1      -2.4638      2.00000
      2      -1.1216      2.00000
      3       2.0538      2.00000
      4       3.3722      2.00000
      5       7.0066      0.00000
      6       8.8838      0.00000
      7      13.9719      0.00000
      8      14.1691      0.00000

 k-point    34 :      -0.3636    0.3636    0.0000
  band No.  band energies     occupation 
      1      -2.3919      2.00000
      2      -1.1590      2.00000
      3       1.5557      2.00000
      4       3.6213      2.00000
      5       7.2921      0.00000
      6      10.6328      0.00000
      7      13.2916      0.00000
      8      13.8525      0.00000

 k-point    35 :       0.4545    0.4545    0.0000
  band No.  band energies     occupation 
      1      -2.5601      2.00000
      2      -1.1331      2.00000
      3       3.1407      2.00000
      4       3.1407      2.00000
      5       6.5818      0.00004
      6       6.9083      0.00000
      7      15.6881      0.00000
      8      15.6882      0.00000

 k-point    36 :      -0.4545    0.4545   -0.0000
  band No.  band energies     occupation 
      1      -1.9008      2.00000
      2      -1.7896      2.00000
      3       2.6851      2.00000
      4       3.1664      2.00000
      5       6.7631      0.00000
      6       7.3617      0.00000
      7      15.6131      0.00000
      8      15.8936      0.00000

 k-point    37 :       0.2727    0.1818    0.0909
  band No.  band energies     occupation 
      1      -5.3518      2.00000
      2       2.9776      2.00000
      3       4.1355      2.00000
      4       5.1783      2.00000
      5       8.3589      0.00000
      6       9.7226      0.00000
      7      10.4447      0.00000
      8      10.8227      0.00000

 k-point    38 :       0.3636    0.1818    0.0909
  band No.  band energies     occupation 
      1      -4.8299      2.00000
      2       1.6328      2.00000
      3       3.5692      2.00000
      4       4.8496      2.00000
      5       8.6861      0.00000
      6       9.6466      0.00000
      7      10.7542      0.00000
      8      10.9534      0.00000

 k-point    39 :       0.4545    0.1818    0.0909
  band No.  band energies     occupation 
      1      -4.1583      2.00000
      2       0.2607      2.00000
      3       3.3153      2.00000
      4       4.4961      2.00000
      5       8.7402      0.00000
      6       9.3910      0.00000
      7      10.8698      0.00000
      8      11.8063      0.00000

 k-point    40 :      -0.4545    0.1818    0.0909
  band No.  band energies     occupation 
      1      -3.5278      2.00000
      2      -0.7451      2.00000
      3       3.2184      2.00000
      4       4.2789      2.00000
      5       8.7369      0.00000
      6       9.1532      0.00000
      7      10.7962      0.00000
      8      13.3052      0.00000

 k-point    41 :       0.3636    0.2727    0.0909
  band No.  band energies     occupation 
      1      -4.6418      2.00000
      2       1.6821      2.00000
      3       3.4062      2.00000
      4       4.1434      2.00000
      5       7.7846      0.00000
      6       9.3255      0.00000
      7      11.0764      0.00000
      8      12.1335      0.00000

 k-point    42 :       0.4545    0.2727    0.0909
  band No.  band energies     occupation 
      1      -4.0125      2.00000
      2       0.5803      2.00000
      3       2.8243      2.00000
      4       3.8204      2.00000
      5       8.1486      0.00000
      6       9.7433      0.00000
      7      10.7589      0.00000
      8      12.5286      0.00000

 k-point    43 :      -0.4545    0.2727    0.0909
  band No.  band energies     occupation 
      1      -3.3239      2.00000
      2      -0.4554      2.00000
      3       2.4365      2.00000
      4       3.6601      2.00000
      5       8.2822      0.00000
      6      10.3226      0.00000
      7      11.1674      0.00000
      8      12.4835      0.00000

 k-point    44 :      -0.3636    0.2727    0.0909
  band No.  band energies     occupation 
      1      -3.0485      2.00000
      2      -0.8162      2.00000
      3       2.2015      2.00000
      4       3.7522      2.00000
      5       8.5024      0.00000
      6      10.0581      0.00000
      7      12.3607      0.00000
      8      12.8677      0.00000

 k-point    45 :      -0.2727    0.2727    0.0909
  band No.  band energies     occupation 
      1      -3.5689      2.00000
      2      -0.1068      2.00000
      3       2.1846      2.00000
      4       4.0556      2.00000
      5       8.8795      0.00000
      6       9.8610      0.00000
      7      11.6303      0.00000
      8      12.2772      0.00000

 k-point    46 :      -0.1818    0.2727    0.0909
  band No.  band energies     occupation 
      1      -4.2586      2.00000
      2       0.8968      2.00000
      3       2.5646      2.00000
      4       4.4822      2.00000
      5       9.3450      0.00000
      6       9.4414      0.00000
      7      10.7094      0.00000
      8      11.8297      0.00000

 k-point    47 :       0.4545    0.3636    0.0909
  band No.  band energies     occupation 
      1      -3.6743      2.00000
      2       0.2974      2.00000
      3       2.9215      2.00000
      4       3.3199      2.00000
      5       7.4160      0.00000
      6       8.2656      0.00000
      7      12.4753      0.00000
      8      13.9184      0.00000

 k-point    48 :      -0.4545    0.3636    0.0909
  band No.  band energies     occupation 
      1      -2.9796      2.00000
      2      -0.5399      2.00000
      3       2.2613      2.00000
      4       3.1372      2.00000
      5       7.7613      0.00000
      6       9.1038      0.00000
      7      12.1101      0.00000
      8      14.2883      0.00000

 k-point    49 :      -0.3636    0.3636    0.0909
  band No.  band energies     occupation 
      1      -2.4960      2.00000
      2      -1.0525      2.00000
      3       1.7260      2.00000
      4       3.2566      2.00000
      5       7.9805      0.00000
      6      10.6942      0.00000
      7      11.8094      0.00000
      8      13.4335      0.00000

 k-point    50 :      -0.2727    0.3636    0.0909
  band No.  band energies     occupation 
      1      -2.8911      2.00000
      2      -0.6451      2.00000
      3       1.6190      2.00000
      4       3.5876      2.00000
      5       8.3630      0.00000
      6      11.1359      0.00000
      7      11.9012      0.00000
      8      12.7979      0.00000

 k-point    51 :      -0.4545    0.4545    0.0909
  band No.  band energies     occupation 
      1      -2.4838      2.00000
      2      -1.1285      2.00000
      3       2.7256      2.00000
      4       2.8483      2.00000
      5       7.3392      0.00000
      6       7.6091      0.00000
      7      14.0317      0.00000
      8      15.5146      0.00000

 k-point    52 :      -0.3636    0.4545    0.0909
  band No.  band energies     occupation 
      1      -1.9640      2.00000
      2      -1.5852      2.00000
      3       2.0439      2.00000
      4       2.9228      2.00000
      5       7.6241      0.00000
      6       8.8964      0.00000
      7      13.5655      0.00000
      8      13.8006      0.00000

 k-point    53 :      -0.4545    0.3636    0.1818
  band No.  band energies     occupation 
      1      -3.3558      2.00000
      2      -0.1058      2.00000
      3       2.1452      2.00000
      4       3.3409      2.00000
      5       9.1070      0.00000
      6       9.7255      0.00000
      7      10.3888      0.00000
      8      13.8011      0.00000

 k-point    54 :      -0.3636    0.3636    0.1818
  band No.  band energies     occupation 
      1      -2.7054      2.00000
      2      -0.8214      2.00000
      3       1.8594      2.00000
      4       3.0121      2.00000
      5       9.4659      0.00000
      6       9.8648      0.00000
      7      11.1577      0.00000
      8      13.0588      0.00000

 k-point    55 :      -0.3636    0.4545    0.1818
  band No.  band energies     occupation 
      1      -2.2905      2.00000
      2      -1.1702      2.00000
      3       2.0911      2.00000
      4       2.4798      2.00000
      5       9.0151      0.00000
      6       9.2182      0.00000
      7      11.6910      0.00000
      8      13.3054      0.00000

 k-point    56 :      -0.2727    0.4545    0.1818
  band No.  band energies     occupation 
      1      -2.0834      2.00000
      2      -1.3387      2.00000
      3       1.8022      2.00000
      4       2.5183      2.00000
      5       9.3667      0.00000
      6      10.6491      0.00000
      7      11.4597      0.00000
      8      11.4837      0.00000


--------------------------------------------------------------------------------------------------------


 soft charge-density along one line, spin component           1
         0         1         2         3         4         5         6         7         8         9
 total charge-density along one line
 
 pseudopotential strength for first ion, spin component:           1
 18.397  25.666   0.000   0.000   0.000   0.000   0.000   0.000
 25.666  35.813   0.000   0.000   0.000   0.000   0.000   0.000
  0.000   0.000   4.177  -0.000  -0.000   7.784  -0.000  -0.000
  0.000   0.000  -0.000   4.177  -0.000  -0.000   7.784  -0.000
  0.000   0.000  -0.000  -0.000   4.177  -0.000  -0.000   7.784
  0.000   0.000   7.784  -0.000  -0.000  14.515  -0.000  -0.000
  0.000   0.000  -0.000   7.784  -0.000  -0.000  14.515  -0.000
  0.000   0.000  -0.000  -0.000   7.784  -0.000  -0.000  14.515
 total augmentation occupancy for first ion, spin component:           1
  6.336  -2.499   0.000   0.000  -0.000   0.000   0.000   0.000
 -2.499   1.093   0.000   0.000  -0.000   0.000  -0.000  -0.000
  0.000  -0.000   3.531   0.000   0.000  -0.880  -0.000   0.000
  0.000  -0.000   0.000   3.531   0.000  -0.000  -0.880   0.000
 -0.000   0.000   0.000   0.000   3.531   0.000  -0.000  -0.880
  0.000   0.000  -0.880  -0.000   0.000   0.227  -0.000  -0.000
  0.000   0.000   0.000  -0.880   0.000  -0.000   0.227   0.000
  0.000   0.000   0.000   0.000  -0.880  -0.000  -0.000   0.227


------------------------ aborting loop because EDIFF is reached ----------------------------------------


    CHARGE:  cpu time      0.0024: real time      0.0024
    FORLOC:  cpu time      0.0002: real time      0.0002
    FORNL :  cpu time      0.0044: real time      0.0044
    STRESS:  cpu time      0.0728: real time      0.0730
    FORCOR:  cpu time      0.0029: real time      0.0029
    FORHAR:  cpu time      0.0007: real time      0.0007
    MIXING:  cpu time      0.0003: real time      0.0003
    OFIELD:  cpu time      0.0000: real time      0.0000

  FORCE on cell =-STRESS in cart. coord.  units (eV):
  Direction    XX          YY          ZZ          XY          YZ          ZX
  --------------------------------------------------------------------------------------
  Alpha Z     3.42053     3.42053     3.42053
  Ewald     -76.61114   -76.61114   -76.61114     0.00000     0.00000    -0.00000
  Hartree     4.90371     4.90371     4.90371    -0.00000    -0.00000    -0.00000
  E(xc)     -25.48957   -25.48957   -25.48957    -0.00000    -0.00000    -0.00000
  Local     -29.13329   -29.13329   -29.13329     0.00008     0.00008     0.00008
  n-local    79.33755    80.73173    74.96292     2.27634    -1.34733     0.57833
  augment   -11.61899   -11.61899   -11.61899    -0.00008    -0.00008    -0.00008
  Kinetic    59.21380    56.31667    55.57130     3.57442    -0.61059     1.03897
  Fock        0.00000     0.00000     0.00000     0.00000     0.00000     0.00000
  -------------------------------------------------------------------------------------
  Total       0.84924     0.84924     0.84924    -0.00000    -0.00000     0.00000
  in kB      34.56361    34.56361    34.56361    -0.00000    -0.00000     0.00000
  external pressure =       34.56 kB  Pullay stress =        0.00 kB


 VOLUME and BASIS-vectors are now :
 -----------------------------------------------------------------------------
  energy-cutoff  :      240.00
  volume of cell :       39.37
      direct lattice vectors                 reciprocal lattice vectors
     0.000000000  2.700000000  2.700000000    -0.185185185  0.185185185  0.185185185
     2.700000000  0.000000000  2.700000000     0.185185185 -0.185185185  0.185185185
     2.700000000  2.700000000  0.000000000     0.185185185  0.185185185 -0.185185185

  length of vectors
     3.818376618  3.818376618  3.818376618     0.320750150  0.320750150  0.320750150


 FORCES acting on ions
    electron-ion (+dipol)            ewald-force                    non-local-force                 convergence-correction
 -----------------------------------------------------------------------------------------------
   0.684E-05 0.684E-05 0.391E-05   -.497E-14 0.869E-14 -.483E-14   -.241E-15 -.466E-16 -.101E-15   0.613E-06 0.613E-06 0.613E-06
   -.684E-05 -.684E-05 -.391E-05   0.526E-14 -.937E-14 0.523E-14   0.281E-15 0.833E-16 0.841E-16   -.613E-06 -.613E-06 -.613E-06
 -----------------------------------------------------------------------------------------------
   0.924E-13 -.355E-13 -.294E-14   0.284E-15 -.680E-15 0.396E-15   0.402E-16 0.368E-16 -.167E-16   -.770E-15 -.382E-15 -.194E-15
 
 
 POSITION                                       TOTAL-FORCE (eV/Angst)
 -----------------------------------------------------------------------------------
      4.72500      4.72500      4.72500        -0.000000      0.000000      0.000000
      0.67500      0.67500      0.67500         0.000000     -0.000000     -0.000000
 -----------------------------------------------------------------------------------
    total drift:                                0.000000     -0.000000     -0.000000


--------------------------------------------------------------------------------------------------------



  FREE ENERGIE OF THE ION-ELECTRON SYSTEM (eV)
  ---------------------------------------------------
  free  energy   TOTEN  =       -10.80674611 eV

  energy  without entropy=      -10.80674599  energy(sigma->0) =      -10.80674605
 


--------------------------------------------------------------------------------------------------------


    POTLOK:  cpu time      0.0044: real time      0.0044


--------------------------------------------------------------------------------------------------------


 writing wavefunctions
     LOOP+:  cpu time      1.0138: real time      1.0203
    4ORBIT:  cpu time      0.0000: real time      0.0000

 total amount of memory used by VASP MPI-rank0    32464. kBytes
=======================================================================

   base      :      30000. kBytes
   nonl-proj :       1229. kBytes
   fftplans  :        204. kBytes
   grid      :        388. kBytes
   one-center:          6. kBytes
   wavefun   :        637. kBytes
 
  
  
 General timing and accounting informations for this job:
 ========================================================
  
                  Total CPU time used (sec):        1.217
                            User time (sec):        1.124
                          System time (sec):        0.093
                         Elapsed time (sec):        1.278
  
                   Maximum memory used (kb):       47896.
                   Average memory used (kb):          N/A
  
                          Minor page faults:         9031
                          Major page faults:            0
                 Voluntary context switches:          153
