Ni fcc bulk                             
   3.52284377630020     
     0.500000    0.500000    0.000000
     0.000000    0.500000    0.500000
     0.500000    0.000000    0.500000
   Ni
     1
Direct
  0.000000  0.000000  0.000000
 
   20   20   20
  151.26      141.62      115.99      82.485      50.272      25.906      11.655      5.8045      4.2561      3.5903    
  3.3825      3.5903      4.2561      5.8045      11.655      25.906      50.272      82.485      115.99      141.62    
  141.62      124.03      94.664      62.311      34.856      16.588      7.5777      4.7079      3.8167      3.3964    
  3.3976      3.8183      4.7081      7.5797      16.595      34.862      62.302      94.634      124.00      141.61    
  115.99      94.663      66.875      40.366      20.663      9.5346      5.2434      4.0482      3.4407      3.2538    
  3.4411      4.0476      5.2438      9.5408      20.673      40.368      66.858      94.631      115.96      124.00    
  82.484      62.307      40.364      22.245      10.830      5.7493      4.2373      3.5048      3.1656      3.1652    
  3.5033      4.2351      5.7487      10.833      22.250      40.366      62.304      82.478      94.636      94.639    
  50.265      34.851      20.663      10.831      5.9633      4.3451      3.5626      3.1219      2.9907      3.1223    
  3.5618      4.3418      5.9581      10.826      20.662      34.857      50.275      62.309      66.863      62.301    
  25.901      16.588      9.5382      5.7521      4.3456      3.5866      3.1069      2.8968      2.8974      3.1087    
  3.5885      4.3449      5.7459      9.5278      16.579      25.898      34.859      40.370      40.368      34.857    
  11.656      7.5817      5.2469      4.2383      3.5621      3.1064      2.8676      2.7962      2.8679      3.1093    
  3.5681      4.2436      5.2456      7.5717      11.641      16.579      20.663      22.249      20.670      16.593    
  5.8076      4.7104      4.0486      3.5037      3.1205      2.8959      2.7960      2.7952      2.8946      3.1214    
  3.5096      4.0586      4.7189      5.8075      7.5709      9.5268      10.825      10.832      9.5403      7.5812    
  4.2572      3.8164      3.4393      3.1639      2.9894      2.8969      2.8680      2.8948      2.9845      3.1587    
  3.4400      3.8262      4.2710      4.7182      5.2444      5.7450      5.9580      5.7497      5.2457      4.7100    
  3.5896      3.3950      3.2524      3.1645      3.1222      3.1092      3.1099      3.1218      3.1588      3.2425    
  3.3873      3.5897      3.8261      4.0582      4.2433      4.3453      4.3432      4.2369      4.0489      3.8187    
  3.3813      3.3967      3.4411      3.5042      3.5631      3.5896      3.5687      3.5098      3.4400      3.3873    
  3.3681      3.3873      3.4400      3.5098      3.5687      3.5896      3.5631      3.5042      3.4411      3.3967    
  3.5896      3.8187      4.0489      4.2369      4.3432      4.3453      4.2433      4.0582      3.8261      3.5897    
  3.3873      3.2425      3.1588      3.1218      3.1099      3.1092      3.1222      3.1645      3.2524      3.3950    
  4.2572      4.7100      5.2457      5.7497      5.9580      5.7450      5.2444      4.7182      4.2710      3.8262    
  3.4400      3.1587      2.9845      2.8948      2.8680      2.8969      2.9894      3.1639      3.4393      3.8164    
  5.8076      7.5812      9.5403      10.832      10.825      9.5268      7.5709      5.8075      4.7189      4.0586    
  3.5096      3.1214      2.8946      2.7952      2.7960      2.8959      3.1205      3.5037      4.0486      4.7104    
  11.656      16.593      20.670      22.249      20.663      16.579      11.641      7.5717      5.2456      4.2436    
  3.5681      3.1093      2.8679      2.7962      2.8676      3.1064      3.5621      4.2383      5.2469      7.5817    
  25.901      34.857      40.368      40.370      34.859      25.898      16.579      9.5278      5.7459      4.3449    
  3.5885      3.1087      2.8974      2.8968      3.1069      3.5866      4.3456      5.7521      9.5382      16.588    
  50.265      62.301      66.863      62.309      50.275      34.857      20.662      10.826      5.9581      4.3418    
  3.5618      3.1223      2.9907      3.1219      3.5626      4.3451      5.9633      10.831      20.663      34.851    
  82.484      94.639      94.636      82.478      62.304      40.366      22.250      10.833      5.7487      4.2351    
  3.5033      3.1652      3.1656      3.5048      4.2373      5.7493      10.830      22.245      40.364      62.307    
  115.99      124.00      115.96      94.631      66.858      40.368      20.673      9.5408      5.2438      4.0476    
  3.4411      3.2538      3.4407      4.0482      5.2434      9.5346      20.663      40.366      66.875      94.663    
  141.62      141.61      124.00      94.634      62.302      34.862      16.595      7.5797      4.7081      3.8183    
  3.3976      3.3964      3.8167      4.7079      7.5777      16.588      34.856      62.311      94.664      124.03    
  141.62      124.03      94.663      62.311      34.856      16.588      7.5778      4.7080      3.8168      3.3964    
  3.3976      3.8183      4.7081      7.5796      16.595      34.862      62.303      94.635      124.00      141.61    
  124.03      101.18      71.475      43.186      22.126      10.125      5.4039      4.1198      3.4956      3.3025    
  3.4960      4.1190      5.4050      10.135      22.141      43.189      71.447      101.13      123.99      132.63    
  94.666      71.475      46.337      25.555      12.298      6.2033      4.3812      3.6119      3.2500      3.2496    
  3.6101      4.3791      6.2062      12.309      25.567      46.334      71.450      94.634      108.67      108.68    
  62.309      43.184      25.555      13.153      6.7569      4.5680      3.7181      3.2315      3.0859      3.2320    
  3.7165      4.5640      6.7546      13.157      25.562      43.190      62.311      77.293      82.985      77.294    
  34.852      22.125      12.300      6.7584      4.6433      3.7854      3.2338      2.9901      2.9912      3.2353    
  3.7840      4.6377      6.7509      12.296      22.128      34.863      47.055      54.561      54.556      47.043    
  16.588      10.128      6.2069      4.5692      3.7852      3.2385      2.9488      2.8632      2.9494      3.2407    
  3.7881      4.5689      6.2004      10.118      16.581      24.190      30.410      32.815      30.408      24.191    
  7.5809      5.4074      4.3826      3.7176      3.2327      2.9482      2.8243      2.8237      2.9485      3.2372    
  3.7257      4.3890      5.4064      7.5720      10.925      14.481      16.787      16.790      14.490      10.937    
  4.7103      4.1205      3.6109      3.2298      2.9887      2.8625      2.8236      2.8611      2.9870      3.2308    
  3.6174      4.1312      4.7192      5.6028      6.8532      8.0165      8.4970      8.0240      6.8606      5.6022    
  3.8168      3.4944      3.2483      3.0845      2.9905      2.9494      2.9488      2.9873      3.0775      3.2417    
  3.4951      3.8266      4.1914      4.5307      4.8462      5.0673      5.0684      4.8460      4.5239      4.1791    
  3.3953      3.3012      3.2487      3.2319      3.2359      3.2416      3.2378      3.2311      3.2418      3.2907    
  3.3877      3.5279      3.6928      3.8515      3.9673      4.0084      3.9629      3.8445      3.6872      3.5283    
  3.3965      3.4957      3.6107      3.7178      3.7852      3.7887      3.7258      3.6173      3.4952      3.3878    
  3.3137      3.2812      3.2868      3.3128      3.3336      3.3312      3.3088      3.2875      3.2895      3.3258    
  3.8183      4.1200      4.3806      4.5653      4.6380      4.5682      4.3880      4.1306      3.8265      3.5281    
  3.2812      3.1092      3.0089      2.9612      2.9473      2.9613      3.0123      3.1167      3.2878      3.5276    
  4.7100      5.4067      6.2070      6.7543      6.7497      6.1987      5.4050      4.7187      4.1915      3.6929    
  3.2867      3.0088      2.8480      2.7770      2.7780      2.8510      3.0122      3.2859      3.6845      4.1786    
  7.5813      10.134      12.307      13.155      12.295      10.117      7.5713      5.6030      4.5312      3.8515    
  3.3124      2.9609      2.7770      2.7217      2.7775      2.9604      3.3086      3.8442      4.5241      5.6027    
  16.592      22.136      25.565      25.563      22.129      16.581      10.925      6.8541      4.8466      3.9667    
  3.3327      2.9470      2.7783      2.7779      2.9452      3.3292      3.9637      4.8484      6.8627      10.937    
  34.854      43.185      46.336      43.194      34.863      24.188      14.481      8.0174      5.0672      4.0071    
  3.3301      2.9615      2.8519      2.9612      3.3293      4.0072      5.0712      8.0259      14.488      24.188    
  62.298      71.449      71.456      62.313      47.051      30.407      16.786      8.4975      5.0674      3.9611    
  3.3081      3.0131      3.0136      3.3093      3.9631      5.0700      8.5000      16.786      30.400      47.037    
  94.637      101.14      94.636      77.289      54.555      32.812      16.791      8.0240      4.8441      3.8430    
  3.2876      3.1180      3.2873      3.8439      4.8458      8.0232      16.786      32.805      54.549      77.287    
  124.00      123.99      108.66      82.977      54.552      30.409      14.492      6.8592      4.5219      3.6866    
  3.2904      3.2893      3.6850      4.5220      6.8590      14.488      30.404      54.552      82.987      108.68    
  141.61      132.62      108.68      77.290      47.044      24.194      10.937      5.5996      4.1778      3.5288    
  3.3272      3.5286      4.1777      5.5995      10.936      24.194      47.045      77.291      108.68      132.62    
  115.99      94.663      66.874      40.365      20.662      9.5344      5.2432      4.0483      3.4410      3.2538    
  3.4411      4.0477      5.2442      9.5410      20.673      40.369      66.859      94.631      115.96      124.00    
  94.665      71.474      46.336      25.554      12.298      6.2030      4.3811      3.6120      3.2501      3.2496    
  3.6101      4.3793      6.2065      12.309      25.567      46.334      71.451      94.634      108.67      108.68    
  66.876      46.336      27.410      14.048      7.0735      4.6500      3.7728      3.2708      3.1198      3.2708    
  3.7707      4.6468      7.0747      14.057      27.422      46.341      66.871      82.987      89.120      82.994    
  40.364      25.554      14.049      7.4267      4.8241      3.8915      3.3039      3.0420      3.0430      3.3047    
  3.8888      4.8179      7.4217      14.051      25.566      40.384      54.573      63.325      63.318      54.555    
  20.661      12.299      7.0754      4.8248      3.9361      3.3305      3.0056      2.9102      3.0063      3.3313    
  3.9346      4.8189      7.0668      12.295      20.669      30.420      38.370      41.440      38.355      30.402    
  9.5359      6.2058      4.6515      3.8914      3.3301      2.9959      2.8519      2.8515      2.9963      3.3333    
  3.8953      4.6512      6.1994      9.5281      14.484      19.634      22.943      22.942      19.632      14.487    
  5.2457      4.3825      3.7725      3.3027      3.0045      2.8515      2.8051      2.8505      3.0053      3.3076    
  3.7804      4.3886      5.2458      6.8542      9.0763      11.077      11.889      11.084      9.0854      6.8607    
  4.0491      3.6113      3.2693      3.0405      2.9094      2.8513      2.8506      2.9072      3.0378      3.2694    
  3.6174      4.0592      4.5318      5.0966      5.7656      6.2466      6.2494      5.7701      5.0960      4.5240    
  3.4401      3.2485      3.1184      3.0422      3.0063      2.9968      3.0059      3.0381      3.1101      3.2416    
  3.4408      3.6937      3.9642      4.2044      4.3708      4.4333      4.3699      4.1995      3.9549      3.6856    
  3.2524      3.2485      3.2706      3.3052      3.3322      3.3341      3.3082      3.2697      3.2418      3.2431    
  3.2820      3.3558      3.4510      3.5418      3.5971      3.5952      3.5374      3.4472      3.3564      3.2883    
  3.4404      3.6104      3.7717      3.8899      3.9353      3.8954      3.7802      3.6173      3.4409      3.2821    
  3.1629      3.0924      3.0644      3.0603      3.0603      3.0580      3.0644      3.0983      3.1725      3.2889    
  4.0485      4.3805      4.6480      4.8183      4.8183      4.6500      4.3876      4.0588      3.6938      3.3560    
  3.0924      2.9175      2.8190      2.7761      2.7761      2.8204      2.9217      3.0969      3.3555      3.6863    
  5.2459      6.2071      7.0743      7.4206      7.0654      6.1978      5.2448      4.5316      3.9644      3.4510    
  3.0643      2.8189      2.6904      2.6516      2.6918      2.8207      3.0636      3.4450      3.9543      4.5239    
  9.5400      12.307      14.055      14.050      12.294      9.5273      6.8540      5.0971      4.2045      3.5414    
  3.0599      2.7760      2.6517      2.6519      2.7758      3.0578      3.5370      4.2002      5.0970      6.8612    
  20.667      25.563      27.422      25.568      20.670      14.483      9.0767      5.7664      4.3705      3.5960    
  3.0596      2.7763      2.6924      2.7761      3.0580      3.5939      4.3718      5.7737      9.0867      14.489    
  40.363      46.335      46.346      40.386      30.418      19.632      11.078      6.2472      4.4322      3.5937    
  3.0575      2.8211      2.8217      3.0581      3.5936      4.4338      6.2530      11.084      19.629      30.401    
  66.859      71.457      66.876      54.570      38.364      22.940      11.889      6.2493      4.3681      3.5359    
  3.0647      2.9231      3.0646      3.5367      4.3702      6.2517      11.889      22.933      38.347      54.547    
  94.637      94.639      82.984      63.316      41.433      22.941      11.085      5.7690      4.1975      3.4466    
  3.0994      3.0984      3.4454      4.1985      5.7709      11.083      22.934      41.424      63.307      82.978    
  115.97      108.67      89.111      63.309      38.352      19.633      9.0856      5.0941      3.9535      3.3568    
  3.1740      3.3566      3.9535      5.0942      9.0852      19.633      38.352      63.309      89.112      108.67    
  124.00      108.68      82.987      54.552      30.403      14.488      6.8590      4.5220      3.6853      3.2895    
  3.2903      3.6865      4.5221      6.8593      14.492      30.409      54.553      82.978      108.66      123.99    
  82.483      62.306      40.363      22.244      10.829      5.7488      4.2370      3.5049      3.1658      3.1652    
  3.5033      4.2355      5.7493      10.833      22.250      40.367      62.305      82.479      94.636      94.639    
  62.309      43.183      25.554      13.153      6.7565      4.5675      3.7180      3.2316      3.0859      3.2318    
  3.7166      4.5643      6.7549      13.157      25.562      43.191      62.312      77.293      82.985      77.294    
  40.364      25.553      14.049      7.4267      4.8240      3.8913      3.3038      3.0421      3.0429      3.3046    
  3.8888      4.8180      7.4217      14.051      25.567      40.384      54.573      63.325      63.318      54.555    
  22.242      13.152      7.4268      4.9260      3.9879      3.3632      3.0263      2.9274      3.0267      3.3635    
  3.9858      4.9188      7.4174      13.151      22.258      32.834      41.453      44.780      41.431      32.805    
  10.828      6.7570      4.8246      3.9879      3.3857      3.0240      2.8692      2.8689      3.0245      3.3879    
  3.9879      4.8175      6.7458      10.824      16.794      22.953      26.898      26.889      22.935      16.784    
  5.7497      4.5686      3.8915      3.3628      3.0237      2.8514      2.8003      2.8508      3.0252      3.3670    
  3.8949      4.5670      5.7434      8.0161      11.080      13.795      14.886      13.795      11.082      8.0224    
  4.2382      3.7182      3.3032      3.0255      2.8687      2.8002      2.7992      2.8671      3.0262      3.3077    
  3.7249      4.2431      4.8463      5.7653      6.8739      7.6565      7.6597      6.8811      5.7713      4.8469    
  3.5049      3.2307      3.0409      2.9267      2.8687      2.8510      2.8674      2.9236      3.0375      3.2304    
  3.5097      3.8524      4.2048      4.5158      4.7747      4.8844      4.7768      4.5160      4.2002      3.8451    
  3.1645      3.0845      3.0421      3.0266      3.0249      3.0258      3.0267      3.0377      3.0766      3.1585    
  3.2874      3.4516      3.6246      3.7708      3.8550      3.8543      3.7679      3.6190      3.4462      3.2870    
  3.1638      3.2313      3.3048      3.3642      3.3886      3.3676      3.3080      3.2306      3.1587      3.1097    
  3.0927      3.1078      3.1439      3.1799      3.1941      3.1777      3.1417      3.1084      3.0973      3.1164    
  3.5032      3.7172      3.8899      3.9866      3.9881      3.8947      3.7247      3.5097      3.2877      3.0929    
  2.9478      2.8574      2.8116      2.7937      2.7927      2.8109      2.8604      2.9540      3.0975      3.2864    
  4.2367      4.5656      4.8187      4.9187      4.8167      4.5660      4.2425      3.8523      3.4519      3.1080    
  2.8575      2.7006      2.6182      2.5927      2.6183      2.7020      2.8597      3.1076      3.4462      3.8439    
  5.7502      6.7547      7.4210      7.4165      6.7447      5.7424      4.8460      4.2050      3.6247      3.1439    
  2.8116      2.6183      2.5326      2.5330      2.6189      2.8109      3.1403      3.6184      4.1996      4.8465    
  10.831      13.155      14.051      13.151      10.823      8.0158      5.7657      4.5162      3.7705      3.1794    
  2.7935      2.5929      2.5332      2.5934      2.7929      3.1769      3.7680      4.5170      5.7713      8.0241    
  22.246      25.562      25.569      22.259      16.793      11.079      6.8747      4.7751      3.8541      3.1931    
  2.7926      2.6189      2.6194      2.7930      3.1920      3.8541      4.7799      6.8831      11.083      16.787    
  40.367      43.196      40.388      32.832      22.949      13.794      7.6575      4.8844      3.8528      3.1767    
  2.8113      2.7031      2.8115      3.1766      3.8535      4.8880      7.6630      13.794      22.935      32.807    
  62.311      62.318      54.572      41.446      26.892      14.885      7.6609      4.7760      3.7661      3.1412    
  2.8617      2.8611      3.1404      3.7667      4.7781      7.6624      14.883      26.882      41.429      54.555    
  82.485      77.294      63.317      44.770      26.885      13.796      6.8819      4.5145      3.6174      3.1088    
  2.9558      3.1087      3.6176      4.5147      6.8815      13.795      26.884      44.769      63.316      77.293    
  94.638      82.979      63.307      41.423      22.935      11.084      5.7709      4.1983      3.4455      3.0986    
  3.0993      3.4465      4.1979      5.7692      11.084      22.940      41.433      63.316      82.984      94.639    
  94.637      77.287      54.548      32.804      16.786      8.0232      4.8455      3.8439      3.2875      3.1181    
  3.2874      3.8432      4.8447      8.0243      16.791      32.812      54.555      77.289      94.636      101.14    
  50.265      34.851      20.662      10.831      5.9631      4.3447      3.5624      3.1220      2.9906      3.1220    
  3.5617      4.3421      5.9583      10.827      20.662      34.857      50.275      62.309      66.863      62.302    
  34.852      22.125      12.300      6.7584      4.6432      3.7852      3.2338      2.9901      2.9910      3.2351    
  3.7840      4.6377      6.7508      12.296      22.129      34.863      47.055      54.561      54.556      47.043    
  20.661      12.299      7.0757      4.8249      3.9360      3.3305      3.0056      2.9102      3.0062      3.3312    
  3.9346      4.8187      7.0667      12.295      20.670      30.420      38.370      41.440      38.355      30.402    
  10.828      6.7571      4.8248      3.9880      3.3857      3.0240      2.8692      2.8689      3.0245      3.3879    
  3.9879      4.8174      6.7458      10.824      16.794      22.953      26.898      26.889      22.935      16.784    
  5.9615      4.6430      3.9363      3.3858      3.0312      2.8523      2.8001      2.8525      3.0335      3.3894    
  3.9362      4.6360      5.9518      8.4927      11.891      14.889      16.089      14.883      11.886      8.4966    
  4.3453      3.7859      3.3309      3.0241      2.8523      2.7790      2.7786      2.8522      3.0261      3.3346    
  3.7883      4.3437      5.0640      6.2438      7.6562      8.6427      8.6441      7.6604      6.2497      5.0691    
  3.5635      3.2343      3.0056      2.8691      2.8000      2.7786      2.7984      2.8674      3.0059      3.2375    
  3.5682      3.9670      4.3693      4.7731      5.1501      5.3130      5.1545      4.7782      4.3710      3.9642    
  3.1219      2.9897      2.9098      2.8687      2.8525      2.8524      2.8676      2.9068      2.9863      3.1211    
  3.3129      3.5421      3.7703      3.9534      4.0552      4.0557      3.9537      3.7683      3.5382      3.3102    
  2.9894      2.9901      3.0058      3.0246      3.0339      3.0265      3.0062      2.9865      2.9835      3.0085    
  3.0644      3.1439      3.2291      3.2953      3.3200      3.2937      3.2261      3.1412      3.0646      3.0127    
  3.1210      3.2348      3.3316      3.3884      3.3898      3.3348      3.2376      3.1212      3.0086      2.9172    
  2.8570      2.8285      2.8225      2.8245      2.8237      2.8212      2.8288      2.8599      2.9213      3.0113    
  3.5622      3.7849      3.9355      3.9884      3.9363      3.7881      3.5681      3.3130      3.0646      2.8571    
  2.7073      2.6137      2.5649      2.5495      2.5642      2.6146      2.7104      2.8598      3.0632      3.3075    
  4.3435      4.6389      4.8193      4.8174      4.6355      4.3433      3.9668      3.5423      3.1441      2.8286    
  2.6138      2.4877      2.4304      2.4301      2.4876      2.6143      2.8284      3.1409      3.5367      3.9627    
  5.9587      6.7506      7.0663      6.7452      5.9511      5.0638      4.3696      3.7706      3.2291      2.8224    
  2.5649      2.4305      2.3898      2.4308      2.5645      2.8204      3.2257      3.7680      4.3705      5.0692    
  10.825      12.295      12.295      10.824      8.4921      6.2439      4.7738      3.9535      3.2949      2.8240    
  2.5495      2.4305      2.4311      2.5501      2.8231      3.2933      3.9541      4.7782      6.2501      8.4965    
  20.662      22.131      20.671      16.793      11.889      7.6564      5.1509      4.0549      3.3189      2.8231    
  2.5646      2.4883      2.5649      2.8230      3.3191      4.0574      5.1562      7.6604      11.886      16.784    
  34.862      34.868      30.420      22.948      14.886      8.6431      5.3138      4.0548      3.2923      2.8210    
  2.6156      2.6153      2.8204      3.2925      4.0567      5.3172      8.6451      14.883      22.937      30.407    
  50.282      47.056      38.364      26.890      16.086      8.6456      5.1551      3.9521      3.2248      2.8293    
  2.7120      2.8292      3.2250      3.9524      5.1550      8.6453      16.086      26.891      38.364      47.056    
  62.312      54.556      41.430      26.882      14.883      7.6628      4.7781      3.7665      3.1405      2.8611    
  2.8615      3.1412      3.7664      4.7762      7.6604      14.885      26.892      41.446      54.571      62.318    
  66.860      54.548      38.347      22.933      11.889      6.2518      4.3700      3.5367      3.0648      2.9230    
  3.0644      3.5361      4.3686      6.2494      11.889      22.940      38.364      54.569      66.875      71.457    
  62.299      47.037      30.399      16.786      8.4999      5.0697      3.9628      3.3095      3.0137      3.0129    
  3.3079      3.9614      5.0678      8.4978      16.787      30.407      47.051      62.312      71.456      71.450    
  25.902      16.589      9.5385      5.7522      4.3456      3.5867      3.1071      2.8969      2.8972      3.1084    
  3.5884      4.3447      5.7457      9.5277      16.579      25.898      34.859      40.370      40.368      34.858    
  16.588      10.129      6.2073      4.5694      3.7853      3.2387      2.9489      2.8632      2.9492      3.2406    
  3.7879      4.5685      6.1999      10.118      16.581      24.190      30.410      32.814      30.408      24.191    
  9.5360      6.2062      4.6519      3.8915      3.3301      2.9960      2.8519      2.8514      2.9963      3.3333    
  3.8952      4.6509      6.1991      9.5280      14.484      19.634      22.943      22.942      19.632      14.487    
  5.7496      4.5687      3.8916      3.3628      3.0236      2.8513      2.8003      2.8509      3.0253      3.3672    
  3.8950      4.5669      5.7434      8.0162      11.080      13.795      14.886      13.795      11.082      8.0222    
  4.3451      3.7858      3.3308      3.0240      2.8523      2.7790      2.7786      2.8523      3.0262      3.3347    
  3.7884      4.3439      5.0642      6.2439      7.6561      8.6426      8.6441      7.6604      6.2497      5.0690    
  3.5880      3.2400      2.9969      2.8518      2.7791      2.7571      2.7784      2.8513      2.9978      3.2428    
  3.5913      4.0088      4.4301      4.8807      5.3109      5.4970      5.3156      4.8865      4.4332      4.0078    
  3.1085      2.9499      2.8525      2.8005      2.7786      2.7783      2.7994      2.8508      2.9490      3.1101    
  3.3345      3.5973      3.8530      4.0534      4.1637      4.1656      4.0571      3.8545      3.5952      3.3312    
  2.8970      2.8631      2.8513      2.8507      2.8522      2.8512      2.8508      2.8608      2.8943      2.9610    
  3.0606      3.1797      3.2944      3.3778      3.4086      3.3781      3.2939      3.1781      3.0594      2.9619    
  2.8963      2.9486      2.9960      3.0252      3.0262      2.9978      2.9491      2.8944      2.8476      2.8185    
  2.8110      2.8220      2.8415      2.8557      2.8551      2.8400      2.8209      2.8116      2.8211      2.8509    
  3.1079      3.2406      3.3335      3.3674      3.3348      3.2427      3.1101      2.9610      2.8186      2.6996    
  2.6130      2.5587      2.5308      2.5220      2.5301      2.5586      2.6143      2.7015      2.8194      2.9600    
  3.5892      3.7889      3.8960      3.8954      3.7885      3.5911      3.3345      3.0606      2.8111      2.6131    
  2.4746      2.3900      2.3501      2.3498      2.3899      2.4757      2.6142      2.8101      3.0569      3.3303    
  4.3461      4.5695      4.6514      4.5670      4.3437      4.0087      3.5973      3.1798      2.8221      2.5588    
  2.3900      2.2989      2.2702      2.2986      2.3899      2.5586      2.8209      3.1773      3.5951      4.0087    
  5.7457      6.1998      6.1988      5.7428      5.0638      4.4302      3.8532      3.2945      2.8413      2.5306    
  2.3502      2.2703      2.2706      2.3504      2.5298      2.8398      3.2938      3.8548      4.4339      5.0679    
  9.5267      10.118      9.5274      8.0151      6.2433      4.8811      4.0537      3.3775      2.8552      2.5218    
  2.3500      2.2990      2.3505      2.5219      2.8547      3.3779      4.0564      4.8854      6.2467      8.0159    
  16.580      16.582      14.483      11.077      7.6553      5.3116      4.1638      3.4077      2.8542      2.5300    
  2.3905      2.3904      2.5299      2.8544      3.4089      4.1661      5.3141      7.6562      11.075      14.480    
  25.902      24.191      19.630      13.792      8.6420      5.4982      4.1654      3.3767      2.8390      2.5590    
  2.4767      2.5590      2.8392      3.3770      4.1656      5.4983      8.6426      13.793      19.631      24.191    
  34.862      30.407      22.937      14.882      8.6449      5.3172      4.0565      3.2922      2.8204      2.6154    
  2.6155      2.8209      3.2925      4.0550      5.3138      8.6432      14.887      22.949      30.420      34.868    
  40.368      32.808      22.935      13.794      7.6631      4.8879      3.8532      3.1766      2.8117      2.7030    
  2.8111      3.1767      3.8531      4.8845      7.6573      13.794      22.949      32.832      40.387      43.196    
  40.364      30.402      19.629      11.084      6.2530      4.4335      3.5935      3.0584      2.8218      2.8209    
  3.0572      3.5938      4.4325      6.2472      11.078      19.632      30.418      40.385      46.345      46.336    
  34.855      24.189      14.489      8.0260      5.0711      4.0070      3.3294      2.9614      2.8519      2.9611    
  3.3299      4.0072      5.0672      8.0173      14.481      24.188      34.863      43.193      46.336      43.185    
  11.656      7.5821      5.2474      4.2385      3.5621      3.1065      2.8678      2.7963      2.8678      3.1092    
  3.5680      4.2432      5.2451      7.5714      11.641      16.579      20.663      22.249      20.670      16.593    
  7.5812      5.4079      4.3830      3.7176      3.2327      2.9483      2.8244      2.8237      2.9485      3.2372    
  3.7256      4.3885      5.4059      7.5717      10.925      14.481      16.787      16.790      14.490      10.937    
  5.2459      4.3826      3.7725      3.3026      3.0045      2.8515      2.8052      2.8505      3.0055      3.3078    