Ni fcc bulk                             
   3.52284377630020     
     0.500000    0.500000    0.000000
     0.000000    0.500000    0.500000
     0.500000    0.000000    0.500000
   Ni
     1
Direct
  0.000000  0.000000  0.000000
 
   20   20   20
 0.15125717805E+03 0.14162211223E+03 0.11598620895E+03 0.82485054641E+02 0.50271579835E+02
 0.25906388799E+02 0.11655278364E+02 0.58044619736E+01 0.42560779881E+01 0.35902518225E+01
 0.33825093048E+01 0.35902518225E+01 0.42560779881E+01 0.58044619736E+01 0.11655278364E+02
 0.25906388799E+02 0.50271579835E+02 0.82485054641E+02 0.11598620895E+03 0.14162211223E+03
 0.14162377169E+03 0.12403163892E+03 0.94663970733E+02 0.62311239688E+02 0.34856059055E+02
 0.16588289582E+02 0.75777402595E+01 0.47078991839E+01 0.38166645573E+01 0.33963605538E+01
 0.33976082403E+01 0.38183229882E+01 0.47080537787E+01 0.75796777415E+01 0.16595431535E+02
 0.34862236273E+02 0.62302421517E+02 0.94634366455E+02 0.12399589358E+03 0.14160758451E+03
 0.11598885441E+03 0.94663265380E+02 0.66874784013E+02 0.40365906286E+02 0.20662773332E+02
 0.95346303921E+01 0.52433522237E+01 0.40481704486E+01 0.34407391991E+01 0.32537640643E+01
 0.34411151559E+01 0.40475679829E+01 0.52438224040E+01 0.95407629209E+01 0.20672944991E+02
 0.40368206386E+02 0.66857533086E+02 0.94630687515E+02 0.11596233335E+03 0.12400036534E+03
 0.82483615986E+02 0.62306838591E+02 0.40363885509E+02 0.22244734442E+02 0.10829660851E+02
 0.57492861214E+01 0.42373149835E+01 0.35048248634E+01 0.31656192554E+01 0.31652352732E+01
 0.35033368154E+01 0.42351012825E+01 0.57487040569E+01 0.10832676983E+02 0.22249638974E+02
 0.40366210547E+02 0.62304130222E+02 0.82478404226E+02 0.94636475998E+02 0.94639067980E+02
 0.50265302403E+02 0.34851196451E+02 0.20662627654E+02 0.10831164717E+02 0.59633118399E+01
 0.43450581266E+01 0.35625542343E+01 0.31218862310E+01 0.29906805611E+01 0.31222503546E+01
 0.35617871219E+01 0.43418303272E+01 0.59580547626E+01 0.10826391528E+02 0.20661926794E+02
 0.34856742594E+02 0.50275025207E+02 0.62309146788E+02 0.66862739925E+02 0.62301443366E+02
 0.25901441860E+02 0.16588315697E+02 0.95382363990E+01 0.57520577225E+01 0.43456383013E+01
 0.35866491627E+01 0.31069375091E+01 0.28968033606E+01 0.28973889585E+01 0.31086593724E+01
 0.35885223970E+01 0.43448710929E+01 0.57459449266E+01 0.95278377454E+01 0.16579124894E+02
 0.25898488704E+02 0.34859396253E+02 0.40369812045E+02 0.40367922459E+02 0.34857057175E+02
 0.11656002577E+02 0.75817104390E+01 0.52468993632E+01 0.42383376964E+01 0.35620917888E+01
 0.31064103059E+01 0.28676285241E+01 0.27962412903E+01 0.28679263664E+01 0.31092919361E+01
 0.35681149848E+01 0.42435862465E+01 0.52455884862E+01 0.75717329038E+01 0.11641193049E+02
 0.16579373344E+02 0.20662789306E+02 0.22249237534E+02 0.20670097253E+02 0.16592614359E+02
 0.58075762356E+01 0.47103805600E+01 0.40486053433E+01 0.35037418274E+01 0.31204560162E+01
 0.28958788658E+01 0.27959693608E+01 0.27952071620E+01 0.28946031488E+01 0.31213923474E+01
 0.35095648843E+01 0.40586156025E+01 0.47188896632E+01 0.58074969237E+01 0.75708824399E+01
 0.95267907090E+01 0.10825422130E+02 0.10831620779E+02 0.95403346230E+01 0.75811787450E+01
 0.42571646877E+01 0.38163737540E+01 0.34393334605E+01 0.31638967649E+01 0.29894146558E+01
 0.28968808569E+01 0.28679791104E+01 0.28947892319E+01 0.29844676756E+01 0.31586575455E+01
 0.34400081974E+01 0.38262424034E+01 0.42710174012E+01 0.47182431316E+01 0.52444228503E+01
 0.57449986030E+01 0.59579575227E+01 0.57496559183E+01 0.52456503745E+01 0.47100327542E+01
 0.35895800167E+01 0.33950232624E+01 0.32524174370E+01 0.31644652955E+01 0.31222455365E+01
 0.31091702052E+01 0.31099045702E+01 0.31218152055E+01 0.31588168186E+01 0.32425080849E+01
 0.33872937531E+01 0.35896745295E+01 0.38260722353E+01 0.40582148335E+01 0.42433167197E+01
 0.43453115656E+01 0.43431736809E+01 0.42368624833E+01 0.40489327612E+01 0.38187080640E+01
 0.33812527801E+01 0.33966924800E+01 0.34410573572E+01 0.35041940858E+01 0.35630933920E+01
 0.35896406529E+01 0.35687236055E+01 0.35097685558E+01 0.34400475303E+01 0.33872984783E+01
 0.33680919556E+01 0.33872984783E+01 0.34400475303E+01 0.35097685558E+01 0.35687236055E+01
 0.35896406529E+01 0.35630933920E+01 0.35041940858E+01 0.34410573572E+01 0.33966924800E+01
 0.35895800167E+01 0.38187080640E+01 0.40489327612E+01 0.42368624833E+01 0.43431736809E+01
 0.43453115656E+01 0.42433167197E+01 0.40582148335E+01 0.38260722353E+01 0.35896745295E+01
 0.33872937531E+01 0.32425080849E+01 0.31588168186E+01 0.31218152055E+01 0.31099045702E+01
 0.31091702052E+01 0.31222455365E+01 0.31644652955E+01 0.32524174370E+01 0.33950232624E+01
 0.42571646877E+01 0.47100327542E+01 0.52456503745E+01 0.57496559183E+01 0.59579575227E+01
 0.57449986030E+01 0.52444228503E+01 0.47182431316E+01 0.42710174012E+01 0.38262424034E+01
 0.34400081974E+01 0.31586575455E+01 0.29844676756E+01 0.28947892319E+01 0.28679791104E+01
 0.28968808569E+01 0.29894146558E+01 0.31638967649E+01 0.34393334605E+01 0.38163737540E+01
 0.58075762356E+01 0.75811787450E+01 0.95403346230E+01 0.10831620779E+02 0.10825422130E+02
 0.95267907090E+01 0.75708824399E+01 0.58074969237E+01 0.47188896632E+01 0.40586156025E+01
 0.35095648843E+01 0.31213923474E+01 0.28946031488E+01 0.27952071620E+01 0.27959693608E+01
 0.28958788658E+01 0.31204560162E+01 0.35037418274E+01 0.40486053433E+01 0.47103805600E+01
 0.11656002577E+02 0.16592614359E+02 0.20670097253E+02 0.22249237534E+02 0.20662789306E+02
 0.16579373344E+02 0.11641193049E+02 0.75717329038E+01 0.52455884862E+01 0.42435862465E+01
 0.35681149848E+01 0.31092919361E+01 0.28679263664E+01 0.27962412903E+01 0.28676285241E+01
 0.31064103059E+01 0.35620917888E+01 0.42383376964E+01 0.52468993632E+01 0.75817104390E+01
 0.25901441860E+02 0.34857057175E+02 0.40367922459E+02 0.40369812045E+02 0.34859396253E+02
 0.25898488704E+02 0.16579124894E+02 0.95278377454E+01 0.57459449266E+01 0.43448710929E+01
 0.35885223970E+01 0.31086593724E+01 0.28973889585E+01 0.28968033606E+01 0.31069375091E+01
 0.35866491627E+01 0.43456383013E+01 0.57520577225E+01 0.95382363990E+01 0.16588315697E+02
 0.50265302403E+02 0.62301443366E+02 0.66862739925E+02 0.62309146788E+02 0.50275025207E+02
 0.34856742594E+02 0.20661926794E+02 0.10826391528E+02 0.59580547626E+01 0.43418303272E+01
 0.35617871219E+01 0.31222503546E+01 0.29906805611E+01 0.31218862310E+01 0.35625542343E+01
 0.43450581266E+01 0.59633118399E+01 0.10831164717E+02 0.20662627654E+02 0.34851196451E+02
 0.82483615986E+02 0.94639067980E+02 0.94636475998E+02 0.82478404226E+02 0.62304130222E+02
 0.40366210547E+02 0.22249638974E+02 0.10832676983E+02 0.57487040569E+01 0.42351012825E+01
 0.35033368154E+01 0.31652352732E+01 0.31656192554E+01 0.35048248634E+01 0.42373149835E+01
 0.57492861214E+01 0.10829660851E+02 0.22244734442E+02 0.40363885509E+02 0.62306838591E+02
 0.11598885441E+03 0.12400036534E+03 0.11596233335E+03 0.94630687515E+02 0.66857533086E+02
 0.40368206386E+02 0.20672944991E+02 0.95407629209E+01 0.52438224040E+01 0.40475679829E+01
 0.34411151559E+01 0.32537640643E+01 0.34407391991E+01 0.40481704486E+01 0.52433522237E+01
 0.95346303921E+01 0.20662773332E+02 0.40365906286E+02 0.66874784013E+02 0.94663265380E+02
 0.14162377169E+03 0.14160758451E+03 0.12399589358E+03 0.94634366455E+02 0.62302421517E+02
 0.34862236273E+02 0.16595431535E+02 0.75796777415E+01 0.47080537787E+01 0.38183229882E+01
 0.33976082403E+01 0.33963605538E+01 0.38166645573E+01 0.47078991839E+01 0.75777402595E+01
 0.16588289582E+02 0.34856059055E+02 0.62311239688E+02 0.94663970733E+02 0.12403163892E+03
 0.14162367378E+03 0.12403142633E+03 0.94663445925E+02 0.62310600070E+02 0.34855678957E+02
 0.16588225859E+02 0.75778024574E+01 0.47080066550E+01 0.38168167159E+01 0.33964477780E+01
 0.33975779933E+01 0.38183084665E+01 0.47080997301E+01 0.75796387872E+01 0.16595362493E+02
 0.34862482340E+02 0.62303071224E+02 0.94634982853E+02 0.12399608663E+03 0.14160749581E+03
 0.12403362039E+03 0.10118172787E+03 0.71475213723E+02 0.43186057336E+02 0.22125886201E+02
 0.10125158864E+02 0.54038724333E+01 0.41198145261E+01 0.34955864082E+01 0.33025280561E+01
 0.34959860881E+01 0.41190054393E+01 0.54049509029E+01 0.10134604156E+02 0.22140994605E+02
 0.43188596198E+02 0.71446954425E+02 0.10112913076E+03 0.12399078797E+03 0.13262655354E+03
 0.94665800322E+02 0.71474556462E+02 0.46336576888E+02 0.25554841515E+02 0.12297905470E+02
 0.62032839263E+01 0.43811978918E+01 0.36119285403E+01 0.32499950005E+01 0.32495871745E+01
 0.36100850573E+01 0.43790546526E+01 0.62062093076E+01 0.12309209886E+02 0.25566852261E+02
 0.46333744830E+02 0.71450078252E+02 0.94633568984E+02 0.10866684980E+03 0.10868177328E+03
 0.62309196425E+02 0.43183649028E+02 0.25554571085E+02 0.13153471575E+02 0.67568802062E+01
 0.45679514432E+01 0.37181116976E+01 0.32315389521E+01 0.30859032726E+01 0.32319687689E+01
 0.37164826753E+01 0.45639972262E+01 0.67545525238E+01 0.13156595204E+02 0.25561882395E+02
 0.43189977345E+02 0.62311269731E+02 0.77293244448E+02 0.82985074501E+02 0.77293819063E+02
 0.34852202298E+02 0.22125333698E+02 0.12300091189E+02 0.67584022354E+01 0.46433341869E+01
 0.37853757958E+01 0.32338032405E+01 0.29901190450E+01 0.29911609722E+01 0.32352654239E+01
 0.37839912037E+01 0.46376786835E+01 0.67508511326E+01 0.12295730693E+02 0.22128494831E+02
 0.34862633402E+02 0.47054653673E+02 0.54561321308E+02 0.54556170320E+02 0.47042891979E+02
 0.16587836431E+02 0.10128444770E+02 0.62068775302E+01 0.45692301083E+01 0.37852167861E+01
 0.32385447097E+01 0.29488002219E+01 0.28632132319E+01 0.29493540079E+01 0.32407151110E+01
 0.37880647032E+01 0.45688530690E+01 0.62003848088E+01 0.10118431453E+02 0.16580771116E+02
 0.24189829470E+02 0.30410010854E+02 0.32814516578E+02 0.30407728872E+02 0.24190548964E+02
 0.75809255938E+01 0.54074390146E+01 0.43826246051E+01 0.37175661219E+01 0.32326989421E+01
 0.29481812578E+01 0.28242725100E+01 0.28236839928E+01 0.29484677986E+01 0.32371653224E+01
 0.37256754126E+01 0.43889708407E+01 0.54064073268E+01 0.75719555015E+01 0.10924832510E+02
 0.14480868849E+02 0.16786820643E+02 0.16790304015E+02 0.14490406604E+02 0.10936996467E+02
 0.47103290005E+01 0.41204571309E+01 0.36109085266E+01 0.32298057047E+01 0.29886915401E+01
 0.28625466034E+01 0.28236017388E+01 0.28611065430E+01 0.29869911275E+01 0.32307553793E+01
 0.36173563143E+01 0.41312426663E+01 0.47191931210E+01 0.56027870520E+01 0.68532480321E+01
 0.80165153690E+01 0.84969835475E+01 0.80240486445E+01 0.68605546382E+01 0.56021849233E+01
 0.38168332929E+01 0.34943897407E+01 0.32482587309E+01 0.30844714567E+01 0.29905096603E+01
 0.29494153308E+01 0.29488405085E+01 0.29872636139E+01 0.30774761502E+01 0.32416643458E+01
 0.34951196070E+01 0.38266081802E+01 0.41914061410E+01 0.45307279900E+01 0.48461656573E+01
 0.50673293741E+01 0.50684085959E+01 0.48459576928E+01 0.45239042058E+01 0.41790948282E+01
 0.33952837413E+01 0.33012122462E+01 0.32487497886E+01 0.32319415587E+01 0.32359015619E+01
 0.32415648662E+01 0.32378427762E+01 0.32311317585E+01 0.32417988684E+01 0.32907075593E+01
 0.33876963181E+01 0.35279424958E+01 0.36927583616E+01 0.38515296079E+01 0.39672750521E+01
 0.40084470626E+01 0.39628659240E+01 0.38445316516E+01 0.36871859876E+01 0.35283495731E+01
 0.33964763904E+01 0.34956734175E+01 0.36107355749E+01 0.37177519853E+01 0.37852051416E+01
 0.37887252264E+01 0.37258092026E+01 0.36173208010E+01 0.34951522911E+01 0.33877627636E+01
 0.33136800982E+01 0.32811839183E+01 0.32867533953E+01 0.33128081027E+01 0.33335864510E+01
 0.33311846777E+01 0.33088306571E+01 0.32875154715E+01 0.32895136563E+01 0.33258164944E+01
 0.38183171050E+01 0.41200071642E+01 0.43806038181E+01 0.45652890802E+01 0.46380250323E+01
 0.45682141727E+01 0.43879950620E+01 0.41306475505E+01 0.38265455085E+01 0.35280712310E+01
 0.32812194639E+01 0.31092003479E+01 0.30089229929E+01 0.29612101942E+01 0.29472806843E+01
 0.29613227324E+01 0.30123393411E+01 0.31166514338E+01 0.32878138625E+01 0.35276301970E+01
 0.47099596861E+01 0.54066802622E+01 0.62069547082E+01 0.67542586748E+01 0.67496949871E+01
 0.61987130794E+01 0.54049934456E+01 0.47186584146E+01 0.41915323300E+01 0.36929193358E+01
 0.32866580198E+01 0.30087644919E+01 0.28479872077E+01 0.27769868570E+01 0.27780041155E+01
 0.28510162314E+01 0.30121538587E+01 0.32859293788E+01 0.36845477417E+01 0.41785594522E+01
 0.75813022507E+01 0.10133623192E+02 0.12307144770E+02 0.13155115164E+02 0.12294721935E+02
 0.10117363997E+02 0.75713155228E+01 0.56030329192E+01 0.45311987823E+01 0.38515042491E+01
 0.33123769265E+01 0.29608709532E+01 0.27769511729E+01 0.27217463364E+01 0.27775437952E+01
 0.29603967602E+01 0.33086127265E+01 0.38441732070E+01 0.45241362020E+01 0.56027049304E+01
 0.16591782252E+02 0.22135857237E+02 0.25564510553E+02 0.25562615030E+02 0.22129399889E+02
 0.16580593275E+02 0.10924882712E+02 0.68541217047E+01 0.48466308865E+01 0.39666856135E+01
 0.33327339225E+01 0.29469947531E+01 0.27783067391E+01 0.27778926792E+01 0.29451580701E+01
 0.33291821158E+01 0.39637085268E+01 0.48483773670E+01 0.68626629704E+01 0.10937455938E+02
 0.34854439738E+02 0.43184573227E+02 0.46336032203E+02 0.43193818589E+02 0.34863355475E+02
 0.24188444232E+02 0.14480597434E+02 0.80173656770E+01 0.50671883763E+01 0.40071043921E+01
 0.33301310414E+01 0.29614534006E+01 0.28519356008E+01 0.29611737426E+01 0.33293302225E+01
 0.40072298631E+01 0.50712442186E+01 0.80259180000E+01 0.14488472005E+02 0.24188352564E+02
 0.62297904413E+02 0.71449374950E+02 0.71456117433E+02 0.62313225889E+02 0.47051255646E+02
 0.30406527037E+02 0.16786456906E+02 0.84975029022E+01 0.50673504355E+01 0.39610892195E+01
 0.33080955840E+01 0.30131407802E+01 0.30135720648E+01 0.33093433085E+01 0.39630832706E+01
 0.50699913337E+01 0.85000251234E+01 0.16786244110E+02 0.30399775013E+02 0.47037195308E+02
 0.94636543660E+02 0.10113516848E+03 0.94636336688E+02 0.77288703338E+02 0.54554541541E+02
 0.32811831905E+02 0.16791093849E+02 0.80239696690E+01 0.48441356229E+01 0.38430210641E+01
 0.32875805518E+01 0.31180311146E+01 0.32872522699E+01 0.38438939608E+01 0.48457752628E+01
 0.80232468239E+01 0.16786084432E+02 0.32804681297E+02 0.54549242184E+02 0.77286942956E+02
 0.12399990539E+03 0.12399336486E+03 0.10866278391E+03 0.82977115801E+02 0.54551838946E+02
 0.30408803259E+02 0.14491867800E+02 0.68592395408E+01 0.45219246144E+01 0.36865525082E+01
 0.32904325778E+01 0.32892923607E+01 0.36849901881E+01 0.45220217249E+01 0.68589539338E+01
 0.14488013316E+02 0.30403562079E+02 0.54552442473E+02 0.82987365345E+02 0.10867678201E+03
 0.14160860867E+03 0.13262436290E+03 0.10867566892E+03 0.77289632165E+02 0.47044283885E+02
 0.24193556608E+02 0.10936651577E+02 0.55996337376E+01 0.41778123000E+01 0.35287636744E+01
 0.33271553936E+01 0.35285830357E+01 0.41776941580E+01 0.55995214240E+01 0.10936405988E+02
 0.24193548895E+02 0.47044964245E+02 0.77290649558E+02 0.10867623995E+03 0.13262439795E+03
 0.11598862643E+03 0.94662656067E+02 0.66873801055E+02 0.40365048877E+02 0.20662311916E+02
 0.95343676690E+01 0.52431913338E+01 0.40482648115E+01 0.34409836560E+01 0.32538290653E+01
 0.34410633689E+01 0.40477463830E+01 0.52441716058E+01 0.95409690257E+01 0.20673176235E+02
 0.40368907208E+02 0.66858541507E+02 0.94631325540E+02 0.11596238505E+03 0.12400021207E+03
 0.94665481497E+02 0.71474083407E+02 0.46336077007E+02 0.25554443074E+02 0.12297576301E+02
 0.62029982500E+01 0.43810746967E+01 0.36120057122E+01 0.32500772090E+01 0.32495558217E+01
 0.36101062630E+01 0.43792671668E+01 0.62064708630E+01 0.12309405830E+02 0.25567154964E+02
 0.46334301570E+02 0.71450677368E+02 0.94633889804E+02 0.10866685308E+03 0.10868159962E+03
 0.66876209667E+02 0.46335787272E+02 0.27410039935E+02 0.14048137391E+02 0.70734698269E+01
 0.46500148734E+01 0.37727876401E+01 0.32707999282E+01 0.31198102245E+01 0.32708302935E+01
 0.37706832935E+01 0.46467821448E+01 0.70747059060E+01 0.14057312838E+02 0.27422078654E+02
 0.46341006924E+02 0.66871399509E+02 0.82986855912E+02 0.89120087251E+02 0.82994076671E+02
 0.40364355012E+02 0.25553678962E+02 0.14048592040E+02 0.74267018383E+01 0.48241212606E+01
 0.38914682080E+01 0.33038510663E+01 0.30420349475E+01 0.30429589387E+01 0.33046606498E+01
 0.38888023172E+01 0.48178969482E+01 0.74216721504E+01 0.14051040618E+02 0.25566298447E+02
 0.40383508261E+02 0.54572559341E+02 0.63325007724E+02 0.63318078749E+02 0.54555291094E+02
 0.20661169255E+02 0.12298808999E+02 0.70753790591E+01 0.48247740633E+01 0.39360750373E+01
 0.33305459931E+01 0.30055691974E+01 0.29102089390E+01 0.30062835166E+01 0.33312996649E+01
 0.39346341026E+01 0.48188547175E+01 0.70668486833E+01 0.12295121627E+02 0.20669380187E+02
 0.30420074794E+02 0.38370307488E+02 0.41439938715E+02 0.38355278619E+02 0.30402202396E+02
 0.95358852353E+01 0.62058317422E+01 0.46515484860E+01 0.38913759730E+01 0.33300703994E+01
 0.29959010586E+01 0.28518757829E+01 0.28514532816E+01 0.29962827308E+01 0.33332584786E+01
 0.38952922994E+01 0.46511733303E+01 0.61994196970E+01 0.95280589052E+01 0.14483926295E+02
 0.19633632581E+02 0.22943345301E+02 0.22941673969E+02 0.19631837535E+02 0.14487124429E+02
 0.52457325532E+01 0.43824644754E+01 0.37724790550E+01 0.33026702682E+01 0.30045422774E+01
 0.28514668154E+01 0.28051354112E+01 0.28504642373E+01 0.30053375638E+01 0.33076404091E+01
 0.37803773174E+01 0.43886356582E+01 0.52457890949E+01 0.68541640520E+01 0.90762746729E+01
 0.11077445245E+02 0.11888586747E+02 0.11083837821E+02 0.90854287883E+01 0.68606590535E+01
 0.40490789255E+01 0.36113348452E+01 0.32692535116E+01 0.30405485536E+01 0.29093621185E+01
 0.28512720687E+01 0.28505932905E+01 0.29071680284E+01 0.30378058153E+01 0.32693648171E+01
 0.36173578735E+01 0.40592100078E+01 0.45317907963E+01 0.50965848551E+01 0.57655601601E+01
 0.62466471950E+01 0.62493804891E+01 0.57700520510E+01 0.50960055720E+01 0.45240060664E+01
 0.34401200964E+01 0.32485295172E+01 0.31183901014E+01 0.30422391854E+01 0.30063314897E+01
 0.29967846121E+01 0.30058791218E+01 0.30380985544E+01 0.31101407235E+01 0.32416282040E+01
 0.34407825048E+01 0.36936991291E+01 0.39641581680E+01 0.42043706310E+01 0.43708179987E+01
 0.44332787632E+01 0.43698786476E+01 0.41994527753E+01 0.39549355315E+01 0.36855955241E+01
 0.32524217410E+01 0.32485494785E+01 0.32706065889E+01 0.33051797770E+01 0.33321801037E+01
 0.33340765378E+01 0.33081896581E+01 0.32696654315E+01 0.32417638937E+01 0.32431489972E+01
 0.32819880299E+01 0.33558248374E+01 0.34509556497E+01 0.35417701656E+01 0.35971066835E+01
 0.35952339487E+01 0.35373506853E+01 0.34472108156E+01 0.33564377013E+01 0.32883407458E+01
 0.34403847290E+01 0.36103813951E+01 0.37716803565E+01 0.38899419864E+01 0.39353364370E+01
 0.38953890061E+01 0.37801798141E+01 0.36172719256E+01 0.34409062503E+01 0.32821295046E+01
 0.31628939072E+01 0.30923813213E+01 0.30644489140E+01 0.30603277694E+01 0.30602862084E+01
 0.30579566440E+01 0.30644322706E+01 0.30983075789E+01 0.31724607187E+01 0.32889224745E+01
 0.40484724545E+01 0.43805498128E+01 0.46479691662E+01 0.48183492485E+01 0.48183145451E+01
 0.46499885353E+01 0.43875739184E+01 0.40587995532E+01 0.36938303530E+01 0.33560454921E+01
 0.30924426574E+01 0.29175311417E+01 0.28189910007E+01 0.27761010461E+01 0.27760834197E+01
 0.28203503485E+01 0.29217156858E+01 0.30968728113E+01 0.33554627505E+01 0.36862679252E+01
 0.52458775140E+01 0.62071022310E+01 0.70742922893E+01 0.74206479513E+01 0.70653665423E+01
 0.61978218140E+01 0.52447862197E+01 0.45316254975E+01 0.39643627420E+01 0.34510369626E+01
 0.30643360997E+01 0.28189024861E+01 0.26903765723E+01 0.26515506468E+01 0.26918279142E+01
 0.28206933102E+01 0.30636326451E+01 0.34450245533E+01 0.39542578982E+01 0.45238718658E+01
 0.95400197286E+01 0.12306743622E+02 0.14055317888E+02 0.14050244120E+02 0.12294443805E+02
 0.95272673119E+01 0.68540387958E+01 0.50970556047E+01 0.42045071110E+01 0.35413828891E+01
 0.30598857269E+01 0.27760055178E+01 0.26516894467E+01 0.26518721505E+01 0.27758080313E+01
 0.30578114992E+01 0.35370423855E+01 0.42001814543E+01 0.50969951081E+01 0.68611843853E+01
 0.20667355986E+02 0.25563343725E+02 0.27422412362E+02 0.25568036838E+02 0.20669616347E+02
 0.14483343000E+02 0.90766571602E+01 0.57663534642E+01 0.43705156575E+01 0.35960492966E+01
 0.30596411806E+01 0.27762844096E+01 0.26923765767E+01 0.27760968674E+01 0.30580465234E+01
 0.35939159096E+01 0.43717975592E+01 0.57737095675E+01 0.90866712699E+01 0.14488725049E+02
 0.40363188356E+02 0.46335260055E+02 0.46345795121E+02 0.40385687661E+02 0.30418196290E+02
 0.19631650532E+02 0.11077727909E+02 0.62472060082E+01 0.44322254874E+01 0.35937023069E+01
 0.30575342498E+01 0.28211372980E+01 0.28216601991E+01 0.30581044745E+01 0.35935961739E+01
 0.44337703248E+01 0.62529785994E+01 0.11084206475E+02 0.19629154391E+02 0.30401333612E+02
 0.66859278123E+02 0.71457230515E+02 0.66875806172E+02 0.54569774208E+02 0.38364337217E+02
 0.22940497236E+02 0.11889072349E+02 0.62493150444E+01 0.43681287135E+01 0.35359366779E+01
 0.30647056945E+01 0.29230871472E+01 0.30646227695E+01 0.35366840804E+01 0.43702418899E+01
 0.62517230731E+01 0.11888626910E+02 0.22932700732E+02 0.38346800584E+02 0.54547020750E+02
 0.94637084838E+02 0.94639240557E+02 0.82984355809E+02 0.63316119414E+02 0.41432978899E+02
 0.22940564857E+02 0.11084740479E+02 0.57690332319E+01 0.41974865447E+01 0.34465530078E+01
 0.30994173999E+01 0.30984219225E+01 0.34453754832E+01 0.41984997458E+01 0.57708563375E+01
 0.11083406738E+02 0.22934194625E+02 0.41423535750E+02 0.63307069199E+02 0.82978188092E+02
 0.11596624189E+03 0.10866556607E+03 0.89111486915E+02 0.63308904136E+02 0.38352204908E+02
 0.19633172205E+02 0.90856207154E+01 0.50940525303E+01 0.39534782149E+01 0.33568129530E+01
 0.31740486432E+01 0.33565682258E+01 0.39534854856E+01 0.50941586740E+01 0.90852492313E+01
 0.19632593983E+02 0.38352211241E+02 0.63309363787E+02 0.89111557586E+02 0.10866522923E+03
 0.12399995156E+03 0.10867658759E+03 0.82986520073E+02 0.54551519749E+02 0.30403296064E+02
 0.14488195754E+02 0.68590145057E+01 0.45220352697E+01 0.36852505555E+01 0.32895205713E+01
 0.32903392955E+01 0.36864747923E+01 0.45221262877E+01 0.68593310072E+01 0.14491675501E+02
 0.30408908987E+02 0.54552568233E+02 0.82977824664E+02 0.10866288578E+03 0.12399322639E+03
 0.82483484342E+02 0.62306105870E+02 0.40362922824E+02 0.22244084407E+02 0.10829243257E+02
 0.57488196078E+01 0.42369921823E+01 0.35048866797E+01 0.31657604453E+01 0.31651520007E+01
 0.35033168311E+01 0.42354791481E+01 0.57492526010E+01 0.10833143441E+02 0.22250239219E+02
 0.40367050777E+02 0.62304758618E+02 0.82478504018E+02 0.94636409990E+02 0.94639156702E+02
 0.62308709695E+02 0.43183001288E+02 0.25554072135E+02 0.13153138716E+02 0.67564926232E+01
 0.45675490488E+01 0.37179646432E+01 0.32316102897E+01 0.30858858712E+01 0.32318476351E+01
 0.37165534457E+01 0.45643196877E+01 0.67548938665E+01 0.13156938062E+02 0.25562442060E+02
 0.43190707391E+02 0.62311824864E+02 0.77293466861E+02 0.82985085309E+02 0.77293634075E+02
 0.40364023347E+02 0.25553479886E+02 0.14048580905E+02 0.74266912083E+01 0.48239803362E+01
 0.38913185351E+01 0.33038292524E+01 0.30420617591E+01 0.30429115744E+01 0.33045966725E+01
 0.38888379188E+01 0.48179977142E+01 0.74217492881E+01 0.14051136273E+02 0.25566503773E+02
 0.40383796709E+02 0.54572821546E+02 0.63325159186E+02 0.63318051308E+02 0.54555051378E+02
 0.22242497476E+02 0.13152284808E+02 0.74268216833E+01 0.49260382139E+01 0.39878799713E+01
 0.33631657521E+01 0.30263468886E+01 0.29274332487E+01 0.30267081415E+01 0.33635191140E+01
 0.39857880907E+01 0.49188192694E+01 0.74173846426E+01 0.13150858624E+02 0.22258014126E+02
 0.32833549436E+02 0.41453198942E+02 0.44779843153E+02 0.41430572991E+02 0.32805407065E+02
 0.10828068099E+02 0.67569792283E+01 0.48245841126E+01 0.39879390922E+01 0.33856951450E+01
 0.30240001551E+01 0.28691658254E+01 0.28688572354E+01 0.30245077047E+01 0.33878734236E+01
 0.39878789459E+01 0.48174929829E+01 0.67458002757E+01 0.10823944273E+02 0.16794293186E+02
 0.22952683655E+02 0.26897940575E+02 0.26889058328E+02 0.22934754520E+02 0.16783860127E+02
 0.57497469144E+01 0.45686207892E+01 0.38915197639E+01 0.33627964474E+01 0.30236859471E+01
 0.28513656319E+01 0.28002576680E+01 0.28508103722E+01 0.30251564426E+01 0.33670137100E+01
 0.38949250133E+01 0.45669591833E+01 0.57433515377E+01 0.80161156721E+01 0.11079507178E+02
 0.13795398203E+02 0.14885737846E+02 0.13795046069E+02 0.11081924142E+02 0.80224039034E+01
 0.42382440416E+01 0.37181957048E+01 0.33031994489E+01 0.30255389230E+01 0.28686820725E+01
 0.28001549750E+01 0.27992044912E+01 0.28671374826E+01 0.30261812108E+01 0.33076616787E+01
 0.37249320313E+01 0.42431004852E+01 0.48462786642E+01 0.57652676456E+01 0.68738982634E+01
 0.76565369955E+01 0.76597198541E+01 0.68811116088E+01 0.57712805439E+01 0.48469150266E+01
 0.35049038284E+01 0.32306800897E+01 0.30409212376E+01 0.29266854683E+01 0.28686668767E+01
 0.28510004098E+01 0.28673753124E+01 0.29236148808E+01 0.30374611130E+01 0.32303501461E+01
 0.35097136579E+01 0.38523602975E+01 0.42048067800E+01 0.45157900850E+01 0.47746552190E+01
 0.48844396713E+01 0.47768451181E+01 0.45160463507E+01 0.42001773657E+01 0.38450533484E+01
 0.31644752600E+01 0.30845366669E+01 0.30421062349E+01 0.30266153827E+01 0.30249269224E+01
 0.30257599428E+01 0.30266850572E+01 0.30377106310E+01 0.30765624280E+01 0.31585183831E+01
 0.32874328834E+01 0.34515901487E+01 0.36245693704E+01 0.37707532352E+01 0.38549820283E+01
 0.38543333591E+01 0.37678891027E+01 0.36189566121E+01 0.34461647318E+01 0.32870196574E+01
 0.31638064947E+01 0.32312542086E+01 0.33048010601E+01 0.33642056864E+01 0.33886214826E+01
 0.33675671951E+01 0.33080092516E+01 0.32305881257E+01 0.31586728468E+01 0.31097118329E+01
 0.30927447862E+01 0.31078067531E+01 0.31439051365E+01 0.31799274283E+01 0.31940584957E+01
 0.31776897705E+01 0.31416625468E+01 0.31083842594E+01 0.30972966176E+01 0.31164434587E+01
 0.35032060230E+01 0.37172454249E+01 0.38898608524E+01 0.39865889769E+01 0.39881322227E+01
 0.38947360148E+01 0.37247031907E+01 0.35097456390E+01 0.32876719005E+01 0.30929317253E+01
 0.29477748450E+01 0.28574043854E+01 0.28116217892E+01 0.27937076739E+01 0.27927417383E+01
 0.28109248378E+01 0.28604447946E+01 0.29540436747E+01 0.30975304652E+01 0.32863594690E+01
 0.42367311971E+01 0.45655720231E+01 0.48187127064E+01 0.49187434469E+01 0.48167207978E+01
 0.45659780603E+01 0.42424914084E+01 0.38523242100E+01 0.34518673752E+01 0.31080374918E+01
 0.28574734326E+01 0.27005628054E+01 0.26182317532E+01 0.25927092391E+01 0.26182760405E+01
 0.27019789530E+01 0.28596839975E+01 0.31075697852E+01 0.34462052590E+01 0.38438562710E+01
 0.57501900775E+01 0.67547081333E+01 0.74210465600E+01 0.74164644388E+01 0.67446781843E+01
 0.57424419273E+01 0.48460270767E+01 0.42049899573E+01 0.36247402941E+01 0.31438837333E+01
 0.28115559011E+01 0.26182587829E+01 0.25326289779E+01 0.25329843461E+01 0.26188607566E+01
 0.28109293989E+01 0.31402720913E+01 0.36183580738E+01 0.41995514855E+01 0.48465328337E+01
 0.10830859029E+02 0.13154842175E+02 0.14050545960E+02 0.13150796807E+02 0.10823444550E+02
 0.80158046995E+01 0.57657353029E+01 0.45162430054E+01 0.37705388376E+01 0.31794070595E+01
 0.27934793381E+01 0.25929085564E+01 0.25332430433E+01 0.25934032390E+01 0.27928516485E+01
 0.31768624818E+01 0.37679853167E+01 0.45170248644E+01 0.57713136821E+01 0.80241343985E+01
 0.22246341251E+02 0.25562435866E+02 0.25568879768E+02 0.22259022180E+02 0.16793348350E+02
 0.11079034569E+02 0.68747441863E+01 0.47750553734E+01 0.38541263233E+01 0.31930819144E+01
 0.27926227354E+01 0.26188876258E+01 0.26194320821E+01 0.27929692288E+01 0.31920207783E+01
 0.38541023526E+01 0.47799129335E+01 0.68831415402E+01 0.11083016629E+02 0.16786715448E+02
 0.40367486137E+02 0.43195966723E+02 0.40387617083E+02 0.32832059302E+02 0.22949032213E+02
 0.13794220210E+02 0.76575117391E+01 0.48843806549E+01 0.38528207744E+01 0.31766649626E+01
 0.28113457079E+01 0.27031084472E+01 0.28115481621E+01 0.31765531509E+01 0.38534525144E+01
 0.48880201631E+01 0.76630370452E+01 0.13794133037E+02 0.22935326234E+02 0.32807349813E+02
 0.62311279992E+02 0.62318380922E+02 0.54571999445E+02 0.41446004683E+02 0.26892042451E+02
 0.14885044021E+02 0.76608545085E+01 0.47760355353E+01 0.37660510037E+01 0.31411682039E+01
 0.28616503042E+01 0.28610935458E+01 0.31404222438E+01 0.37666698601E+01 0.47781364098E+01
 0.76624206789E+01 0.14882555252E+02 0.26882268087E+02 0.41429451961E+02 0.54555358021E+02
 0.82485153034E+02 0.77294097486E+02 0.63316813453E+02 0.44769531484E+02 0.26884739374E+02
 0.13796177844E+02 0.68819286489E+01 0.45144584573E+01 0.36174017131E+01 0.31088114105E+01
 0.29558165259E+01 0.31086988321E+01 0.36175752831E+01 0.45146541325E+01 0.68814956571E+01
 0.13795367842E+02 0.26884301398E+02 0.44769284329E+02 0.63316040005E+02 0.77293155863E+02
 0.94637540576E+02 0.82978845449E+02 0.63307135967E+02 0.41423434614E+02 0.22934609919E+02
 0.11083973045E+02 0.57709220294E+01 0.41983374256E+01 0.34455122342E+01 0.30985816444E+01
 0.30992615155E+01 0.34465094657E+01 0.41978600950E+01 0.57692066413E+01 0.11084274934E+02
 0.22940027801E+02 0.41432827783E+02 0.63315841204E+02 0.82983618263E+02 0.94638802326E+02
 0.94636933844E+02 0.77286808377E+02 0.54548496872E+02 0.32804140360E+02 0.16786053072E+02
 0.80231852338E+01 0.48454881332E+01 0.38438507086E+01 0.32875120035E+01 0.31180860174E+01
 0.32874239134E+01 0.38432035541E+01 0.48446660379E+01 0.80242956690E+01 0.16791183045E+02
 0.32812112163E+02 0.54554878405E+02 0.77288573087E+02 0.94635950736E+02 0.10113523544E+03
 0.50265463301E+02 0.34850845672E+02 0.20662208802E+02 0.10830935924E+02 0.59630529566E+01
 0.43447298089E+01 0.35624480323E+01 0.31219693206E+01 0.29905931322E+01 0.31219963562E+01
 0.35617490500E+01 0.43420798645E+01 0.59583186172E+01 0.10826684898E+02 0.20662428854E+02
 0.34857175597E+02 0.50274952364E+02 0.62308811081E+02 0.66862795394E+02 0.62301881960E+02
 0.34851975525E+02 0.22125101611E+02 0.12300063220E+02 0.67584100833E+01 0.46431843112E+01
 0.37852258305E+01 0.32338134291E+01 0.29901151487E+01 0.29909831611E+01 0.32350897522E+01