   1   1   1   0
  0.1093000E+02  0.2491027E-09  0.2491027E-09  0.2491027E-09  0.5000000E-15
  1.000000000000000E-004
  CAR 
 Ni fcc bulk                             
     40.18624090     -1.71385554  301      9.30412265      1.00000000
     -1.714  0.0000E+00  0.0000E+00
     -1.574  0.0000E+00  0.0000E+00
     -1.435  0.0000E+00  0.0000E+00
     -1.295  0.0000E+00  0.0000E+00
     -1.155  0.0000E+00  0.0000E+00
     -1.016  0.0000E+00  0.0000E+00
     -0.876  0.0000E+00  0.0000E+00
     -0.736  0.0000E+00  0.0000E+00
     -0.597  0.0000E+00  0.0000E+00
     -0.457  0.0000E+00  0.0000E+00
     -0.317  0.0000E+00  0.0000E+00
     -0.178  0.0000E+00  0.0000E+00
     -0.038  0.0000E+00  0.0000E+00
      0.102  0.0000E+00  0.0000E+00
      0.241  0.0000E+00  0.0000E+00
      0.381  0.2145E-02  0.6226E-04
      0.521  0.1775E-01  0.1266E-02
      0.660  0.3925E-01  0.5491E-02
      0.800  0.4058E-01  0.1085E-01
      0.940  0.4865E-01  0.1708E-01
      1.079  0.5731E-01  0.2447E-01
      1.219  0.6612E-01  0.3310E-01
      1.359  0.7224E-01  0.4280E-01
      1.498  0.7573E-01  0.5314E-01
      1.638  0.8140E-01  0.6409E-01
      1.778  0.8770E-01  0.7590E-01
      1.917  0.9421E-01  0.8860E-01
      2.057  0.1009E+00  0.1022E+00
      2.197  0.1079E+00  0.1168E+00
      2.336  0.1137E+00  0.1323E+00
      2.476  0.1204E+00  0.1486E+00
      2.616  0.1274E+00  0.1659E+00
      2.755  0.1348E+00  0.1843E+00
      2.895  0.1429E+00  0.2036E+00
      3.035  0.1518E+00  0.2242E+00
      3.174  0.1612E+00  0.2461E+00
      3.314  0.1711E+00  0.2693E+00
      3.454  0.1820E+00  0.2939E+00
      3.593  0.1963E+00  0.3203E+00
      3.733  0.2144E+00  0.3489E+00
      3.873  0.2359E+00  0.3803E+00
      4.012  0.2610E+00  0.4150E+00
      4.152  0.2925E+00  0.4535E+00
      4.292  0.3312E+00  0.4970E+00
      4.431  0.3768E+00  0.5463E+00
      4.571  0.5150E+00  0.6065E+00
      4.711  0.5989E+00  0.6862E+00
      4.850  0.8574E+00  0.7888E+00
      4.990  0.9780E+00  0.9152E+00
      5.130  0.1153E+01  0.1060E+01
      5.269  0.1290E+01  0.1225E+01
      5.409  0.1446E+01  0.1415E+01
      5.549  0.1612E+01  0.1632E+01
      5.688  0.1522E+01  0.1857E+01
      5.828  0.1504E+01  0.2060E+01
      5.968  0.2003E+01  0.2300E+01
      6.107  0.1871E+01  0.2528E+01
      6.247  0.1544E+01  0.2738E+01
      6.387  0.1916E+01  0.2981E+01
      6.526  0.2292E+01  0.3307E+01
      6.666  0.1902E+01  0.3567E+01
      6.806  0.2236E+01  0.3850E+01
      6.945  0.2267E+01  0.4178E+01
      7.085  0.3096E+01  0.4602E+01
      7.225  0.2458E+01  0.4969E+01
      7.364  0.3289E+01  0.5352E+01
      7.504  0.2148E+01  0.5684E+01
      7.644  0.2293E+01  0.6005E+01
      7.783  0.3674E+01  0.6348E+01
      7.923  0.3138E+01  0.6753E+01
      8.063  0.2526E+01  0.7152E+01
      8.203  0.2103E+01  0.7474E+01
      8.342  0.2369E+01  0.7778E+01
      8.482  0.3026E+01  0.8156E+01
      8.622  0.3980E+01  0.8621E+01
      8.761  0.3122E+01  0.9154E+01
      8.901  0.1538E+01  0.9418E+01
      9.041  0.1286E+01  0.9610E+01
      9.180  0.1492E+01  0.9803E+01
      9.320  0.1730E+01  0.1003E+02
      9.460  0.2357E+01  0.1035E+02
      9.599  0.1485E+01  0.1056E+02
      9.739  0.3934E+00  0.1062E+02
      9.879  0.3865E+00  0.1068E+02
     10.018  0.3773E+00  0.1073E+02
     10.158  0.3625E+00  0.1078E+02
     10.298  0.3298E+00  0.1083E+02
     10.437  0.3173E+00  0.1088E+02
     10.577  0.3134E+00  0.1092E+02
     10.717  0.3128E+00  0.1096E+02
     10.856  0.3122E+00  0.1101E+02
     10.996  0.3119E+00  0.1105E+02
     11.136  0.3042E+00  0.1109E+02
     11.275  0.2998E+00  0.1114E+02
     11.415  0.2961E+00  0.1118E+02
     11.555  0.2856E+00  0.1122E+02
     11.694  0.2774E+00  0.1126E+02
     11.834  0.2721E+00  0.1130E+02
     11.974  0.2675E+00  0.1133E+02
     12.113  0.2633E+00  0.1137E+02
     12.253  0.2594E+00  0.1141E+02
     12.393  0.2641E+00  0.1145E+02
     12.532  0.2600E+00  0.1148E+02
     12.672  0.2473E+00  0.1152E+02
     12.812  0.2447E+00  0.1155E+02
     12.951  0.2411E+00  0.1159E+02
     13.091  0.2331E+00  0.1162E+02
     13.231  0.2272E+00  0.1165E+02
     13.370  0.2171E+00  0.1168E+02
     13.510  0.2102E+00  0.1171E+02
     13.650  0.2018E+00  0.1174E+02
     13.789  0.1918E+00  0.1177E+02
     13.929  0.1800E+00  0.1179E+02
     14.069  0.1676E+00  0.1182E+02
     14.208  0.1665E+00  0.1184E+02
     14.348  0.1530E+00  0.1186E+02
     14.488  0.1368E+00  0.1188E+02
     14.627  0.1311E+00  0.1190E+02
     14.767  0.1216E+00  0.1192E+02
     14.907  0.1074E+00  0.1194E+02
     15.046  0.8559E-01  0.1195E+02
     15.186  0.9041E-01  0.1196E+02
     15.326  0.1038E+00  0.1197E+02
     15.465  0.1188E+00  0.1199E+02
     15.605  0.1776E+00  0.1201E+02
     15.745  0.2403E+00  0.1204E+02
     15.884  0.2247E+00  0.1207E+02
     16.024  0.2686E+00  0.1211E+02
     16.164  0.2436E+00  0.1214E+02
     16.303  0.2799E+00  0.1218E+02
     16.443  0.3306E+00  0.1222E+02
     16.583  0.3520E+00  0.1227E+02
     16.722  0.3794E+00  0.1232E+02
     16.862  0.3632E+00  0.1237E+02
     17.002  0.3601E+00  0.1242E+02
     17.141  0.3342E+00  0.1247E+02
     17.281  0.2964E+00  0.1252E+02
     17.421  0.2639E+00  0.1255E+02
     17.560  0.2458E+00  0.1259E+02
     17.700  0.2356E+00  0.1262E+02
     17.840  0.2300E+00  0.1266E+02
     17.979  0.2265E+00  0.1269E+02
     18.119  0.2236E+00  0.1272E+02
     18.259  0.2213E+00  0.1275E+02
     18.398  0.2195E+00  0.1278E+02
     18.538  0.2182E+00  0.1281E+02
     18.678  0.2410E+00  0.1284E+02
     18.817  0.2735E+00  0.1288E+02
     18.957  0.3098E+00  0.1292E+02
     19.097  0.3015E+00  0.1296E+02
     19.236  0.2871E+00  0.1300E+02
     19.376  0.2656E+00  0.1304E+02
     19.516  0.2647E+00  0.1308E+02
     19.655  0.3352E+00  0.1312E+02
     19.795  0.3870E+00  0.1317E+02
     19.935  0.3630E+00  0.1323E+02
     20.074  0.3457E+00  0.1327E+02
     20.214  0.3526E+00  0.1332E+02
     20.354  0.3552E+00  0.1337E+02
     20.493  0.3377E+00  0.1342E+02
     20.633  0.3271E+00  0.1347E+02
     20.773  0.3302E+00  0.1351E+02
     20.912  0.3340E+00  0.1356E+02
     21.052  0.3397E+00  0.1361E+02
     21.192  0.3468E+00  0.1365E+02
     21.331  0.3697E+00  0.1370E+02
     21.471  0.3916E+00  0.1376E+02
     21.611  0.3995E+00  0.1381E+02
     21.750  0.3683E+00  0.1387E+02
     21.890  0.3509E+00  0.1392E+02
     22.030  0.3545E+00  0.1397E+02
     22.169  0.3599E+00  0.1402E+02
     22.309  0.4023E+00  0.1407E+02
     22.449  0.3802E+00  0.1412E+02
     22.588  0.3924E+00  0.1418E+02
     22.728  0.4064E+00  0.1423E+02
     22.868  0.4162E+00  0.1429E+02
     23.007  0.4107E+00  0.1435E+02
     23.147  0.4152E+00  0.1441E+02
     23.287  0.4132E+00  0.1446E+02
     23.426  0.4038E+00  0.1452E+02
     23.566  0.4103E+00  0.1458E+02
     23.706  0.4181E+00  0.1463E+02
     23.845  0.4276E+00  0.1469E+02
     23.985  0.4392E+00  0.1475E+02
     24.125  0.4492E+00  0.1482E+02
     24.264  0.4553E+00  0.1488E+02
     24.404  0.4611E+00  0.1495E+02
     24.544  0.4397E+00  0.1501E+02
     24.683  0.4405E+00  0.1507E+02
     24.823  0.4434E+00  0.1513E+02
     24.963  0.4460E+00  0.1519E+02
     25.102  0.4470E+00  0.1526E+02
     25.242  0.4307E+00  0.1532E+02
     25.382  0.4180E+00  0.1538E+02
     25.521  0.4103E+00  0.1543E+02
     25.661  0.4067E+00  0.1549E+02
     25.801  0.4045E+00  0.1555E+02
     25.940  0.4036E+00  0.1560E+02
     26.080  0.4029E+00  0.1566E+02
     26.220  0.3996E+00  0.1572E+02
     26.359  0.3966E+00  0.1577E+02
     26.499  0.3921E+00  0.1583E+02
     26.639  0.3847E+00  0.1588E+02
     26.778  0.3786E+00  0.1593E+02
     26.918  0.3761E+00  0.1599E+02
     27.058  0.3715E+00  0.1604E+02
     27.197  0.3664E+00  0.1609E+02
     27.337  0.3592E+00  0.1614E+02
     27.477  0.3532E+00  0.1619E+02
     27.616  0.3478E+00  0.1624E+02
     27.756  0.3428E+00  0.1629E+02
     27.896  0.3382E+00  0.1634E+02
     28.035  0.3339E+00  0.1638E+02
     28.175  0.3298E+00  0.1643E+02
     28.315  0.3259E+00  0.1648E+02
     28.454  0.3224E+00  0.1652E+02
     28.594  0.3190E+00  0.1657E+02
     28.734  0.3160E+00  0.1661E+02
     28.873  0.3131E+00  0.1665E+02
     29.013  0.3114E+00  0.1670E+02
     29.153  0.3096E+00  0.1674E+02
     29.292  0.3122E+00  0.1678E+02
     29.432  0.3189E+00  0.1683E+02
     29.572  0.3275E+00  0.1687E+02
     29.711  0.3356E+00  0.1692E+02
     29.851  0.3419E+00  0.1697E+02
     29.991  0.3465E+00  0.1701E+02
     30.130  0.3522E+00  0.1706E+02
     30.270  0.3590E+00  0.1711E+02
     30.410  0.3652E+00  0.1716E+02
     30.549  0.3706E+00  0.1722E+02
     30.689  0.3764E+00  0.1727E+02
     30.829  0.3860E+00  0.1732E+02
     30.968  0.3962E+00  0.1738E+02
     31.108  0.4047E+00  0.1743E+02
     31.248  0.4126E+00  0.1749E+02
     31.387  0.4223E+00  0.1755E+02
     31.527  0.4342E+00  0.1761E+02
     31.667  0.4475E+00  0.1767E+02
     31.806  0.4601E+00  0.1773E+02
     31.946  0.4733E+00  0.1780E+02
     32.086  0.4869E+00  0.1786E+02
     32.225  0.5003E+00  0.1793E+02
     32.365  0.5137E+00  0.1800E+02
     32.505  0.5260E+00  0.1808E+02
     32.644  0.5651E+00  0.1815E+02
     32.784  0.5796E+00  0.1823E+02
     32.924  0.5768E+00  0.1831E+02
     33.063  0.5728E+00  0.1839E+02
     33.203  0.5688E+00  0.1847E+02
     33.343  0.5635E+00  0.1855E+02
     33.482  0.5568E+00  0.1863E+02
     33.622  0.5485E+00  0.1871E+02
     33.762  0.5387E+00  0.1878E+02
     33.901  0.5311E+00  0.1886E+02
     34.041  0.5517E+00  0.1893E+02
     34.181  0.5794E+00  0.1901E+02
     34.320  0.5074E+00  0.1909E+02
     34.460  0.4580E+00  0.1916E+02
     34.600  0.4402E+00  0.1922E+02
     34.739  0.4238E+00  0.1928E+02
     34.879  0.4082E+00  0.1934E+02
     35.019  0.3940E+00  0.1939E+02
     35.158  0.3811E+00  0.1945E+02
     35.298  0.3702E+00  0.1950E+02
     35.438  0.3561E+00  0.1955E+02
     35.577  0.3371E+00  0.1960E+02
     35.717  0.3114E+00  0.1964E+02
     35.857  0.2964E+00  0.1969E+02
     35.996  0.2890E+00  0.1973E+02
     36.136  0.2787E+00  0.1977E+02
     36.276  0.2535E+00  0.1980E+02
     36.415  0.2223E+00  0.1984E+02
     36.555  0.1936E+00  0.1987E+02
     36.695  0.1688E+00  0.1989E+02
     36.834  0.1483E+00  0.1991E+02
     36.974  0.1312E+00  0.1993E+02
     37.114  0.1164E+00  0.1995E+02
     37.253  0.1145E+00  0.1997E+02
     37.393  0.8978E-01  0.1998E+02
     37.533  0.3930E-01  0.1999E+02
     37.672  0.2169E-01  0.1999E+02
     37.812  0.1568E-01  0.2000E+02
     37.952  0.1048E-01  0.2000E+02
     38.091  0.5337E-02  0.2000E+02
     38.231  0.0000E+00  0.2000E+02
     38.371  0.0000E+00  0.2000E+02
     38.510  0.0000E+00  0.2000E+02
     38.650  0.0000E+00  0.2000E+02
     38.790  0.0000E+00  0.2000E+02
     38.929  0.0000E+00  0.2000E+02
     39.069  0.0000E+00  0.2000E+02
     39.209  0.0000E+00  0.2000E+02
     39.348  0.0000E+00  0.2000E+02
     39.488  0.0000E+00  0.2000E+02
     39.628  0.0000E+00  0.2000E+02
     39.767  0.0000E+00  0.2000E+02
     39.907  0.0000E+00  0.2000E+02
     40.047  0.0000E+00  0.2000E+02
     40.186  0.0000E+00  0.2000E+02
     40.18624090     -1.71385554  301      9.30412265      1.00000000
     -1.714  0.0000E+00  0.0000E+00  0.0000E+00  0.0000E+00  0.0000E+00  0.0000E+00  0.0000E+00  0.0000E+00  0.0000E+00  0.0000E+00  0.0000E+00  0.0000E+00  0.0000E+00  0.0000E+00  0.0000E+00  0.0000E+00  0.0000E+00  0.0000E+00  0.0000E+00  0.0000E+00  0.0000E+00  0.0000E+00  0.0000E+00  0.0000E+00  0.0000E+00  0.0000E+00  0.0000E+00  0.0000E+00  0.0000E+00  0.0000E+00  0.0000E+00  0.0000E+00  0.0000E+00  0.0000E+00  0.0000E+00  0.0000E+00
     -1.574  0.0000E+00  0.0000E+00  0.0000E+00  0.0000E+00  0.0000E+00  0.0000E+00  0.0000E+00  0.0000E+00  0.0000E+00  0.0000E+00  0.0000E+00  0.0000E+00  0.0000E+00  0.0000E+00  0.0000E+00  0.0000E+00  0.0000E+00  0.0000E+00  0.0000E+00  0.0000E+00  0.0000E+00  0.0000E+00  0.0000E+00  0.0000E+00  0.0000E+00  0.0000E+00  0.0000E+00  0.0000E+00  0.0000E+00  0.0000E+00  0.0000E+00  0.0000E+00  0.0000E+00  0.0000E+00  0.0000E+00  0.0000E+00
     -1.435  0.0000E+00  0.0000E+00  0.0000E+00  0.0000E+00  0.0000E+00  0.0000E+00  0.0000E+00  0.0000E+00  0.0000E+00  0.0000E+00  0.0000E+00  0.0000E+00  0.0000E+00  0.0000E+00  0.0000E+00  0.0000E+00  0.0000E+00  0.0000E+00  0.0000E+00  0.0000E+00  0.0000E+00  0.0000E+00  0.0000E+00  0.0000E+00  0.0000E+00  0.0000E+00  0.0000E+00  0.0000E+00  0.0000E+00  0.0000E+00  0.0000E+00  0.0000E+00  0.0000E+00  0.0000E+00  0.0000E+00  0.0000E+00
     -1.295  0.0000E+00  0.0000E+00  0.0000E+00  0.0000E+00  0.0000E+00  0.0000E+00  0.0000E+00  0.0000E+00  0.0000E+00  0.0000E+00  0.0000E+00  0.0000E+00  0.0000E+00  0.0000E+00  0.0000E+00  0.0000E+00  0.0000E+00  0.0000E+00  0.0000E+00  0.0000E+00  0.0000E+00  0.0000E+00  0.0000E+00  0.0000E+00  0.0000E+00  0.0000E+00  0.0000E+00  0.0000E+00  0.0000E+00  0.0000E+00  0.0000E+00  0.0000E+00  0.0000E+00  0.0000E+00  0.0000E+00  0.0000E+00
     -1.155  0.0000E+00  0.0000E+00  0.0000E+00  0.0000E+00  0.0000E+00  0.0000E+00  0.0000E+00  0.0000E+00  0.0000E+00  0.0000E+00  0.0000E+00  0.0000E+00  0.0000E+00  0.0000E+00  0.0000E+00  0.0000E+00  0.0000E+00  0.0000E+00  0.0000E+00  0.0000E+00  0.0000E+00  0.0000E+00  0.0000E+00  0.0000E+00  0.0000E+00  0.0000E+00  0.0000E+00  0.0000E+00  0.0000E+00  0.0000E+00  0.0000E+00  0.0000E+00  0.0000E+00  0.0000E+00  0.0000E+00  0.0000E+00
     -1.016  0.0000E+00  0.0000E+00  0.0000E+00  0.0000E+00  0.0000E+00  0.0000E+00  0.0000E+00  0.0000E+00  0.0000E+00  0.0000E+00  0.0000E+00  0.0000E+00  0.0000E+00  0.0000E+00  0.0000E+00  0.0000E+00  0.0000E+00  0.0000E+00  0.0000E+00  0.0000E+00  0.0000E+00  0.0000E+00  0.0000E+00  0.0000E+00  0.0000E+00  0.0000E+00  0.0000E+00  0.0000E+00  0.0000E+00  0.0000E+00  0.0000E+00  0.0000E+00  0.0000E+00  0.0000E+00  0.0000E+00  0.0000E+00
     -0.876  0.0000E+00  0.0000E+00  0.0000E+00  0.0000E+00  0.0000E+00  0.0000E+00  0.0000E+00  0.0000E+00  0.0000E+00  0.0000E+00  0.0000E+00  0.0000E+00  0.0000E+00  0.0000E+00  0.0000E+00  0.0000E+00  0.0000E+00  0.0000E+00  0.0000E+00  0.0000E+00  0.0000E+00  0.0000E+00  0.0000E+00  0.0000E+00  0.0000E+00  0.0000E+00  0.0000E+00  0.0000E+00  0.0000E+00  0.0000E+00  0.0000E+00  0.0000E+00  0.0000E+00  0.0000E+00  0.0000E+00  0.0000E+00
     -0.736  0.0000E+00  0.0000E+00  0.0000E+00  0.0000E+00  0.0000E+00  0.0000E+00  0.0000E+00  0.0000E+00  0.0000E+00  0.0000E+00  0.0000E+00  0.0000E+00  0.0000E+00  0.0000E+00  0.0000E+00  0.0000E+00  0.0000E+00  0.0000E+00  0.0000E+00  0.0000E+00  0.0000E+00  0.0000E+00  0.0000E+00  0.0000E+00  0.0000E+00  0.0000E+00  0.0000E+00  0.0000E+00  0.0000E+00  0.0000E+00  0.0000E+00  0.0000E+00  0.0000E+00  0.0000E+00  0.0000E+00  0.0000E+00
     -0.597  0.0000E+00  0.0000E+00  0.0000E+00  0.0000E+00  0.0000E+00  0.0000E+00  0.0000E+00  0.0000E+00  0.0000E+00  0.0000E+00  0.0000E+00  0.0000E+00  0.0000E+00  0.0000E+00  0.0000E+00  0.0000E+00  0.0000E+00  0.0000E+00  0.0000E+00  0.0000E+00  0.0000E+00  0.0000E+00  0.0000E+00  0.0000E+00  0.0000E+00  0.0000E+00  0.0000E+00  0.0000E+00  0.0000E+00  0.0000E+00  0.0000E+00  0.0000E+00  0.0000E+00  0.0000E+00  0.0000E+00  0.0000E+00
     -0.457  0.0000E+00  0.0000E+00  0.0000E+00  0.0000E+00  0.0000E+00  0.0000E+00  0.0000E+00  0.0000E+00  0.0000E+00  0.0000E+00  0.0000E+00  0.0000E+00  0.0000E+00  0.0000E+00  0.0000E+00  0.0000E+00  0.0000E+00  0.0000E+00  0.0000E+00  0.0000E+00  0.0000E+00  0.0000E+00  0.0000E+00  0.0000E+00  0.0000E+00  0.0000E+00  0.0000E+00  0.0000E+00  0.0000E+00  0.0000E+00  0.0000E+00  0.0000E+00  0.0000E+00  0.0000E+00  0.0000E+00  0.0000E+00
     -0.317  0.0000E+00  0.0000E+00  0.0000E+00  0.0000E+00  0.0000E+00  0.0000E+00  0.0000E+00  0.0000E+00  0.0000E+00  0.0000E+00  0.0000E+00  0.0000E+00  0.0000E+00  0.0000E+00  0.0000E+00  0.0000E+00  0.0000E+00  0.0000E+00  0.0000E+00  0.0000E+00  0.0000E+00  0.0000E+00  0.0000E+00  0.0000E+00  0.0000E+00  0.0000E+00  0.0000E+00  0.0000E+00  0.0000E+00  0.0000E+00  0.0000E+00  0.0000E+00  0.0000E+00  0.0000E+00  0.0000E+00  0.0000E+00
     -0.178  0.0000E+00  0.0000E+00  0.0000E+00  0.0000E+00  0.0000E+00  0.0000E+00  0.0000E+00  0.0000E+00  0.0000E+00  0.0000E+00  0.0000E+00  0.0000E+00  0.0000E+00  0.0000E+00  0.0000E+00  0.0000E+00  0.0000E+00  0.0000E+00  0.0000E+00  0.0000E+00  0.0000E+00  0.0000E+00  0.0000E+00  0.0000E+00  0.0000E+00  0.0000E+00  0.0000E+00  0.0000E+00  0.0000E+00  0.0000E+00  0.0000E+00  0.0000E+00  0.0000E+00  0.0000E+00  0.0000E+00  0.0000E+00
     -0.038  0.0000E+00  0.0000E+00  0.0000E+00  0.0000E+00  0.0000E+00  0.0000E+00  0.0000E+00  0.0000E+00  0.0000E+00  0.0000E+00  0.0000E+00  0.0000E+00  0.0000E+00  0.0000E+00  0.0000E+00  0.0000E+00  0.0000E+00  0.0000E+00  0.0000E+00  0.0000E+00  0.0000E+00  0.0000E+00  0.0000E+00  0.0000E+00  0.0000E+00  0.0000E+00  0.0000E+00  0.0000E+00  0.0000E+00  0.0000E+00  0.0000E+00  0.0000E+00  0.0000E+00  0.0000E+00  0.0000E+00  0.0000E+00
      0.102  0.0000E+00  0.0000E+00  0.0000E+00  0.0000E+00  0.0000E+00  0.0000E+00  0.0000E+00  0.0000E+00  0.0000E+00  0.0000E+00  0.0000E+00  0.0000E+00  0.0000E+00  0.0000E+00  0.0000E+00  0.0000E+00  0.0000E+00  0.0000E+00  0.0000E+00  0.0000E+00  0.0000E+00  0.0000E+00  0.0000E+00  0.0000E+00  0.0000E+00  0.0000E+00  0.0000E+00  0.0000E+00  0.0000E+00  0.0000E+00  0.0000E+00  0.0000E+00  0.0000E+00  0.0000E+00  0.0000E+00  0.0000E+00
      0.241  0.0000E+00  0.0000E+00  0.0000E+00  0.0000E+00  0.0000E+00  0.0000E+00  0.0000E+00  0.0000E+00  0.0000E+00  0.0000E+00  0.0000E+00  0.0000E+00  0.0000E+00  0.0000E+00  0.0000E+00  0.0000E+00  0.0000E+00  0.0000E+00  0.0000E+00  0.0000E+00  0.0000E+00  0.0000E+00  0.0000E+00  0.0000E+00  0.0000E+00  0.0000E+00  0.0000E+00  0.0000E+00  0.0000E+00  0.0000E+00  0.0000E+00  0.0000E+00  0.0000E+00  0.0000E+00  0.0000E+00  0.0000E+00
      0.381  0.1518E-02  0.3388E-20 -0.3388E-20 -0.1093E-02  0.1289E-04 -0.7114E-22 -0.1985E-22 -0.9295E-05  0.1289E-04 -0.2316E-22  0.2647E-22 -0.9294E-05  0.1289E-04  0.1985E-22  0.7941E-22 -0.9295E-05  0.1975E-06 -0.2999E-23  0.2895E-23 -0.1336E-06  0.2001E-06 -0.3722E-23 -0.2895E-23 -0.1371E-06  0.2141E-06  0.5170E-25 -0.2068E-24 -0.1490E-06  0.2001E-06  0.2895E-23  0.3826E-23 -0.1371E-06  0.2140E-06 -0.1292E-24 -0.2068E-24 -0.1490E-06
      0.521  0.1256E-01  0.1694E-20  0.0000E+00 -0.3372E-02  0.1066E-03  0.1059E-21 -0.5294E-21 -0.2880E-04  0.1066E-03  0.4235E-21 -0.4500E-21 -0.2879E-04  0.1066E-03  0.5294E-21 -0.1059E-21 -0.2880E-04  0.1701E-05  0.2068E-23 -0.1241E-23 -0.3186E-06  0.1707E-05  0.3309E-23  0.0000E+00 -0.3535E-06  0.1811E-05 -0.1241E-23  0.1654E-23 -0.4045E-06  0.1707E-05 -0.3309E-23 -0.1654E-23 -0.3535E-06  0.1811E-05 -0.8272E-24  0.8272E-24 -0.4037E-06
      0.660  0.2755E-01 -0.7200E-20  0.6776E-20  0.1719E-02  0.3031E-03  0.1641E-20  0.7412E-21 -0.5520E-04  0.3031E-03 -0.1323E-21  0.1588E-21 -0.5518E-04  0.3031E-03 -0.7809E-21 -0.1641E-20 -0.5520E-04  0.7522E-05 -0.4632E-22  0.4963E-22 -0.3114E-05  0.7506E-05 -0.6617E-22  0.4632E-22 -0.3200E-05  0.5849E-05  0.1323E-22 -0.1158E-22 -0.1365E-05  0.7506E-05 -0.3970E-22  0.5956E-22 -0.3200E-05  0.5848E-05  0.1075E-22 -0.9926E-23 -0.1363E-05
      0.800  0.2777E-01 -0.5506E-20  0.6776E-20 -0.9516E-03  0.5335E-03  0.1402E-20  0.2647E-21 -0.4338E-04  0.5335E-03 -0.2647E-22  0.0000E+00 -0.4335E-04  0.5335E-03 -0.2382E-21 -0.1482E-20 -0.4338E-04  0.2273E-04  0.2233E-22 -0.1985E-22 -0.8722E-06  0.2272E-04  0.1323E-22 -0.2647E-22 -0.9545E-06  0.1762E-04 -0.9099E-23  0.9926E-23 -0.1838E-05  0.2272E-04  0.2647E-22 -0.1323E-22 -0.9545E-06  0.1761E-04 -0.9513E-23  0.3309E-23 -0.1829E-05
      0.940  0.3290E-01  0.8470E-20 -0.7623E-20 -0.9993E-03  0.7581E-03  0.9312E-21  0.1853E-21 -0.4715E-04  0.7581E-03 -0.4235E-21  0.3706E-21 -0.4711E-04  0.7581E-03 -0.1853E-21 -0.1059E-20 -0.4715E-04  0.3821E-04  0.2068E-23  0.0000E+00 -0.1921E-07  0.3820E-04  0.2647E-22  0.2647E-22 -0.1277E-06  0.3229E-04 -0.1654E-22  0.1323E-22 -0.1247E-05  0.3820E-04  0.0000E+00 -0.3309E-22 -0.1277E-06  0.3229E-04  0.5790E-23  0.0000E+00 -0.1230E-05
      1.079  0.3839E-01  0.6776E-20 -0.6776E-20 -0.1044E-02  0.1003E-02  0.3358E-20  0.3018E-20 -0.5086E-04  0.1003E-02 -0.3441E-21  0.3176E-21 -0.5080E-04  0.1003E-02 -0.3070E-20 -0.3282E-20 -0.5086E-04  0.5665E-04  0.1737E-22 -0.1323E-22  0.1147E-05  0.5663E-04 -0.5294E-22 -0.2647E-22  0.9922E-06  0.4846E-04  0.9719E-23 -0.9926E-23 -0.5297E-06  0.5663E-04  0.2647E-22  0.3970E-22  0.9922E-06  0.4847E-04  0.0000E+00  0.6617E-23 -0.5028E-06
      1.219  0.4388E-01  0.5717E-20 -0.5082E-20 -0.8102E-03  0.1276E-02 -0.3322E-20 -0.2118E-20 -0.6065E-04  0.1276E-02 -0.7676E-21  0.8470E-21 -0.6057E-04  0.1276E-02  0.2223E-20  0.3388E-20 -0.6065E-04  0.8091E-04 -0.9926E-23  0.1985E-22  0.6752E-06  0.8087E-04 -0.5294E-22  0.0000E+00  0.4647E-06  0.6825E-04  0.2151E-22 -0.3309E-22 -0.1176E-05  0.8087E-04  0.0000E+00  0.1323E-22  0.4647E-06  0.6825E-04  0.1489E-22  0.0000E+00 -0.1139E-05
      1.359  0.4709E-01 -0.1271E-20  0.1694E-20 -0.2162E-03  0.1630E-02 -0.4500E-21  0.4235E-21 -0.7733E-04  0.1630E-02  0.1323E-21 -0.1059E-21 -0.7724E-04  0.1630E-02 -0.5294E-21  0.5294E-21 -0.7733E-04  0.1302E-03  0.1323E-22  0.1323E-22  0.2531E-06  0.1301E-03  0.1323E-21  0.0000E+00  0.4776E-07  0.1053E-03 -0.2978E-22  0.3970E-22 -0.2603E-05  0.1301E-03 -0.5294E-22 -0.1059E-21  0.4776E-07  0.1054E-03 -0.1075E-22 -0.1323E-22 -0.2553E-05
      1.498  0.4807E-01  0.6353E-21 -0.8470E-21 -0.1379E-03  0.2059E-02 -0.1323E-21  0.4235E-21 -0.7644E-04  0.2059E-02 -0.1271E-20  0.1376E-20 -0.7634E-04  0.2059E-02 -0.2118E-21  0.1059E-21 -0.7644E-04  0.2065E-03 -0.6617E-22  0.6617E-22  0.6126E-05  0.2065E-03  0.0000E+00  0.7941E-22  0.5996E-05  0.1596E-03  0.0000E+00  0.0000E+00  0.2799E-06  0.2065E-03 -0.1059E-21 -0.2647E-22  0.5996E-05  0.1597E-03  0.1065E-22  0.0000E+00  0.3469E-06
      1.638  0.5076E-01  0.2118E-20 -0.1694E-20 -0.3312E-03  0.2441E-02  0.5724E-21 -0.5294E-21 -0.6793E-04  0.2441E-02 -0.1006E-20  0.1271E-20 -0.6782E-04  0.2441E-02  0.5823E-21 -0.5294E-21 -0.6793E-04  0.2851E-03 -0.1654E-22  0.2647E-22  0.1551E-04  0.2851E-03 -0.3706E-21  0.0000E+00  0.1541E-04  0.2215E-03 -0.2647E-22  0.2647E-22  0.2332E-05  0.2851E-03  0.5294E-22  0.3805E-21  0.1541E-04  0.2215E-03  0.1654E-23  0.0000E+00  0.2433E-05
      1.778  0.5386E-01 -0.3706E-20  0.3388E-20 -0.2849E-03  0.2822E-02 -0.3375E-21  0.4235E-21 -0.6770E-04  0.2822E-02 -0.3706E-21  0.5294E-21 -0.6760E-04  0.2822E-02 -0.3970E-21  0.4235E-21 -0.6770E-04  0.3713E-03  0.3619E-22 -0.2647E-22  0.2506E-04  0.3712E-03 -0.7676E-21  0.3441E-21  0.2497E-04  0.2968E-03 -0.7279E-22  0.7941E-22  0.6527E-05  0.3712E-03 -0.3441E-21  0.7742E-21  0.2497E-04  0.2968E-03 -0.4963E-22  0.2647E-22  0.6677E-05
      1.917  0.5704E-01 -0.1059E-21 -0.4235E-21 -0.2339E-03  0.3216E-02 -0.8669E-21 -0.5823E-21 -0.6723E-04  0.3216E-02 -0.3176E-21  0.5294E-21 -0.6713E-04  0.3216E-02  0.5823E-21  0.9529E-21 -0.6723E-04  0.4669E-03  0.3425E-21 -0.3507E-21  0.3624E-04  0.4668E-03  0.8206E-21  0.1218E-20  0.3613E-04  0.3847E-03 -0.9264E-22  0.7941E-22  0.1215E-04  0.4668E-03 -0.1218E-20 -0.8470E-21  0.3613E-04  0.3848E-03  0.2482E-22 -0.2647E-22  0.1236E-04
      2.057  0.6030E-01  0.6882E-21 -0.4235E-21 -0.1685E-03  0.3622E-02  0.1443E-20  0.1694E-20 -0.6516E-04  0.3622E-02 -0.7941E-21  0.9529E-21 -0.6505E-04  0.3622E-02 -0.1747E-20 -0.1588E-20 -0.6516E-04  0.5721E-03  0.3689E-21 -0.3706E-21  0.4900E-04  0.5720E-03  0.5294E-22 -0.5294E-22  0.4884E-04  0.4838E-03 -0.2647E-21  0.3176E-21  0.2169E-04  0.5720E-03  0.0000E+00 -0.5294E-22  0.4884E-04  0.4839E-03 -0.7610E-22  0.7941E-22  0.2196E-04
      2.197  0.6364E-01 -0.1323E-21  0.8470E-21 -0.9898E-04  0.4041E-02 -0.7544E-21  0.8470E-21 -0.6266E-04  0.4041E-02  0.1376E-20 -0.1588E-20 -0.6253E-04  0.4041E-02 -0.7676E-21  0.8470E-21 -0.6266E-04  0.6870E-03 -0.5799E-21  0.5790E-21  0.6334E-04  0.6868E-03  0.5294E-21 -0.6353E-21  0.6312E-04  0.5897E-03 -0.4971E-21  0.5029E-21  0.3292E-04  0.6868E-03  0.5823E-21 -0.5823E-21  0.6312E-04  0.5899E-03  0.6438E-21 -0.5823E-21  0.3325E-04
      2.336  0.6525E-01  0.0000E+00 -0.6776E-20  0.9646E-03  0.4633E-02 -0.8470E-21  0.0000E+00  0.1402E-04  0.4633E-02  0.0000E+00  0.0000E+00  0.8482E-05  0.4633E-02  0.1721E-21  0.8470E-21  0.1402E-04  0.9387E-03 -0.1800E-20  0.1694E-20  0.1240E-03  0.9382E-03 -0.1271E-20 -0.2541E-20  0.1204E-03  0.7573E-03  0.8470E-21 -0.1271E-20  0.5971E-04  0.9382E-03  0.2621E-20  0.8470E-21  0.1204E-03  0.7575E-03  0.6353E-21 -0.8470E-21  0.6031E-04
      2.476  0.6728E-01  0.6776E-20  0.0000E+00  0.1096E-02  0.5218E-02  0.1694E-20 -0.8470E-21  0.2871E-04  0.5218E-02  0.0000E+00 -0.8470E-21  0.2410E-04  0.5218E-02  0.9926E-21 -0.8470E-21  0.2871E-04  0.1238E-02  0.1588E-20 -0.1694E-20  0.1759E-03  0.1237E-02  0.6353E-21 -0.4235E-20  0.1728E-03  0.9829E-03 -0.2118E-21 -0.4235E-21  0.8686E-04  0.1237E-02  0.4268E-20 -0.8470E-21  0.1728E-03  0.9833E-03 -0.6882E-21  0.8470E-21  0.8759E-04
      2.616  0.6928E-01 -0.1186E-19  0.1355E-19  0.1097E-02  0.5825E-02 -0.2118E-21  0.0000E+00  0.2348E-04  0.5825E-02 -0.4235E-21 -0.8470E-21  0.2008E-04  0.5825E-02 -0.7941E-22  0.8470E-21  0.2348E-04  0.1582E-02 -0.2647E-20  0.2965E-20  0.2264E-03  0.1582E-02 -0.7412E-20 -0.5082E-20  0.2242E-03  0.1245E-02 -0.1694E-20  0.1906E-20  0.1141E-03  0.1582E-02  0.5003E-20  0.7835E-20  0.2242E-03  0.1245E-02 -0.1800E-20  0.1694E-20  0.1150E-03
      2.755  0.7130E-01  0.1525E-19 -0.1016E-19  0.9036E-03  0.6453E-02 -0.5294E-22 -0.8470E-21  0.2410E-05  0.6453E-02  0.4235E-21 -0.4235E-21  0.4285E-06  0.6453E-02  0.2912E-21  0.8470E-21  0.2410E-05  0.1977E-02 -0.5982E-20  0.5929E-20  0.2805E-03  0.1976E-02 -0.9953E-20 -0.8682E-20  0.2792E-03  0.1548E-02 -0.2223E-20  0.2329E-20  0.1461E-03  0.1976E-02  0.8735E-20  0.9953E-20  0.2792E-03  0.1549E-02  0.9264E-22  0.0000E+00  0.1472E-03
      2.895  0.7366E-01 -0.7200E-20  0.5929E-20  0.6325E-03  0.7070E-02 -0.4169E-21  0.0000E+00 -0.2676E-04  0.7070E-02 -0.4235E-21  0.2118E-21 -0.2732E-04  0.7070E-02 -0.1588E-21  0.2118E-21 -0.2676E-04  0.2432E-02 -0.1932E-20  0.1959E-20  0.3474E-03  0.2432E-02  0.2859E-20  0.9900E-20  0.3470E-03  0.1924E-02 -0.1906E-20  0.1906E-20  0.1846E-03  0.2432E-02 -0.9900E-20 -0.2806E-20  0.3470E-03  0.1925E-02 -0.1191E-20  0.1059E-20  0.1859E-03
      3.035  0.7634E-01  0.8682E-20 -0.9317E-20  0.3843E-03  0.7676E-02 -0.5294E-22 -0.2329E-20 -0.6271E-04  0.7676E-02  0.9529E-21 -0.1271E-20 -0.6279E-04  0.7676E-02  0.2223E-20  0.2118E-21 -0.6271E-04  0.2947E-02 -0.3812E-20  0.3812E-20  0.4267E-03  0.2946E-02 -0.2022E-19 -0.1821E-19  0.4267E-03  0.2370E-02  0.4632E-22 -0.5294E-22  0.2242E-03  0.2946E-02  0.1821E-19  0.2016E-19  0.4267E-03  0.2371E-02 -0.2303E-20  0.2329E-20  0.2259E-03
      3.174  0.7914E-01  0.4235E-21  0.8470E-21  0.1901E-03  0.8292E-02 -0.1959E-20 -0.1271E-20 -0.9726E-04  0.8292E-02  0.4235E-21 -0.4235E-21 -0.9744E-04  0.8292E-02  0.1006E-20  0.2118E-20 -0.9726E-04  0.3516E-02  0.5916E-20 -0.5929E-20  0.5187E-03  0.3515E-02  0.2859E-20  0.2223E-20  0.5188E-03  0.2885E-02 -0.5717E-20  0.5665E-20  0.2733E-03  0.3515E-02 -0.2435E-20 -0.2846E-20  0.5188E-03  0.2886E-02 -0.3600E-20  0.3600E-20  0.2756E-03
      3.314  0.8202E-01  0.2118E-20 -0.1694E-20  0.4648E-04  0.8922E-02 -0.1390E-20  0.1271E-20 -0.1278E-03  0.8921E-02 -0.4235E-21  0.4235E-21 -0.1281E-03  0.8922E-02 -0.1218E-20  0.1482E-20 -0.1278E-03  0.4140E-02  0.7438E-20 -0.7306E-20  0.6244E-03  0.4139E-02 -0.1260E-19 -0.2668E-19  0.6245E-03  0.3472E-02 -0.2541E-20  0.2541E-20  0.3333E-03  0.4139E-02  0.2658E-19  0.1257E-19  0.6245E-03  0.3474E-02 -0.2382E-21  0.2118E-21  0.3363E-03
      3.454  0.8494E-01 -0.1694E-20 -0.3388E-20  0.1110E-03  0.9605E-02  0.1059E-21 -0.2541E-20 -0.1351E-03  0.9605E-02  0.4235E-21  0.0000E+00 -0.1361E-03  0.9605E-02  0.2912E-20  0.0000E+00 -0.1351E-03  0.4891E-02 -0.6459E-20  0.6353E-20  0.7741E-03  0.4890E-02  0.6141E-20  0.7517E-20  0.7738E-03  0.4156E-02  0.5552E-20 -0.5823E-20  0.4109E-03  0.4890E-02 -0.7623E-20 -0.6167E-20  0.7738E-03  0.4158E-02 -0.4209E-20  0.4235E-20  0.4147E-03
      3.593  0.8733E-01 -0.3388E-20 -0.1355E-19  0.4150E-03  0.1065E-01  0.8470E-21 -0.1694E-20 -0.1238E-03  0.1065E-01  0.2541E-20 -0.1694E-20 -0.1285E-03  0.1065E-01  0.2118E-21  0.0000E+00 -0.1238E-03  0.6298E-02  0.2414E-19 -0.2456E-19  0.1071E-02  0.6297E-02  0.1991E-19 -0.1991E-19  0.1069E-02  0.5111E-02  0.3388E-20 -0.3812E-20  0.5134E-03  0.6297E-02  0.2012E-19 -0.2033E-19  0.1069E-02  0.5113E-02 -0.8126E-20  0.8894E-20  0.5185E-03
      3.733  0.9044E-01 -0.2033E-19  0.1355E-19  0.1636E-02  0.1172E-01 -0.4235E-21  0.3388E-20 -0.2851E-05  0.1172E-01 -0.1694E-20  0.0000E+00 -0.1276E-04  0.1172E-01  0.1376E-20  0.3388E-20 -0.2851E-05  0.8331E-02 -0.4235E-21  0.1694E-20  0.1690E-02  0.8329E-02 -0.1440E-19 -0.3727E-19  0.1686E-02  0.6386E-02  0.5506E-20 -0.6776E-20  0.7147E-03  0.8329E-02  0.3653E-19  0.1440E-19  0.1686E-02  0.6389E-02 -0.1609E-19  0.1609E-19  0.7217E-03
      3.873  0.9421E-01 -0.1355E-19  0.0000E+00  0.3752E-02  0.1281E-01  0.5082E-20  0.3388E-20  0.2154E-03  0.1281E-01  0.3388E-20  0.0000E+00  0.2023E-03  0.1281E-01 -0.7517E-20 -0.6776E-20  0.2154E-03  0.1084E-01 -0.1652E-19  0.1525E-19  0.2544E-02  0.1083E-01  0.1084E-18  0.9317E-19  0.2539E-02  0.8072E-02  0.2965E-19 -0.2965E-19  0.1048E-02  0.1083E-01 -0.9476E-19 -0.1076E-18  0.2539E-02  0.8076E-02 -0.1456E-19  0.1355E-19  0.1058E-02
      4.012  0.9846E-01  0.0000E+00  0.2711E-19  0.6338E-02  0.1396E-01  0.7623E-20  0.3388E-20  0.4872E-03  0.1396E-01 -0.8470E-20  0.6776E-20  0.4729E-03  0.1396E-01  0.7412E-21 -0.1016E-19  0.4872E-03  0.1384E-01 -0.2668E-19  0.2541E-19  0.3628E-02  0.1384E-01  0.8047E-19  0.7623E-19  0.3624E-02  0.1021E-01  0.2541E-20 -0.1694E-20  0.1534E-02  0.1384E-01 -0.7639E-19 -0.8132E-19  0.3624E-02  0.1021E-01 -0.3018E-20  0.1694E-20  0.1547E-02