    1    1    1    1
  0.1093000E+02  0.2491027E-09  0.2491027E-09  0.2491027E-09  0.5000000E-15
  1.000000000000000E-004
  CAR 
 Ni fcc bulk                             
     10    186     20
 
  0.0000000E+00  0.0000000E+00  0.0000000E+00  0.7513148E-03
      1          0.286144   1.000000
      2          0.342922   1.000000
      3          6.913917   1.000000
      4          6.913992   1.000000
      5          6.914482   1.000000
      6          7.604375   1.000000
      7          7.605674   1.000000
      8          7.605859   1.000000
      9          8.067865   1.000000
     10          8.070309   1.000000
     11          8.648083   1.000000
     12          8.649317   1.000000
     13         32.864630   0.000000
     14         33.035544   0.000000
     15         36.805808   0.000000
     16         36.806560   0.000000
     17         36.806893   0.000000
     18         36.845797   0.000000
     19         36.845990   0.000000
     20         36.847020   0.000000
 
  0.9090909E-01  0.2009694E-17  0.2009694E-17  0.6010518E-02
      1          0.607334   1.000000
      2          0.663648   1.000000
      3          6.835977   1.000000
      4          6.982708   1.000000
      5          6.983172   1.000000
      6          7.516674   1.000000
      7          7.675582   1.000000
      8          7.676668   1.000000
      9          8.041201   1.000000
     10          8.043682   1.000000
     11          8.620033   1.000000
     12          8.621316   1.000000
     13         31.592465   0.000000
     14         31.645825   0.000000
     15         34.322988   0.000000
     16         34.412866   0.000000
     17         36.203994   0.000000
     18         36.204652   0.000000
     19         36.205858   0.000000
     20         36.206169   0.000000
 
  0.1818182E+00 -0.2566139E-17 -0.2566139E-17  0.6010518E-02
      1          1.533405   1.000000
      2          1.584174   1.000000
      3          6.662439   1.000000
      4          7.114363   1.000000
      5          7.114771   1.000000
      6          7.309123   1.000000
      7          7.796302   1.000000
      8          7.797219   1.000000
      9          8.035330   1.000000
     10          8.037805   1.000000
     11          8.627714   1.000000
     12          8.629146   1.000000
     13         27.194997   0.000000
     14         27.252320   0.000000
     15         33.537111   0.000000
     16         33.672567   0.000000
     17         35.273526   0.000000
     18         35.274662   0.000000
     19         35.311384   0.000000
     20         35.312969   0.000000
 
  0.2727273E+00 -0.2211913E-17 -0.2211913E-17  0.6010518E-02
      1          2.907613   1.000000
      2          2.918254   1.000000
      3          6.622739   1.000000
      4          7.124127   1.000000
      5          7.124792   1.000000
      6          7.182924   1.000000
      7          7.762058   1.000000
      8          7.762885   1.000000
      9          8.199835   1.000000
     10          8.201965   1.000000
     11          8.843719   1.000000
     12          8.845192   1.033307
     13         22.617176   0.000000
     14         22.738440   0.000000
     15         32.771461   0.000000
     16         32.912591   0.000000
     17         34.555361   0.000000
     18         34.557033   0.000000
     19         34.615130   0.000000
     20         34.617086   0.000000
 
  0.3636364E+00 -0.2022194E-18 -0.2022194E-18  0.6010518E-02
      1          4.078546   1.000000
      2          4.248167   1.000000
      3          7.022837   1.000000
      4          7.023774   1.000000
      5          7.258463   1.000000
      6          7.564415   1.000000
      7          7.626300   1.000000
      8          7.627131   1.000000
      9          8.492329   1.000000
     10          8.494086   1.018487
     11          9.179828   0.870437
     12          9.181262   0.490577
     13         18.509988   0.000000
     14         18.712636   0.000000
     15         31.937012   0.000000
     16         32.087125   0.000000
     17         34.132850   0.000000
     18         34.135479   0.000000
     19         34.196797   0.000000
     20         34.199248   0.000000
 
  0.4545455E+00 -0.6433520E-17  0.2132206E-16  0.6010518E-02
      1          4.487561   1.000000
      2          4.851961   1.000000
      3          6.941051   1.000000
      4          6.942106   1.000000
      5          7.529298   1.000000
      6          7.530136   1.000000
      7          8.678808   1.000000
      8          8.696491   1.000000
      9          8.699211   1.000000
     10          8.700786   1.276373
     11          9.408823   0.007112
     12          9.410226   0.008903
     13         15.486767   0.000000
     14         15.819390   0.000000
     15         31.431791   0.000000
     16         31.588698   0.000000
     17         33.947303   0.000000
     18         33.951033   0.000000
     19         34.005950   0.000000
     20         34.009030   0.000000
 
  0.9090909E-01  0.9090909E-01 -0.5571336E-18  0.3005259E-02
      1          0.713644   1.000000
      2          0.769871   1.000000
      3          6.765092   1.000000
      4          7.033811   1.000000
      5          7.034152   1.000000
      6          7.444325   1.000000
      7          7.728037   1.000000
      8          7.729420   1.000000
      9          7.933112   1.000000
     10          8.124213   1.000000
     11          8.504439   1.000000
     12          8.704915   1.000000
     13         32.134949   0.000000
     14         32.240251   0.000000
     15         34.281302   0.000000
     16         34.282140   0.000000
     17         34.308861   0.000000
     18         34.309555   0.000000
     19         35.080266   0.000000
     20         35.153049   0.000000
 
  0.3579523E-17  0.9090909E-01  0.9090909E-01  0.1502630E-02
      1          0.713644   1.000000
      2          0.769876   1.000000
      3          6.765165   1.000000
      4          7.033760   1.000000
      5          7.034137   1.000000
      6          7.442962   1.000000
      7          7.729321   1.000000
      8          7.729511   1.000000
      9          7.934932   1.000000
     10          8.122371   1.000000
     11          8.503525   1.000000
     12          8.705837   1.000000
     13         32.134861   0.000000
     14         32.240161   0.000000
     15         34.281186   0.000000
     16         34.281619   0.000000
     17         34.309058   0.000000
     18         34.309836   0.000000
     19         35.079966   0.000000
     20         35.153841   0.000000
 
  0.1818182E+00  0.9090909E-01  0.8474221E-17  0.6010518E-02
      1          1.436660   1.000000
      2          1.489701   1.000000
      3          6.587056   1.000000
      4          7.166854   1.000000
      5          7.176932   1.000000
      6          7.245736   1.000000
      7          7.831643   1.000000
      8          7.854110   1.000000
      9          7.869470   1.000000
     10          8.176812   1.000000
     11          8.404744   1.000000
     12          8.766523   1.000000
     13         28.964921   0.000000
     14         28.999181   0.000000
     15         32.634234   0.000000
     16         32.709534   0.000000
     17         32.787037   0.000000
     18         32.832447   0.000000
     19         36.120743   0.000000
     20         36.183175   0.000000
 
  0.6076878E-17  0.1818182E+00  0.9090909E-01  0.6010518E-02
      1          1.436658   1.000000
      2          1.489716   1.000000
      3          6.587111   1.000000
      4          7.166918   1.000000
      5          7.176834   1.000000
      6          7.244655   1.000000
      7          7.833338   1.000000
      8          7.854485   1.000000
      9          7.870140   1.000000
     10          8.175058   1.000000
     11          8.403925   1.000000
     12          8.767427   1.000000
     13         28.964753   0.000000
     14         28.999274   0.000000
     15         32.634165   0.000000
     16         32.709614   0.000000
     17         32.786835   0.000000
     18         32.832649   0.000000
     19         36.120719   0.000000
     20         36.183290   0.000000
 
  0.9090909E-01  0.9090909E-01 -0.9090909E-01  0.6010518E-02
      1          1.436634   1.000000
      2          1.489735   1.000000
      3          6.586972   1.000000
      4          7.167264   1.000000
      5          7.176710   1.000000
      6          7.245797   1.000000
      7          7.831609   1.000000
      8          7.853976   1.000000
      9          7.869514   1.000000
     10          8.176733   1.000000
     11          8.404732   1.000000
     12          8.766624   1.000000
     13         28.965043   0.000000
     14         28.999094   0.000000
     15         32.633848   0.000000
     16         32.709873   0.000000
     17         32.786556   0.000000
     18         32.833271   0.000000
     19         36.120807   0.000000
     20         36.182905   0.000000
 
  0.2727273E+00  0.9090909E-01  0.9656181E-17  0.6010518E-02
      1          2.670868   1.000000
      2          2.701302   1.000000
      3          6.441645   1.000000
      4          7.052279   1.000000
      5          7.151501   1.000000
      6          7.251184   1.000000
      7          7.774326   1.000000
      8          7.911032   1.000000
      9          8.015465   1.000000
     10          8.321250   1.000000
     11          8.642988   1.000000
     12          8.951702   1.114453
     13         24.318386   0.000000
     14         24.414071   0.000000
     15         31.803895   0.000000
     16         31.858177   0.000000
     17         31.899089   0.000000
     18         31.978948   0.000000
     19         35.933577   0.000000
     20         35.971033   0.000000
 
  0.2937440E-17  0.2727273E+00  0.9090909E-01  0.6010518E-02
      1          2.670847   1.000000
      2          2.701348   1.000000
      3          6.441707   1.000000
      4          7.051458   1.000000
      5          7.152141   1.000000
      6          7.250745   1.000000
      7          7.774016   1.000000
      8          7.911778   1.000000
      9          8.016562   1.000000
     10          8.319851   1.000000
     11          8.642578   1.000000
     12          8.952545   1.114729
     13         24.318292   0.000000
     14         24.414130   0.000000
     15         31.803705   0.000000
     16         31.858335   0.000000
     17         31.899023   0.000000
     18         31.979052   0.000000
     19         35.934137   0.000000
     20         35.970455   0.000000
 
  0.9090909E-01  0.9090909E-01 -0.1818182E+00  0.6010518E-02
      1          2.670808   1.000000
      2          2.701351   1.000000
      3          6.441692   1.000000
      4          7.052224   1.000000
      5          7.151712   1.000000
      6          7.251121   1.000000
      7          7.774332   1.000000
      8          7.910938   1.000000
      9          8.015453   1.000000
     10          8.321044   1.000000
     11          8.642943   1.000000
     12          8.951901   1.114564
     13         24.318428   0.000000
     14         24.414013   0.000000
     15         31.803206   0.000000
     16         31.859117   0.000000
     17         31.898622   0.000000
     18         31.979128   0.000000
     19         35.934711   0.000000
     20         35.970387   0.000000
 
  0.3636364E+00  0.9090909E-01  0.2223273E-16  0.6010518E-02
      1          3.986530   1.000000
      2          4.080153   1.000000
      3          6.638407   1.000000
      4          6.980622   1.000000
      5          7.106256   1.000000
      6          7.186512   1.000000
      7          7.575387   1.000000
      8          7.806766   1.000000
      9          8.562137   1.000000
     10          8.572239   1.049903
     11          9.197391   0.746320
     12          9.240891   0.386942
     13         19.997366   0.000000
     14         20.160039   0.000000
     15         31.091569   0.000000
     16         31.180273   0.000000
     17         31.368665   0.000000
     18         31.422859   0.000000
     19         34.036289   0.000000
     20         34.110148   0.000000
 
  0.1004783E-16  0.3636364E+00  0.9090909E-01  0.6010518E-02
      1          3.986488   1.000000
      2          4.080225   1.000000
      3          6.638624   1.000000
      4          6.981499   1.000000
      5          7.105613   1.000000
      6          7.185709   1.000000
      7          7.574729   1.000000
      8          7.807558   1.000000
      9          8.561181   1.000000
     10          8.572906   1.050006
     11          9.197133   0.746594
     12          9.241675   0.385222
     13         19.997283   0.000000
     14         20.160084   0.000000
     15         31.091561   0.000000
     16         31.180258   0.000000
     17         31.368545   0.000000
     18         31.423019   0.000000
     19         34.037034   0.000000
     20         34.109362   0.000000
 
  0.9090909E-01  0.9090909E-01 -0.2727273E+00  0.6010518E-02
      1          3.986364   1.000000
      2          4.080227   1.000000
      3          6.638854   1.000000
      4          6.980657   1.000000
      5          7.105978   1.000000
      6          7.186555   1.000000
      7          7.575468   1.000000
      8          7.806626   1.000000
      9          8.561921   1.000000
     10          8.572039   1.049901
     11          9.197472   0.746387
     12          9.241114   0.386328
     13         19.997360   0.000000
     14         20.159979   0.000000
     15         31.091365   0.000000
     16         31.180044   0.000000
     17         31.367747   0.000000
     18         31.423921   0.000000
     19         34.038482   0.000000
     20         34.108723   0.000000
 
  0.4545455E+00  0.9090909E-01  0.1931236E-16  0.6010518E-02
      1          4.605466   1.000000
      2          4.937049   1.000000
      3          6.826301   1.000000
      4          7.086400   1.000000
      5          7.344015   1.000000
      6          7.419435   1.000000
      7          7.683077   1.000000
      8          7.809045   1.000000
      9          8.725465   1.000000
     10          9.432867   0.346902
     11          9.565823  -0.051525
     12         10.017605  -0.015903
     13         16.428060   0.000000
     14         16.696910   0.000000
     15         30.258143   0.000000
     16         30.328909   0.000000
     17         31.560620   0.000000
     18         31.611358   0.000000
     19         32.780454   0.000000
     20         32.823174   0.000000
 
  0.2295356E-17  0.4545455E+00  0.9090909E-01  0.6010518E-02
      1          4.605395   1.000000
      2          4.937101   1.000000
      3          6.827414   1.000000
      4          7.085405   1.000000
      5          7.343507   1.000000
      6          7.419691   1.000000
      7          7.683890   1.000000
      8          7.808219   1.000000
      9          8.724660   1.000000
     10          9.433641   0.345796
     11          9.566321  -0.051678
     12         10.017367  -0.015844
     13         16.427964   0.000000
     14         16.696955   0.000000
     15         30.258265   0.000000
     16         30.328797   0.000000
     17         31.560530   0.000000
     18         31.611466   0.000000
     19         32.781995   0.000000
     20         32.821574   0.000000
 
  0.9090909E-01  0.9090909E-01 -0.3636364E+00  0.6010518E-02
      1          4.605226   1.000000
      2          4.937202   1.000000
      3          6.826254   1.000000
      4          7.086489   1.000000
      5          7.344068   1.000000
      6          7.420080   1.000000
      7          7.682934   1.000000
      8          7.808664   1.000000
      9          8.725201   1.000000
     10          9.433090   0.346692
     11          9.565576  -0.051558
     12         10.017757  -0.015884
     13         16.428047   0.000000
     14         16.696862   0.000000
     15         30.258226   0.000000
     16         30.328314   0.000000
     17         31.559484   0.000000
     18         31.612526   0.000000
     19         32.783725   0.000000
     20         32.820820   0.000000
 
 -0.4545455E+00  0.9090909E-01  0.4423826E-17  0.6010518E-02
      1          4.698150   1.000000
      2          5.095003   1.000000
      3          6.803058   1.000000
      4          7.044115   1.000000
      5          7.342411   1.000000
      6          7.631696   1.000000
      7          7.761369   1.000000
      8          8.139508   1.000000
      9          8.685981   1.000000
     10          9.398902   0.201147
     11         10.265947   0.000000
     12         10.566612   0.000000
     13         15.089596   0.000000
     14         15.443664   0.000000
     15         29.532199   0.000000
     16         29.560672   0.000000
     17         32.466220   0.000000
     18         32.468805   0.000000
     19         32.488978   0.000000
     20         32.519184   0.000000
 
 -0.2735220E-17 -0.4545455E+00  0.9090909E-01  0.6010518E-02
      1          4.698066   1.000000
      2          5.095039   1.000000
      3          6.804121   1.000000
      4          7.043049   1.000000
      5          7.341682   1.000000
      6          7.632517   1.000000
      7          7.761757   1.000000
      8          8.139164   1.000000
      9          8.685259   1.000000
     10          9.399667   0.199679
     11         10.266394   0.000000
     12         10.566042   0.000000
     13         15.089491   0.000000
     14         15.443773   0.000000
     15         29.532337   0.000000
     16         29.560556   0.000000
     17         32.466990   0.000000
     18         32.469499   0.000000
     19         32.487377   0.000000
     20         32.519262   0.000000
 
  0.9090909E-01  0.9090909E-01 -0.4545455E+00  0.6010518E-02
      1          4.698008   1.000000
      2          5.095130   1.000000
      3          6.802906   1.000000
      4          7.044224   1.000000
      5          7.342607   1.000000
      6          7.631558   1.000000
      7          7.761658   1.000000
      8          8.139354   1.000000
      9          8.685715   1.000000
     10          9.399138   0.200700
     11         10.266153   0.000000
     12         10.566330   0.000000
     13         15.089504   0.000000
     14         15.443777   0.000000
     15         29.532241   0.000000
     16         29.560253   0.000000
     17         32.465826   0.000000
     18         32.467944   0.000000
     19         32.489737   0.000000
     20         32.520433   0.000000
 
 -0.3636364E+00  0.9090909E-01 -0.1174028E-16  0.6010518E-02
      1          4.493092   1.000000
      2          4.754876   1.000000
      3          6.892962   1.000000
      4          7.096425   1.000000
      5          7.219179   1.000000
      6          7.426021   1.000000
      7          7.598536   1.000000
      8          7.688386   1.000000
      9          8.433083   1.000000
     10          9.130200   1.010034
     11          9.345611   0.197629
     12          9.911650  -0.064504
     13         17.500498   0.000000
     14         17.728039   0.000000
     15         29.152197   0.000000
     16         29.156521   0.000000
     17         32.981819   0.000000
     18         33.037084   0.000000
     19         34.123712   0.000000
     20         34.181110   0.000000
 
 -0.1048770E-16 -0.3636364E+00  0.9090909E-01  0.6010518E-02
      1          4.493015   1.000000
      2          4.754878   1.000000
      3          6.893906   1.000000
      4          7.095378   1.000000
      5          7.219391   1.000000
      6          7.425211   1.000000
      7          7.598745   1.000000
      8          7.689208   1.000000
      9          8.432342   1.000000
     10          9.130959   1.009438
     11          9.346289   0.196662
     12          9.910651  -0.064726
     13         17.500460   0.000000
     14         17.728124   0.000000
     15         29.152319   0.000000
     16         29.156413   0.000000
     17         32.981897   0.000000
     18         33.036940   0.000000
     19         34.123703   0.000000
     20         34.181127   0.000000
 
  0.9090909E-01  0.9090909E-01  0.4545455E+00  0.6010518E-02
      1          4.493019   1.000000
      2          4.754979   1.000000
      3          6.892733   1.000000
      4          7.096519   1.000000
      5          7.219056   1.000000
      6          7.426257   1.000000
      7          7.598675   1.000000
      8          7.688231   1.000000
      9          8.432792   1.000000
     10          9.130450   1.009867
     11          9.346225   0.196844
     12          9.911033  -0.064612
     13         17.500403   0.000000
     14         17.728202   0.000000
     15         29.151461   0.000000
     16         29.156933   0.000000
     17         32.980779   0.000000
     18         33.038852   0.000000
     19         34.122228   0.000000
     20         34.182393   0.000000
 
 -0.2727273E+00  0.9090909E-01  0.2022194E-18  0.6010518E-02
      1          3.606051   1.000000
      2          3.636647   1.000000
      3          6.550875   1.000000
      4          7.044040   1.000000
      5          7.085825   1.000000
      6          7.209436   1.000000
      7          7.645452   1.000000
      8          7.827416   1.000000
      9          8.071592   1.000000
     10          8.703873   1.000000
     11          8.730715   1.078318
     12          9.355360   0.383070
     13         21.387876   0.000000
     14         21.526728   0.000000
     15         29.221705   0.000000
     16         29.241481   0.000000
     17         34.183090   0.000000
     18         34.252393   0.000000
     19         36.449265   0.000000
     20         36.517857   0.000000
 
 -0.3377304E-17 -0.2727273E+00  0.9090909E-01  0.6010518E-02
      1          3.605963   1.000000
      2          3.636677   1.000000
      3          6.550870   1.000000
      4          7.044819   1.000000
      5          7.086277   1.000000
      6          7.208604   1.000000
      7          7.644550   1.000000
      8          7.828223   1.000000
      9          8.070631   1.000000
     10          8.704894   1.000000
     11          8.731489   1.078135
     12          9.354248   0.385464
     13         21.387859   0.000000
     14         21.526788   0.000000
     15         29.221698   0.000000
     16         29.241476   0.000000
     17         34.182956   0.000000
     18         34.252476   0.000000
     19         36.449313   0.000000
     20         36.517826   0.000000
 
  0.9090909E-01  0.9090909E-01  0.3636364E+00  0.6010518E-02
      1          3.605873   1.000000
      2          3.636825   1.000000
      3          6.550874   1.000000
      4          7.043729   1.000000
      5          7.085856   1.000000
      6          7.209478   1.000000
      7          7.645758   1.000000
      8          7.827254   1.000000
      9          8.071293   1.000000
     10          8.704470   1.000000
     11          8.730973   1.078239
     12          9.354776   0.384126
     13         21.387785   0.000000
     14         21.526865   0.000000
     15         29.221281   0.000000
     16         29.241547   0.000000
     17         34.181988   0.000000
     18         34.254126   0.000000
     19         36.447621   0.000000
     20         36.519097   0.000000
 
 -0.1818182E+00  0.9090909E-01  0.2211913E-17  0.6010518E-02
      1          2.217080   1.000000
      2          2.259871   1.000000
      3          6.514198   1.000000
      4          7.145750   1.000000
      5          7.147953   1.000000
      6          7.242273   1.000000
      7          7.792942   1.000000
      8          7.840965   1.000000
      9          7.925203   1.000000
     10          8.317167   1.000000
     11          8.427355   1.000000
     12          8.944092   1.056675
     13         25.842476   0.000000
     14         25.919855   0.000000
     15         29.782870   0.000000
     16         29.801543   0.000000
     17         35.639362   0.000000
     18         35.719417   0.000000
     19         38.173447   0.000000
     20         38.179106   0.000000
 
 -0.2888785E-17 -0.1818182E+00  0.9090909E-01  0.6010518E-02
      1          2.217052   1.000000
      2          2.259875   1.000000
      3          6.514151   1.000000
      4          7.146107   1.000000
      5          7.148621   1.000000
      6          7.242048   1.000000
      7          7.791840   1.000000
      8          7.839385   1.000000
      9          7.925929   1.000000
     10          8.318595   1.000000
     11          8.428212   1.000000
     12          8.943007   1.057244
     13         25.842476   0.000000
     14         25.919923   0.000000
     15         29.782802   0.000000
     16         29.801526   0.000000
     17         35.639113   0.000000
     18         35.719749   0.000000
     19         38.179025   0.000000
     20         38.186241   0.000000
 
  0.9090909E-01  0.9090909E-01  0.2727273E+00  0.6010518E-02
      1          2.217139   1.000000
      2          2.259784   1.000000
      3          6.514370   1.000000
      4          7.145687   1.000000
      5          7.147667   1.000000
      6          7.242123   1.000000
      7          7.793247   1.000000
      8          7.840830   1.000000
      9          7.925145   1.000000
     10          8.317608   1.000000
     11          8.427551   1.000000
     12          8.943624   1.056838
     13         25.842328   0.000000
     14         25.919997   0.000000
     15         29.782426   0.000000
     16         29.801623   0.000000
     17         35.638218   0.000000
     18         35.720809   0.000000
     19         38.175277   0.000000
     20         38.179279   0.000000
 
 -0.9090909E-01  0.9090909E-01 -0.4019387E-17  0.6010518E-02
      1          1.130650   1.000000
      2          1.185310   1.000000
      3          6.696065   1.000000
      4          7.085557   1.000000
      5          7.095707   1.000000
      6          7.362444   1.000000
      7          7.780142   1.000000
      8          7.785179   1.000000
      9          7.907978   1.000000
     10          8.126922   1.000000
     11          8.475875   1.000000
     12          8.717897   1.000000
     13         30.116773   0.000000
     14         30.123725   0.000000
     15         31.230746   0.000000
     16         31.238323   0.000000
     17         35.711315   0.000000
     18         35.795700   0.000000
     19         37.996513   0.000000
     20         38.038676   0.000000
 
 -0.4019387E-17 -0.9090909E-01  0.9090909E-01  0.3005259E-02
      1          1.130644   1.000000
      2          1.185308   1.000000
      3          6.696011   1.000000
      4          7.085548   1.000000
      5          7.095832   1.000000
      6          7.363138   1.000000
      7          7.778836   1.000000
      8          7.785845   1.000000
      9          7.906170   1.000000
     10          8.128676   1.000000
     11          8.476792   1.000000
     12          8.716916   1.000000
     13         30.117030   0.000000
     14         30.123805   0.000000
     15         31.230307   0.000000
     16         31.238321   0.000000
     17         35.711176   0.000000
     18         35.796206   0.000000
     19         37.996668   0.000000
     20         38.038202   0.000000
 
  0.1818182E+00  0.1818182E+00  0.1536772E-16  0.3005259E-02
      1          1.932531   1.000000
      2          1.982424   1.000000
      3          6.373858   1.000000
      4          7.021948   1.000000
      5          7.375567   1.000000
      6          7.375893   1.000000
      7          7.617821   1.000000
      8          8.082592   1.000000
      9          8.083971   1.000000
     10          8.157168   1.000000
     11          8.271955   1.000000
     12          8.858164   1.000000
     13         30.861734   0.000000
     14         30.862501   0.000000
     15         30.911261   0.000000
     16         30.912078   0.000000
     17         30.950094   0.000000
     18         30.966242   0.000000
     19         32.246758   0.000000
     20         32.326954   0.000000
 
  0.7159046E-17  0.1818182E+00  0.1818182E+00  0.1502630E-02
      1          1.932524   1.000000
      2          1.982463   1.000000
      3          6.373942   1.000000
      4          7.020616   1.000000
      5          7.375523   1.000000
      6          7.375885   1.000000
      7          7.619563   1.000000
      8          8.083878   1.000000
      9          8.084060   1.000000
     10          8.156288   1.000000
     11          8.270109   1.000000
     12          8.859088   1.000000
     13         30.861579   0.000000
     14         30.862132   0.000000
     15         30.911488   0.000000
     16         30.912342   0.000000
     17         30.949943   0.000000
     18         30.966025   0.000000
     19         32.246655   0.000000
     20         32.327374   0.000000
 
  0.2727273E+00  0.1818182E+00  0.7293119E-17  0.6010518E-02
      1          2.942606   1.000000
      2          2.972853   1.000000
      3          6.153852   1.000000
      4          6.778496   1.000000
      5          7.253128   1.000000
      6          7.548687   1.000000
      7          7.827014   1.000000
      8          7.914675   1.000000
      9          8.241477   1.000000
     10          8.401620   1.000000
     11          8.562295   1.000000
     12          9.014657   1.108768
     13         26.410311   0.000000
     14         26.477458   0.000000
     15         29.531490   0.000000
     16         29.579684   0.000000
     17         30.534324   0.000000
     18         30.569563   0.000000
     19         32.441174   0.000000
     20         32.468180   0.000000
 
  0.1013077E-16  0.2727273E+00  0.1818182E+00  0.6010518E-02