Automatically generated mesh
     186
Reciprocal lattice
    0.00000000000000    0.00000000000000    0.00000000000000             1
    0.09090909090909    0.00000000000000    0.00000000000000             8
    0.18181818181818   -0.00000000000000   -0.00000000000000             8
    0.27272727272727   -0.00000000000000   -0.00000000000000             8
    0.36363636363637   -0.00000000000000   -0.00000000000000             8
    0.45454545454545   -0.00000000000000    0.00000000000000             8
    0.09090909090909    0.09090909090909   -0.00000000000000             4
    0.00000000000000    0.09090909090909    0.09090909090909             2
    0.18181818181818    0.09090909090909    0.00000000000000             8
    0.00000000000000    0.18181818181818    0.09090909090909             8
    0.09090909090909    0.09090909090909   -0.09090909090909             8
    0.27272727272727    0.09090909090909    0.00000000000000             8
    0.00000000000000    0.27272727272727    0.09090909090909             8
    0.09090909090909    0.09090909090909   -0.18181818181818             8
    0.36363636363637    0.09090909090909    0.00000000000000             8
    0.00000000000000    0.36363636363637    0.09090909090909             8
    0.09090909090909    0.09090909090909   -0.27272727272727             8
    0.45454545454545    0.09090909090909    0.00000000000000             8
    0.00000000000000    0.45454545454545    0.09090909090909             8
    0.09090909090909    0.09090909090909   -0.36363636363636             8
   -0.45454545454545    0.09090909090909    0.00000000000000             8
   -0.00000000000000   -0.45454545454545    0.09090909090909             8
    0.09090909090909    0.09090909090909   -0.45454545454545             8
   -0.36363636363637    0.09090909090909   -0.00000000000000             8
   -0.00000000000000   -0.36363636363637    0.09090909090909             8
    0.09090909090909    0.09090909090909    0.45454545454546             8
   -0.27272727272727    0.09090909090909    0.00000000000000             8
   -0.00000000000000   -0.27272727272727    0.09090909090909             8
    0.09090909090909    0.09090909090909    0.36363636363637             8
   -0.18181818181818    0.09090909090909    0.00000000000000             8
   -0.00000000000000   -0.18181818181818    0.09090909090909             8
    0.09090909090909    0.09090909090909    0.27272727272727             8
   -0.09090909090909    0.09090909090909   -0.00000000000000             8
   -0.00000000000000   -0.09090909090909    0.09090909090909             4
    0.18181818181818    0.18181818181818    0.00000000000000             4
    0.00000000000000    0.18181818181818    0.18181818181818             2
    0.27272727272727    0.18181818181818    0.00000000000000             8
    0.00000000000000    0.27272727272727    0.18181818181818             8
    0.18181818181818    0.18181818181818   -0.09090909090909             8
    0.36363636363637    0.18181818181818    0.00000000000000             8
    0.00000000000000    0.36363636363637    0.18181818181818             8
    0.18181818181818    0.18181818181818   -0.18181818181819             8
    0.45454545454545    0.18181818181818    0.00000000000000             8
    0.00000000000000    0.45454545454545    0.18181818181818             8
    0.18181818181818    0.18181818181818   -0.27272727272727             8
   -0.45454545454545    0.18181818181818   -0.00000000000000             8
   -0.00000000000000   -0.45454545454545    0.18181818181818             8
    0.18181818181818    0.18181818181818   -0.36363636363637             8
   -0.36363636363637    0.18181818181818    0.00000000000000             8
    0.00000000000000   -0.36363636363637    0.18181818181818             8
    0.18181818181818    0.18181818181818   -0.45454545454545             8
   -0.27272727272727    0.18181818181818    0.00000000000000             8
    0.00000000000000   -0.27272727272727    0.18181818181818             8
    0.18181818181818    0.18181818181818    0.45454545454545             8
   -0.18181818181818    0.18181818181818    0.00000000000000             8
    0.00000000000000   -0.18181818181818    0.18181818181818             4
    0.27272727272727    0.27272727272727    0.00000000000000             4
    0.00000000000000    0.27272727272727    0.27272727272727             2
    0.36363636363637    0.27272727272727    0.00000000000000             8
    0.00000000000000    0.36363636363637    0.27272727272727             8
    0.27272727272727    0.27272727272727   -0.09090909090909             8
    0.45454545454545    0.27272727272727    0.00000000000000             8
    0.00000000000000    0.45454545454545    0.27272727272727             8
    0.27272727272727    0.27272727272727   -0.18181818181818             8
   -0.45454545454545    0.27272727272727   -0.00000000000000             8
    0.00000000000000   -0.45454545454545    0.27272727272727             8
    0.27272727272727    0.27272727272727   -0.27272727272727             8
   -0.36363636363637    0.27272727272727    0.00000000000000             8
    0.00000000000000   -0.36363636363637    0.27272727272727             8
    0.27272727272727    0.27272727272727   -0.36363636363636             8
   -0.27272727272727    0.27272727272727    0.00000000000000             8
    0.00000000000000   -0.27272727272727    0.27272727272727             4
    0.36363636363637    0.36363636363637    0.00000000000000             4
    0.00000000000000    0.36363636363637    0.36363636363637             2
    0.45454545454545    0.36363636363637    0.00000000000000             8
    0.00000000000000    0.45454545454545    0.36363636363637             8
    0.36363636363637    0.36363636363637   -0.09090909090909             8
   -0.45454545454545    0.36363636363637   -0.00000000000000             8
    0.00000000000000   -0.45454545454545    0.36363636363637             8
    0.36363636363637    0.36363636363637   -0.18181818181818             8
   -0.36363636363637    0.36363636363637    0.00000000000000             8
    0.00000000000000   -0.36363636363637    0.36363636363637             4
    0.45454545454545    0.45454545454545    0.00000000000000             4
    0.00000000000000    0.45454545454545    0.45454545454545             2
   -0.45454545454545    0.45454545454545    0.00000000000000             8
    0.00000000000000   -0.45454545454545    0.45454545454545             4
    0.27272727272727    0.18181818181818    0.09090909090909             4
    0.09090909090909    0.27272727272727    0.18181818181818             8
    0.18181818181818    0.09090909090909    0.27272727272727             8
    0.27272727272727    0.09090909090909    0.18181818181818             4
    0.36363636363637    0.18181818181818    0.09090909090909             8
    0.09090909090909    0.36363636363637    0.18181818181818             8
    0.18181818181818    0.09090909090909    0.36363636363637             8
    0.18181818181818    0.09090909090909   -0.18181818181819             8
    0.36363636363637    0.18181818181819    0.27272727272727             8
    0.09090909090909   -0.27272727272727   -0.09090909090909             8
    0.45454545454545    0.18181818181818    0.09090909090909             8
    0.09090909090909    0.45454545454545    0.18181818181818             8
    0.18181818181818    0.09090909090909    0.45454545454545             8
    0.18181818181818    0.09090909090909   -0.27272727272727             8
    0.45454545454545    0.27272727272727    0.36363636363636             8
    0.09090909090909   -0.36363636363636   -0.09090909090909             8
   -0.45454545454545    0.18181818181818    0.09090909090909             8
    0.09090909090909   -0.45454545454545    0.18181818181818             8
    0.18181818181818    0.09090909090909   -0.45454545454545             8
    0.18181818181818    0.09090909090909   -0.36363636363637             8
   -0.45454545454545    0.36363636363637    0.45454545454545             8
    0.09090909090909   -0.45454545454545   -0.09090909090909             8
    0.36363636363637    0.27272727272727    0.09090909090909             4
    0.09090909090909    0.36363636363637    0.27272727272727             8
    0.27272727272727    0.09090909090909    0.36363636363637             8
    0.36363636363637    0.09090909090909    0.27272727272727             4
    0.45454545454545    0.27272727272727    0.09090909090909             8
    0.09090909090909    0.45454545454545    0.27272727272727             8
    0.27272727272727    0.09090909090909    0.45454545454545             8
    0.27272727272727    0.18181818181818   -0.18181818181818             8
    0.45454545454545    0.18181818181818    0.36363636363636             8
    0.09090909090909   -0.36363636363636   -0.18181818181818             8
   -0.45454545454545    0.27272727272727    0.09090909090909             8
    0.09090909090909   -0.45454545454545    0.27272727272727             8
    0.27272727272727    0.09090909090909   -0.45454545454545             8
    0.27272727272727    0.18181818181818   -0.27272727272727             8
   -0.45454545454545    0.27272727272727    0.45454545454545             8
    0.09090909090909   -0.45454545454545   -0.18181818181818             8
   -0.36363636363637    0.27272727272727    0.09090909090909             8
    0.09090909090909   -0.36363636363637    0.27272727272727             8
    0.27272727272727    0.09090909090909   -0.36363636363637             8
    0.27272727272727    0.18181818181818   -0.36363636363636             8
   -0.36363636363637    0.36363636363636   -0.45454545454546             8
    0.09090909090909    0.45454545454546   -0.18181818181818             8
   -0.27272727272727    0.27272727272727    0.09090909090909             8
    0.09090909090909   -0.27272727272727    0.27272727272727             8
    0.27272727272727    0.09090909090909   -0.27272727272727             8
    0.27272727272727    0.18181818181818   -0.45454545454545             8
   -0.27272727272727    0.45454545454545   -0.36363636363637             8
    0.09090909090909    0.36363636363637   -0.18181818181818             8
   -0.18181818181818    0.27272727272727    0.09090909090909             8
    0.09090909090909   -0.18181818181818    0.27272727272727             4
    0.27272727272727    0.09090909090909   -0.18181818181818             8
    0.09090909090909    0.27272727272727   -0.18181818181818             4
    0.45454545454545    0.36363636363637    0.09090909090909             4
    0.09090909090909    0.45454545454545    0.36363636363637             8
    0.36363636363637    0.09090909090909    0.45454545454545             8
    0.45454545454545    0.09090909090909    0.36363636363636             4
   -0.45454545454545    0.36363636363637    0.09090909090909             8
    0.09090909090909   -0.45454545454545    0.36363636363637             8
    0.36363636363637    0.09090909090909   -0.45454545454545             8
    0.36363636363637    0.27272727272727   -0.18181818181818             8
   -0.45454545454545    0.18181818181818    0.45454545454545             8
    0.09090909090909   -0.45454545454545   -0.27272727272727             8
   -0.36363636363637    0.36363636363637    0.09090909090909             8
    0.09090909090909   -0.36363636363637    0.36363636363637             8
    0.36363636363637    0.09090909090909   -0.36363636363637             8
    0.36363636363637    0.27272727272727   -0.27272727272727             8
   -0.36363636363637    0.27272727272727   -0.45454545454546             8
    0.09090909090909    0.45454545454546   -0.27272727272727             8
   -0.27272727272727    0.36363636363637    0.09090909090909             8
    0.09090909090909   -0.27272727272727    0.36363636363637             4
    0.36363636363637    0.09090909090909   -0.27272727272727             8
    0.09090909090909    0.36363636363637   -0.27272727272727             4
   -0.45454545454545    0.45454545454545    0.09090909090909             4
    0.09090909090909   -0.45454545454545    0.45454545454545             8
    0.45454545454545    0.09090909090909   -0.45454545454545             8
   -0.45454545454545    0.09090909090909    0.45454545454545             4
   -0.36363636363637    0.45454545454545    0.09090909090909             8
    0.09090909090909   -0.36363636363637    0.45454545454545             4
    0.45454545454545    0.09090909090909   -0.36363636363637             8
    0.09090909090909    0.45454545454546   -0.36363636363636             4
   -0.45454545454545    0.36363636363637    0.18181818181818             4
    0.18181818181818   -0.45454545454545    0.36363636363637             8
    0.36363636363637    0.18181818181818   -0.45454545454545             8
   -0.45454545454545    0.18181818181818    0.36363636363637             4
   -0.36363636363637    0.36363636363637    0.18181818181818             8
    0.18181818181818   -0.36363636363637    0.36363636363637             8
    0.36363636363637    0.18181818181818   -0.36363636363637             8
    0.36363636363637    0.18181818181819   -0.27272727272727             8
   -0.36363636363637    0.27272727272727    0.45454545454545             8
    0.18181818181818   -0.45454545454545   -0.18181818181819             8
   -0.36363636363637    0.45454545454545    0.18181818181818             4
    0.18181818181818   -0.36363636363637    0.45454545454545             8
    0.45454545454545    0.18181818181818   -0.36363636363637             8
   -0.36363636363637    0.18181818181818    0.45454545454545             4
   -0.27272727272727    0.45454545454545    0.18181818181818             8
    0.18181818181818   -0.27272727272727    0.45454545454545             4
    0.45454545454545    0.18181818181818   -0.27272727272727             8
    0.18181818181818    0.45454545454545   -0.27272727272727             4
Tetrahedra
      1048    0.00012521913348
        16         1         2         2         7
         8         1         2         2         8
         8         2         7         9        34
         8         2         3         9        34
         8         2         3        11        34
         8         2         2         7        34
         8         2         7        11        34
         8         3         9        12        31
         8         3         4        12        31
         8         3         4        14        31
         8         3         9        31        34
         8         3        11        31        34
         8         3        11        14        31
         8         4        12        15        28
         8         4         5        15        28
         8         4         5        17        28
         8         4        12        28        31
         8         4        14        28        31
         8         4        14        17        28
         8         5        15        18        25
         8         5         6        18        25
         8         5         6        20        25
         8         5        15        25        28
         8         5        17        25        28
         8         5        17        20        25
         8         6        18        21        22
         8         6         6        21        22
         8         6         6        22        23
         8         6        18        22        25
         8         6        20        22        25
         8         6        20        22        23
         8         6        19        21        24
         8         5         6        19        24
         8         5         6        19        26
         8         6        19        21        22
         8         6        19        22        23
         8         6        19        23        26
         8         5        16        24        27
         8         4         5        16        27
         8         4         5        16        29
         8         5        16        19        24
         8         5        16        19        26
         8         5        16        26        29
         8         4        13        27        30
         8         3         4        13        30
         8         3         4        13        32
         8         4        13        16        27
         8         4        13        16        29
         8         4        13        29        32
         8         3        10        30        33
        16         2         3        10        33
         8         3        10        13        30
         8         3        10        13        32
         8         3        10        32        33
         8         2         2         8        33
        16         2         8        10        33
         8         2         3        11        33
         8         2         7        11        33
         8         2         2         7        33
         8         7         9        11        35
         4         7         9         9        35
         4         7         9         9        34
         8         7         9        11        33
         8         2         7         9        33
         8         9        35        37        87
         8         9        12        37        87
         8         9        12        31        87
         4         9         9        35        87
         4         9         9        34        87
         8         9        31        34        87
         8        12        37        40        91
         8        12        15        40        91
         8        12        15        28        91
         8        12        37        87        91
         8        12        31        87        91
         8        12        28        31        91
         8        15        40        43        97
         8        15        18        43        97
         8        15        18        25        97
         8        15        40        91        97
         8        15        28        91        97
         8        15        25        28        97
         8        18        43        46       103
         8        18        21        46       103
         8        18        21        22       103
         8        18        43        97       103
         8        18        25        97       103
         8        18        22        25       103
         8        21        46        49       104
         8        21        24        49       104
         8        19        21        24       104
         8        21        46       103       104
         8        21        22       103       104
         8        19        21        22       104
         8        24        49        52        98
         8        24        27        52        98
         8        16        24        27        98
         8        24        49        98       104
         8        19        24        98       104
         8        16        19        24        98
         8        27        52        55        92
         8        27        30        55        92
         8        13        27        30        92
         8        27        52        92        98
         8        16        27        92        98
         8        13        16        27        92
         8        30        32        55        88
         8        30        32        33        88
         8        10        30        33        88
         8        30        55        88        92
         8        13        30        88        92
         8        10        13        30        88
         8        10        32        33        88
         8        10        10        33        88
         8         8        10        10        33
         8         3         4        14        30
         8         3        11        14        30
         8         3        11        30        33
         8        11        14        39        89
         8        11        35        39        89
         8         9        11        35        89
         8        11        14        30        89
         8        11        30        33        89
         8         9        11        33        89
         8        35        37        39        57
         4        35        37        37        57
         4        35        37        37        87
         8        35        37        39        89
         8         9        35        37        89
         8        37        57        59       109
         8        37        40        59       109
         8        37        40        91       109
         4        37        37        57       109
         4        37        37        87       109
         8        37        87        91       109
         8        40        59        62       113
         8        40        43        62       113
         8        40        43        97       113
         8        40        59       109       113
         8        40        91       109       113
         8        40        91        97       113
         8        43        62        65       119
         8        43        46        65       119
         8        43        46       103       119
         8        43        62       113       119
         8        43        97       113       119
         8        43        97       103       119
         8        46        65        68       125
         8        46        49        68       125
         8        46        49       104       125
         8        46        65       119       125
         8        46       103       119       125
         8        46       103       104       125
         8        49        68        71       131
         8        49        52        71       131
         8        49        52        98       131
         8        49        68       125       131
         8        49       104       125       131
         8        49        98       104       131
         8        52        54        71       137
         8        52        54        55       137
         8        52        55        92       137
         8        52        71       131       137
         8        52        98       131       137
         8        52        92        98       137
         8        29        54        55        96
         8        29        32        55        96
         8        32        55        88        96
         8        54        55        96       137
         8        55        92        96       137
         8        55        88        92        96
         8        13        29        32        96
         8        13        32        88        96
         8        10        13        32        88
         8         4         5        17        27
         8         4        14        17        27
         8         4        14        27        30
         8        14        17        42        94
         8        14        39        42        94
         8        14        39        89        94
         8        14        17        27        94
         8        14        27        30        94
         8        14        30        89        94
         8        39        42        61       111
         8        39        57        61       111
         8        37        39        57       111
         8        39        42        94       111
         8        39        89        94       111
         8        37        39        89       111
         8        57        59        61        73
         4        57        59        59        73
         4        57        59        59       109
         8        57        59        61       111
         8        37        57        59       111
         8        59        73        75       141
         8        59        62        75       141
         8        59        62       113       141
         4        59        59        73       141
         4        59        59       109       141
         8        59       109       113       141
         8        62        75        78       145
         8        62        65        78       145
         8        62        65       119       145
         8        62        75       141       145
         8        62       113       141       145
         8        62       113       119       145
         8        65        78        81       151
         8        65        68        81       151
         8        65        68       125       151
         8        65        78       145       151
         8        65       119       145       151
         8        65       119       125       151
         8        68        70        81       157
         8        68        70        71       157
         8        68        71       131       157
         8        68        81       151       157
         8        68       125       151       157
         8        68       125       131       157
         8        51        70        71       135
         8        51        54        71       135
         8        54        71       135       137
         8        70        71       135       157
         8        71       131       135       157
         8        71       131       135       137
         8        26        51        54       102
         8        26        29        54       102
         8        29        54        96       102
         8        51        54       102       135
         8        54       102       135       137
         8        54        96       102       137
         8        16        26        29       102
         8        16        29        96       102
         8        13        16        29        96
         8         5         6        20        24
         8         5        17        20        24
         8         5        17        24        27
         8        17        20        45       100
         8        17        42        45       100
         8        17        42        94       100
         8        17        20        24       100
         8        17        24        27       100
         8        17        27        94       100
         8        42        45        64       116
         8        42        61        64       116
         8        42        61       111       116
         8        42        45       100       116
         8        42        94       100       116
         8        42        94       111       116
         8        61        64        77       143
         8        61        73        77       143
         8        59        61        73       143
         8        61        64       116       143
         8        61       111       116       143
         8        59        61       111       143
         8        73        75        77        83
         4        73        75        75        83
         4        73        75        75       141
         8        73        75        77       143
         8        59        73        75       143
         8        75        83        85       161
         8        75        78        85       161
         8        75        78       145       161
         4        75        75        83       161
         4        75        75       141       161
         8        75       141       145       161
         8        78        80        85       165
         8        78        80        81       165
         8        78        81       151       165
         8        78        85       161       165
         8        78       145       161       165
         8        78       145       151       165
         8        67        80        81       155
         8        67        70        81       155
         8        70        81       155       157
         8        80        81       155       165
         8        81       151       155       165
         8        81       151       155       157
         8        48        67        70       129
         8        48        51        70       129
         8        51        70       129       135
         8        67        70       129       155
         8        70       129       155       157
         8        70       129       135       157
         8        23        48        51       108
         8        23        26        51       108
         8        26        51       102       108
         8        48        51       108       129
         8        51       108       129       135
         8        51       102       108       135
         8        19        23        26       108
         8        19        26       102       108
         8        16        19        26       102
         8         6         6        21        23
         8         6        20        21        23
         8         6        20        21        24
         8        20        23        48       106
         8        20        45        48       106
         8        20        45       100       106
         8        20        21        23       106
         8        20        21        24       106
         8        20        24       100       106
         8        45        48        67       122
         8        45        64        67       122
         8        45        64       116       122
         8        45        48       106       122
         8        45       100       106       122
         8        45       100       116       122
         8        64        67        80       148
         8        64        77        80       148
         8        64        77       143       148
         8        64        67       122       148
         8        64       116       122       148