 vasp.6.3.0 20Jan22 (build Feb 01 2022 17:34:01) complex                        
  
 executed on           TETRA_NSC1 date 2022.02.23  15:11:09
 running    4 mpi-ranks, with    1 threads/rank
 distrk:  each k-point on    4 cores,    1 groups
 distr:  one band on NCORE=   1 cores,    4 groups


--------------------------------------------------------------------------------------------------------


 INCAR:
   SYSTEM = Ni fcc bulk
   ISTART = 0
   MAGMOM = 0.0 0.0 1.0
   ISMEAR = -5
   VOSKOWN = 1
   LORBIT = 11
   LNONCOLLINEAR = .TRUE.

 POTCAR:    PAW_PBE Ni 02Aug2007                  
 POTCAR:    PAW_PBE Ni 02Aug2007                  
   VRHFIN =Ni:                                                                                      
   LEXCH  = PE                                                                                      
   EATOM  =  1077.6739 eV,   79.2068 Ry                                                             
                                                                                                    
   TITEL  = PAW_PBE Ni 02Aug2007                                                                    
   LULTRA =        F    use ultrasoft PP ?                                                          
   IUNSCR =        1    unscreen: 0-lin 1-nonlin 2-no                                               
   RPACOR =    2.000    partial core radius                                                         
   POMASS =   58.690; ZVAL   =   10.000    mass and valenz                                          
   RCORE  =    2.300    outmost cutoff radius                                                       
   RWIGS  =    2.430; RWIGS  =    1.286    wigner-seitz radius (au A)                               
   ENMAX  =  269.532; ENMIN  =  202.149 eV                                                          
   RCLOC  =    1.201    cutoff for local pot                                                        
   LCOR   =        T    correct aug charges                                                         
   LPAW   =        T    paw PP                                                                      
   EAUG   =  544.565                                                                                
   DEXC   =    0.000                                                                                
   RMAX   =    2.357    core radius for proj-oper                                                   
   RAUG   =    1.300    factor for augmentation sphere                                              
   RDEP   =    2.390    radius for radial grids                                                     
   RDEPT  =    1.838    core radius for aug-charge                                                  
                                                                                                    
   Atomic configuration                                                                             
    9 entries                                                                                       
     n  l   j            E        occ.                                                              
     1  0  0.50     -8206.4253   2.0000                                                             
     2  0  0.50      -976.1748   2.0000                                                             
     2  1  1.50      -839.0571   6.0000                                                             
     3  0  0.50      -105.9991   2.0000                                                             
     3  1  1.50       -66.4603   6.0000                                                             
     3  2  2.50        -4.6458   9.0000                                                             
     4  0  0.50        -4.4926   1.0000                                                             
     4  1  1.50        -4.0817   0.0000                                                             
     4  3  2.50        -1.3606   0.0000                                                             
   Description                                                                                      
     l       E           TYP  RCUT    TYP  RCUT                                                     
     2     -4.6457903     23  2.300                                                                 
     2     -6.0063729     23  2.300                                                                 
     0     -4.4925590     23  2.300                                                                 
     0      5.0102601     23  2.300                                                                 
     1     -2.7211652     23  2.300                                                                 
     1     16.5183231     23  2.300                                                                 
  local pseudopotential read in
  partial core-charges read in
  partial kinetic energy density read in
  atomic valenz-charges read in
  non local Contribution for L=           2  read in
    real space projection operators read in
  non local Contribution for L=           2  read in
    real space projection operators read in
  non local Contribution for L=           0  read in
    real space projection operators read in
  non local Contribution for L=           0  read in
    real space projection operators read in
  non local Contribution for L=           1  read in
    real space projection operators read in
  non local Contribution for L=           1  read in
    real space projection operators read in
    PAW grid and wavefunctions read in
 
   number of l-projection  operators is LMAX  =           6
   number of lm-projection operators is LMMAX =          18
 
  PAW_PBE Ni 02Aug2007                  :
 energy of atom  1       EATOM=-1077.6739
 kinetic energy error for atom=    0.0382 (will be added to EATOM!!)
 
 
 POSCAR: fcc Ni
  positions in cartesian coordinates
  No initial velocities read in
 exchange correlation table for  LEXCH =        8
   RHO(1)=    0.500       N(1)  =     2000
   RHO(2)=  100.500       N(2)  =     4000
 


--------------------------------------------------------------------------------------------------------


 ion  position               nearest neighbor table
   1  0.000  0.000  0.000-
 
  LATTYP: Found a face centered cubic cell.
 ALAT       =     3.5228437763
  
  Lattice vectors:
  
 A1 = (   1.7614218882,   1.7614218882,   0.0000000000)
 A2 = (   0.0000000000,   1.7614218882,   1.7614218882)
 A3 = (   1.7614218882,   0.0000000000,   1.7614218882)


Analysis of symmetry for initial positions (statically):
=====================================================================
 Subroutine PRICEL returns:
 Original cell was already a primitive cell.
 

 Routine SETGRP: Setting up the symmetry group for a 
 face centered cubic supercell.


 Subroutine GETGRP returns: Found 48 space group operations
 (whereof 48 operations were pure point group operations)
 out of a pool of 48 trial point group operations.


The static configuration has the point symmetry O_h .


Analysis of symmetry for dynamics (positions and initial velocities):
=====================================================================
 Subroutine PRICEL returns:
 Original cell was already a primitive cell.
 

 Routine SETGRP: Setting up the symmetry group for a 
 face centered cubic supercell.


 Subroutine GETGRP returns: Found 48 space group operations
 (whereof 48 operations were pure point group operations)
 out of a pool of 48 trial point group operations.


The dynamic configuration has the point symmetry O_h .


Analysis of structural, dynamic, and magnetic symmetry:
=====================================================================
 Subroutine PRICEL returns:
 Original cell was already a primitive cell.
 

 Routine SETGRP: Setting up the symmetry group for a 
 face centered cubic supercell.


 Subroutine GETGRP returns: Found  8 space group operations
 (whereof  8 operations were pure point group operations)
 out of a pool of 48 trial point group operations.


The overall configuration has the point symmetry C_4h.


 Subroutine INISYM returns: Found  8 space group operations
 (whereof  8 operations are pure point group operations),
 and found     1 'primitive' translations


----------------------------------------------------------------------------------------

                                     Primitive cell                                     

  volume of cell :      10.9300

  direct lattice vectors                    reciprocal lattice vectors
     1.761421888  1.761421888  0.000000000     0.283861580  0.283861580 -0.283861580
     0.000000000  1.761421888  1.761421888    -0.283861580  0.283861580  0.283861580
     1.761421888  0.000000000  1.761421888     0.283861580 -0.283861580  0.283861580

  length of vectors
     2.491026723  2.491026723  2.491026723     0.491662679  0.491662679  0.491662679

  position of ions in fractional coordinates (direct lattice)
     0.000000000  0.000000000  0.000000000

  ion indices of the primitive-cell ions
   primitive index   ion index
                 1           1

----------------------------------------------------------------------------------------

 
 
 KPOINTS: k-points                                

Automatic generation of k-mesh.
 Grid dimensions read from file:
 generate k-points for:   11   11   11

 Generating k-lattice:

  Cartesian coordinates                     Fractional coordinates (reciprocal lattice)
     0.025805598  0.025805598 -0.025805598     0.090909091  0.000000000  0.000000000
    -0.025805598  0.025805598  0.025805598     0.000000000  0.090909091 -0.000000000
     0.025805598 -0.025805598  0.025805598    -0.000000000 -0.000000000  0.090909091

  Length of vectors
     0.044696607  0.044696607  0.044696607

  Shift w.r.t. Gamma in fractional coordinates (k-lattice)
     0.000000000  0.000000000  0.000000000

 TETIRR: Found   1048 inequivalent tetrahedra from     7986
 
 Subroutine IBZKPT returns following result:
 ===========================================
 
 Found    186 irreducible k-points:
 
 Following reciprocal coordinates:
            Coordinates               Weight
  0.000000  0.000000  0.000000      1.000000
  0.090909  0.000000  0.000000      8.000000
  0.181818 -0.000000 -0.000000      8.000000
  0.272727 -0.000000 -0.000000      8.000000
  0.363636 -0.000000 -0.000000      8.000000
  0.454545 -0.000000  0.000000      8.000000
  0.090909  0.090909 -0.000000      4.000000
  0.000000  0.090909  0.090909      2.000000
  0.181818  0.090909  0.000000      8.000000
  0.000000  0.181818  0.090909      8.000000
  0.090909  0.090909 -0.090909      8.000000
  0.272727  0.090909  0.000000      8.000000
  0.000000  0.272727  0.090909      8.000000
  0.090909  0.090909 -0.181818      8.000000
  0.363636  0.090909  0.000000      8.000000
  0.000000  0.363636  0.090909      8.000000
  0.090909  0.090909 -0.272727      8.000000
  0.454545  0.090909  0.000000      8.000000
  0.000000  0.454545  0.090909      8.000000
  0.090909  0.090909 -0.363636      8.000000
 -0.454545  0.090909  0.000000      8.000000
 -0.000000 -0.454545  0.090909      8.000000
  0.090909  0.090909 -0.454545      8.000000
 -0.363636  0.090909 -0.000000      8.000000
 -0.000000 -0.363636  0.090909      8.000000
  0.090909  0.090909  0.454545      8.000000
 -0.272727  0.090909  0.000000      8.000000
 -0.000000 -0.272727  0.090909      8.000000
  0.090909  0.090909  0.363636      8.000000
 -0.181818  0.090909  0.000000      8.000000
 -0.000000 -0.181818  0.090909      8.000000
  0.090909  0.090909  0.272727      8.000000
 -0.090909  0.090909 -0.000000      8.000000
 -0.000000 -0.090909  0.090909      4.000000
  0.181818  0.181818  0.000000      4.000000
  0.000000  0.181818  0.181818      2.000000
  0.272727  0.181818  0.000000      8.000000
  0.000000  0.272727  0.181818      8.000000
  0.181818  0.181818 -0.090909      8.000000
  0.363636  0.181818  0.000000      8.000000
  0.000000  0.363636  0.181818      8.000000
  0.181818  0.181818 -0.181818      8.000000
  0.454545  0.181818  0.000000      8.000000
  0.000000  0.454545  0.181818      8.000000
  0.181818  0.181818 -0.272727      8.000000
 -0.454545  0.181818 -0.000000      8.000000
 -0.000000 -0.454545  0.181818      8.000000
  0.181818  0.181818 -0.363636      8.000000
 -0.363636  0.181818  0.000000      8.000000
  0.000000 -0.363636  0.181818      8.000000
  0.181818  0.181818 -0.454545      8.000000
 -0.272727  0.181818  0.000000      8.000000
  0.000000 -0.272727  0.181818      8.000000
  0.181818  0.181818  0.454545      8.000000
 -0.181818  0.181818  0.000000      8.000000
  0.000000 -0.181818  0.181818      4.000000
  0.272727  0.272727  0.000000      4.000000
  0.000000  0.272727  0.272727      2.000000
  0.363636  0.272727  0.000000      8.000000
  0.000000  0.363636  0.272727      8.000000
  0.272727  0.272727 -0.090909      8.000000
  0.454545  0.272727  0.000000      8.000000
  0.000000  0.454545  0.272727      8.000000
  0.272727  0.272727 -0.181818      8.000000
 -0.454545  0.272727 -0.000000      8.000000
  0.000000 -0.454545  0.272727      8.000000
  0.272727  0.272727 -0.272727      8.000000
 -0.363636  0.272727  0.000000      8.000000
  0.000000 -0.363636  0.272727      8.000000
  0.272727  0.272727 -0.363636      8.000000
 -0.272727  0.272727  0.000000      8.000000
  0.000000 -0.272727  0.272727      4.000000
  0.363636  0.363636  0.000000      4.000000
  0.000000  0.363636  0.363636      2.000000
  0.454545  0.363636  0.000000      8.000000
  0.000000  0.454545  0.363636      8.000000
  0.363636  0.363636 -0.090909      8.000000
 -0.454545  0.363636 -0.000000      8.000000
  0.000000 -0.454545  0.363636      8.000000
  0.363636  0.363636 -0.181818      8.000000
 -0.363636  0.363636  0.000000      8.000000
  0.000000 -0.363636  0.363636      4.000000
  0.454545  0.454545  0.000000      4.000000
  0.000000  0.454545  0.454545      2.000000
 -0.454545  0.454545  0.000000      8.000000
  0.000000 -0.454545  0.454545      4.000000
  0.272727  0.181818  0.090909      4.000000
  0.090909  0.272727  0.181818      8.000000
  0.181818  0.090909  0.272727      8.000000
  0.272727  0.090909  0.181818      4.000000
  0.363636  0.181818  0.090909      8.000000
  0.090909  0.363636  0.181818      8.000000
  0.181818  0.090909  0.363636      8.000000
  0.181818  0.090909 -0.181818      8.000000
  0.363636  0.181818  0.272727      8.000000
  0.090909 -0.272727 -0.090909      8.000000
  0.454545  0.181818  0.090909      8.000000
  0.090909  0.454545  0.181818      8.000000
  0.181818  0.090909  0.454545      8.000000
  0.181818  0.090909 -0.272727      8.000000
  0.454545  0.272727  0.363636      8.000000
  0.090909 -0.363636 -0.090909      8.000000
 -0.454545  0.181818  0.090909      8.000000
  0.090909 -0.454545  0.181818      8.000000
  0.181818  0.090909 -0.454545      8.000000
  0.181818  0.090909 -0.363636      8.000000
 -0.454545  0.363636  0.454545      8.000000
  0.090909 -0.454545 -0.090909      8.000000
  0.363636  0.272727  0.090909      4.000000
  0.090909  0.363636  0.272727      8.000000
  0.272727  0.090909  0.363636      8.000000
  0.363636  0.090909  0.272727      4.000000
  0.454545  0.272727  0.090909      8.000000
  0.090909  0.454545  0.272727      8.000000
  0.272727  0.090909  0.454545      8.000000
  0.272727  0.181818 -0.181818      8.000000
  0.454545  0.181818  0.363636      8.000000
  0.090909 -0.363636 -0.181818      8.000000
 -0.454545  0.272727  0.090909      8.000000
  0.090909 -0.454545  0.272727      8.000000
  0.272727  0.090909 -0.454545      8.000000
  0.272727  0.181818 -0.272727      8.000000
 -0.454545  0.272727  0.454545      8.000000
  0.090909 -0.454545 -0.181818      8.000000
 -0.363636  0.272727  0.090909      8.000000
  0.090909 -0.363636  0.272727      8.000000
  0.272727  0.090909 -0.363636      8.000000
  0.272727  0.181818 -0.363636      8.000000
 -0.363636  0.363636 -0.454545      8.000000
  0.090909  0.454545 -0.181818      8.000000
 -0.272727  0.272727  0.090909      8.000000
  0.090909 -0.272727  0.272727      8.000000
  0.272727  0.090909 -0.272727      8.000000
  0.272727  0.181818 -0.454545      8.000000
 -0.272727  0.454545 -0.363636      8.000000
  0.090909  0.363636 -0.181818      8.000000
 -0.181818  0.272727  0.090909      8.000000
  0.090909 -0.181818  0.272727      4.000000
  0.272727  0.090909 -0.181818      8.000000
  0.090909  0.272727 -0.181818      4.000000
  0.454545  0.363636  0.090909      4.000000
  0.090909  0.454545  0.363636      8.000000
  0.363636  0.090909  0.454545      8.000000
  0.454545  0.090909  0.363636      4.000000
 -0.454545  0.363636  0.090909      8.000000
  0.090909 -0.454545  0.363636      8.000000
  0.363636  0.090909 -0.454545      8.000000
  0.363636  0.272727 -0.181818      8.000000
 -0.454545  0.181818  0.454545      8.000000
  0.090909 -0.454545 -0.272727      8.000000
 -0.363636  0.363636  0.090909      8.000000
  0.090909 -0.363636  0.363636      8.000000
  0.363636  0.090909 -0.363636      8.000000
  0.363636  0.272727 -0.272727      8.000000
 -0.363636  0.272727 -0.454545      8.000000
  0.090909  0.454545 -0.272727      8.000000
 -0.272727  0.363636  0.090909      8.000000
  0.090909 -0.272727  0.363636      4.000000
  0.363636  0.090909 -0.272727      8.000000
  0.090909  0.363636 -0.272727      4.000000
 -0.454545  0.454545  0.090909      4.000000
  0.090909 -0.454545  0.454545      8.000000
  0.454545  0.090909 -0.454545      8.000000
 -0.454545  0.090909  0.454545      4.000000
 -0.363636  0.454545  0.090909      8.000000
  0.090909 -0.363636  0.454545      4.000000
  0.454545  0.090909 -0.363636      8.000000
  0.090909  0.454545 -0.363636      4.000000
 -0.454545  0.363636  0.181818      4.000000
  0.181818 -0.454545  0.363636      8.000000
  0.363636  0.181818 -0.454545      8.000000
 -0.454545  0.181818  0.363636      4.000000
 -0.363636  0.363636  0.181818      8.000000
  0.181818 -0.363636  0.363636      8.000000
  0.363636  0.181818 -0.363636      8.000000
  0.363636  0.181818 -0.272727      8.000000
 -0.363636  0.272727  0.454545      8.000000
  0.181818 -0.454545 -0.181818      8.000000
 -0.363636  0.454545  0.181818      4.000000
  0.181818 -0.363636  0.454545      8.000000
  0.454545  0.181818 -0.363636      8.000000
 -0.363636  0.181818  0.454545      4.000000
 -0.272727  0.454545  0.181818      8.000000
  0.181818 -0.272727  0.454545      4.000000
  0.454545  0.181818 -0.272727      8.000000
  0.181818  0.454545 -0.272727      4.000000
 
 Following cartesian coordinates:
            Coordinates               Weight
  0.000000  0.000000  0.000000      1.000000
  0.090909  0.090909 -0.090909      8.000000
  0.181818  0.181818 -0.181818      8.000000
  0.272727  0.272727 -0.272727      8.000000
  0.363636  0.363636 -0.363636      8.000000
  0.454545  0.454545 -0.454545      8.000000
  0.000000  0.181818 -0.000000      4.000000
  0.000000 -0.000000  0.181818      2.000000
  0.090909  0.272727 -0.090909      8.000000
 -0.090909  0.090909  0.272727      8.000000
 -0.090909  0.272727 -0.090909      8.000000
  0.181818  0.363636 -0.181818      8.000000
 -0.181818  0.181818  0.363636      8.000000
 -0.181818  0.363636 -0.181818      8.000000
  0.272727  0.454545 -0.272727      8.000000
 -0.272727  0.272727  0.454545      8.000000
 -0.272727  0.454545 -0.272727      8.000000
  0.363636  0.545455 -0.363636      8.000000
 -0.363636  0.363636  0.545455      8.000000
 -0.363636  0.545455 -0.363636      8.000000
 -0.545455 -0.363636  0.545455      8.000000
  0.545455 -0.545455 -0.363636      8.000000
 -0.454545  0.636364 -0.454545      8.000000
 -0.454545 -0.272727  0.454545      8.000000
  0.454545 -0.454545 -0.272727      8.000000
  0.454545 -0.272727  0.454545      8.000000
 -0.363636 -0.181818  0.363636      8.000000
  0.363636 -0.363636 -0.181818      8.000000
  0.363636 -0.181818  0.363636      8.000000
 -0.272727 -0.090909  0.272727      8.000000
  0.272727 -0.272727 -0.090909      8.000000
  0.272727 -0.090909  0.272727      8.000000
 -0.181818 -0.000000  0.181818      8.000000
  0.181818 -0.181818 -0.000000      4.000000
  0.000000  0.363636  0.000000      4.000000
 -0.000000  0.000000  0.363636      2.000000
  0.090909  0.454545 -0.090909      8.000000
 -0.090909  0.090909  0.454545      8.000000
 -0.090909  0.454545 -0.090909      8.000000
  0.181818  0.545455 -0.181818      8.000000
 -0.181818  0.181818  0.545455      8.000000
 -0.181818  0.545455 -0.181818      8.000000
  0.272727  0.636364 -0.272727      8.000000
 -0.272727  0.272727  0.636364      8.000000
 -0.272727  0.636364 -0.272727      8.000000
 -0.636364 -0.272727  0.636364      8.000000
  0.636364 -0.636364 -0.272727      8.000000
 -0.363636  0.727273 -0.363636      8.000000
 -0.545455 -0.181818  0.545455      8.000000
  0.545455 -0.545455 -0.181818      8.000000
 -0.454545  0.818182 -0.454545      8.000000
 -0.454545 -0.090909  0.454545      8.000000
  0.454545 -0.454545 -0.090909      8.000000
  0.454545 -0.090909  0.454545      8.000000
 -0.363636 -0.000000  0.363636      8.000000
  0.363636 -0.363636 -0.000000      4.000000
  0.000000  0.545455  0.000000      4.000000
  0.000000 -0.000000  0.545455      2.000000
  0.090909  0.636364 -0.090909      8.000000
 -0.090909  0.090909  0.636364      8.000000
 -0.090909  0.636364 -0.090909      8.000000
  0.181818  0.727273 -0.181818      8.000000
 -0.181818  0.181818  0.727273      8.000000
 -0.181818  0.727273 -0.181818      8.000000
 -0.727273 -0.181818  0.727273      8.000000
  0.727273 -0.727273 -0.181818      8.000000
 -0.272727  0.818182 -0.272727      8.000000
 -0.636364 -0.090909  0.636364      8.000000
  0.636364 -0.636364 -0.090909      8.000000
 -0.363636  0.909091 -0.363636      8.000000
 -0.545455 -0.000000  0.545455      8.000000
  0.545455 -0.545455  0.000000      4.000000
  0.000000  0.727273  0.000000      4.000000
  0.000000 -0.000000  0.727273      2.000000
  0.090909  0.818182 -0.090909      8.000000
 -0.090909  0.090909  0.818182      8.000000
 -0.090909  0.818182 -0.090909      8.000000
 -0.818182 -0.090909  0.818182      8.000000
  0.818182 -0.818182 -0.090909      8.000000
 -0.181818  0.909091 -0.181818      8.000000
 -0.727273 -0.000000  0.727273      8.000000
  0.727273 -0.727273  0.000000      4.000000
  0.000000  0.909091  0.000000      4.000000
 -0.000000  0.000000  0.909091      2.000000
 -0.909091 -0.000000  0.909091      8.000000
  0.909091 -0.909091 -0.000000      4.000000
  0.181818  0.363636  0.000000      4.000000
  0.000000  0.181818  0.363636      8.000000
  0.363636 -0.000000  0.181818      8.000000
  0.363636  0.181818 -0.000000      4.000000
  0.272727  0.454545 -0.090909      8.000000
 -0.090909  0.272727  0.454545      8.000000
  0.454545 -0.090909  0.272727      8.000000
 -0.090909  0.454545 -0.272727      8.000000
  0.454545  0.272727  0.090909      8.000000
  0.272727 -0.090909 -0.454545      8.000000
  0.363636  0.545455 -0.181818      8.000000
 -0.181818  0.363636  0.545455      8.000000
  0.545455 -0.181818  0.363636      8.000000
 -0.181818  0.545455 -0.363636      8.000000
  0.545455  0.363636  0.181818      8.000000
  0.363636 -0.181818 -0.545455      8.000000
 -0.545455 -0.363636  0.727273      8.000000
  0.727273 -0.545455 -0.363636      8.000000
 -0.363636  0.727273 -0.545455      8.000000
 -0.272727  0.636364 -0.454545      8.000000
 -0.363636 -0.545455  1.272727      8.000000
  0.454545 -0.272727 -0.636364      8.000000
  0.181818  0.545455 -0.000000      4.000000
  0.000000  0.181818  0.545455      8.000000
  0.545455 -0.000000  0.181818      8.000000
  0.545455  0.181818  0.000000      4.000000
  0.272727  0.636364 -0.090909      8.000000
 -0.090909  0.272727  0.636364      8.000000
  0.636364 -0.090909  0.272727      8.000000
 -0.090909  0.636364 -0.272727      8.000000
  0.636364  0.272727  0.090909      8.000000
  0.272727 -0.090909 -0.636364      8.000000
 -0.636364 -0.272727  0.818182      8.000000
  0.818182 -0.636364 -0.272727      8.000000
 -0.272727  0.818182 -0.636364      8.000000
 -0.181818  0.727273 -0.363636      8.000000
 -0.272727 -0.636364  1.181818      8.000000
  0.363636 -0.181818 -0.727273      8.000000
 -0.545455 -0.181818  0.727273      8.000000
  0.727273 -0.545455 -0.181818      8.000000
 -0.181818  0.727273 -0.545455      8.000000
 -0.272727  0.818182 -0.454545      8.000000
 -1.181818  0.454545  0.272727      8.000000
 -0.545455  0.727273  0.181818      8.000000
 -0.454545 -0.090909  0.636364      8.000000
  0.636364 -0.454545 -0.090909      8.000000
 -0.090909  0.636364 -0.454545      8.000000
 -0.363636  0.909091 -0.545455      8.000000
 -1.090909  0.545455  0.363636      8.000000
 -0.454545  0.636364  0.090909      8.000000
 -0.363636 -0.000000  0.545455      8.000000
  0.545455 -0.363636  0.000000      4.000000
  0.000000  0.545455 -0.363636      8.000000
 -0.363636  0.545455  0.000000      4.000000
  0.181818  0.727273  0.000000      4.000000
  0.000000  0.181818  0.727273      8.000000
  0.727273  0.000000  0.181818      8.000000
  0.727273  0.181818 -0.000000      4.000000
 -0.727273 -0.181818  0.909091      8.000000
  0.909091 -0.727273 -0.181818      8.000000
 -0.181818  0.909091 -0.727273      8.000000
 -0.090909  0.818182 -0.272727      8.000000
 -0.181818 -0.727273  1.090909      8.000000
  0.272727 -0.090909 -0.818182      8.000000
 -0.636364 -0.090909  0.818182      8.000000
  0.818182 -0.636364 -0.090909      8.000000
 -0.090909  0.818182 -0.636364      8.000000
 -0.181818  0.909091 -0.363636      8.000000
 -1.090909  0.363636  0.181818      8.000000
 -0.636364  0.818182  0.090909      8.000000
 -0.545455 -0.000000  0.727273      8.000000
  0.727273 -0.545455  0.000000      4.000000
 -0.000000  0.727273 -0.545455      8.000000
 -0.545455  0.727273 -0.000000      4.000000
 -0.818182 -0.090909  1.000000      4.000000
  1.000000 -0.818182 -0.090909      8.000000
 -0.090909  1.000000 -0.818182      8.000000
 -0.090909 -0.818182  1.000000      4.000000
 -0.727273 -0.000000  0.909091      8.000000
  0.909091 -0.727273 -0.000000      4.000000
 -0.000000  0.909091 -0.727273      8.000000
 -0.727273  0.909091  0.000000      4.000000
 -0.636364 -0.272727  1.000000      4.000000
  1.000000 -0.636364 -0.272727      8.000000
 -0.272727  1.000000 -0.636364      8.000000
 -0.272727 -0.636364  1.000000      4.000000
 -0.545455 -0.181818  0.909091      8.000000
  0.909091 -0.545455 -0.181818      8.000000
 -0.181818  0.909091 -0.545455      8.000000
 -0.090909  0.818182 -0.454545      8.000000
 -0.181818 -0.545455  1.090909      8.000000
  0.454545 -0.090909 -0.818182      8.000000
 -0.636364 -0.090909  1.000000      4.000000
  1.000000 -0.636364 -0.090909      8.000000
 -0.090909  1.000000 -0.636364      8.000000
 -0.090909 -0.636364  1.000000      4.000000
 -0.545455 -0.000000  0.909091      8.000000
  0.909091 -0.545455 -0.000000      4.000000
  0.000000  0.909091 -0.545455      8.000000
 -0.545455  0.909091 -0.000000      4.000000
 


--------------------------------------------------------------------------------------------------------




 Dimension of arrays:
   k-points           NKPTS =    186   k-points in BZ     NKDIM =    186   number of bands    NBANDS=     20
   number of dos      NEDOS =    301   number of ions     NIONS =      1
   non local maximal  LDIM  =      6   non local SUM 2l+1 LMDIM =     18
   total plane-waves  NPLWV =   1000
   max r-space proj   IRMAX =      1   max aug-charges    IRDMAX=   3165
   dimension x,y,z NGX =    10 NGY =   10 NGZ =   10
   dimension x,y,z NGXF=    20 NGYF=   20 NGZF=   20
   support grid    NGXF=    20 NGYF=   20 NGZF=   20
   ions per type =               1
   NGX,Y,Z   is equivalent  to a cutoff of   6.67,  6.67,  6.67 a.u.
   NGXF,Y,Z  is equivalent  to a cutoff of  13.35, 13.35, 13.35 a.u.

 SYSTEM =  Ni fcc bulk                             
 POSCAR =  fcc Ni                                  

 Startparameter for this run:
   NWRITE =      2    write-flag & timer
   PREC   = normal    normal or accurate (medium, high low for compatibility)
   ISTART =      0    job   : 0-new  1-cont  2-samecut
   ICHARG =      2    charge: 1-file 2-atom 10-const
   ISPIN  =      1    spin polarized calculation?
   LNONCOLLINEAR =      T non collinear calculations
   LSORBIT =      F    spin-orbit coupling
   INIWAV =      1    electr: 0-lowe 1-rand  2-diag
   LASPH  =      F    aspherical Exc in radial PAW
 Electronic Relaxation 1
   ENCUT  =  269.5 eV  19.81 Ry    4.45 a.u.   3.33  3.33  3.33*2*pi/ulx,y,z
   ENINI  =  269.5     initial cutoff
   ENAUG  =  544.6 eV  augmentation charge cutoff
   NELM   =     60;   NELMIN=  2; NELMDL= -5     # of ELM steps 
   EDIFF  = 0.1E-03   stopping-criterion for ELM
   LREAL  =      F    real-space projection
   NLSPLINE    = F    spline interpolate recip. space projectors
   LCOMPAT=      F    compatible to vasp.4.4
   GGA_COMPAT  = T    GGA compatible to vasp.4.4-vasp.4.6
   LMAXPAW     = -100 max onsite density
   LMAXMIX     =    2 max onsite mixed and CHGCAR
   VOSKOWN=      1    Vosko Wilk Nusair interpolation
   ROPT   =    0.00000
 Ionic relaxation
   EDIFFG = 0.1E-02   stopping-criterion for IOM
   NSW    =      0    number of steps for IOM
   NBLOCK =      1;   KBLOCK =      1    inner block; outer block 
   IBRION =     -1    ionic relax: 0-MD 1-quasi-New 2-CG
   NFREE  =      0    steps in history (QN), initial steepest desc. (CG)
   ISIF   =      2    stress and relaxation
   IWAVPR =     10    prediction:  0-non 1-charg 2-wave 3-comb
   ISYM   =      2    0-nonsym 1-usesym 2-fastsym
   LCORR  =      T    Harris-Foulkes like correction to forces

   POTIM  = 0.5000    time-step for ionic-motion
   TEIN   =    0.0    initial temperature
   TEBEG  =    0.0;   TEEND  =   0.0 temperature during run
   SMASS  =  -3.00    Nose mass-parameter (am)
   estimated Nose-frequenzy (Omega)   =  0.10E-29 period in steps = 0.13E+47 mass=  -0.142E-27a.u.
   SCALEE = 1.0000    scale energy and forces
   NPACO  =    256;   APACO  = 10.0  distance and # of slots for P.C.
   PSTRESS=    0.0 pullay stress

  Mass of Ions in am
   POMASS =  58.69
  Ionic Valenz
   ZVAL   =  10.00
  Atomic Wigner-Seitz radii
   RWIGS  =  -1.00
  virtual crystal weights 
   VCA    =   1.00
   NELECT =      10.0000    total number of electrons
   NUPDOWN=      -1.0000    fix difference up-down

 DOS related values:
   EMIN   =  10.00;   EMAX   =-10.00  energy-range for DOS
   EFERMI =   0.00
   ISMEAR =    -5;   SIGMA  =   0.20  broadening in eV -4-tet -1-fermi 0-gaus

 Electronic relaxation 2 (details)
   IALGO  =     38    algorithm
   LDIAG  =      T    sub-space diagonalisation (order eigenvalues)
   LSUBROT=      F    optimize rotation matrix (better conditioning)
   TURBO    =      0    0=normal 1=particle mesh
   IRESTART =      0    0=no restart 2=restart with 2 vectors
   NREBOOT  =      0    no. of reboots
   NMIN     =      0    reboot dimension
   EREF     =   0.00    reference energy to select bands
   IMIX   =      4    mixing-type and parameters
     AMIX     =   0.40;   BMIX     =  1.00
     AMIX_MAG =   1.60;   BMIX_MAG =  1.00
     AMIN     =   0.10
     WC   =   100.;   INIMIX=   1;  MIXPRE=   1;  MAXMIX= -45

 Intra band minimization:
   WEIMIN = 0.0000     energy-eigenvalue tresh-hold
   EBREAK =  0.13E-05  absolut break condition
   DEPER  =   0.30     relativ break condition  

   TIME   =   0.40     timestep for ELM

  volume/ion in A,a.u.               =      10.93        73.76
  Fermi-wavevector in a.u.,A,eV,Ry     =   1.589284  3.003311 34.365906  2.525823
  Thomas-Fermi vector in A             =   2.688157
 
 Write flags
   LWAVE        =      T    write WAVECAR
   LDOWNSAMPLE  =      F    k-point downsampling of WAVECAR
   LCHARG       =      T    write CHGCAR
   LVTOT        =      F    write LOCPOT, total local potential
   LVHAR        =      F    write LOCPOT, Hartree potential only
   LELF         =      F    write electronic localiz. function (ELF)
   LORBIT       =     11    0 simple, 1 ext, 2 COOP (PROOUT), +10 PAW based schemes


 Dipole corrections
   LMONO  =      F    monopole corrections only (constant potential shift)
   LDIPOL =      F    correct potential (dipole corrections)
   IDIPOL =      0    1-x, 2-y, 3-z, 4-all directions 
   EPSILON=  1.0000000 bulk dielectric constant

 Exchange correlation treatment:
   GGA     =    --    GGA type
   LEXCH   =     8    internal setting for exchange type
   LIBXC   =     F    Libxc                    
   VOSKOWN =     1    Vosko Wilk Nusair interpolation
   LHFCALC =     F    Hartree Fock is set to
   LHFONE  =     F    Hartree Fock one center treatment
   AEXX    =    0.0000 exact exchange contribution

 Linear response parameters
   LEPSILON=     F    determine dielectric tensor
   LRPA    =     F    only Hartree local field effects (RPA)
   LNABLA  =     F    use nabla operator in PAW spheres
   LVEL    =     F    velocity operator in full k-point grid
   CSHIFT  =0.1000    complex shift for real part using Kramers Kronig
   OMEGAMAX=  -1.0    maximum frequency
   DEG_THRESHOLD= 0.2000000E-02 threshold for treating states as degnerate
   RTIME   =   -0.100 relaxation time in fs
  (WPLASMAI=    0.000 imaginary part of plasma frequency in eV, 0.658/RTIME)
   DFIELD  = 0.0000000 0.0000000 0.0000000 field for delta impulse in time
 
  Optional k-point grid parameters
   LKPOINTS_OPT  =     F    use optional k-point grid
   KPOINTS_OPT_MODE=     1    mode for optional k-point grid
 
 Orbital magnetization related:
   ORBITALMAG=     F  switch on orbital magnetization
   LCHIMAG   =     F  perturbation theory with respect to B field
   DQ        =  0.001000  dq finite difference perturbation B field
   LLRAUG    =     F  two centre corrections for induced B field



--------------------------------------------------------------------------------------------------------


 Static calculation
 charge density and potential will be updated during run
 non collinear spin polarized calculation
 Variant of blocked Davidson
 Davidson routine will perform the subspace rotation
 perform sub-space diagonalisation
    after iterative eigenvector-optimisation
 modified Broyden-mixing scheme, WC =      100.0
 initial mixing is a Kerker type mixing with AMIX =  0.4000 and BMIX =      1.0000
 Hartree-type preconditioning will be used
 using additional bands           15
 reciprocal scheme for non local part
 use partial core corrections
 calculate Harris-corrections to forces 
   (improved forces if not selfconsistent)
 use gradient corrections 
 use of overlap-Matrix (Vanderbilt PP)
 Fermi weights with tetrahedron method with Bloechl corrections


--------------------------------------------------------------------------------------------------------


  energy-cutoff  :      269.53
  volume of cell :       10.93
      direct lattice vectors                 reciprocal lattice vectors
     1.761421888  1.761421888  0.000000000     0.283861580  0.283861580 -0.283861580
     0.000000000  1.761421888  1.761421888    -0.283861580  0.283861580  0.283861580
     1.761421888  0.000000000  1.761421888     0.283861580 -0.283861580  0.283861580

  length of vectors
     2.491026723  2.491026723  2.491026723     0.491662679  0.491662679  0.491662679


 
 k-points in units of 2pi/SCALE and weight: k-points                                
   0.00000000  0.00000000  0.00000000       0.001
   0.09090909  0.09090909 -0.09090909       0.006
   0.18181818  0.18181818 -0.18181818       0.006
   0.27272727  0.27272727 -0.27272727       0.006
   0.36363636  0.36363636 -0.36363636       0.006
   0.45454545  0.45454545 -0.45454545       0.006
   0.00000000  0.18181818 -0.00000000       0.003
   0.00000000 -0.00000000  0.18181818       0.002
   0.09090909  0.27272727 -0.09090909       0.006
  -0.09090909  0.09090909  0.27272727       0.006
  -0.09090909  0.27272727 -0.09090909       0.006
   0.18181818  0.36363636 -0.18181818       0.006
  -0.18181818  0.18181818  0.36363636       0.006
  -0.18181818  0.36363636 -0.18181818       0.006
   0.27272727  0.45454545 -0.27272727       0.006
  -0.27272727  0.27272727  0.45454545       0.006
  -0.27272727  0.45454545 -0.27272727       0.006
   0.36363636  0.54545455 -0.36363636       0.006
  -0.36363636  0.36363636  0.54545455       0.006
  -0.36363636  0.54545455 -0.36363636       0.006
  -0.54545455 -0.36363636  0.54545455       0.006
   0.54545455 -0.54545455 -0.36363636       0.006
  -0.45454545  0.63636364 -0.45454545       0.006
  -0.45454545 -0.27272727  0.45454545       0.006
   0.45454545 -0.45454545 -0.27272727       0.006
   0.45454545 -0.27272727  0.45454545       0.006
  -0.36363636 -0.18181818  0.36363636       0.006
   0.36363636 -0.36363636 -0.18181818       0.006
   0.36363636 -0.18181818  0.36363636       0.006
  -0.27272727 -0.09090909  0.27272727       0.006
   0.27272727 -0.27272727 -0.09090909       0.006
   0.27272727 -0.09090909  0.27272727       0.006
  -0.18181818 -0.00000000  0.18181818       0.006
   0.18181818 -0.18181818 -0.00000000       0.003
   0.00000000  0.36363636  0.00000000       0.003
  -0.00000000  0.00000000  0.36363636       0.002
   0.09090909  0.45454545 -0.09090909       0.006
  -0.09090909  0.09090909  0.45454545       0.006
  -0.09090909  0.45454545 -0.09090909       0.006
   0.18181818  0.54545455 -0.18181818       0.006
  -0.18181818  0.18181818  0.54545455       0.006
  -0.18181818  0.54545455 -0.18181818       0.006
   0.27272727  0.63636364 -0.27272727       0.006
  -0.27272727  0.27272727  0.63636364       0.006
  -0.27272727  0.63636364 -0.27272727       0.006
  -0.63636364 -0.27272727  0.63636364       0.006
   0.63636364 -0.63636364 -0.27272727       0.006
  -0.36363636  0.72727273 -0.36363636       0.006
  -0.54545455 -0.18181818  0.54545455       0.006
   0.54545455 -0.54545455 -0.18181818       0.006
  -0.45454545  0.81818182 -0.45454545       0.006
  -0.45454545 -0.09090909  0.45454545       0.006
   0.45454545 -0.45454545 -0.09090909       0.006
   0.45454545 -0.09090909  0.45454545       0.006
  -0.36363636 -0.00000000  0.36363636       0.006
   0.36363636 -0.36363636 -0.00000000       0.003
   0.00000000  0.54545455  0.00000000       0.003
   0.00000000 -0.00000000  0.54545455       0.002
   0.09090909  0.63636364 -0.09090909       0.006
  -0.09090909  0.09090909  0.63636364       0.006
  -0.09090909  0.63636364 -0.09090909       0.006
   0.18181818  0.72727273 -0.18181818       0.006
  -0.18181818  0.18181818  0.72727273       0.006
  -0.18181818  0.72727273 -0.18181818       0.006
  -0.72727273 -0.18181818  0.72727273       0.006
   0.72727273 -0.72727273 -0.18181818       0.006
  -0.27272727  0.81818182 -0.27272727       0.006
  -0.63636364 -0.09090909  0.63636364       0.006
   0.63636364 -0.63636364 -0.09090909       0.006
  -0.36363636  0.90909091 -0.36363636       0.006
  -0.54545455 -0.00000000  0.54545455       0.006
   0.54545455 -0.54545455  0.00000000       0.003
   0.00000000  0.72727273  0.00000000       0.003
   0.00000000 -0.00000000  0.72727273       0.002
   0.09090909  0.81818182 -0.09090909       0.006
  -0.09090909  0.09090909  0.81818182       0.006
  -0.09090909  0.81818182 -0.09090909       0.006
  -0.81818182 -0.09090909  0.81818182       0.006
   0.81818182 -0.81818182 -0.09090909       0.006
  -0.18181818  0.90909091 -0.18181818       0.006
  -0.72727273 -0.00000000  0.72727273       0.006
   0.72727273 -0.72727273  0.00000000       0.003
   0.00000000  0.90909091  0.00000000       0.003
  -0.00000000  0.00000000  0.90909091       0.002
  -0.90909091 -0.00000000  0.90909091       0.006
   0.90909091 -0.90909091 -0.00000000       0.003
   0.18181818  0.36363636  0.00000000       0.003
   0.00000000  0.18181818  0.36363636       0.006
   0.36363636 -0.00000000  0.18181818       0.006
   0.36363636  0.18181818 -0.00000000       0.003
   0.27272727  0.45454545 -0.09090909       0.006
  -0.09090909  0.27272727  0.45454545       0.006
   0.45454545 -0.09090909  0.27272727       0.006
  -0.09090909  0.45454545 -0.27272727       0.006
   0.45454545  0.27272727  0.09090909       0.006
   0.27272727 -0.09090909 -0.45454545       0.006
   0.36363636  0.54545455 -0.18181818       0.006
  -0.18181818  0.36363636  0.54545455       0.006
   0.54545455 -0.18181818  0.36363636       0.006
  -0.18181818  0.54545455 -0.36363636       0.006
   0.54545455  0.36363636  0.18181818       0.006
   0.36363636 -0.18181818 -0.54545455       0.006
  -0.54545455 -0.36363636  0.72727273       0.006
   0.72727273 -0.54545455 -0.36363636       0.006
  -0.36363636  0.72727273 -0.54545455       0.006
  -0.27272727  0.63636364 -0.45454545       0.006
  -0.36363636 -0.54545455  1.27272727       0.006
   0.45454545 -0.27272727 -0.63636364       0.006
   0.18181818  0.54545455 -0.00000000       0.003
   0.00000000  0.18181818  0.54545455       0.006
   0.54545455 -0.00000000  0.18181818       0.006
   0.54545455  0.18181818  0.00000000       0.003
   0.27272727  0.63636364 -0.09090909       0.006
  -0.09090909  0.27272727  0.63636364       0.006
   0.63636364 -0.09090909  0.27272727       0.006
  -0.09090909  0.63636364 -0.27272727       0.006
   0.63636364  0.27272727  0.09090909       0.006
   0.27272727 -0.09090909 -0.63636364       0.006
  -0.63636364 -0.27272727  0.81818182       0.006
   0.81818182 -0.63636364 -0.27272727       0.006
  -0.27272727  0.81818182 -0.63636364       0.006
  -0.18181818  0.72727273 -0.36363636       0.006
  -0.27272727 -0.63636364  1.18181818       0.006
   0.36363636 -0.18181818 -0.72727273       0.006
  -0.54545455 -0.18181818  0.72727273       0.006
   0.72727273 -0.54545455 -0.18181818       0.006
  -0.18181818  0.72727273 -0.54545455       0.006
  -0.27272727  0.81818182 -0.45454545       0.006
  -1.18181818  0.45454545  0.27272727       0.006
  -0.54545455  0.72727273  0.18181818       0.006
  -0.45454545 -0.09090909  0.63636364       0.006
   0.63636364 -0.45454545 -0.09090909       0.006
  -0.09090909  0.63636364 -0.45454545       0.006
  -0.36363636  0.90909091 -0.54545455       0.006
  -1.09090909  0.54545455  0.36363636       0.006
  -0.45454545  0.63636364  0.09090909       0.006
  -0.36363636 -0.00000000  0.54545455       0.006
   0.54545455 -0.36363636  0.00000000       0.003
   0.00000000  0.54545455 -0.36363636       0.006
  -0.36363636  0.54545455  0.00000000       0.003
   0.18181818  0.72727273  0.00000000       0.003
   0.00000000  0.18181818  0.72727273       0.006
   0.72727273  0.00000000  0.18181818       0.006
   0.72727273  0.18181818 -0.00000000       0.003
  -0.72727273 -0.18181818  0.90909091       0.006
   0.90909091 -0.72727273 -0.18181818       0.006
  -0.18181818  0.90909091 -0.72727273       0.006
  -0.09090909  0.81818182 -0.27272727       0.006
  -0.18181818 -0.72727273  1.09090909       0.006
   0.27272727 -0.09090909 -0.81818182       0.006
  -0.63636364 -0.09090909  0.81818182       0.006
   0.81818182 -0.63636364 -0.09090909       0.006
  -0.09090909  0.81818182 -0.63636364       0.006
  -0.18181818  0.90909091 -0.36363636       0.006
  -1.09090909  0.36363636  0.18181818       0.006
  -0.63636364  0.81818182  0.09090909       0.006
  -0.54545455 -0.00000000  0.72727273       0.006
   0.72727273 -0.54545455  0.00000000       0.003
  -0.00000000  0.72727273 -0.54545455       0.006
  -0.54545455  0.72727273 -0.00000000       0.003
  -0.81818182 -0.09090909  1.00000000       0.003
   1.00000000 -0.81818182 -0.09090909       0.006
  -0.09090909  1.00000000 -0.81818182       0.006
  -0.09090909 -0.81818182  1.00000000       0.003
  -0.72727273 -0.00000000  0.90909091       0.006
   0.90909091 -0.72727273 -0.00000000       0.003
  -0.00000000  0.90909091 -0.72727273       0.006
  -0.72727273  0.90909091  0.00000000       0.003
  -0.63636364 -0.27272727  1.00000000       0.003
   1.00000000 -0.63636364 -0.27272727       0.006
  -0.27272727  1.00000000 -0.63636364       0.006
  -0.27272727 -0.63636364  1.00000000       0.003
  -0.54545455 -0.18181818  0.90909091       0.006
   0.90909091 -0.54545455 -0.18181818       0.006
  -0.18181818  0.90909091 -0.54545455       0.006
  -0.09090909  0.81818182 -0.45454545       0.006
  -0.18181818 -0.54545455  1.09090909       0.006
   0.45454545 -0.09090909 -0.81818182       0.006
  -0.63636364 -0.09090909  1.00000000       0.003
   1.00000000 -0.63636364 -0.09090909       0.006
  -0.09090909  1.00000000 -0.63636364       0.006
  -0.09090909 -0.63636364  1.00000000       0.003
  -0.54545455 -0.00000000  0.90909091       0.006
   0.90909091 -0.54545455 -0.00000000       0.003
   0.00000000  0.90909091 -0.54545455       0.006
  -0.54545455  0.90909091 -0.00000000       0.003
 
 k-points in reciprocal lattice and weights: k-points                                
   0.00000000  0.00000000  0.00000000       0.001
   0.09090909  0.00000000  0.00000000       0.006
   0.18181818 -0.00000000 -0.00000000       0.006
   0.27272727 -0.00000000 -0.00000000       0.006
   0.36363636 -0.00000000 -0.00000000       0.006
   0.45454545 -0.00000000  0.00000000       0.006
   0.09090909  0.09090909 -0.00000000       0.003
   0.00000000  0.09090909  0.09090909       0.002
   0.18181818  0.09090909  0.00000000       0.006
   0.00000000  0.18181818  0.09090909       0.006
   0.09090909  0.09090909 -0.09090909       0.006
   0.27272727  0.09090909  0.00000000       0.006
   0.00000000  0.27272727  0.09090909       0.006
   0.09090909  0.09090909 -0.18181818       0.006
   0.36363636  0.09090909  0.00000000       0.006
   0.00000000  0.36363636  0.09090909       0.006
   0.09090909  0.09090909 -0.27272727       0.006
   0.45454545  0.09090909  0.00000000       0.006
   0.00000000  0.45454545  0.09090909       0.006
   0.09090909  0.09090909 -0.36363636       0.006
  -0.45454545  0.09090909  0.00000000       0.006
  -0.00000000 -0.45454545  0.09090909       0.006
   0.09090909  0.09090909 -0.45454545       0.006
  -0.36363636  0.09090909 -0.00000000       0.006
  -0.00000000 -0.36363636  0.09090909       0.006
   0.09090909  0.09090909  0.45454545       0.006
  -0.27272727  0.09090909  0.00000000       0.006
  -0.00000000 -0.27272727  0.09090909       0.006
   0.09090909  0.09090909  0.36363636       0.006
  -0.18181818  0.09090909  0.00000000       0.006
  -0.00000000 -0.18181818  0.09090909       0.006
   0.09090909  0.09090909  0.27272727       0.006
  -0.09090909  0.09090909 -0.00000000       0.006
  -0.00000000 -0.09090909  0.09090909       0.003
   0.18181818  0.18181818  0.00000000       0.003
   0.00000000  0.18181818  0.18181818       0.002
   0.27272727  0.18181818  0.00000000       0.006
   0.00000000  0.27272727  0.18181818       0.006
   0.18181818  0.18181818 -0.09090909       0.006
   0.36363636  0.18181818  0.00000000       0.006
   0.00000000  0.36363636  0.18181818       0.006
   0.18181818  0.18181818 -0.18181818       0.006
   0.45454545  0.18181818  0.00000000       0.006
   0.00000000  0.45454545  0.18181818       0.006
   0.18181818  0.18181818 -0.27272727       0.006
  -0.45454545  0.18181818 -0.00000000       0.006
  -0.00000000 -0.45454545  0.18181818       0.006
   0.18181818  0.18181818 -0.36363636       0.006
  -0.36363636  0.18181818  0.00000000       0.006
   0.00000000 -0.36363636  0.18181818       0.006
   0.18181818  0.18181818 -0.45454545       0.006
  -0.27272727  0.18181818  0.00000000       0.006
   0.00000000 -0.27272727  0.18181818       0.006
   0.18181818  0.18181818  0.45454545       0.006
  -0.18181818  0.18181818  0.00000000       0.006
   0.00000000 -0.18181818  0.18181818       0.003
   0.27272727  0.27272727  0.00000000       0.003
   0.00000000  0.27272727  0.27272727       0.002
   0.36363636  0.27272727  0.00000000       0.006
   0.00000000  0.36363636  0.27272727       0.006
   0.27272727  0.27272727 -0.09090909       0.006
   0.45454545  0.27272727  0.00000000       0.006
   0.00000000  0.45454545  0.27272727       0.006
   0.27272727  0.27272727 -0.18181818       0.006
  -0.45454545  0.27272727 -0.00000000       0.006
   0.00000000 -0.45454545  0.27272727       0.006
   0.27272727  0.27272727 -0.27272727       0.006
  -0.36363636  0.27272727  0.00000000       0.006
   0.00000000 -0.36363636  0.27272727       0.006
   0.27272727  0.27272727 -0.36363636       0.006
  -0.27272727  0.27272727  0.00000000       0.006
   0.00000000 -0.27272727  0.27272727       0.003
   0.36363636  0.36363636  0.00000000       0.003
   0.00000000  0.36363636  0.36363636       0.002
   0.45454545  0.36363636  0.00000000       0.006
   0.00000000  0.45454545  0.36363636       0.006
   0.36363636  0.36363636 -0.09090909       0.006
  -0.45454545  0.36363636 -0.00000000       0.006
   0.00000000 -0.45454545  0.36363636       0.006
   0.36363636  0.36363636 -0.18181818       0.006
  -0.36363636  0.36363636  0.00000000       0.006
   0.00000000 -0.36363636  0.36363636       0.003
   0.45454545  0.45454545  0.00000000       0.003
   0.00000000  0.45454545  0.45454545       0.002
  -0.45454545  0.45454545  0.00000000       0.006
   0.00000000 -0.45454545  0.45454545       0.003
   0.27272727  0.18181818  0.09090909       0.003
   0.09090909  0.27272727  0.18181818       0.006
   0.18181818  0.09090909  0.27272727       0.006
   0.27272727  0.09090909  0.18181818       0.003
   0.36363636  0.18181818  0.09090909       0.006
   0.09090909  0.36363636  0.18181818       0.006
   0.18181818  0.09090909  0.36363636       0.006
   0.18181818  0.09090909 -0.18181818       0.006
   0.36363636  0.18181818  0.27272727       0.006
   0.09090909 -0.27272727 -0.09090909       0.006
   0.45454545  0.18181818  0.09090909       0.006
   0.09090909  0.45454545  0.18181818       0.006
   0.18181818  0.09090909  0.45454545       0.006
   0.18181818  0.09090909 -0.27272727       0.006
   0.45454545  0.27272727  0.36363636       0.006
   0.09090909 -0.36363636 -0.09090909       0.006
  -0.45454545  0.18181818  0.09090909       0.006
   0.09090909 -0.45454545  0.18181818       0.006
   0.18181818  0.09090909 -0.45454545       0.006
   0.18181818  0.09090909 -0.36363636       0.006
  -0.45454545  0.36363636  0.45454545       0.006
   0.09090909 -0.45454545 -0.09090909       0.006
   0.36363636  0.27272727  0.09090909       0.003
   0.09090909  0.36363636  0.27272727       0.006
   0.27272727  0.09090909  0.36363636       0.006
   0.36363636  0.09090909  0.27272727       0.003
   0.45454545  0.27272727  0.09090909       0.006
   0.09090909  0.45454545  0.27272727       0.006
   0.27272727  0.09090909  0.45454545       0.006
   0.27272727  0.18181818 -0.18181818       0.006
   0.45454545  0.18181818  0.36363636       0.006
   0.09090909 -0.36363636 -0.18181818       0.006
  -0.45454545  0.27272727  0.09090909       0.006
   0.09090909 -0.45454545  0.27272727       0.006
   0.27272727  0.09090909 -0.45454545       0.006
   0.27272727  0.18181818 -0.27272727       0.006
  -0.45454545  0.27272727  0.45454545       0.006
   0.09090909 -0.45454545 -0.18181818       0.006
  -0.36363636  0.27272727  0.09090909       0.006
   0.09090909 -0.36363636  0.27272727       0.006
   0.27272727  0.09090909 -0.36363636       0.006
   0.27272727  0.18181818 -0.36363636       0.006
  -0.36363636  0.36363636 -0.45454545       0.006
   0.09090909  0.45454545 -0.18181818       0.006
  -0.27272727  0.27272727  0.09090909       0.006
   0.09090909 -0.27272727  0.27272727       0.006
   0.27272727  0.09090909 -0.27272727       0.006
   0.27272727  0.18181818 -0.45454545       0.006
  -0.27272727  0.45454545 -0.36363636       0.006
   0.09090909  0.36363636 -0.18181818       0.006
  -0.18181818  0.27272727  0.09090909       0.006
   0.09090909 -0.18181818  0.27272727       0.003
   0.27272727  0.09090909 -0.18181818       0.006
   0.09090909  0.27272727 -0.18181818       0.003
   0.45454545  0.36363636  0.09090909       0.003
   0.09090909  0.45454545  0.36363636       0.006
   0.36363636  0.09090909  0.45454545       0.006
   0.45454545  0.09090909  0.36363636       0.003
  -0.45454545  0.36363636  0.09090909       0.006
   0.09090909 -0.45454545  0.36363636       0.006
   0.36363636  0.09090909 -0.45454545       0.006
   0.36363636  0.27272727 -0.18181818       0.006
  -0.45454545  0.18181818  0.45454545       0.006
   0.09090909 -0.45454545 -0.27272727       0.006
  -0.36363636  0.36363636  0.09090909       0.006
   0.09090909 -0.36363636  0.36363636       0.006
   0.36363636  0.09090909 -0.36363636       0.006
   0.36363636  0.27272727 -0.27272727       0.006
  -0.36363636  0.27272727 -0.45454545       0.006
   0.09090909  0.45454545 -0.27272727       0.006
  -0.27272727  0.36363636  0.09090909       0.006
   0.09090909 -0.27272727  0.36363636       0.003
   0.36363636  0.09090909 -0.27272727       0.006
   0.09090909  0.36363636 -0.27272727       0.003
  -0.45454545  0.45454545  0.09090909       0.003
   0.09090909 -0.45454545  0.45454545       0.006
   0.45454545  0.09090909 -0.45454545       0.006
  -0.45454545  0.09090909  0.45454545       0.003
  -0.36363636  0.45454545  0.09090909       0.006
   0.09090909 -0.36363636  0.45454545       0.003
   0.45454545  0.09090909 -0.36363636       0.006
   0.09090909  0.45454545 -0.36363636       0.003
  -0.45454545  0.36363636  0.18181818       0.003
   0.18181818 -0.45454545  0.36363636       0.006
   0.36363636  0.18181818 -0.45454545       0.006
  -0.45454545  0.18181818  0.36363636       0.003
  -0.36363636  0.36363636  0.18181818       0.006
   0.18181818 -0.36363636  0.36363636       0.006
   0.36363636  0.18181818 -0.36363636       0.006
   0.36363636  0.18181818 -0.27272727       0.006
  -0.36363636  0.27272727  0.45454545       0.006
   0.18181818 -0.45454545 -0.18181818       0.006
  -0.36363636  0.45454545  0.18181818       0.003
   0.18181818 -0.36363636  0.45454545       0.006
   0.45454545  0.18181818 -0.36363636       0.006
  -0.36363636  0.18181818  0.45454545       0.003
  -0.27272727  0.45454545  0.18181818       0.006
   0.18181818 -0.27272727  0.45454545       0.003
   0.45454545  0.18181818 -0.27272727       0.006
   0.18181818  0.45454545 -0.27272727       0.003
 
 position of ions in fractional coordinates (direct lattice) 
   0.00000000  0.00000000  0.00000000
 
 position of ions in cartesian coordinates  (Angst):
   0.00000000  0.00000000  0.00000000
 
 Euler angles ALPHA=     0.0000000  BETA=     0.0000000

 transformation matrix from SAXIS to cartesian coordinates
 ---------------------------------------------------------
     1.0000000 m_x     0.0000000 m_y     0.0000000 m_z
     0.0000000 m_x     1.0000000 m_y     0.0000000 m_z
     0.0000000 m_x     0.0000000 m_y     1.0000000 m_z

 transformation matrix from cartesian coordinates to SAXIS
 ---------------------------------------------------------
     1.0000000 m_x     0.0000000 m_y     0.0000000 m_z
     0.0000000 m_x     1.0000000 m_y     0.0000000 m_z
     0.0000000 m_x     0.0000000 m_y     1.0000000 m_z




--------------------------------------------------------------------------------------------------------


 k-point   1 :   0.0000 0.0000 0.0000  plane waves:     226
 k-point   2 :   0.0909 0.0000 0.0000  plane waves:     226
 k-point   3 :   0.1818-0.0000-0.0000  plane waves:     220
 k-point   4 :   0.2727-0.0000-0.0000  plane waves:     226
 k-point   5 :   0.3636-0.0000-0.0000  plane waves:     222
 k-point   6 :   0.4545-0.0000 0.0000  plane waves:     216
 k-point   7 :   0.0909 0.0909-0.0000  plane waves:     226
 k-point   8 :   0.0000 0.0909 0.0909  plane waves:     226
 k-point   9 :   0.1818 0.0909 0.0000  plane waves:     232
 k-point  10 :   0.0000 0.1818 0.0909  plane waves:     232
 k-point  11 :   0.0909 0.0909-0.0909  plane waves:     232
 k-point  12 :   0.2727 0.0909 0.0000  plane waves:     220
 k-point  13 :   0.0000 0.2727 0.0909  plane waves:     220
 k-point  14 :   0.0909 0.0909-0.1818  plane waves:     220
 k-point  15 :   0.3636 0.0909 0.0000  plane waves:     218
 k-point  16 :   0.0000 0.3636 0.0909  plane waves:     218
 k-point  17 :   0.0909 0.0909-0.2727  plane waves:     218
 k-point  18 :   0.4545 0.0909 0.0000  plane waves:     224
 k-point  19 :   0.0000 0.4545 0.0909  plane waves:     224
 k-point  20 :   0.0909 0.0909-0.3636  plane waves:     224
 k-point  21 :  -0.4545 0.0909 0.0000  plane waves:     224
 k-point  22 :  -0.0000-0.4545 0.0909  plane waves:     224
 k-point  23 :   0.0909 0.0909-0.4545  plane waves:     224
 k-point  24 :  -0.3636 0.0909-0.0000  plane waves:     214
 k-point  25 :  -0.0000-0.3636 0.0909  plane waves:     214
 k-point  26 :   0.0909 0.0909 0.4545  plane waves:     214
 k-point  27 :  -0.2727 0.0909 0.0000  plane waves:     218
 k-point  28 :  -0.0000-0.2727 0.0909  plane waves:     218
 k-point  29 :   0.0909 0.0909 0.3636  plane waves:     218
 k-point  30 :  -0.1818 0.0909 0.0000  plane waves:     224
 k-point  31 :  -0.0000-0.1818 0.0909  plane waves:     224
 k-point  32 :   0.0909 0.0909 0.2727  plane waves:     224
 k-point  33 :  -0.0909 0.0909-0.0000  plane waves:     230
 k-point  34 :  -0.0000-0.0909 0.0909  plane waves:     230
 k-point  35 :   0.1818 0.1818 0.0000  plane waves:     226
 k-point  36 :   0.0000 0.1818 0.1818  plane waves:     226
 k-point  37 :   0.2727 0.1818 0.0000  plane waves:     222
 k-point  38 :   0.0000 0.2727 0.1818  plane waves:     222
 k-point  39 :   0.1818 0.1818-0.0909  plane waves:     222
 k-point  40 :   0.3636 0.1818 0.0000  plane waves:     224
 k-point  41 :   0.0000 0.3636 0.1818  plane waves:     224
 k-point  42 :   0.1818 0.1818-0.1818  plane waves:     224
 k-point  43 :   0.4545 0.1818 0.0000  plane waves:     220
 k-point  44 :   0.0000 0.4545 0.1818  plane waves:     220
 k-point  45 :   0.1818 0.1818-0.2727  plane waves:     220
 k-point  46 :  -0.4545 0.1818-0.0000  plane waves:     218
 k-point  47 :  -0.0000-0.4545 0.1818  plane waves:     218
 k-point  48 :   0.1818 0.1818-0.3636  plane waves:     218
 k-point  49 :  -0.3636 0.1818 0.0000  plane waves:     218
 k-point  50 :   0.0000-0.3636 0.1818  plane waves:     218
 k-point  51 :   0.1818 0.1818-0.4545  plane waves:     218
 k-point  52 :  -0.2727 0.1818 0.0000  plane waves:     216
 k-point  53 :   0.0000-0.2727 0.1818  plane waves:     216
 k-point  54 :   0.1818 0.1818 0.4545  plane waves:     216
 k-point  55 :  -0.1818 0.1818 0.0000  plane waves:     222
 k-point  56 :   0.0000-0.1818 0.1818  plane waves:     222
 k-point  57 :   0.2727 0.2727 0.0000  plane waves:     226
 k-point  58 :   0.0000 0.2727 0.2727  plane waves:     226
 k-point  59 :   0.3636 0.2727 0.0000  plane waves:     218
 k-point  60 :   0.0000 0.3636 0.2727  plane waves:     218
 k-point  61 :   0.2727 0.2727-0.0909  plane waves:     218
 k-point  62 :   0.4545 0.2727 0.0000  plane waves:     216
 k-point  63 :   0.0000 0.4545 0.2727  plane waves:     216
 k-point  64 :   0.2727 0.2727-0.1818  plane waves:     216
 k-point  65 :  -0.4545 0.2727-0.0000  plane waves:     216
 k-point  66 :   0.0000-0.4545 0.2727  plane waves:     216
 k-point  67 :   0.2727 0.2727-0.2727  plane waves:     216
 k-point  68 :  -0.3636 0.2727 0.0000  plane waves:     214
 k-point  69 :   0.0000-0.3636 0.2727  plane waves:     214
 k-point  70 :   0.2727 0.2727-0.3636  plane waves:     214
 k-point  71 :  -0.2727 0.2727 0.0000  plane waves:     214
 k-point  72 :   0.0000-0.2727 0.2727  plane waves:     214
 k-point  73 :   0.3636 0.3636 0.0000  plane waves:     224
 k-point  74 :   0.0000 0.3636 0.3636  plane waves:     224
 k-point  75 :   0.4545 0.3636 0.0000  plane waves:     220
 k-point  76 :   0.0000 0.4545 0.3636  plane waves:     220
 k-point  77 :   0.3636 0.3636-0.0909  plane waves:     220
 k-point  78 :  -0.4545 0.3636-0.0000  plane waves:     216
 k-point  79 :   0.0000-0.4545 0.3636  plane waves:     216
 k-point  80 :   0.3636 0.3636-0.1818  plane waves:     216
 k-point  81 :  -0.3636 0.3636 0.0000  plane waves:     212
 k-point  82 :   0.0000-0.3636 0.3636  plane waves:     212
 k-point  83 :   0.4545 0.4545 0.0000  plane waves:     224
 k-point  84 :   0.0000 0.4545 0.4545  plane waves:     224
 k-point  85 :  -0.4545 0.4545 0.0000  plane waves:     228
 k-point  86 :   0.0000-0.4545 0.4545  plane waves:     228
 k-point  87 :   0.2727 0.1818 0.0909  plane waves:     228
 k-point  88 :   0.0909 0.2727 0.1818  plane waves:     228
 k-point  89 :   0.1818 0.0909 0.2727  plane waves:     228
 k-point  90 :   0.2727 0.0909 0.1818  plane waves:     228
 k-point  91 :   0.3636 0.1818 0.0909  plane waves:     222
 k-point  92 :   0.0909 0.3636 0.1818  plane waves:     222
 k-point  93 :   0.1818 0.0909 0.3636  plane waves:     222
 k-point  94 :   0.1818 0.0909-0.1818  plane waves:     222
 k-point  95 :   0.3636 0.1818 0.2727  plane waves:     222
 k-point  96 :   0.0909-0.2727-0.0909  plane waves:     222
 k-point  97 :   0.4545 0.1818 0.0909  plane waves:     214
 k-point  98 :   0.0909 0.4545 0.1818  plane waves:     214
 k-point  99 :   0.1818 0.0909 0.4545  plane waves:     214
 k-point 100 :   0.1818 0.0909-0.2727  plane waves:     214
 k-point 101 :   0.4545 0.2727 0.3636  plane waves:     214
 k-point 102 :   0.0909-0.3636-0.0909  plane waves:     214
 k-point 103 :  -0.4545 0.1818 0.0909  plane waves:     218
 k-point 104 :   0.0909-0.4545 0.1818  plane waves:     218
 k-point 105 :   0.1818 0.0909-0.4545  plane waves:     218
 k-point 106 :   0.1818 0.0909-0.3636  plane waves:     218
 k-point 107 :  -0.4545 0.3636 0.4545  plane waves:     218
 k-point 108 :   0.0909-0.4545-0.0909  plane waves:     218
 k-point 109 :   0.3636 0.2727 0.0909  plane waves:     220
 k-point 110 :   0.0909 0.3636 0.2727  plane waves:     220
 k-point 111 :   0.2727 0.0909 0.3636  plane waves:     220
 k-point 112 :   0.3636 0.0909 0.2727  plane waves:     220
 k-point 113 :   0.4545 0.2727 0.0909  plane waves:     220
 k-point 114 :   0.0909 0.4545 0.2727  plane waves:     220
 k-point 115 :   0.2727 0.0909 0.4545  plane waves:     220
 k-point 116 :   0.2727 0.1818-0.1818  plane waves:     220
 k-point 117 :   0.4545 0.1818 0.3636  plane waves:     220
 k-point 118 :   0.0909-0.3636-0.1818  plane waves:     220
 k-point 119 :  -0.4545 0.2727 0.0909  plane waves:     216
 k-point 120 :   0.0909-0.4545 0.2727  plane waves:     216
 k-point 121 :   0.2727 0.0909-0.4545  plane waves:     216
 k-point 122 :   0.2727 0.1818-0.2727  plane waves:     216
 k-point 123 :  -0.4545 0.2727 0.4545  plane waves:     216
 k-point 124 :   0.0909-0.4545-0.1818  plane waves:     216
 k-point 125 :  -0.3636 0.2727 0.0909  plane waves:     218
 k-point 126 :   0.0909-0.3636 0.2727  plane waves:     218
 k-point 127 :   0.2727 0.0909-0.3636  plane waves:     218
 k-point 128 :   0.2727 0.1818-0.3636  plane waves:     218
 k-point 129 :  -0.3636 0.3636-0.4545  plane waves:     218
 k-point 130 :   0.0909 0.4545-0.1818  plane waves:     218
 k-point 131 :  -0.2727 0.2727 0.0909  plane waves:     222
 k-point 132 :   0.0909-0.2727 0.2727  plane waves:     222
 k-point 133 :   0.2727 0.0909-0.2727  plane waves:     222
 k-point 134 :   0.2727 0.1818-0.4545  plane waves:     222
 k-point 135 :  -0.2727 0.4545-0.3636  plane waves:     222
 k-point 136 :   0.0909 0.3636-0.1818  plane waves:     222
 k-point 137 :  -0.1818 0.2727 0.0909  plane waves:     220
 k-point 138 :   0.0909-0.1818 0.2727  plane waves:     220
 k-point 139 :   0.2727 0.0909-0.1818  plane waves:     220
 k-point 140 :   0.0909 0.2727-0.1818  plane waves:     220
 k-point 141 :   0.4545 0.3636 0.0909  plane waves:     222
 k-point 142 :   0.0909 0.4545 0.3636  plane waves:     222
 k-point 143 :   0.3636 0.0909 0.4545  plane waves:     222
 k-point 144 :   0.4545 0.0909 0.3636  plane waves:     222
 k-point 145 :  -0.4545 0.3636 0.0909  plane waves:     214
 k-point 146 :   0.0909-0.4545 0.3636  plane waves:     214
 k-point 147 :   0.3636 0.0909-0.4545  plane waves:     214
 k-point 148 :   0.3636 0.2727-0.1818  plane waves:     214
 k-point 149 :  -0.4545 0.1818 0.4545  plane waves:     214
 k-point 150 :   0.0909-0.4545-0.2727  plane waves:     214
 k-point 151 :  -0.3636 0.3636 0.0909  plane waves:     216
 k-point 152 :   0.0909-0.3636 0.3636  plane waves:     216
 k-point 153 :   0.3636 0.0909-0.3636  plane waves:     216
 k-point 154 :   0.3636 0.2727-0.2727  plane waves:     216
 k-point 155 :  -0.3636 0.2727-0.4545  plane waves:     216
 k-point 156 :   0.0909 0.4545-0.2727  plane waves:     216
 k-point 157 :  -0.2727 0.3636 0.0909  plane waves:     216
 k-point 158 :   0.0909-0.2727 0.3636  plane waves:     216
 k-point 159 :   0.3636 0.0909-0.2727  plane waves:     216
 k-point 160 :   0.0909 0.3636-0.2727  plane waves:     216
 k-point 161 :  -0.4545 0.4545 0.0909  plane waves:     216
 k-point 162 :   0.0909-0.4545 0.4545  plane waves:     216
 k-point 163 :   0.4545 0.0909-0.4545  plane waves:     216
 k-point 164 :  -0.4545 0.0909 0.4545  plane waves:     216
 k-point 165 :  -0.3636 0.4545 0.0909  plane waves:     212
 k-point 166 :   0.0909-0.3636 0.4545  plane waves:     212
 k-point 167 :   0.4545 0.0909-0.3636  plane waves:     212
 k-point 168 :   0.0909 0.4545-0.3636  plane waves:     212
 k-point 169 :  -0.4545 0.3636 0.1818  plane waves:     218
 k-point 170 :   0.1818-0.4545 0.3636  plane waves:     218
 k-point 171 :   0.3636 0.1818-0.4545  plane waves:     218
 k-point 172 :  -0.4545 0.1818 0.3636  plane waves:     218
 k-point 173 :  -0.3636 0.3636 0.1818  plane waves:     218
 k-point 174 :   0.1818-0.3636 0.3636  plane waves:     218
 k-point 175 :   0.3636 0.1818-0.3636  plane waves:     218
 k-point 176 :   0.3636 0.1818-0.2727  plane waves:     218
 k-point 177 :  -0.3636 0.2727 0.4545  plane waves:     218
 k-point 178 :   0.1818-0.4545-0.1818  plane waves:     218
 k-point 179 :  -0.3636 0.4545 0.1818  plane waves:     210
 k-point 180 :   0.1818-0.3636 0.4545  plane waves:     210
 k-point 181 :   0.4545 0.1818-0.3636  plane waves:     210
 k-point 182 :  -0.3636 0.1818 0.4545  plane waves:     210
 k-point 183 :  -0.2727 0.4545 0.1818  plane waves:     216
 k-point 184 :   0.1818-0.2727 0.4545  plane waves:     216
 k-point 185 :   0.4545 0.1818-0.2727  plane waves:     216
 k-point 186 :   0.1818 0.4545-0.2727  plane waves:     216

 maximum and minimum number of plane-waves per node :       232      210

 maximum number of plane-waves:       232
 maximum index in each direction: 
   IXMAX=    3   IYMAX=    3   IZMAX=    3
   IXMIN=   -3   IYMIN=   -3   IZMIN=   -3


 serial   3D FFT for wavefunctions
 parallel 3D FFT for charge:
    minimum data exchange during FFTs selected (reduces bandwidth)


 total amount of memory used by VASP MPI-rank0    37935. kBytes
=======================================================================

   base      :      30000. kBytes
   nonl-proj :       3108. kBytes
   fftplans  :        142. kBytes
   grid      :        576. kBytes
   one-center:         62. kBytes
   wavefun   :       4047. kBytes
 
     INWAV:  cpu time      0.0000: real time      0.0001
 Broyden mixing: mesh for mixing (old mesh)
   NGX =  7   NGY =  7   NGZ =  7
  (NGX  = 20   NGY  = 20   NGZ  = 20)
  gives a total of    343 points

 initial charge density was supplied:
 charge density of overlapping atoms calculated
 number of electron      10.0000000 magnetization       0.0000000      0.0000000      1.0000000
 keeping initial charge density in first step


--------------------------------------------------------------------------------------------------------


 Maximum index for augmentation-charges          733 (set IRDMAX)


--------------------------------------------------------------------------------------------------------


 First call to EWALD:  gamma=   0.799
 Maximum number of real-space cells 3x 3x 3
 Maximum number of reciprocal cells 3x 3x 3

    FEWALD:  cpu time      0.0013: real time      0.0014


--------------------------------------- Iteration      1(   1)  ---------------------------------------


    POTLOK:  cpu time      0.0041: real time      0.0049
    SETDIJ:  cpu time      0.0067: real time      0.0068
     EDDAV:  cpu time      0.5691: real time      0.5717
 BZINTS: Fermi energy:   17.346696;   10.000000 electrons
         Band energy: 0.123958E+03;  BLOECHL correction:   -0.156287
       DOS:  cpu time      0.0270: real time      0.0271
    --------------------------------------------
      LOOP:  cpu time      0.6069: real time      0.6105

 eigenvalue-minimisations  :  8312
 total energy-change (2. order) : 0.3045051E+02  (-0.2931946E+03)
 number of electron      10.0000000 magnetization       0.0000000      0.0000000      1.0000000
 augmentation part       10.0000000 magnetization       0.0000000      0.0000000      1.0000000

 Free energy of the ion-electron system (eV)
  ---------------------------------------------------
  alpha Z        PSCENC =        46.66001921
  Ewald energy   TEWEN  =      -937.04180826
  -Hartree energ DENC   =      -245.68884612
  -exchange      EXHF   =         0.00000000
  -V(xc)+E(xc)   XCENC  =        31.76484532
  PAW double counting   =       962.83317360    -1029.67071227
  entropy T*S    EENTRO =         0.00000000
  eigenvalues    EBANDS =       123.95818308
  atomic energy  EATOM  =      1077.63565123
  Solvation  Ediel_sol  =         0.00000000
  ---------------------------------------------------
  free energy    TOTEN  =        30.45050579 eV

  energy without entropy =       30.45050579  energy(sigma->0) =       30.45050579


--------------------------------------------------------------------------------------------------------




--------------------------------------- Iteration      1(   2)  ---------------------------------------


     EDDAV:  cpu time      0.5177: real time      0.5189
 BZINTS: Fermi energy:   11.725098;   10.000000 electrons
         Band energy: 0.882592E+02;  BLOECHL correction:   -0.027664
       DOS:  cpu time      0.0238: real time      0.0238
    --------------------------------------------
      LOOP:  cpu time      0.5414: real time      0.5427

 eigenvalue-minimisations  :  7724
 total energy-change (2. order) :-0.3569897E+02  (-0.3305633E+02)
 number of electron      10.0000000 magnetization       0.0000000      0.0000000      1.0000000
 augmentation part       10.0000000 magnetization       0.0000000      0.0000000      1.0000000

 Free energy of the ion-electron system (eV)
  ---------------------------------------------------
  alpha Z        PSCENC =        46.66001921
  Ewald energy   TEWEN  =      -937.04180826
  -Hartree energ DENC   =      -245.68884612
  -exchange      EXHF   =         0.00000000
  -V(xc)+E(xc)   XCENC  =        31.76484532
  PAW double counting   =       962.83317360    -1029.67071227
  entropy T*S    EENTRO =         0.00000000
  eigenvalues    EBANDS =        88.25921048
  atomic energy  EATOM  =      1077.63565123
  Solvation  Ediel_sol  =         0.00000000
  ---------------------------------------------------
  free energy    TOTEN  =        -5.24846681 eV

  energy without entropy =       -5.24846681  energy(sigma->0) =       -5.24846681


--------------------------------------------------------------------------------------------------------




--------------------------------------- Iteration      1(   3)  ---------------------------------------


     EDDAV:  cpu time      0.5372: real time      0.5385
 BZINTS: Fermi energy:   11.566239;   10.000000 electrons
         Band energy: 0.870330E+02;  BLOECHL correction:   -0.026108
       DOS:  cpu time      0.0251: real time      0.0251
    --------------------------------------------
      LOOP:  cpu time      0.5623: real time      0.5637

 eigenvalue-minimisations  :  8220
 total energy-change (2. order) :-0.1226216E+01  (-0.1207513E+01)
 number of electron      10.0000000 magnetization       0.0000000      0.0000000      1.0000000
 augmentation part       10.0000000 magnetization       0.0000000      0.0000000      1.0000000

 Free energy of the ion-electron system (eV)
  ---------------------------------------------------
  alpha Z        PSCENC =        46.66001921
  Ewald energy   TEWEN  =      -937.04180826
  -Hartree energ DENC   =      -245.68884612
  -exchange      EXHF   =         0.00000000
  -V(xc)+E(xc)   XCENC  =        31.76484532
  PAW double counting   =       962.83317360    -1029.67071227
  entropy T*S    EENTRO =         0.00000000
  eigenvalues    EBANDS =        87.03299434
  atomic energy  EATOM  =      1077.63565123
  Solvation  Ediel_sol  =         0.00000000
  ---------------------------------------------------
  free energy    TOTEN  =        -6.47468295 eV

  energy without entropy =       -6.47468295  energy(sigma->0) =       -6.47468295


--------------------------------------------------------------------------------------------------------




--------------------------------------- Iteration      1(   4)  ---------------------------------------


     EDDAV:  cpu time      0.5297: real time      0.5310
 BZINTS: Fermi energy:   11.564743;   10.000000 electrons
         Band energy: 0.870219E+02;  BLOECHL correction:   -0.026126
       DOS:  cpu time      0.0256: real time      0.0257
    --------------------------------------------
      LOOP:  cpu time      0.5553: real time      0.5567

 eigenvalue-minimisations  :  8000
 total energy-change (2. order) :-0.1107516E-01  (-0.1106783E-01)
 number of electron      10.0000000 magnetization       0.0000000      0.0000000      1.0000000
 augmentation part       10.0000000 magnetization       0.0000000      0.0000000      1.0000000

 Free energy of the ion-electron system (eV)
  ---------------------------------------------------
  alpha Z        PSCENC =        46.66001921
  Ewald energy   TEWEN  =      -937.04180826
  -Hartree energ DENC   =      -245.68884612
  -exchange      EXHF   =         0.00000000
  -V(xc)+E(xc)   XCENC  =        31.76484532
  PAW double counting   =       962.83317360    -1029.67071227
  entropy T*S    EENTRO =         0.00000000
  eigenvalues    EBANDS =        87.02191918
  atomic energy  EATOM  =      1077.63565123
  Solvation  Ediel_sol  =         0.00000000
  ---------------------------------------------------
  free energy    TOTEN  =        -6.48575811 eV

  energy without entropy =       -6.48575811  energy(sigma->0) =       -6.48575811


--------------------------------------------------------------------------------------------------------




--------------------------------------- Iteration      1(   5)  ---------------------------------------


     EDDAV:  cpu time      0.5192: real time      0.5205
 BZINTS: Fermi energy:   11.564704;   10.000000 electrons
         Band energy: 0.870216E+02;  BLOECHL correction:   -0.026127
       DOS:  cpu time      0.0247: real time      0.0248



 total charge

# of ion       s       p       d       tot
------------------------------------------
    1        0.562   0.684   7.954   9.200



 magnetization (x)

# of ion       s       p       d       tot
------------------------------------------
    1       -0.000   0.000   0.000  -0.000



 magnetization (y)

# of ion       s       p       d       tot
------------------------------------------
    1       -0.000  -0.000   0.000  -0.000



 magnetization (z)

# of ion       s       p       d       tot
------------------------------------------
    1       -0.001  -0.002   0.781   0.778
 
    CHARGE:  cpu time      0.0164: real time      0.0167
    MIXING:  cpu time      0.0005: real time      0.0005
    --------------------------------------------
      LOOP:  cpu time      0.5608: real time      0.5625

 eigenvalue-minimisations  :  8012
 total energy-change (2. order) :-0.2708713E-03  (-0.2706374E-03)
 number of electron       9.9999908 magnetization       0.0000000     -0.0000000      0.6851603
 augmentation part        5.6095907 magnetization       0.0000000     -0.0000000      0.5657665

 Broyden mixing:
  rms(total) = 0.97723E+00    rms(broyden)= 0.97696E+00
  rms(prec ) = 0.32150E+01
  weight for this iteration     100.00

 Free energy of the ion-electron system (eV)
  ---------------------------------------------------
  alpha Z        PSCENC =        46.66001921
  Ewald energy   TEWEN  =      -937.04180826
  -Hartree energ DENC   =      -245.68884612
  -exchange      EXHF   =         0.00000000
  -V(xc)+E(xc)   XCENC  =        31.76484532
  PAW double counting   =       962.83317360    -1029.67071227
  entropy T*S    EENTRO =         0.00000000
  eigenvalues    EBANDS =        87.02164831
  atomic energy  EATOM  =      1077.63565123
  Solvation  Ediel_sol  =         0.00000000
  ---------------------------------------------------
  free energy    TOTEN  =        -6.48602898 eV

  energy without entropy =       -6.48602898  energy(sigma->0) =       -6.48602898


--------------------------------------------------------------------------------------------------------




--------------------------------------- Iteration      1(   6)  ---------------------------------------


    POTLOK:  cpu time      0.0036: real time      0.0036
    SETDIJ:  cpu time      0.0056: real time      0.0056
     EDDAV:  cpu time      0.5180: real time      0.5193
 BZINTS: Fermi energy:    8.141863;   10.000000 electrons
         Band energy: 0.603503E+02;  BLOECHL correction:   -0.028753
       DOS:  cpu time      0.0251: real time      0.0252
    CHARGE:  cpu time      0.0108: real time      0.0109
    MIXING:  cpu time      0.0005: real time      0.0005
    --------------------------------------------
      LOOP:  cpu time      0.5637: real time      0.5651

 eigenvalue-minimisations  :  8264
 total energy-change (2. order) : 0.6950447E+00  (-0.3876649E+00)
 number of electron       9.9999884 magnetization       0.0000000     -0.0000000      0.5525080
 augmentation part        6.4789754 magnetization       0.0000000     -0.0000000      0.5507302

 Broyden mixing:
  rms(total) = 0.57472E+00    rms(broyden)= 0.57467E+00
  rms(prec ) = 0.14682E+01
  weight for this iteration     100.00

 eigenvalues of (default mixing * dielectric matrix)
  average eigenvalue GAMMA=   0.6920
  0.6920

 Free energy of the ion-electron system (eV)
  ---------------------------------------------------
  alpha Z        PSCENC =        46.66001921
  Ewald energy   TEWEN  =      -937.04180826
  -Hartree energ DENC   =      -221.45710514
  -exchange      EXHF   =         0.00000000
  -V(xc)+E(xc)   XCENC  =        30.50909286
  PAW double counting   =      1024.67718012    -1087.12431508
  entropy T*S    EENTRO =         0.00000000
  eigenvalues    EBANDS =        60.35030073
  atomic energy  EATOM  =      1077.63565123
  Solvation  Ediel_sol  =         0.00000000
  ---------------------------------------------------
  free energy    TOTEN  =        -5.79098433 eV

  energy without entropy =       -5.79098433  energy(sigma->0) =       -5.79098433


--------------------------------------------------------------------------------------------------------




--------------------------------------- Iteration      1(   7)  ---------------------------------------


    POTLOK:  cpu time      0.0033: real time      0.0033
    SETDIJ:  cpu time      0.0042: real time      0.0042
     EDDAV:  cpu time      0.5294: real time      0.5307
 BZINTS: Fermi energy:    9.449811;   10.000000 electrons
         Band energy: 0.713799E+02;  BLOECHL correction:   -0.028530
       DOS:  cpu time      0.0253: real time      0.0253
    CHARGE:  cpu time      0.0123: real time      0.0124
    MIXING:  cpu time      0.0004: real time      0.0004
    --------------------------------------------
      LOOP:  cpu time      0.5749: real time      0.5763

 eigenvalue-minimisations  :  8336
 total energy-change (2. order) : 0.3099686E+00  (-0.8932832E-01)
 number of electron       9.9999895 magnetization      -0.0000000      0.0000000      0.6052090
 augmentation part        6.1258116 magnetization      -0.0000000      0.0000000      0.5857682

 Broyden mixing:
[...]
 pseudopotential strength for first ion, spin component:           4
 -0.024  -0.000   0.000  -0.000  -0.000   0.000   0.000   0.000  -0.000  -0.000  -0.728  -0.000   0.000  -0.000  -0.000   0.000
  0.000  -0.000  -0.023  -0.000   0.000   0.000   0.000  -0.000   0.000  -0.000   0.000  -0.000  -0.727  -0.000   0.000   0.000
 -0.000   0.000   0.000   0.000  -0.051  -0.000   0.000   0.000  -0.000   0.000  -0.000   0.000   0.000   0.000  -0.754  -0.000
  0.000   0.000   0.000  -0.000   0.000   0.000  -0.023  -0.000  -0.000  -0.000   0.000   0.000   0.000  -0.000   0.000   0.000
 -0.000  -0.000   0.000  -0.000  -0.000   0.000  -0.000  -0.000  -0.051  -0.000  -0.000  -0.000   0.000  -0.000  -0.000   0.000
 -0.728  -0.000   0.000  -0.000  -0.000   0.000   0.000   0.000  -0.000  -0.000  -1.359  -0.000   0.000  -0.000  -0.000   0.000
  0.000  -0.000  -0.727  -0.000   0.000   0.000   0.000  -0.000   0.000  -0.000   0.000  -0.000  -1.358  -0.000   0.000   0.000
 -0.000   0.000   0.000   0.000  -0.754  -0.000   0.000   0.000  -0.000   0.000  -0.000   0.000   0.000   0.000  -1.384  -0.000
  0.000   0.000   0.000  -0.000   0.000   0.000  -0.727  -0.000  -0.000  -0.000   0.000   0.000   0.000  -0.000   0.000   0.000
 -0.000  -0.000   0.000  -0.000  -0.000   0.000  -0.000  -0.000  -0.753  -0.000  -0.000  -0.000   0.000  -0.000  -0.000   0.000
 -0.000   0.000  -0.000  -0.000   0.000  -0.000  -0.000   0.000  -0.000   0.000  -0.000   0.000  -0.000  -0.000   0.000  -0.000
 -0.000   0.000  -0.000  -0.000   0.000  -0.000  -0.000   0.000  -0.000   0.000  -0.000   0.000  -0.000  -0.000   0.000  -0.000
 -0.000   0.000  -0.000   0.000   0.000  -0.000   0.000   0.000   0.000  -0.000  -0.000   0.000  -0.000   0.000   0.000  -0.000
  0.000   0.000  -0.000   0.000  -0.000   0.000  -0.000   0.000   0.000  -0.000   0.000   0.000  -0.000   0.000  -0.000   0.000
 -0.000   0.000   0.000   0.000   0.000  -0.000  -0.000   0.000  -0.000   0.000  -0.000   0.000   0.000   0.000   0.000  -0.000
 -0.000   0.000  -0.000   0.000   0.000  -0.000   0.000   0.000   0.000  -0.000  -0.000   0.000  -0.000   0.000   0.000  -0.000
  0.000   0.000  -0.000   0.000  -0.000   0.000  -0.000   0.000   0.000  -0.000   0.000   0.000  -0.000   0.000  -0.000   0.000
 -0.000   0.000   0.000   0.000   0.000  -0.000  -0.000   0.000  -0.000   0.000  -0.000   0.000   0.000   0.000   0.000  -0.000
 total augmentation occupancy for first ion, spin component:           1
  2.656   0.000   0.000  -0.000  -0.001  -1.175   0.000   0.000   0.000   0.000   0.000   0.000   0.000   0.000   0.000   0.000
  0.000   2.659   0.000  -0.000   0.000  -0.000  -1.177   0.000  -0.000   0.000  -0.000  -0.000   0.000   0.000   0.000   0.000
  0.000   0.000   3.412   0.000  -0.000   0.000  -0.000  -1.503   0.000   0.000   0.000  -0.000   0.000   0.000   0.000   0.000
  0.000   0.000  -0.000   2.659  -0.000   0.000   0.000   0.000  -1.177   0.000   0.000   0.000   0.000   0.000   0.000   0.000
 -0.001   0.000  -0.000  -0.000   3.410   0.000   0.000   0.000   0.000  -1.502   0.000   0.000   0.000   0.000   0.000   0.000
 -1.175   0.000   0.000   0.000   0.000   1.402   0.000   0.000   0.000  -0.000   0.000   0.000   0.000   0.000   0.000   0.000
 -0.000  -1.177  -0.000   0.000   0.000   0.000   1.402   0.000  -0.000  -0.000   0.000   0.000   0.000   0.000   0.000   0.000
  0.000   0.000  -1.503   0.000   0.000   0.000   0.000   1.425   0.000  -0.000  -0.000   0.000   0.000   0.000   0.000   0.000
  0.000  -0.000   0.000  -1.177  -0.000   0.000   0.000   0.000   1.402   0.000   0.000   0.000   0.000   0.000   0.000   0.000
  0.000   0.000   0.000   0.000  -1.502  -0.000   0.000  -0.000   0.000   1.425   0.000   0.000   0.000   0.000   0.000   0.000
  0.000  -0.000   0.000   0.000   0.000   0.000  -0.000  -0.000   0.000   0.000   2.259  -0.307   0.000   0.000   0.000   0.000
  0.000   0.000  -0.000   0.000   0.000   0.000  -0.000   0.000   0.000   0.000  -0.307   0.050   0.000   0.000   0.000   0.000
  0.000   0.000   0.000   0.000   0.000   0.000   0.000   0.000   0.000   0.000   0.000   0.000   0.297  -0.000   0.000  -0.030
  0.000   0.000   0.000   0.000   0.000   0.000   0.000   0.000   0.000   0.000   0.000   0.000  -0.000   0.297   0.000   0.000
  0.000   0.000   0.000   0.000   0.000   0.000   0.000   0.000   0.000   0.000   0.000   0.000  -0.000   0.000   0.297  -0.000
  0.000   0.000   0.000   0.000   0.000   0.000   0.000   0.000   0.000   0.000   0.000   0.000  -0.030   0.000  -0.000   0.004
  0.000   0.000   0.000   0.000   0.000   0.000   0.000   0.000   0.000   0.000   0.000   0.000  -0.000  -0.030   0.000   0.000
  0.000   0.000   0.000   0.000   0.000   0.000   0.000   0.000   0.000   0.000   0.000   0.000   0.000   0.000  -0.030   0.000
 total augmentation occupancy for first ion, spin component:           2
 -0.000   0.001   0.000   0.000  -0.000   0.000  -0.000  -0.000  -0.000   0.000   0.000   0.000   0.000   0.000   0.000   0.000
  0.001   0.000   0.000   0.000  -0.000  -0.000   0.000  -0.000   0.000  -0.000   0.000  -0.000   0.000   0.000   0.000   0.000
  0.000   0.000   0.000   0.000  -0.000  -0.000  -0.000  -0.000   0.000   0.000  -0.000   0.000   0.000   0.000   0.000   0.000
  0.000   0.000   0.000  -0.000   0.000  -0.000  -0.000   0.000  -0.000   0.000   0.001  -0.000   0.000   0.000   0.000   0.000
  0.000  -0.000   0.000   0.000  -0.000   0.000  -0.000   0.000   0.000   0.000  -0.000  -0.000   0.000   0.000   0.000   0.000
  0.000  -0.000   0.000  -0.000  -0.000   0.000   0.000   0.000   0.000   0.000   0.000   0.000   0.000   0.000   0.000   0.000
 -0.000   0.000  -0.000   0.000  -0.000   0.000   0.000  -0.000  -0.000   0.000  -0.001   0.000   0.000   0.000   0.000   0.000
  0.000  -0.000   0.000   0.000   0.000  -0.000  -0.000   0.000  -0.000   0.000   0.000   0.000   0.000   0.000   0.000   0.000
 -0.000   0.000   0.000  -0.000   0.000   0.000  -0.000  -0.000   0.000  -0.000  -0.001   0.000   0.000   0.000   0.000   0.000
 -0.000  -0.000   0.000   0.000   0.000  -0.000   0.000   0.000  -0.000   0.000  -0.000   0.000   0.000   0.000   0.000   0.000
 -0.000   0.000   0.000   0.001  -0.000   0.000  -0.001  -0.000  -0.001  -0.000   0.000  -0.000   0.000   0.000   0.000   0.000
  0.000  -0.000   0.000  -0.000  -0.000   0.000   0.000   0.000   0.000   0.000  -0.000  -0.000   0.000   0.000   0.000   0.000
  0.000   0.000   0.000   0.000   0.000   0.000   0.000   0.000   0.000   0.000   0.000   0.000  -0.000  -0.000   0.000   0.000
  0.000   0.000   0.000   0.000   0.000   0.000   0.000   0.000   0.000   0.000   0.000   0.000  -0.000  -0.000  -0.000   0.000
  0.000   0.000   0.000   0.000   0.000   0.000   0.000   0.000   0.000   0.000   0.000   0.000   0.000  -0.000   0.000  -0.000
  0.000   0.000   0.000   0.000   0.000   0.000   0.000   0.000   0.000   0.000   0.000   0.000   0.000   0.000  -0.000   0.000
  0.000   0.000   0.000   0.000   0.000   0.000   0.000   0.000   0.000   0.000   0.000   0.000   0.000   0.000   0.000  -0.000
  0.000   0.000   0.000   0.000   0.000   0.000   0.000   0.000   0.000   0.000   0.000   0.000   0.000   0.000   0.000  -0.000
 total augmentation occupancy for first ion, spin component:           3
  0.000  -0.000   0.000   0.001  -0.000  -0.000   0.000  -0.000  -0.000   0.000   0.000   0.000   0.000   0.000   0.000   0.000
 -0.000   0.000   0.000   0.000  -0.000   0.000   0.000   0.000  -0.000  -0.000   0.001  -0.000   0.000   0.000   0.000   0.000
 -0.000   0.000  -0.000  -0.000  -0.000  -0.000   0.000   0.000   0.000  -0.000  -0.000  -0.000   0.000   0.000   0.000   0.000
  0.001   0.000  -0.000  -0.000  -0.000  -0.000   0.000   0.000  -0.000  -0.000  -0.000   0.000   0.000   0.000   0.000   0.000
 -0.000  -0.000   0.000  -0.000   0.000  -0.000  -0.000   0.000  -0.000  -0.000  -0.000  -0.000   0.000   0.000   0.000   0.000
 -0.000   0.000   0.000  -0.000  -0.000  -0.000  -0.000   0.000   0.000  -0.000   0.000  -0.000   0.000   0.000   0.000   0.000
  0.000   0.000   0.000   0.000  -0.000  -0.000  -0.000  -0.000  -0.000   0.000  -0.001   0.000   0.000   0.000   0.000   0.000
  0.000   0.000  -0.000   0.000   0.000  -0.000  -0.000  -0.000   0.000   0.000   0.000   0.000   0.000   0.000   0.000   0.000
 -0.000   0.000   0.000  -0.000  -0.000   0.000  -0.000   0.000  -0.000   0.000   0.001  -0.000   0.000   0.000   0.000   0.000
 -0.000  -0.000  -0.000  -0.000  -0.000  -0.000   0.000   0.000   0.000  -0.000  -0.000   0.000   0.000   0.000   0.000   0.000
 -0.000   0.001   0.000  -0.000  -0.000   0.000  -0.001   0.000   0.001  -0.000  -0.000   0.000   0.000   0.000   0.000   0.000
  0.000  -0.000  -0.000   0.000  -0.000   0.000   0.000   0.000  -0.000  -0.000   0.000   0.000   0.000   0.000   0.000   0.000
  0.000   0.000   0.000   0.000   0.000   0.000   0.000   0.000   0.000   0.000   0.000   0.000  -0.000  -0.000   0.000   0.000
  0.000   0.000   0.000   0.000   0.000   0.000   0.000   0.000   0.000   0.000   0.000   0.000  -0.000   0.000   0.000   0.000
  0.000   0.000   0.000   0.000   0.000   0.000   0.000   0.000   0.000   0.000   0.000   0.000   0.000   0.000   0.000  -0.000
  0.000   0.000   0.000   0.000   0.000   0.000   0.000   0.000   0.000   0.000   0.000   0.000  -0.000   0.000   0.000   0.000
  0.000   0.000   0.000   0.000   0.000   0.000   0.000   0.000   0.000   0.000   0.000   0.000   0.000  -0.000  -0.000   0.000
  0.000   0.000   0.000   0.000   0.000   0.000   0.000   0.000   0.000   0.000   0.000   0.000  -0.000  -0.000  -0.000   0.000
 total augmentation occupancy for first ion, spin component:           4
  0.974  -0.000   0.000  -0.000   0.000  -0.474   0.000   0.000  -0.000  -0.000   0.000   0.000   0.000   0.000   0.000   0.000
  0.000   0.975   0.000   0.000   0.000   0.000  -0.475   0.000   0.000   0.000   0.000  -0.000   0.000   0.000   0.000   0.000
  0.000   0.000   0.510  -0.000  -0.000  -0.000  -0.000  -0.244   0.000   0.000   0.000  -0.000   0.000   0.000   0.000   0.000
 -0.000   0.000  -0.000   0.975   0.000   0.000  -0.000   0.000  -0.475   0.000   0.000   0.000   0.000   0.000   0.000   0.000
  0.000   0.000  -0.000   0.000   0.519  -0.000   0.000   0.000  -0.000  -0.249  -0.000   0.000   0.000   0.000   0.000   0.000
 -0.474   0.000   0.000  -0.000  -0.000   0.146   0.000   0.000   0.000   0.000   0.000   0.000   0.000   0.000   0.000   0.000
  0.000  -0.475   0.000  -0.000   0.000  -0.000   0.147   0.000  -0.000   0.000  -0.000  -0.000   0.000   0.000   0.000   0.000
  0.000   0.000  -0.244   0.000   0.000   0.000   0.000   0.055  -0.000   0.000  -0.000   0.000   0.000   0.000   0.000   0.000
 -0.000   0.000  -0.000  -0.475  -0.000   0.000   0.000   0.000   0.147   0.000   0.000  -0.000   0.000   0.000   0.000   0.000
 -0.000   0.000   0.000   0.000  -0.249   0.000   0.000   0.000  -0.000   0.057  -0.000   0.000   0.000   0.000   0.000   0.000
 -0.000   0.000   0.000   0.000   0.000   0.000  -0.000  -0.000  -0.000   0.000  -0.128   0.040   0.000   0.000   0.000   0.000
  0.000   0.000  -0.000   0.000  -0.000   0.000  -0.000   0.000   0.000   0.000   0.040  -0.008   0.000   0.000   0.000   0.000
  0.000   0.000   0.000   0.000   0.000   0.000   0.000   0.000   0.000   0.000   0.000   0.000  -0.018  -0.000   0.000   0.002
  0.000   0.000   0.000   0.000   0.000   0.000   0.000   0.000   0.000   0.000   0.000   0.000  -0.000  -0.018  -0.000   0.000
  0.000   0.000   0.000   0.000   0.000   0.000   0.000   0.000   0.000   0.000   0.000   0.000  -0.000   0.000  -0.018   0.000
  0.000   0.000   0.000   0.000   0.000   0.000   0.000   0.000   0.000   0.000   0.000   0.000   0.002   0.000   0.000  -0.000
  0.000   0.000   0.000   0.000   0.000   0.000   0.000   0.000   0.000   0.000   0.000   0.000   0.000   0.002   0.000  -0.000
  0.000   0.000   0.000   0.000   0.000   0.000   0.000   0.000   0.000   0.000   0.000   0.000  -0.000   0.000   0.002  -0.000


------------------------ aborting loop because EDIFF is reached ----------------------------------------





 total charge

# of ion       s       p       d       tot
------------------------------------------
    1        0.494   0.491   8.316   9.301



 magnetization (x)

# of ion       s       p       d       tot
------------------------------------------
    1       -0.000   0.000   0.000   0.000



 magnetization (y)

# of ion       s       p       d       tot
------------------------------------------
    1        0.000  -0.000  -0.000  -0.000



 magnetization (z)

# of ion       s       p       d       tot
------------------------------------------
    1       -0.008  -0.027   0.637   0.602
 
    CHARGE:  cpu time      0.0113: real time      0.0114
    FORLOC:  cpu time      0.0001: real time      0.0001
    FORNL :  cpu time      0.0201: real time      0.0202
    STRESS:  cpu time      0.1351: real time      0.1355
    FORCOR:  cpu time      0.0030: real time      0.0031
    FORHAR:  cpu time      0.0004: real time      0.0004
    MIXING:  cpu time      0.0003: real time      0.0003
    OFIELD:  cpu time      0.0000: real time      0.0000

  FORCE on cell =-STRESS in cart. coord.  units (eV):
  Direction    XX          YY          ZZ          XY          YZ          ZX
  --------------------------------------------------------------------------------------
  Alpha Z    46.66002    46.66002    46.66002
  Ewald    -312.34728  -312.34728  -312.34728     0.00000    -0.00000    -0.00000
  Hartree    75.01505    75.01505    75.01001     0.00000     0.00000     0.00000
  E(xc)     -55.03105   -55.03104   -55.03073    -0.00033    -0.00033    -0.00033
  Local      -0.56671    -0.56668    -0.55065     0.00235     0.00234     0.00234
  n-local    -8.22827    -8.59968    -8.42092     0.34167     0.28063     0.39381
  augment   176.07587   176.07581   176.07286    -0.00141    -0.00141    -0.00142
  Kinetic    77.86615    78.48878    78.17151    -0.15520    -0.35651    -0.40648
  Fock        0.00000     0.00000     0.00000     0.00000     0.00000     0.00000
  -------------------------------------------------------------------------------------
  Total      -0.43062    -0.43062    -0.43519    -0.00001    -0.00000     0.00000
  in kB     -63.12231   -63.12231   -63.79245    -0.00104    -0.00000     0.00000
  external pressure =      -63.35 kB  Pullay stress =        0.00 kB


 VOLUME and BASIS-vectors are now :
 -----------------------------------------------------------------------------
  energy-cutoff  :      269.53
  volume of cell :       10.93
      direct lattice vectors                 reciprocal lattice vectors
     1.761421888  1.761421888  0.000000000     0.283861580  0.283861580 -0.283861580
     0.000000000  1.761421888  1.761421888    -0.283861580  0.283861580  0.283861580
     1.761421888  0.000000000  1.761421888     0.283861580 -0.283861580  0.283861580

  length of vectors
     2.491026723  2.491026723  2.491026723     0.491662679  0.491662679  0.491662679


 FORCES acting on ions
    electron-ion (+dipol)            ewald-force                    non-local-force                 convergence-correction
 -----------------------------------------------------------------------------------------------
   0.500E-13 0.379E-13 0.434E-13   0.107E-14 0.216E-14 -.120E-14   0.126E-22 0.177E-21 0.126E-22   0.176E-13 0.458E-13 0.451E-13
 -----------------------------------------------------------------------------------------------
   0.500E-13 0.379E-13 0.434E-13   0.107E-14 0.216E-14 -.120E-14   0.126E-22 0.177E-21 0.126E-22   0.176E-13 0.458E-13 0.451E-13
 
 
 POSITION                                       TOTAL-FORCE (eV/Angst)
 -----------------------------------------------------------------------------------
      0.00000      0.00000      0.00000        -0.000000      0.000000     -0.000000
 -----------------------------------------------------------------------------------
    total drift:                                0.000000      0.000000      0.000000


--------------------------------------------------------------------------------------------------------



  FREE ENERGIE OF THE ION-ELECTRON SYSTEM (eV)
  ---------------------------------------------------
  free  energy   TOTEN  =        -5.46409507 eV

  energy  without entropy=       -5.46409507  energy(sigma->0) =       -5.46409507
 


--------------------------------------------------------------------------------------------------------


    POTLOK:  cpu time      0.0079: real time      0.0079


--------------------------------------------------------------------------------------------------------


 writing wavefunctions
     LOOP+:  cpu time      6.7284: real time      6.8407
 -----------------------------------------------------------------------------
|                                                                             |
|           W    W    AA    RRRRR   N    N  II  N    N   GGGG   !!!           |
|           W    W   A  A   R    R  NN   N  II  NN   N  G    G  !!!           |
|           W    W  A    A  R    R  N N  N  II  N N  N  G       !!!           |
|           W WW W  AAAAAA  RRRRR   N  N N  II  N  N N  G  GGG   !            |
|           WW  WW  A    A  R   R   N   NN  II  N   NN  G    G                |
|           W    W  A    A  R    R  N    N  II  N    N   GGGG   !!!           |
|                                                                             |
|     Tetrahedron method does not include variations of the Fermi             |
|     occupations, so forces and stress will be inaccurate. We suggest        |
|     using a different smearing scheme ISMEAR = 1 or 2 for metals in         |
|     relaxations.                                                            |
|                                                                             |
 -----------------------------------------------------------------------------

    4ORBIT:  cpu time      0.0000: real time      0.0000



 total charge

# of ion       s       p       d       tot
------------------------------------------
    1        0.494   0.491   8.316   9.301



 magnetization (x)

# of ion       s       p       d       tot
------------------------------------------
    1       -0.000   0.000   0.000   0.000



 magnetization (y)

# of ion       s       p       d       tot
------------------------------------------
    1        0.000  -0.000  -0.000  -0.000



 magnetization (z)

# of ion       s       p       d       tot
------------------------------------------
    1       -0.008  -0.027   0.637   0.602
 
 BZINTS: Fermi energy:    9.304123;   10.000000 electrons
         Band energy: 0.701176E+02;  BLOECHL correction:   -0.028838
 BZINTS: Fermi energy:    9.304123;   10.000000 electrons
         Band energy: 0.701176E+02;  BLOECHL correction:   -0.028838
 BZINTS: Fermi energy:    9.304123;   10.000000 electrons
         Band energy: 0.701176E+02;  BLOECHL correction:   -0.028838
 BZINTS: Fermi energy:    9.304123;   10.000000 electrons
         Band energy: 0.701176E+02;  BLOECHL correction:   -0.028838

 total amount of memory used by VASP MPI-rank0    37935. kBytes
=======================================================================

   base      :      30000. kBytes
   nonl-proj :       3108. kBytes
   fftplans  :        142. kBytes
   grid      :        576. kBytes
   one-center:         62. kBytes
   wavefun   :       4047. kBytes
 
  
  
 General timing and accounting informations for this job:
 ========================================================
  
                  Total CPU time used (sec):        7.901
                            User time (sec):        7.329
                          System time (sec):        0.571
                         Elapsed time (sec):        8.134
  
                   Maximum memory used (kb):       69340.
                   Average memory used (kb):          N/A
  
                          Minor page faults:        34419
                          Major page faults:            0
                 Voluntary context switches:         2084
