PROCAR lm decomposed
# of k-points:  186         # of bands:   20         # of ions:    1

 k-point     1 :    0.00000000 0.00000000 0.00000000     weight = 0.00075131

band     1 # energy    0.28614446 # occ.  1.00000000
 
ion      s     py     pz     px    dxy    dyz    dz2    dxz  x2-y2    tot
    1  0.726  0.000  0.000  0.000  0.000  0.000  0.000  0.000  0.000  0.726
    1 -0.023 -0.000  0.000 -0.000 -0.000  0.000  0.000  0.000 -0.000 -0.023
    1 -0.006  0.000 -0.000  0.000 -0.000  0.000  0.000 -0.000 -0.000 -0.006
    1 -0.725 -0.000 -0.000 -0.000 -0.000  0.000  0.000  0.000  0.000 -0.725
 
band     2 # energy    0.34292225 # occ.  1.00000000
 
ion      s     py     pz     px    dxy    dyz    dz2    dxz  x2-y2    tot
    1  0.725  0.000  0.000  0.000  0.000  0.000  0.000  0.000  0.000  0.725
    1  0.023  0.000 -0.000  0.000  0.000 -0.000  0.000 -0.000 -0.000  0.023
    1  0.006  0.000 -0.000  0.000  0.000 -0.000  0.000  0.000  0.000  0.006
    1  0.725  0.000  0.000  0.000  0.000 -0.000 -0.000 -0.000 -0.000  0.725
 
band     3 # energy    6.91391718 # occ.  1.00000000
 
ion      s     py     pz     px    dxy    dyz    dz2    dxz  x2-y2    tot
    1  0.000  0.000  0.000  0.000  0.000  0.495  0.000  0.481  0.000  0.976
    1 -0.000  0.000 -0.000  0.000 -0.000 -0.000  0.000 -0.001 -0.000 -0.001
    1 -0.000  0.000  0.000 -0.000  0.000 -0.001 -0.000  0.000 -0.000 -0.000
    1 -0.000  0.000 -0.000  0.000  0.000  0.495 -0.000  0.481 -0.000  0.976
 
band     4 # energy    6.91399162 # occ.  1.00000000
 
ion      s     py     pz     px    dxy    dyz    dz2    dxz  x2-y2    tot
    1  0.000  0.000  0.000  0.000  0.607  0.177  0.000  0.192  0.000  0.976
    1 -0.000 -0.000 -0.000  0.000 -0.001 -0.001 -0.000 -0.001 -0.000 -0.002
    1 -0.000  0.000 -0.000 -0.000 -0.000  0.000 -0.000 -0.000  0.000 -0.001
    1 -0.000  0.000  0.000  0.000  0.607  0.177  0.000  0.192 -0.000  0.976
 
band     5 # energy    6.91448170 # occ.  1.00000000
 
ion      s     py     pz     px    dxy    dyz    dz2    dxz  x2-y2    tot
    1  0.000  0.000  0.000  0.000  0.369  0.304  0.000  0.304  0.000  0.976
    1 -0.000  0.000 -0.000  0.000  0.001  0.000  0.000 -0.000  0.000  0.001
    1 -0.000 -0.000 -0.000 -0.000  0.000 -0.001  0.000  0.001 -0.000  0.000
    1 -0.000  0.000  0.000  0.000  0.369  0.304 -0.000  0.304 -0.000  0.976
 
band     6 # energy    7.60437550 # occ.  1.00000000
 
ion      s     py     pz     px    dxy    dyz    dz2    dxz  x2-y2    tot
    1  0.000  0.000  0.000  0.000  0.970  0.003  0.000  0.003  0.000  0.977
    1  0.000  0.000 -0.000  0.000 -0.000 -0.000 -0.000 -0.000  0.000 -0.000
    1  0.000 -0.000 -0.000 -0.000  0.000  0.000  0.000 -0.000 -0.000  0.000
    1 -0.000 -0.000 -0.000 -0.000 -0.970 -0.003 -0.000 -0.003  0.000 -0.977
 
band     7 # energy    7.60567399 # occ.  1.00000000
 
ion      s     py     pz     px    dxy    dyz    dz2    dxz  x2-y2    tot
    1  0.000  0.000  0.000  0.000  0.007  0.482  0.000  0.488  0.000  0.977
    1  0.000  0.000 -0.000  0.000  0.000  0.001  0.000  0.001  0.000  0.002
    1  0.000 -0.000 -0.000  0.000  0.000  0.001  0.000 -0.000  0.000  0.000
    1  0.000 -0.000 -0.000 -0.000 -0.007 -0.482  0.000 -0.488  0.000 -0.977
 
band     8 # energy    7.60585854 # occ.  1.00000000
 
ion      s     py     pz     px    dxy    dyz    dz2    dxz  x2-y2    tot
    1  0.000  0.000  0.000  0.000  0.000  0.492  0.000  0.485  0.000  0.977
    1  0.000  0.000 -0.000 -0.000 -0.000  0.000  0.000  0.001  0.000  0.001
    1  0.000  0.000  0.000  0.000 -0.000  0.001  0.000 -0.000  0.000  0.000
    1  0.000 -0.000 -0.000 -0.000 -0.000 -0.492  0.000 -0.485  0.000 -0.977
 
band     9 # energy    8.06786535 # occ.  1.00000000
 
ion      s     py     pz     px    dxy    dyz    dz2    dxz  x2-y2    tot
    1  0.000  0.000  0.000  0.000  0.000  0.000  0.000  0.000  0.988  0.988
    1 -0.000  0.000  0.000  0.000  0.000 -0.000  0.000 -0.000 -0.000 -0.000
    1  0.000  0.000 -0.000  0.000 -0.000 -0.000 -0.000  0.000 -0.000 -0.000
    1 -0.000 -0.000  0.000 -0.000 -0.000 -0.000  0.000 -0.000  0.988  0.988
 
band    10 # energy    8.07030924 # occ.  1.00000000
 
ion      s     py     pz     px    dxy    dyz    dz2    dxz  x2-y2    tot
    1  0.000  0.000  0.000  0.000  0.000  0.000  0.988  0.000  0.000  0.988
    1 -0.000  0.000 -0.000  0.000 -0.000 -0.000 -0.000 -0.000 -0.000 -0.000
    1 -0.000  0.000 -0.000  0.000 -0.000 -0.000 -0.000  0.000  0.000 -0.000
    1 -0.000 -0.000  0.000 -0.000  0.000 -0.000  0.988 -0.000  0.000  0.988
 
band    11 # energy    8.64808290 # occ.  1.00000000
 
ion      s     py     pz     px    dxy    dyz    dz2    dxz  x2-y2    tot
    1  0.000  0.000  0.000  0.000  0.000  0.000  0.989  0.000  0.000  0.989
    1  0.000 -0.000  0.000  0.000  0.000  0.000  0.000  0.000  0.000  0.000
    1  0.000 -0.000 -0.000 -0.000  0.000  0.000  0.000 -0.000 -0.000  0.000
    1  0.000 -0.000  0.000 -0.000 -0.000  0.000 -0.989  0.000 -0.000 -0.989
 
band    12 # energy    8.64931693 # occ.  1.00000000
 
ion      s     py     pz     px    dxy    dyz    dz2    dxz  x2-y2    tot
    1  0.000  0.000  0.000  0.000  0.000  0.000  0.000  0.000  0.989  0.989
    1  0.000 -0.000  0.000 -0.000  0.000  0.000 -0.000  0.000  0.000  0.000
    1 -0.000  0.000  0.000 -0.000 -0.000  0.000  0.000 -0.000  0.000  0.000
    1  0.000 -0.000  0.000 -0.000  0.000  0.000 -0.000  0.000 -0.989 -0.989
 
band    13 # energy   32.86462972 # occ.  0.00000000
 
ion      s     py     pz     px    dxy    dyz    dz2    dxz  x2-y2    tot
    1  0.000  0.000  0.000  0.000  0.000  0.000  0.000  0.000  0.000  0.000
    1  0.000  0.000 -0.000  0.000  0.000  0.000 -0.000 -0.000 -0.000  0.000
    1  0.000 -0.000 -0.000  0.000  0.000 -0.000  0.000  0.000 -0.000  0.000
    1  0.000  0.000 -0.000  0.000  0.000  0.000 -0.000  0.000 -0.000  0.000
 
band    14 # energy   33.03554366 # occ.  0.00000000
 
ion      s     py     pz     px    dxy    dyz    dz2    dxz  x2-y2    tot
    1  0.000  0.000  0.000  0.000  0.000  0.000  0.000  0.000  0.000  0.000
    1 -0.000 -0.000  0.000 -0.000  0.000  0.000 -0.000 -0.000  0.000 -0.000
    1 -0.000  0.000  0.000 -0.000 -0.000 -0.000  0.000  0.000 -0.000 -0.000
    1  0.000 -0.000  0.000 -0.000 -0.000  0.000 -0.000  0.000 -0.000 -0.000
 
band    15 # energy   36.80580804 # occ.  0.00000000
 
ion      s     py     pz     px    dxy    dyz    dz2    dxz  x2-y2    tot
    1  0.000  0.076  0.212  0.075  0.000  0.000  0.000  0.000  0.000  0.364
    1 -0.000 -0.002 -0.012 -0.004  0.000 -0.000 -0.000 -0.000  0.000 -0.019
    1 -0.000 -0.005 -0.003  0.003 -0.000 -0.000 -0.000 -0.000 -0.000 -0.005
    1 -0.000 -0.076 -0.212 -0.075  0.000  0.000 -0.000  0.000  0.000 -0.363
 
band    16 # energy   36.80656009 # occ.  0.00000000
 
ion      s     py     pz     px    dxy    dyz    dz2    dxz  x2-y2    tot
    1  0.000  0.108  0.151  0.104  0.000  0.000  0.000  0.000  0.000  0.364
    1  0.000  0.001 -0.001  0.001 -0.000 -0.000  0.000 -0.000 -0.000  0.001
    1 -0.000  0.001 -0.000 -0.000 -0.000 -0.000  0.000  0.000  0.000  0.000
    1 -0.000 -0.108 -0.151 -0.104  0.000  0.000 -0.000  0.000  0.000 -0.364
 
band    17 # energy   36.80689309 # occ.  0.00000000
 
ion      s     py     pz     px    dxy    dyz    dz2    dxz  x2-y2    tot
    1  0.000  0.179  0.000  0.185  0.000  0.000  0.000  0.000  0.000  0.364
    1 -0.000 -0.002  0.000 -0.003  0.000 -0.000 -0.000 -0.000  0.000 -0.005
    1 -0.000 -0.004 -0.000  0.002 -0.000 -0.000 -0.000  0.000 -0.000 -0.001
    1  0.000 -0.179  0.000 -0.184  0.000  0.000  0.000  0.000 -0.000 -0.363
 
band    18 # energy   36.84579736 # occ.  0.00000000
 
ion      s     py     pz     px    dxy    dyz    dz2    dxz  x2-y2    tot
    1  0.000  0.161  0.000  0.213  0.000  0.000  0.000  0.000  0.000  0.375
    1 -0.000  0.001 -0.000  0.004  0.000  0.000 -0.000  0.000  0.000  0.005
    1 -0.000  0.003 -0.000 -0.003  0.000  0.000 -0.000  0.000  0.000  0.000
    1 -0.000  0.161 -0.000  0.213  0.000  0.000 -0.000  0.000 -0.000  0.374
 
band    19 # energy   36.84599007 # occ.  0.00000000
 
ion      s     py     pz     px    dxy    dyz    dz2    dxz  x2-y2    tot
    1  0.000  0.213  0.001  0.161  0.000  0.000  0.000  0.000  0.000  0.374
    1 -0.000  0.002 -0.000  0.003 -0.000 -0.000  0.000 -0.000  0.000  0.004
    1 -0.000  0.004 -0.000 -0.002 -0.000  0.000 -0.000 -0.000 -0.000  0.002
    1 -0.000  0.213  0.000  0.161 -0.000  0.000 -0.000  0.000  0.000  0.374
 
band    20 # energy   36.84702011 # occ.  0.00000000
 
ion      s     py     pz     px    dxy    dyz    dz2    dxz  x2-y2    tot
    1  0.000  0.000  0.374  0.000  0.000  0.000  0.000  0.000  0.000  0.374
    1 -0.000  0.000  0.013  0.000  0.000  0.000  0.000  0.000 -0.000  0.013
    1  0.000  0.000  0.004 -0.000  0.000  0.000  0.000 -0.000  0.000  0.004
    1 -0.000  0.000  0.373  0.000  0.000  0.000 -0.000  0.000 -0.000  0.374
 

 k-point     2 :    0.09090909 0.00000000 0.00000000     weight = 0.00601052

band     1 # energy    0.60733420 # occ.  1.00000000
 
ion      s     py     pz     px    dxy    dyz    dz2    dxz  x2-y2    tot
    1  0.704  0.007  0.007  0.007  0.000  0.000  0.000  0.000  0.000  0.726
    1 -0.020 -0.000 -0.000 -0.000 -0.000  0.000  0.000  0.000 -0.000 -0.021
    1 -0.006 -0.000 -0.000 -0.000 -0.000  0.000  0.000 -0.000 -0.000 -0.006
    1 -0.704 -0.007 -0.007 -0.007 -0.000 -0.000  0.000 -0.000  0.000 -0.726
 
band     2 # energy    0.66364825 # occ.  1.00000000
 
ion      s     py     pz     px    dxy    dyz    dz2    dxz  x2-y2    tot
    1  0.703  0.007  0.007  0.007  0.000  0.000  0.000  0.000  0.000  0.726
    1  0.020  0.000  0.000  0.000  0.000  0.000  0.000  0.000 -0.000  0.021
    1  0.006  0.000  0.000  0.000  0.000  0.000  0.000 -0.000 -0.000  0.006
    1  0.703  0.007  0.007  0.007  0.000  0.000 -0.000  0.000 -0.000  0.725
 
band     3 # energy    6.83597749 # occ.  1.00000000
 
ion      s     py     pz     px    dxy    dyz    dz2    dxz  x2-y2    tot
    1  0.000  0.001  0.001  0.001  0.324  0.323  0.000  0.323  0.000  0.973
    1  0.000 -0.000 -0.000 -0.000 -0.001 -0.001 -0.000 -0.001 -0.000 -0.003
    1  0.000 -0.000 -0.000  0.000 -0.000 -0.000 -0.000 -0.000  0.000 -0.001
    1  0.000  0.001  0.001  0.001  0.324  0.323  0.000  0.323 -0.000  0.973
 
band     4 # energy    6.98270811 # occ.  1.00000000
 
ion      s     py     pz     px    dxy    dyz    dz2    dxz  x2-y2    tot
    1  0.000  0.000  0.000  0.000  0.000  0.481  0.000  0.491  0.004  0.976
    1  0.000 -0.000 -0.000  0.000  0.000 -0.000 -0.000 -0.000  0.000 -0.001
    1  0.000  0.000 -0.000 -0.000  0.000 -0.000 -0.000  0.000  0.000 -0.000
    1 -0.000  0.000  0.000  0.000  0.000  0.481  0.000  0.491  0.004  0.976
 
band     5 # energy    6.98317230 # occ.  1.00000000
 
ion      s     py     pz     px    dxy    dyz    dz2    dxz  x2-y2    tot
    1  0.000  0.000  0.000  0.000  0.647  0.167  0.004  0.158  0.000  0.976
    1 -0.000 -0.000  0.000 -0.000  0.001  0.000  0.000 -0.000 -0.000  0.001
    1 -0.000  0.000  0.000 -0.000  0.000 -0.001  0.000  0.001  0.000  0.000
    1 -0.000  0.000  0.000  0.000  0.647  0.167  0.004  0.158  0.000  0.976
 
band     6 # energy    7.51667441 # occ.  1.00000000
 
ion      s     py     pz     px    dxy    dyz    dz2    dxz  x2-y2    tot
    1  0.000  0.001  0.001  0.001  0.326  0.321  0.000  0.321  0.000  0.972
    1  0.000  0.000  0.000  0.000  0.001  0.001 -0.000  0.001 -0.000  0.003
    1  0.000 -0.000  0.000  0.000  0.000 -0.000 -0.000  0.000  0.000  0.001
    1 -0.000 -0.001 -0.001 -0.001 -0.326 -0.321  0.000 -0.321  0.000 -0.972
 
band     7 # energy    7.67558152 # occ.  1.00000000
 
ion      s     py     pz     px    dxy    dyz    dz2    dxz  x2-y2    tot
    1  0.000  0.000  0.000  0.000  0.644  0.163  0.006  0.164  0.000  0.976
    1  0.000 -0.000  0.000 -0.000 -0.001 -0.000  0.000 -0.000  0.000 -0.001
    1  0.000 -0.000  0.000 -0.000 -0.000  0.000  0.000 -0.001 -0.000 -0.000
    1  0.000 -0.000 -0.000 -0.000 -0.644 -0.163 -0.006 -0.164  0.000 -0.976
 
band     8 # energy    7.67666773 # occ.  1.00000000
 
ion      s     py     pz     px    dxy    dyz    dz2    dxz  x2-y2    tot
    1  0.000  0.000  0.000  0.000  0.000  0.486  0.000  0.484  0.006  0.976
    1  0.000 -0.000  0.000 -0.000  0.000  0.000  0.000  0.000  0.000  0.001
    1  0.000  0.000  0.000 -0.000  0.000  0.000  0.000 -0.000  0.000  0.000
    1  0.000 -0.000  0.000 -0.000 -0.000 -0.486  0.000 -0.484 -0.006 -0.976
 
band     9 # energy    8.04120144 # occ.  1.00000000
 
ion      s     py     pz     px    dxy    dyz    dz2    dxz  x2-y2    tot
    1  0.000  0.000  0.000  0.000  0.000  0.002  0.000  0.002  0.983  0.987
    1 -0.000  0.000 -0.000  0.000 -0.000  0.000  0.000  0.000 -0.001 -0.001
    1  0.000  0.000  0.000 -0.000  0.000  0.000 -0.000 -0.000 -0.000 -0.000
    1 -0.000  0.000 -0.000  0.000 -0.000  0.002  0.000  0.002  0.983  0.987
 
band    10 # energy    8.04368179 # occ.  1.00000000
 
ion      s     py     pz     px    dxy    dyz    dz2    dxz  x2-y2    tot
    1  0.000  0.000  0.000  0.000  0.003  0.001  0.982  0.001  0.000  0.987
    1 -0.000 -0.000  0.000 -0.000  0.000  0.000 -0.001  0.000 -0.000 -0.000
    1 -0.000 -0.000  0.000  0.000 -0.000  0.000 -0.000 -0.000  0.000 -0.000
    1 -0.000  0.000  0.000  0.000  0.003  0.001  0.982  0.001  0.000  0.987
 
band    11 # energy    8.62003314 # occ.  1.00000000
 
ion      s     py     pz     px    dxy    dyz    dz2    dxz  x2-y2    tot
    1  0.000  0.000  0.000  0.000  0.004  0.001  0.981  0.001  0.000  0.987
    1  0.000 -0.000  0.000 -0.000 -0.000  0.000  0.000  0.000  0.000  0.000
    1  0.000 -0.000  0.000 -0.000 -0.000  0.000  0.000 -0.000 -0.000  0.000
    1  0.000 -0.000 -0.000 -0.000 -0.004 -0.001 -0.981 -0.001 -0.000 -0.987
 
band    12 # energy    8.62131622 # occ.  1.00000000
 
ion      s     py     pz     px    dxy    dyz    dz2    dxz  x2-y2    tot
    1  0.000  0.000  0.000  0.000  0.000  0.003  0.000  0.003  0.981  0.987
    1 -0.000  0.000 -0.000  0.000  0.000  0.000 -0.000  0.000  0.001  0.001
    1  0.000  0.000  0.000 -0.000 -0.000  0.000  0.000 -0.000  0.000  0.000
    1  0.000 -0.000  0.000 -0.000  0.000 -0.003 -0.000 -0.003 -0.981 -0.987
 
band    13 # energy   31.59246512 # occ.  0.00000000
 
ion      s     py     pz     px    dxy    dyz    dz2    dxz  x2-y2    tot
    1  0.008  0.037  0.037  0.037  0.100  0.100  0.000  0.100  0.000  0.420
    1  0.000  0.000  0.000  0.000  0.000  0.000 -0.000  0.000 -0.000  0.000
    1  0.000 -0.000 -0.000  0.000  0.000 -0.000 -0.000  0.000  0.000  0.000
    1 -0.008 -0.037 -0.037 -0.037 -0.100 -0.100  0.000 -0.100  0.000 -0.420
 
band    14 # energy   31.64582459 # occ.  0.00000000
 
ion      s     py     pz     px    dxy    dyz    dz2    dxz  x2-y2    tot
    1  0.009  0.041  0.041  0.041  0.104  0.104  0.000  0.104  0.000  0.443
    1 -0.000  0.000 -0.000  0.000 -0.000 -0.000 -0.000 -0.000  0.000 -0.000
    1  0.000 -0.000 -0.000  0.000  0.000 -0.000 -0.000  0.000  0.000  0.000
    1  0.009  0.041  0.041  0.041  0.104  0.104 -0.000  0.104 -0.000  0.443
 
band    15 # energy   34.32298829 # occ.  0.00000000
 
ion      s     py     pz     px    dxy    dyz    dz2    dxz  x2-y2    tot
    1  0.027  0.065  0.065  0.065  0.007  0.007  0.000  0.007  0.000  0.242
    1 -0.000 -0.001 -0.001 -0.001 -0.000 -0.000  0.000 -0.000 -0.000 -0.004
    1 -0.000 -0.000 -0.000 -0.000 -0.000  0.000  0.000 -0.000 -0.000 -0.001
    1 -0.027 -0.065 -0.065 -0.065 -0.007 -0.007 -0.000 -0.007  0.000 -0.242
 
band    16 # energy   34.41286631 # occ.  0.00000000
 
ion      s     py     pz     px    dxy    dyz    dz2    dxz  x2-y2    tot
    1  0.027  0.064  0.064  0.064  0.006  0.006  0.000  0.006  0.000  0.236
    1  0.000  0.001  0.001  0.001  0.000  0.000 -0.000  0.000  0.000  0.003
    1  0.000  0.000  0.000  0.000  0.000  0.000 -0.000 -0.000  0.000  0.001
    1  0.027  0.064  0.064  0.064  0.006  0.006 -0.000  0.006 -0.000  0.236
 
band    17 # energy   36.20399415 # occ.  0.00000000
 
ion      s     py     pz     px    dxy    dyz    dz2    dxz  x2-y2    tot
    1  0.000  0.058  0.220  0.058  0.149  0.040  0.023  0.039  0.000  0.587
    1 -0.000 -0.038 -0.127 -0.027 -0.087 -0.019 -0.013 -0.026 -0.000 -0.338
    1 -0.000  0.014 -0.035 -0.032 -0.024 -0.022 -0.004  0.009 -0.000 -0.092
    1  0.000 -0.041 -0.176 -0.041 -0.119 -0.028 -0.019 -0.028  0.000 -0.450
 
band    18 # energy   36.20465242 # occ.  0.00000000
 
ion      s     py     pz     px    dxy    dyz    dz2    dxz  x2-y2    tot
    1  0.000  0.168  0.005  0.167  0.003  0.115  0.000  0.115  0.022  0.596
    1  0.000 -0.151 -0.004 -0.151 -0.003 -0.103 -0.000 -0.103 -0.020 -0.537
    1  0.000 -0.044 -0.001 -0.038 -0.001 -0.026 -0.000 -0.030 -0.005 -0.144
    1 -0.000  0.060  0.001  0.061  0.001  0.043  0.000  0.042  0.007  0.215
 
band    19 # energy   36.20585752 # occ.  0.00000000
 
ion      s     py     pz     px    dxy    dyz    dz2    dxz  x2-y2    tot
    1  0.000  0.159  0.018  0.160  0.013  0.109  0.002  0.109  0.021  0.591
    1 -0.000  0.140  0.015  0.152  0.010  0.104  0.002  0.095  0.019  0.537
    1 -0.000  0.061  0.004  0.018  0.003  0.013  0.000  0.042  0.005  0.146
    1  0.000 -0.047  0.009 -0.047  0.007 -0.031  0.001 -0.031 -0.007 -0.146
 
band    20 # energy   36.20616906 # occ.  0.00000000
 
ion      s     py     pz     px    dxy    dyz    dz2    dxz  x2-y2    tot
    1  0.000  0.067  0.209  0.066  0.144  0.045  0.021  0.046  0.002  0.599
    1  0.000  0.049  0.117  0.027  0.080  0.018  0.012  0.034  0.001  0.337
    1  0.000 -0.031  0.032  0.051  0.022  0.035  0.003 -0.021  0.000  0.091
    1  0.000  0.033  0.170  0.032  0.118  0.022  0.017  0.023 -0.001  0.413
 

 k-point     3 :    0.18181818-0.00000000-0.00000000     weight = 0.00601052

band     1 # energy    1.53340538 # occ.  1.00000000
 
ion      s     py     pz     px    dxy    dyz    dz2    dxz  x2-y2    tot
    1  0.639  0.026  0.026  0.026  0.003  0.004  0.000  0.004  0.000  0.729
    1 -0.014 -0.001 -0.001 -0.001 -0.000 -0.000 -0.000 -0.000  0.000 -0.016
    1 -0.004 -0.000 -0.000 -0.000 -0.000  0.000  0.000 -0.000 -0.000 -0.004
    1 -0.639 -0.026 -0.026 -0.026 -0.003 -0.004 -0.000 -0.004  0.000 -0.729
 
band     2 # energy    1.58417448 # occ.  1.00000000
 
ion      s     py     pz     px    dxy    dyz    dz2    dxz  x2-y2    tot
    1  0.638  0.026  0.026  0.026  0.004  0.004  0.000  0.004  0.000  0.729
    1  0.014  0.001  0.001  0.001  0.000  0.000  0.000  0.000 -0.000  0.016
    1  0.004  0.000  0.000  0.000  0.000  0.000 -0.000 -0.000  0.000  0.004
    1  0.638  0.026  0.026  0.026  0.004  0.004  0.000  0.004 -0.000  0.729
 
band     3 # energy    6.66243899 # occ.  1.00000000
 
ion      s     py     pz     px    dxy    dyz    dz2    dxz  x2-y2    tot
    1  0.003  0.006  0.006  0.006  0.313  0.313  0.000  0.313  0.000  0.959
    1  0.000 -0.000 -0.000 -0.000 -0.001 -0.001 -0.000 -0.001 -0.000 -0.004
    1  0.000 -0.000 -0.000  0.000 -0.000 -0.000 -0.000 -0.000  0.000 -0.001
    1  0.003  0.006  0.006  0.006  0.313  0.313  0.000  0.313 -0.000  0.959
 
band     4 # energy    7.11436347 # occ.  1.00000000
 
ion      s     py     pz     px    dxy    dyz    dz2    dxz  x2-y2    tot
    1  0.000  0.001  0.000  0.001  0.001  0.425  0.000  0.466  0.083  0.977
    1 -0.000 -0.000  0.000  0.000 -0.000 -0.000  0.000  0.000  0.000  0.000
    1  0.000  0.000 -0.000 -0.000  0.000  0.000 -0.000 -0.000  0.000  0.000
    1 -0.000  0.001  0.000  0.001  0.001  0.425  0.000  0.466  0.083  0.977
 
band     5 # energy    7.11477115 # occ.  1.00000000
 
ion      s     py     pz     px    dxy    dyz    dz2    dxz  x2-y2    tot
    1  0.000  0.000  0.001  0.000  0.594  0.170  0.083  0.129  0.000  0.977
    1 -0.000 -0.000  0.000 -0.000  0.001  0.000  0.000  0.000 -0.000  0.001
    1 -0.000  0.000  0.000 -0.000  0.000 -0.000  0.000  0.000  0.000  0.000
    1 -0.000  0.000  0.001  0.000  0.594  0.170  0.083  0.129  0.000  0.977
 
band     6 # energy    7.30912348 # occ.  1.00000000
 
ion      s     py     pz     px    dxy    dyz    dz2    dxz  x2-y2    tot
    1  0.002  0.006  0.006  0.006  0.314  0.312  0.000  0.312  0.000  0.958
    1  0.000  0.000  0.000  0.000  0.002  0.001 -0.000  0.001 -0.000  0.004
    1  0.000 -0.000  0.000  0.000  0.000 -0.001 -0.000  0.001  0.000  0.001
    1 -0.002 -0.006 -0.006 -0.006 -0.314 -0.312  0.000 -0.312  0.000 -0.958
 
band     7 # energy    7.79630205 # occ.  1.00000000
 
ion      s     py     pz     px    dxy    dyz    dz2    dxz  x2-y2    tot
    1  0.000  0.000  0.001  0.000  0.571  0.140  0.117  0.147  0.000  0.976
    1  0.000 -0.000  0.000 -0.000 -0.001 -0.000  0.000 -0.000  0.000 -0.001
    1  0.000  0.000  0.000 -0.000 -0.000 -0.000 -0.000  0.000 -0.000 -0.000
    1  0.000 -0.000 -0.001 -0.000 -0.571 -0.140 -0.117 -0.147 -0.000 -0.976
 
band     8 # energy    7.79721871 # occ.  1.00000000
 
ion      s     py     pz     px    dxy    dyz    dz2    dxz  x2-y2    tot
    1  0.000  0.001  0.000  0.001  0.000  0.433  0.000  0.425  0.117  0.976
    1  0.000 -0.000 -0.000 -0.000 -0.000 -0.001  0.000 -0.001  0.002 -0.000
    1  0.000  0.000  0.000 -0.000  0.000 -0.000  0.000 -0.000  0.000 -0.000
    1  0.000 -0.001 -0.000 -0.001 -0.000 -0.433 -0.000 -0.425 -0.117 -0.976
 
band     9 # energy    8.03533034 # occ.  1.00000000
 
ion      s     py     pz     px    dxy    dyz    dz2    dxz  x2-y2    tot
    1  0.000  0.000  0.000  0.000  0.000  0.042  0.000  0.041  0.901  0.985
    1 -0.000  0.000 -0.000  0.000 -0.000  0.000  0.000  0.001 -0.003 -0.002
    1  0.000  0.000  0.000 -0.000  0.000  0.001 -0.000 -0.000 -0.001 -0.001
    1 -0.000  0.000 -0.000  0.000  0.000  0.042  0.000  0.041  0.901  0.985
 
band    10 # energy    8.03780536 # occ.  1.00000000
 
ion      s     py     pz     px    dxy    dyz    dz2    dxz  x2-y2    tot
    1  0.000  0.000  0.000  0.000  0.056  0.014  0.901  0.014  0.000  0.985
    1 -0.000 -0.000  0.000 -0.000 -0.000  0.000 -0.001  0.000 -0.000 -0.001
    1 -0.000 -0.000  0.000  0.000 -0.000  0.000 -0.000 -0.000  0.000 -0.000
    1 -0.000  0.000  0.000  0.000  0.056  0.014  0.901  0.014  0.000  0.985
 
band    11 # energy    8.62771396 # occ.  1.00000000
 
ion      s     py     pz     px    dxy    dyz    dz2    dxz  x2-y2    tot
    1  0.000  0.000  0.000  0.000  0.078  0.020  0.867  0.019  0.000  0.985
    1  0.000 -0.000  0.000 -0.000 -0.000  0.000  0.001  0.000 -0.000  0.001
    1  0.000 -0.000  0.000 -0.000 -0.000  0.000  0.000 -0.000  0.000  0.000
    1  0.000 -0.000 -0.000 -0.000 -0.078 -0.020 -0.867 -0.019 -0.000 -0.985
 
band    12 # energy    8.62914577 # occ.  1.00000000
 
ion      s     py     pz     px    dxy    dyz    dz2    dxz  x2-y2    tot
    1  0.000  0.000  0.000  0.000  0.000  0.059  0.000  0.059  0.867  0.985
    1  0.000  0.000  0.000  0.000  0.000  0.000  0.000  0.000  0.001  0.002
    1  0.000  0.000 -0.000 -0.000 -0.000  0.000 -0.000 -0.000  0.000  0.000
    1  0.000 -0.000 -0.000 -0.000 -0.000 -0.059 -0.000 -0.059 -0.867 -0.985
 
band    13 # energy   27.19499700 # occ.  0.00000000
 
ion      s     py     pz     px    dxy    dyz    dz2    dxz  x2-y2    tot
    1  0.059  0.093  0.093  0.093  0.128  0.128  0.000  0.128  0.000  0.720
    1  0.000  0.001  0.001  0.001  0.001  0.001 -0.000  0.001  0.000  0.005
    1  0.000  0.000  0.000  0.000  0.000  0.000 -0.000  0.000  0.000  0.001
    1  0.059  0.093  0.093  0.093  0.128  0.128 -0.000  0.128 -0.000  0.719
 
band    14 # energy   27.25231956 # occ.  0.00000000
 
ion      s     py     pz     px    dxy    dyz    dz2    dxz  x2-y2    tot
    1  0.059  0.091  0.091  0.091  0.128  0.128  0.000  0.128  0.000  0.713
    1 -0.000 -0.001 -0.001 -0.001 -0.001 -0.001 -0.000 -0.001 -0.000 -0.005
    1 -0.000 -0.000 -0.000 -0.000 -0.000 -0.000 -0.000 -0.000 -0.000 -0.001
    1 -0.059 -0.091 -0.091 -0.091 -0.128 -0.128  0.000 -0.128  0.000 -0.713
 
band    15 # energy   33.53711128 # occ.  0.00000000
 
ion      s     py     pz     px    dxy    dyz    dz2    dxz  x2-y2    tot
    1  0.030  0.008  0.008  0.008  0.019  0.018  0.000  0.018  0.000  0.108
    1 -0.000 -0.000  0.000 -0.000  0.000 -0.000  0.000 -0.000  0.000 -0.000
    1 -0.000  0.000  0.000 -0.000  0.000 -0.000  0.000  0.000 -0.000 -0.000
    1 -0.030 -0.008 -0.008 -0.008 -0.019 -0.018 -0.000 -0.018  0.000 -0.108
 
band    16 # energy   33.67256702 # occ.  0.00000000
 
ion      s     py     pz     px    dxy    dyz    dz2    dxz  x2-y2    tot
    1  0.031  0.008  0.008  0.008  0.019  0.019  0.000  0.019  0.000  0.112
    1  0.000 -0.000  0.000 -0.000  0.000  0.000  0.000 -0.000 -0.000 -0.000
    1 -0.000  0.000  0.000 -0.000  0.000 -0.000  0.000  0.000 -0.000 -0.000
    1  0.031  0.008  0.008  0.008  0.019  0.019 -0.000  0.019 -0.000  0.112
 
band    17 # energy   35.27352607 # occ.  0.00000000
 
ion      s     py     pz     px    dxy    dyz    dz2    dxz  x2-y2    tot
    1  0.000  0.176  0.000  0.177  0.000  0.184  0.000  0.183  0.051  0.772
    1  0.000 -0.012  0.000 -0.009  0.000 -0.009  0.000 -0.012 -0.003 -0.043
    1  0.000  0.003  0.000 -0.009  0.000 -0.009  0.000  0.003 -0.001 -0.012
    1 -0.000  0.176 -0.000  0.177 -0.000  0.184 -0.000  0.183  0.051  0.770
 
band    18 # energy   35.27466220 # occ.  0.00000000
 
ion      s     py     pz     px    dxy    dyz    dz2    dxz  x2-y2    tot
    1  0.000  0.059  0.235  0.059  0.245  0.061  0.051  0.062  0.000  0.772
    1 -0.000 -0.002 -0.003  0.001 -0.003  0.001 -0.001 -0.002  0.000 -0.009
    1 -0.000  0.006 -0.001 -0.006 -0.001 -0.006 -0.000  0.006  0.000 -0.002
    1 -0.000  0.059  0.235  0.059  0.245  0.061  0.051  0.061 -0.000  0.771
 
band    19 # energy   35.31138447 # occ.  0.00000000
 
ion      s     py     pz     px    dxy    dyz    dz2    dxz  x2-y2    tot
    1  0.000  0.058  0.231  0.058  0.242  0.061  0.053  0.061  0.000  0.764
    1  0.000  0.002  0.003 -0.001  0.003 -0.001  0.001  0.002 -0.000  0.009
    1  0.000 -0.006  0.001  0.006  0.001  0.006  0.000 -0.006 -0.000  0.002
    1  0.000 -0.058 -0.231 -0.057 -0.242 -0.060 -0.053 -0.061  0.000 -0.762
 
band    20 # energy   35.31296918 # occ.  0.00000000
 
ion      s     py     pz     px    dxy    dyz    dz2    dxz  x2-y2    tot
    1  0.000  0.173  0.000  0.173  0.000  0.182  0.000  0.182  0.053  0.764
    1  0.000  0.012 -0.000  0.008 -0.000  0.009 -0.000  0.012  0.003  0.043
    1  0.000 -0.003 -0.000  0.009 -0.000  0.009 -0.000 -0.003  0.001  0.012
    1  0.000 -0.173  0.000 -0.173  0.000 -0.181  0.000 -0.181 -0.053 -0.761
 

 k-point     4 :    0.27272727-0.00000000-0.00000000     weight = 0.00601052

band     1 # energy    2.90761322 # occ.  1.00000000
 
ion      s     py     pz     px    dxy    dyz    dz2    dxz  x2-y2    tot
    1  0.528  0.047  0.047  0.047  0.025  0.025  0.000  0.025  0.000  0.744
    1  0.005  0.000  0.000  0.000  0.000  0.000  0.000  0.000 -0.000  0.007
    1  0.000 -0.000  0.000  0.000  0.000  0.000  0.000 -0.000  0.000  0.001
    1 -0.528 -0.047 -0.047 -0.047 -0.025 -0.025  0.000 -0.025  0.000 -0.744
 
band     2 # energy    2.91825435 # occ.  1.00000000
 
ion      s     py     pz     px    dxy    dyz    dz2    dxz  x2-y2    tot
    1  0.519  0.044  0.044  0.044  0.032  0.032  0.000  0.032  0.000  0.749
    1 -0.005 -0.000 -0.001 -0.001 -0.000 -0.000 -0.000 -0.000  0.000 -0.007
    1 -0.000 -0.000 -0.000 -0.000 -0.000  0.000 -0.000 -0.000  0.000 -0.001
    1  0.519  0.044  0.044  0.044  0.032  0.032  0.000  0.032 -0.000  0.748
 
band     3 # energy    6.62273913 # occ.  1.00000000
 
ion      s     py     pz     px    dxy    dyz    dz2    dxz  x2-y2    tot
    1  0.021  0.026  0.026  0.026  0.275  0.275  0.000  0.275  0.000  0.924
    1 -0.000 -0.000 -0.000 -0.000 -0.002 -0.002 -0.000 -0.002 -0.000 -0.006
    1 -0.000 -0.000 -0.000 -0.000 -0.001 -0.001 -0.000 -0.000  0.000 -0.002
    1  0.021  0.026  0.026  0.026  0.275  0.275  0.000  0.275 -0.000  0.924
 
band     4 # energy    7.12412742 # occ.  1.00000000
 
ion      s     py     pz     px    dxy    dyz    dz2    dxz  x2-y2    tot
    1  0.000  0.001  0.000  0.000  0.001  0.314  0.001  0.344  0.314  0.974
    1  0.000 -0.000  0.000  0.000 -0.000 -0.000  0.000  0.001  0.001  0.001
    1 -0.000  0.000 -0.000 -0.000  0.000  0.002 -0.000 -0.002  0.000  0.000
    1 -0.000  0.001  0.000  0.000  0.001  0.314  0.001  0.344  0.314  0.974
 
band     5 # energy    7.12479181 # occ.  1.00000000
 
ion      s     py     pz     px    dxy    dyz    dz2    dxz  x2-y2    tot
    1  0.000  0.000  0.001  0.000  0.439  0.126  0.313  0.095  0.001  0.974
    1 -0.000 -0.000  0.000 -0.000 -0.000  0.001  0.000  0.001 -0.000  0.001
    1 -0.000 -0.000  0.000 -0.000 -0.000  0.000  0.000  0.000  0.000  0.000
    1 -0.000  0.000  0.001  0.000  0.439  0.126  0.313  0.095  0.001  0.974
 
band     6 # energy    7.18292428 # occ.  1.00000000
 
ion      s     py     pz     px    dxy    dyz    dz2    dxz  x2-y2    tot
    1  0.012  0.025  0.025  0.025  0.280  0.279  0.000  0.279  0.000  0.926
    1  0.000  0.000  0.000  0.000  0.003  0.002  0.000  0.000  0.000  0.006
    1  0.000  0.000  0.000  0.000  0.001 -0.002  0.000  0.003 -0.000  0.002
    1 -0.012 -0.025 -0.025 -0.025 -0.280 -0.279  0.000 -0.279  0.000 -0.926
 
band     7 # energy    7.76205767 # occ.  1.00000000
 
ion      s     py     pz     px    dxy    dyz    dz2    dxz  x2-y2    tot
    1  0.000  0.000  0.001  0.000  0.391  0.094  0.384  0.103  0.000  0.973
    1  0.000 -0.000  0.000 -0.000 -0.000 -0.000 -0.001 -0.000  0.000 -0.001
    1  0.000  0.000  0.000 -0.000 -0.000 -0.000 -0.000  0.000 -0.000 -0.000
    1  0.000 -0.000 -0.001 -0.000 -0.391 -0.094 -0.384 -0.103 -0.000 -0.973
 
band     8 # energy    7.76288464 # occ.  1.00000000
 
ion      s     py     pz     px    dxy    dyz    dz2    dxz  x2-y2    tot
    1  0.000  0.000  0.000  0.000  0.000  0.298  0.000  0.289  0.384  0.973
    1 -0.000 -0.000 -0.000 -0.000  0.000 -0.001 -0.000 -0.001 -0.000 -0.001
    1  0.000  0.000  0.000 -0.000 -0.000 -0.001  0.000  0.000 -0.000 -0.000
    1  0.000 -0.000 -0.000 -0.000 -0.000 -0.298 -0.000 -0.289 -0.384 -0.973
 