<?xml version="1.0" encoding="ISO-8859-1"?>
<modeling>
 <generator>
  <i name="program" type="string">vasp </i>
  <i name="version" type="string">6.3.0  </i>
  <i name="subversion" type="string">20Jan22 (build Feb 01 2022 17:34:01) complex                          parallel </i>
  <i name="platform" type="string">TETRA_NSC1 </i>
  <i name="date" type="string">2022 02 23 </i>
  <i name="time" type="string">15:11:09 </i>
 </generator>
 <incar>
  <i type="string" name="SYSTEM">Ni fcc bulk</i>
  <i type="int" name="ISTART">     0</i>
  <i type="logical" name="LNONCOLLINEAR"> T  </i>
  <v name="MAGMOM">      0.00000000      0.00000000      1.00000000</v>
  <i type="int" name="ISMEAR">    -5</i>
  <i type="int" name="LORBIT">    11</i>
  <i type="int" name="VOSKOWN">     1</i>
 </incar>
 <primitive_cell>
  <structure name="primitive_cell" >
   <crystal>
    <varray name="basis" >
     <v>       1.76142189       1.76142189       0.00000000 </v>
     <v>       0.00000000       1.76142189       1.76142189 </v>
     <v>       1.76142189       0.00000000       1.76142189 </v>
    </varray>
    <i name="volume">     10.93000000 </i>
    <varray name="rec_basis" >
     <v>       0.28386158       0.28386158      -0.28386158 </v>
     <v>      -0.28386158       0.28386158       0.28386158 </v>
     <v>       0.28386158      -0.28386158       0.28386158 </v>
    </varray>
   </crystal>
   <varray name="positions" >
    <v>       0.00000000       0.00000000       0.00000000 </v>
   </varray>
  </structure>
  <varray name="primitive_index" >
   <v type="int" >        1 </v>
  </varray>
 </primitive_cell>
 <kpoints>
  <generation param="Gamma">
   <v type="int" name="divisions">      11       11       11 </v>
   <v name="usershift">      0.00000000       0.00000000       0.00000000 </v>
   <v name="genvec1">      0.09090909       0.00000000       0.00000000 </v>
   <v name="genvec2">      0.00000000       0.09090909      -0.00000000 </v>
   <v name="genvec3">     -0.00000000      -0.00000000       0.09090909 </v>
   <v name="shift">      0.00000000       0.00000000       0.00000000 </v>
  </generation>
  <varray name="kpointlist" >
   <v>       0.00000000       0.00000000       0.00000000 </v>
   <v>       0.09090909       0.00000000       0.00000000 </v>
   <v>       0.18181818      -0.00000000      -0.00000000 </v>
   <v>       0.27272727      -0.00000000      -0.00000000 </v>
   <v>       0.36363636      -0.00000000      -0.00000000 </v>
   <v>       0.45454545      -0.00000000       0.00000000 </v>
   <v>       0.09090909       0.09090909      -0.00000000 </v>
   <v>       0.00000000       0.09090909       0.09090909 </v>
   <v>       0.18181818       0.09090909       0.00000000 </v>
   <v>       0.00000000       0.18181818       0.09090909 </v>
   <v>       0.09090909       0.09090909      -0.09090909 </v>
   <v>       0.27272727       0.09090909       0.00000000 </v>
   <v>       0.00000000       0.27272727       0.09090909 </v>
   <v>       0.09090909       0.09090909      -0.18181818 </v>
   <v>       0.36363636       0.09090909       0.00000000 </v>
   <v>       0.00000000       0.36363636       0.09090909 </v>
   <v>       0.09090909       0.09090909      -0.27272727 </v>
   <v>       0.45454545       0.09090909       0.00000000 </v>
   <v>       0.00000000       0.45454545       0.09090909 </v>
   <v>       0.09090909       0.09090909      -0.36363636 </v>
   <v>      -0.45454545       0.09090909       0.00000000 </v>
   <v>      -0.00000000      -0.45454545       0.09090909 </v>
   <v>       0.09090909       0.09090909      -0.45454545 </v>
   <v>      -0.36363636       0.09090909      -0.00000000 </v>
   <v>      -0.00000000      -0.36363636       0.09090909 </v>
   <v>       0.09090909       0.09090909       0.45454545 </v>
   <v>      -0.27272727       0.09090909       0.00000000 </v>
   <v>      -0.00000000      -0.27272727       0.09090909 </v>
   <v>       0.09090909       0.09090909       0.36363636 </v>
   <v>      -0.18181818       0.09090909       0.00000000 </v>
   <v>      -0.00000000      -0.18181818       0.09090909 </v>
   <v>       0.09090909       0.09090909       0.27272727 </v>
   <v>      -0.09090909       0.09090909      -0.00000000 </v>
   <v>      -0.00000000      -0.09090909       0.09090909 </v>
   <v>       0.18181818       0.18181818       0.00000000 </v>
   <v>       0.00000000       0.18181818       0.18181818 </v>
   <v>       0.27272727       0.18181818       0.00000000 </v>
   <v>       0.00000000       0.27272727       0.18181818 </v>
   <v>       0.18181818       0.18181818      -0.09090909 </v>
   <v>       0.36363636       0.18181818       0.00000000 </v>
   <v>       0.00000000       0.36363636       0.18181818 </v>
   <v>       0.18181818       0.18181818      -0.18181818 </v>
   <v>       0.45454545       0.18181818       0.00000000 </v>
   <v>       0.00000000       0.45454545       0.18181818 </v>
   <v>       0.18181818       0.18181818      -0.27272727 </v>
   <v>      -0.45454545       0.18181818      -0.00000000 </v>
   <v>      -0.00000000      -0.45454545       0.18181818 </v>
   <v>       0.18181818       0.18181818      -0.36363636 </v>
   <v>      -0.36363636       0.18181818       0.00000000 </v>
   <v>       0.00000000      -0.36363636       0.18181818 </v>
   <v>       0.18181818       0.18181818      -0.45454545 </v>
   <v>      -0.27272727       0.18181818       0.00000000 </v>
   <v>       0.00000000      -0.27272727       0.18181818 </v>
   <v>       0.18181818       0.18181818       0.45454545 </v>
   <v>      -0.18181818       0.18181818       0.00000000 </v>
   <v>       0.00000000      -0.18181818       0.18181818 </v>
   <v>       0.27272727       0.27272727       0.00000000 </v>
   <v>       0.00000000       0.27272727       0.27272727 </v>
   <v>       0.36363636       0.27272727       0.00000000 </v>
   <v>       0.00000000       0.36363636       0.27272727 </v>
   <v>       0.27272727       0.27272727      -0.09090909 </v>
   <v>       0.45454545       0.27272727       0.00000000 </v>
   <v>       0.00000000       0.45454545       0.27272727 </v>
   <v>       0.27272727       0.27272727      -0.18181818 </v>
   <v>      -0.45454545       0.27272727      -0.00000000 </v>
   <v>       0.00000000      -0.45454545       0.27272727 </v>
   <v>       0.27272727       0.27272727      -0.27272727 </v>
   <v>      -0.36363636       0.27272727       0.00000000 </v>
   <v>       0.00000000      -0.36363636       0.27272727 </v>
   <v>       0.27272727       0.27272727      -0.36363636 </v>
   <v>      -0.27272727       0.27272727       0.00000000 </v>
   <v>       0.00000000      -0.27272727       0.27272727 </v>
   <v>       0.36363636       0.36363636       0.00000000 </v>
   <v>       0.00000000       0.36363636       0.36363636 </v>
   <v>       0.45454545       0.36363636       0.00000000 </v>
   <v>       0.00000000       0.45454545       0.36363636 </v>
   <v>       0.36363636       0.36363636      -0.09090909 </v>
   <v>      -0.45454545       0.36363636      -0.00000000 </v>
   <v>       0.00000000      -0.45454545       0.36363636 </v>
   <v>       0.36363636       0.36363636      -0.18181818 </v>
   <v>      -0.36363636       0.36363636       0.00000000 </v>
   <v>       0.00000000      -0.36363636       0.36363636 </v>
   <v>       0.45454545       0.45454545       0.00000000 </v>
   <v>       0.00000000       0.45454545       0.45454545 </v>
   <v>      -0.45454545       0.45454545       0.00000000 </v>
   <v>       0.00000000      -0.45454545       0.45454545 </v>
   <v>       0.27272727       0.18181818       0.09090909 </v>
   <v>       0.09090909       0.27272727       0.18181818 </v>
   <v>       0.18181818       0.09090909       0.27272727 </v>
   <v>       0.27272727       0.09090909       0.18181818 </v>
   <v>       0.36363636       0.18181818       0.09090909 </v>
   <v>       0.09090909       0.36363636       0.18181818 </v>
   <v>       0.18181818       0.09090909       0.36363636 </v>
   <v>       0.18181818       0.09090909      -0.18181818 </v>
   <v>       0.36363636       0.18181818       0.27272727 </v>
   <v>       0.09090909      -0.27272727      -0.09090909 </v>
   <v>       0.45454545       0.18181818       0.09090909 </v>
   <v>       0.09090909       0.45454545       0.18181818 </v>
   <v>       0.18181818       0.09090909       0.45454545 </v>
   <v>       0.18181818       0.09090909      -0.27272727 </v>
   <v>       0.45454545       0.27272727       0.36363636 </v>
   <v>       0.09090909      -0.36363636      -0.09090909 </v>
   <v>      -0.45454545       0.18181818       0.09090909 </v>
   <v>       0.09090909      -0.45454545       0.18181818 </v>
   <v>       0.18181818       0.09090909      -0.45454545 </v>
   <v>       0.18181818       0.09090909      -0.36363636 </v>
   <v>      -0.45454545       0.36363636       0.45454545 </v>
   <v>       0.09090909      -0.45454545      -0.09090909 </v>
   <v>       0.36363636       0.27272727       0.09090909 </v>
   <v>       0.09090909       0.36363636       0.27272727 </v>
   <v>       0.27272727       0.09090909       0.36363636 </v>
   <v>       0.36363636       0.09090909       0.27272727 </v>
   <v>       0.45454545       0.27272727       0.09090909 </v>
   <v>       0.09090909       0.45454545       0.27272727 </v>
   <v>       0.27272727       0.09090909       0.45454545 </v>
   <v>       0.27272727       0.18181818      -0.18181818 </v>
   <v>       0.45454545       0.18181818       0.36363636 </v>
   <v>       0.09090909      -0.36363636      -0.18181818 </v>
   <v>      -0.45454545       0.27272727       0.09090909 </v>
   <v>       0.09090909      -0.45454545       0.27272727 </v>
   <v>       0.27272727       0.09090909      -0.45454545 </v>
   <v>       0.27272727       0.18181818      -0.27272727 </v>
   <v>      -0.45454545       0.27272727       0.45454545 </v>
   <v>       0.09090909      -0.45454545      -0.18181818 </v>
   <v>      -0.36363636       0.27272727       0.09090909 </v>
   <v>       0.09090909      -0.36363636       0.27272727 </v>
   <v>       0.27272727       0.09090909      -0.36363636 </v>
   <v>       0.27272727       0.18181818      -0.36363636 </v>
   <v>      -0.36363636       0.36363636      -0.45454545 </v>
   <v>       0.09090909       0.45454545      -0.18181818 </v>
   <v>      -0.27272727       0.27272727       0.09090909 </v>
   <v>       0.09090909      -0.27272727       0.27272727 </v>
   <v>       0.27272727       0.09090909      -0.27272727 </v>
   <v>       0.27272727       0.18181818      -0.45454545 </v>
   <v>      -0.27272727       0.45454545      -0.36363636 </v>
   <v>       0.09090909       0.36363636      -0.18181818 </v>
   <v>      -0.18181818       0.27272727       0.09090909 </v>
   <v>       0.09090909      -0.18181818       0.27272727 </v>
   <v>       0.27272727       0.09090909      -0.18181818 </v>
   <v>       0.09090909       0.27272727      -0.18181818 </v>
   <v>       0.45454545       0.36363636       0.09090909 </v>
   <v>       0.09090909       0.45454545       0.36363636 </v>
   <v>       0.36363636       0.09090909       0.45454545 </v>
   <v>       0.45454545       0.09090909       0.36363636 </v>
   <v>      -0.45454545       0.36363636       0.09090909 </v>
   <v>       0.09090909      -0.45454545       0.36363636 </v>
   <v>       0.36363636       0.09090909      -0.45454545 </v>
   <v>       0.36363636       0.27272727      -0.18181818 </v>
   <v>      -0.45454545       0.18181818       0.45454545 </v>
   <v>       0.09090909      -0.45454545      -0.27272727 </v>
   <v>      -0.36363636       0.36363636       0.09090909 </v>
   <v>       0.09090909      -0.36363636       0.36363636 </v>
   <v>       0.36363636       0.09090909      -0.36363636 </v>
   <v>       0.36363636       0.27272727      -0.27272727 </v>
   <v>      -0.36363636       0.27272727      -0.45454545 </v>
   <v>       0.09090909       0.45454545      -0.27272727 </v>
   <v>      -0.27272727       0.36363636       0.09090909 </v>
   <v>       0.09090909      -0.27272727       0.36363636 </v>
   <v>       0.36363636       0.09090909      -0.27272727 </v>
   <v>       0.09090909       0.36363636      -0.27272727 </v>
   <v>      -0.45454545       0.45454545       0.09090909 </v>
   <v>       0.09090909      -0.45454545       0.45454545 </v>
   <v>       0.45454545       0.09090909      -0.45454545 </v>
   <v>      -0.45454545       0.09090909       0.45454545 </v>
   <v>      -0.36363636       0.45454545       0.09090909 </v>
   <v>       0.09090909      -0.36363636       0.45454545 </v>
   <v>       0.45454545       0.09090909      -0.36363636 </v>
   <v>       0.09090909       0.45454545      -0.36363636 </v>
   <v>      -0.45454545       0.36363636       0.18181818 </v>
   <v>       0.18181818      -0.45454545       0.36363636 </v>
   <v>       0.36363636       0.18181818      -0.45454545 </v>
   <v>      -0.45454545       0.18181818       0.36363636 </v>
   <v>      -0.36363636       0.36363636       0.18181818 </v>
   <v>       0.18181818      -0.36363636       0.36363636 </v>
   <v>       0.36363636       0.18181818      -0.36363636 </v>
   <v>       0.36363636       0.18181818      -0.27272727 </v>
   <v>      -0.36363636       0.27272727       0.45454545 </v>
   <v>       0.18181818      -0.45454545      -0.18181818 </v>
   <v>      -0.36363636       0.45454545       0.18181818 </v>
   <v>       0.18181818      -0.36363636       0.45454545 </v>
   <v>       0.45454545       0.18181818      -0.36363636 </v>
   <v>      -0.36363636       0.18181818       0.45454545 </v>
   <v>      -0.27272727       0.45454545       0.18181818 </v>
   <v>       0.18181818      -0.27272727       0.45454545 </v>
   <v>       0.45454545       0.18181818      -0.27272727 </v>
   <v>       0.18181818       0.45454545      -0.27272727 </v>
  </varray>
  <varray name="weights" >
   <v>       0.00075131 </v>
   <v>       0.00601052 </v>
   <v>       0.00601052 </v>
   <v>       0.00601052 </v>
   <v>       0.00601052 </v>
   <v>       0.00601052 </v>
   <v>       0.00300526 </v>
   <v>       0.00150263 </v>
   <v>       0.00601052 </v>
   <v>       0.00601052 </v>
   <v>       0.00601052 </v>
   <v>       0.00601052 </v>
   <v>       0.00601052 </v>
   <v>       0.00601052 </v>
   <v>       0.00601052 </v>
   <v>       0.00601052 </v>
   <v>       0.00601052 </v>
   <v>       0.00601052 </v>
   <v>       0.00601052 </v>
   <v>       0.00601052 </v>
   <v>       0.00601052 </v>
   <v>       0.00601052 </v>
   <v>       0.00601052 </v>
   <v>       0.00601052 </v>
   <v>       0.00601052 </v>
   <v>       0.00601052 </v>
   <v>       0.00601052 </v>
   <v>       0.00601052 </v>
   <v>       0.00601052 </v>
   <v>       0.00601052 </v>
   <v>       0.00601052 </v>
   <v>       0.00601052 </v>
   <v>       0.00601052 </v>
   <v>       0.00300526 </v>
   <v>       0.00300526 </v>
   <v>       0.00150263 </v>
   <v>       0.00601052 </v>
   <v>       0.00601052 </v>
   <v>       0.00601052 </v>
   <v>       0.00601052 </v>
   <v>       0.00601052 </v>
   <v>       0.00601052 </v>
   <v>       0.00601052 </v>
   <v>       0.00601052 </v>
   <v>       0.00601052 </v>
   <v>       0.00601052 </v>
   <v>       0.00601052 </v>
   <v>       0.00601052 </v>
   <v>       0.00601052 </v>
   <v>       0.00601052 </v>
   <v>       0.00601052 </v>
   <v>       0.00601052 </v>
   <v>       0.00601052 </v>
   <v>       0.00601052 </v>
   <v>       0.00601052 </v>
   <v>       0.00300526 </v>
   <v>       0.00300526 </v>
   <v>       0.00150263 </v>
   <v>       0.00601052 </v>
   <v>       0.00601052 </v>
   <v>       0.00601052 </v>
   <v>       0.00601052 </v>
   <v>       0.00601052 </v>
   <v>       0.00601052 </v>
   <v>       0.00601052 </v>
   <v>       0.00601052 </v>
   <v>       0.00601052 </v>
   <v>       0.00601052 </v>
   <v>       0.00601052 </v>
   <v>       0.00601052 </v>
   <v>       0.00601052 </v>
   <v>       0.00300526 </v>
   <v>       0.00300526 </v>
   <v>       0.00150263 </v>
   <v>       0.00601052 </v>
   <v>       0.00601052 </v>
   <v>       0.00601052 </v>
   <v>       0.00601052 </v>
   <v>       0.00601052 </v>
   <v>       0.00601052 </v>
   <v>       0.00601052 </v>
   <v>       0.00300526 </v>
   <v>       0.00300526 </v>
   <v>       0.00150263 </v>
   <v>       0.00601052 </v>
   <v>       0.00300526 </v>
   <v>       0.00300526 </v>
   <v>       0.00601052 </v>
   <v>       0.00601052 </v>
   <v>       0.00300526 </v>
   <v>       0.00601052 </v>
   <v>       0.00601052 </v>
   <v>       0.00601052 </v>
   <v>       0.00601052 </v>
   <v>       0.00601052 </v>
   <v>       0.00601052 </v>
   <v>       0.00601052 </v>
   <v>       0.00601052 </v>
   <v>       0.00601052 </v>
   <v>       0.00601052 </v>
   <v>       0.00601052 </v>
   <v>       0.00601052 </v>
   <v>       0.00601052 </v>
   <v>       0.00601052 </v>
   <v>       0.00601052 </v>
   <v>       0.00601052 </v>
   <v>       0.00601052 </v>
   <v>       0.00601052 </v>
   <v>       0.00300526 </v>
   <v>       0.00601052 </v>
   <v>       0.00601052 </v>
   <v>       0.00300526 </v>
   <v>       0.00601052 </v>
   <v>       0.00601052 </v>
   <v>       0.00601052 </v>
   <v>       0.00601052 </v>
   <v>       0.00601052 </v>
   <v>       0.00601052 </v>
   <v>       0.00601052 </v>
   <v>       0.00601052 </v>
   <v>       0.00601052 </v>
   <v>       0.00601052 </v>
   <v>       0.00601052 </v>
   <v>       0.00601052 </v>
   <v>       0.00601052 </v>
   <v>       0.00601052 </v>
   <v>       0.00601052 </v>
   <v>       0.00601052 </v>
   <v>       0.00601052 </v>
   <v>       0.00601052 </v>
   <v>       0.00601052 </v>
   <v>       0.00601052 </v>
   <v>       0.00601052 </v>
   <v>       0.00601052 </v>
   <v>       0.00601052 </v>
   <v>       0.00601052 </v>
   <v>       0.00601052 </v>
   <v>       0.00300526 </v>
   <v>       0.00601052 </v>
   <v>       0.00300526 </v>
   <v>       0.00300526 </v>
   <v>       0.00601052 </v>
   <v>       0.00601052 </v>
   <v>       0.00300526 </v>
   <v>       0.00601052 </v>
   <v>       0.00601052 </v>
   <v>       0.00601052 </v>
   <v>       0.00601052 </v>
   <v>       0.00601052 </v>
   <v>       0.00601052 </v>
   <v>       0.00601052 </v>
   <v>       0.00601052 </v>
   <v>       0.00601052 </v>
   <v>       0.00601052 </v>
   <v>       0.00601052 </v>
   <v>       0.00601052 </v>
   <v>       0.00601052 </v>
   <v>       0.00300526 </v>
   <v>       0.00601052 </v>
   <v>       0.00300526 </v>
   <v>       0.00300526 </v>
   <v>       0.00601052 </v>
   <v>       0.00601052 </v>
   <v>       0.00300526 </v>
   <v>       0.00601052 </v>
   <v>       0.00300526 </v>
   <v>       0.00601052 </v>
   <v>       0.00300526 </v>
   <v>       0.00300526 </v>
   <v>       0.00601052 </v>
   <v>       0.00601052 </v>
   <v>       0.00300526 </v>
   <v>       0.00601052 </v>
   <v>       0.00601052 </v>
   <v>       0.00601052 </v>
   <v>       0.00601052 </v>
   <v>       0.00601052 </v>
   <v>       0.00601052 </v>
   <v>       0.00300526 </v>
   <v>       0.00601052 </v>
   <v>       0.00601052 </v>
   <v>       0.00300526 </v>
   <v>       0.00601052 </v>
   <v>       0.00300526 </v>
   <v>       0.00601052 </v>
   <v>       0.00300526 </v>
  </varray>
  <varray name="tetrahedronlist"  type="int" >
   <v type="int" >       16        1        2        2        7 </v>
   <v type="int" >        8        1        2        2        8 </v>
   <v type="int" >        8        2        7        9       34 </v>
   <v type="int" >        8        2        3        9       34 </v>
   <v type="int" >        8        2        3       11       34 </v>
   <v type="int" >        8        2        2        7       34 </v>
   <v type="int" >        8        2        7       11       34 </v>
   <v type="int" >        8        3        9       12       31 </v>
   <v type="int" >        8        3        4       12       31 </v>
   <v type="int" >        8        3        4       14       31 </v>
   <v type="int" >        8        3        9       31       34 </v>
   <v type="int" >        8        3       11       31       34 </v>
   <v type="int" >        8        3       11       14       31 </v>
   <v type="int" >        8        4       12       15       28 </v>
   <v type="int" >        8        4        5       15       28 </v>
   <v type="int" >        8        4        5       17       28 </v>
   <v type="int" >        8        4       12       28       31 </v>
   <v type="int" >        8        4       14       28       31 </v>
   <v type="int" >        8        4       14       17       28 </v>
   <v type="int" >        8        5       15       18       25 </v>
   <v type="int" >        8        5        6       18       25 </v>
   <v type="int" >        8        5        6       20       25 </v>
   <v type="int" >        8        5       15       25       28 </v>
   <v type="int" >        8        5       17       25       28 </v>
   <v type="int" >        8        5       17       20       25 </v>
   <v type="int" >        8        6       18       21       22 </v>
   <v type="int" >        8        6        6       21       22 </v>
   <v type="int" >        8        6        6       22       23 </v>
   <v type="int" >        8        6       18       22       25 </v>
   <v type="int" >        8        6       20       22       25 </v>
   <v type="int" >        8        6       20       22       23 </v>
   <v type="int" >        8        6       19       21       24 </v>
   <v type="int" >        8        5        6       19       24 </v>
   <v type="int" >        8        5        6       19       26 </v>
   <v type="int" >        8        6       19       21       22 </v>
   <v type="int" >        8        6       19       22       23 </v>
   <v type="int" >        8        6       19       23       26 </v>
   <v type="int" >        8        5       16       24       27 </v>
   <v type="int" >        8        4        5       16       27 </v>
   <v type="int" >        8        4        5       16       29 </v>
   <v type="int" >        8        5       16       19       24 </v>
   <v type="int" >        8        5       16       19       26 </v>
   <v type="int" >        8        5       16       26       29 </v>
   <v type="int" >        8        4       13       27       30 </v>
   <v type="int" >        8        3        4       13       30 </v>
   <v type="int" >        8        3        4       13       32 </v>
   <v type="int" >        8        4       13       16       27 </v>
   <v type="int" >        8        4       13       16       29 </v>
   <v type="int" >        8        4       13       29       32 </v>
   <v type="int" >        8        3       10       30       33 </v>
   <v type="int" >       16        2        3       10       33 </v>
   <v type="int" >        8        3       10       13       30 </v>
   <v type="int" >        8        3       10       13       32 </v>
   <v type="int" >        8        3       10       32       33 </v>
   <v type="int" >        8        2        2        8       33 </v>
   <v type="int" >       16        2        8       10       33 </v>
   <v type="int" >        8        2        3       11       33 </v>
   <v type="int" >        8        2        7       11       33 </v>
   <v type="int" >        8        2        2        7       33 </v>
   <v type="int" >        8        7        9       11       35 </v>
   <v type="int" >        4        7        9        9       35 </v>
   <v type="int" >        4        7        9        9       34 </v>
   <v type="int" >        8        7        9       11       33 </v>
   <v type="int" >        8        2        7        9       33 </v>
   <v type="int" >        8        9       35       37       87 </v>
   <v type="int" >        8        9       12       37       87 </v>
   <v type="int" >        8        9       12       31       87 </v>
   <v type="int" >        4        9        9       35       87 </v>
   <v type="int" >        4        9        9       34       87 </v>
   <v type="int" >        8        9       31       34       87 </v>
   <v type="int" >        8       12       37       40       91 </v>
   <v type="int" >        8       12       15       40       91 </v>
   <v type="int" >        8       12       15       28       91 </v>
   <v type="int" >        8       12       37       87       91 </v>
   <v type="int" >        8       12       31       87       91 </v>
   <v type="int" >        8       12       28       31       91 </v>
   <v type="int" >        8       15       40       43       97 </v>
   <v type="int" >        8       15       18       43       97 </v>
   <v type="int" >        8       15       18       25       97 </v>
   <v type="int" >        8       15       40       91       97 </v>
   <v type="int" >        8       15       28       91       97 </v>
   <v type="int" >        8       15       25       28       97 </v>
   <v type="int" >        8       18       43       46      103 </v>
   <v type="int" >        8       18       21       46      103 </v>
   <v type="int" >        8       18       21       22      103 </v>
   <v type="int" >        8       18       43       97      103 </v>
   <v type="int" >        8       18       25       97      103 </v>
   <v type="int" >        8       18       22       25      103 </v>
   <v type="int" >        8       21       46       49      104 </v>
   <v type="int" >        8       21       24       49      104 </v>
   <v type="int" >        8       19       21       24      104 </v>
   <v type="int" >        8       21       46      103      104 </v>
   <v type="int" >        8       21       22      103      104 </v>
   <v type="int" >        8       19       21       22      104 </v>
   <v type="int" >        8       24       49       52       98 </v>
   <v type="int" >        8       24       27       52       98 </v>
   <v type="int" >        8       16       24       27       98 </v>
   <v type="int" >        8       24       49       98      104 </v>
   <v type="int" >        8       19       24       98      104 </v>
   <v type="int" >        8       16       19       24       98 </v>
   <v type="int" >        8       27       52       55       92 </v>
   <v type="int" >        8       27       30       55       92 </v>
   <v type="int" >        8       13       27       30       92 </v>
   <v type="int" >        8       27       52       92       98 </v>
   <v type="int" >        8       16       27       92       98 </v>
   <v type="int" >        8       13       16       27       92 </v>
   <v type="int" >        8       30       32       55       88 </v>
   <v type="int" >        8       30       32       33       88 </v>
   <v type="int" >        8       10       30       33       88 </v>
   <v type="int" >        8       30       55       88       92 </v>
   <v type="int" >        8       13       30       88       92 </v>
   <v type="int" >        8       10       13       30       88 </v>
   <v type="int" >        8       10       32       33       88 </v>
   <v type="int" >        8       10       10       33       88 </v>
   <v type="int" >        8        8       10       10       33 </v>
   <v type="int" >        8        3        4       14       30 </v>
   <v type="int" >        8        3       11       14       30 </v>
   <v type="int" >        8        3       11       30       33 </v>
   <v type="int" >        8       11       14       39       89 </v>
   <v type="int" >        8       11       35       39       89 </v>
   <v type="int" >        8        9       11       35       89 </v>
   <v type="int" >        8       11       14       30       89 </v>
   <v type="int" >        8       11       30       33       89 </v>
   <v type="int" >        8        9       11       33       89 </v>
   <v type="int" >        8       35       37       39       57 </v>
   <v type="int" >        4       35       37       37       57 </v>
   <v type="int" >        4       35       37       37       87 </v>
   <v type="int" >        8       35       37       39       89 </v>
   <v type="int" >        8        9       35       37       89 </v>
   <v type="int" >        8       37       57       59      109 </v>
   <v type="int" >        8       37       40       59      109 </v>
   <v type="int" >        8       37       40       91      109 </v>
   <v type="int" >        4       37       37       57      109 </v>
   <v type="int" >        4       37       37       87      109 </v>
   <v type="int" >        8       37       87       91      109 </v>
   <v type="int" >        8       40       59       62      113 </v>
   <v type="int" >        8       40       43       62      113 </v>
   <v type="int" >        8       40       43       97      113 </v>
   <v type="int" >        8       40       59      109      113 </v>
   <v type="int" >        8       40       91      109      113 </v>
   <v type="int" >        8       40       91       97      113 </v>
   <v type="int" >        8       43       62       65      119 </v>
   <v type="int" >        8       43       46       65      119 </v>
   <v type="int" >        8       43       46      103      119 </v>
   <v type="int" >        8       43       62      113      119 </v>
   <v type="int" >        8       43       97      113      119 </v>
   <v type="int" >        8       43       97      103      119 </v>
   <v type="int" >        8       46       65       68      125 </v>
   <v type="int" >        8       46       49       68      125 </v>
   <v type="int" >        8       46       49      104      125 </v>
   <v type="int" >        8       46       65      119      125 </v>
   <v type="int" >        8       46      103      119      125 </v>
   <v type="int" >        8       46      103      104      125 </v>
   <v type="int" >        8       49       68       71      131 </v>
   <v type="int" >        8       49       52       71      131 </v>
   <v type="int" >        8       49       52       98      131 </v>
   <v type="int" >        8       49       68      125      131 </v>
   <v type="int" >        8       49      104      125      131 </v>
   <v type="int" >        8       49       98      104      131 </v>
   <v type="int" >        8       52       54       71      137 </v>
   <v type="int" >        8       52       54       55      137 </v>
   <v type="int" >        8       52       55       92      137 </v>
   <v type="int" >        8       52       71      131      137 </v>
   <v type="int" >        8       52       98      131      137 </v>
   <v type="int" >        8       52       92       98      137 </v>
   <v type="int" >        8       29       54       55       96 </v>
   <v type="int" >        8       29       32       55       96 </v>
   <v type="int" >        8       32       55       88       96 </v>
   <v type="int" >        8       54       55       96      137 </v>
   <v type="int" >        8       55       92       96      137 </v>
   <v type="int" >        8       55       88       92       96 </v>
   <v type="int" >        8       13       29       32       96 </v>
   <v type="int" >        8       13       32       88       96 </v>
   <v type="int" >        8       10       13       32       88 </v>
   <v type="int" >        8        4        5       17       27 </v>
   <v type="int" >        8        4       14       17       27 </v>
   <v type="int" >        8        4       14       27       30 </v>
   <v type="int" >        8       14       17       42       94 </v>
   <v type="int" >        8       14       39       42       94 </v>
   <v type="int" >        8       14       39       89       94 </v>
   <v type="int" >        8       14       17       27       94 </v>
   <v type="int" >        8       14       27       30       94 </v>
   <v type="int" >        8       14       30       89       94 </v>
   <v type="int" >        8       39       42       61      111 </v>
   <v type="int" >        8       39       57       61      111 </v>
   <v type="int" >        8       37       39       57      111 </v>
   <v type="int" >        8       39       42       94      111 </v>
   <v type="int" >        8       39       89       94      111 </v>
   <v type="int" >        8       37       39       89      111 </v>
   <v type="int" >        8       57       59       61       73 </v>
   <v type="int" >        4       57       59       59       73 </v>
   <v type="int" >        4       57       59       59      109 </v>
   <v type="int" >        8       57       59       61      111 </v>
   <v type="int" >        8       37       57       59      111 </v>
   <v type="int" >        8       59       73       75      141 </v>
   <v type="int" >        8       59       62       75      141 </v>
   <v type="int" >        8       59       62      113      141 </v>
   <v type="int" >        4       59       59       73      141 </v>
   <v type="int" >        4       59       59      109      141 </v>
   <v type="int" >        8       59      109      113      141 </v>
   <v type="int" >        8       62       75       78      145 </v>
   <v type="int" >        8       62       65       78      145 </v>
   <v type="int" >        8       62       65      119      145 </v>
   <v type="int" >        8       62       75      141      145 </v>
   <v type="int" >        8       62      113      141      145 </v>
   <v type="int" >        8       62      113      119      145 </v>
   <v type="int" >        8       65       78       81      151 </v>
   <v type="int" >        8       65       68       81      151 </v>
   <v type="int" >        8       65       68      125      151 </v>
   <v type="int" >        8       65       78      145      151 </v>
   <v type="int" >        8       65      119      145      151 </v>
   <v type="int" >        8       65      119      125      151 </v>
   <v type="int" >        8       68       70       81      157 </v>
   <v type="int" >        8       68       70       71      157 </v>
   <v type="int" >        8       68       71      131      157 </v>
   <v type="int" >        8       68       81      151      157 </v>
   <v type="int" >        8       68      125      151      157 </v>
   <v type="int" >        8       68      125      131      157 </v>
   <v type="int" >        8       51       70       71      135 </v>
   <v type="int" >        8       51       54       71      135 </v>
   <v type="int" >        8       54       71      135      137 </v>
   <v type="int" >        8       70       71      135      157 </v>
   <v type="int" >        8       71      131      135      157 </v>
   <v type="int" >        8       71      131      135      137 </v>
   <v type="int" >        8       26       51       54      102 </v>
   <v type="int" >        8       26       29       54      102 </v>
   <v type="int" >        8       29       54       96      102 </v>
   <v type="int" >        8       51       54      102      135 </v>
   <v type="int" >        8       54      102      135      137 </v>
   <v type="int" >        8       54       96      102      137 </v>
   <v type="int" >        8       16       26       29      102 </v>
   <v type="int" >        8       16       29       96      102 </v>
   <v type="int" >        8       13       16       29       96 </v>
   <v type="int" >        8        5        6       20       24 </v>
   <v type="int" >        8        5       17       20       24 </v>
   <v type="int" >        8        5       17       24       27 </v>
   <v type="int" >        8       17       20       45      100 </v>
   <v type="int" >        8       17       42       45      100 </v>
   <v type="int" >        8       17       42       94      100 </v>
   <v type="int" >        8       17       20       24      100 </v>
   <v type="int" >        8       17       24       27      100 </v>
   <v type="int" >        8       17       27       94      100 </v>
   <v type="int" >        8       42       45       64      116 </v>
   <v type="int" >        8       42       61       64      116 </v>
   <v type="int" >        8       42       61      111      116 </v>
   <v type="int" >        8       42       45      100      116 </v>
   <v type="int" >        8       42       94      100      116 </v>
   <v type="int" >        8       42       94      111      116 </v>
   <v type="int" >        8       61       64       77      143 </v>
   <v type="int" >        8       61       73       77      143 </v>
   <v type="int" >        8       59       61       73      143 </v>
   <v type="int" >        8       61       64      116      143 </v>
   <v type="int" >        8       61      111      116      143 </v>
   <v type="int" >        8       59       61      111      143 </v>
   <v type="int" >        8       73       75       77       83 </v>
   <v type="int" >        4       73       75       75       83 </v>
   <v type="int" >        4       73       75       75      141 </v>
   <v type="int" >        8       73       75       77      143 </v>
   <v type="int" >        8       59       73       75      143 </v>
   <v type="int" >        8       75       83       85      161 </v>
   <v type="int" >        8       75       78       85      161 </v>
   <v type="int" >        8       75       78      145      161 </v>
   <v type="int" >        4       75       75       83      161 </v>
   <v type="int" >        4       75       75      141      161 </v>
   <v type="int" >        8       75      141      145      161 </v>
   <v type="int" >        8       78       80       85      165 </v>
   <v type="int" >        8       78       80       81      165 </v>
   <v type="int" >        8       78       81      151      165 </v>
   <v type="int" >        8       78       85      161      165 </v>
   <v type="int" >        8       78      145      161      165 </v>
   <v type="int" >        8       78      145      151      165 </v>
   <v type="int" >        8       67       80       81      155 </v>
   <v type="int" >        8       67       70       81      155 </v>
   <v type="int" >        8       70       81      155      157 </v>
   <v type="int" >        8       80       81      155      165 </v>
   <v type="int" >        8       81      151      155      165 </v>
   <v type="int" >        8       81      151      155      157 </v>
   <v type="int" >        8       48       67       70      129 </v>
   <v type="int" >        8       48       51       70      129 </v>
   <v type="int" >        8       51       70      129      135 </v>
   <v type="int" >        8       67       70      129      155 </v>
   <v type="int" >        8       70      129      155      157 </v>
   <v type="int" >        8       70      129      135      157 </v>
   <v type="int" >        8       23       48       51      108 </v>
   <v type="int" >        8       23       26       51      108 </v>
   <v type="int" >        8       26       51      102      108 </v>
   <v type="int" >        8       48       51      108      129 </v>
   <v type="int" >        8       51      108      129      135 </v>
   <v type="int" >        8       51      102      108      135 </v>
   <v type="int" >        8       19       23       26      108 </v>
   <v type="int" >        8       19       26      102      108 </v>
   <v type="int" >        8       16       19       26      102 </v>
   <v type="int" >        8        6        6       21       23 </v>
   <v type="int" >        8        6       20       21       23 </v>
   <v type="int" >        8        6       20       21       24 </v>
   <v type="int" >        8       20       23       48      106 </v>
   <v type="int" >        8       20       45       48      106 </v>
   <v type="int" >        8       20       45      100      106 </v>
   <v type="int" >        8       20       21       23      106 </v>
   <v type="int" >        8       20       21       24      106 </v>
   <v type="int" >        8       20       24      100      106 </v>
   <v type="int" >        8       45       48       67      122 </v>
   <v type="int" >        8       45       64       67      122 </v>
   <v type="int" >        8       45       64      116      122 </v>
   <v type="int" >        8       45       48      106      122 </v>
   <v type="int" >        8       45      100      106      122 </v>
   <v type="int" >        8       45      100      116      122 </v>
   <v type="int" >        8       64       67       80      148 </v>
   <v type="int" >        8       64       77       80      148 </v>
   <v type="int" >        8       64       77      143      148 </v>
   <v type="int" >        8       64       67      122      148 </v>
   <v type="int" >        8       64      116      122      148 </v>
   <v type="int" >        8       64      116      143      148 </v>
   <v type="int" >        8       77       80       85      163 </v>
   <v type="int" >        8       77       83       85      163 </v>
   <v type="int" >        8       75       77       83      163 </v>
   <v type="int" >        8       77       80      148      163 </v>
   <v type="int" >        8       77      143      148      163 </v>
   <v type="int" >        8       75       77      143      163 </v>
   <v type="int" >        8       83       83       85       85 </v>
   <v type="int" >        4       83       85       85      161 </v>
   <v type="int" >        8       83       85       85      163 </v>
   <v type="int" >        8       75       83       85      163 </v>
   <v type="int" >        8       77       83       85      164 </v>
   <v type="int" >        8       77       80       85      164 </v>
   <v type="int" >        8       80       85      164      165 </v>
   <v type="int" >        4       83       85       85      164 </v>
   <v type="int" >        4       85       85      161      164 </v>
   <v type="int" >        8       85      161      164      165 </v>
   <v type="int" >        8       64       77       80      149 </v>
   <v type="int" >        8       64       67       80      149 </v>
   <v type="int" >        8       67       80      149      155 </v>
   <v type="int" >        8       77       80      149      164 </v>
   <v type="int" >        8       80      149      164      165 </v>
   <v type="int" >        8       80      149      155      165 </v>
   <v type="int" >        8       45       64       67      123 </v>
   <v type="int" >        8       45       48       67      123 </v>
   <v type="int" >        8       48       67      123      129 </v>
   <v type="int" >        8       64       67      123      149 </v>
   <v type="int" >        8       67      123      149      155 </v>
   <v type="int" >        8       67      123      129      155 </v>
   <v type="int" >        8       20       45       48      107 </v>
   <v type="int" >        8       20       23       48      107 </v>
   <v type="int" >        8       23       48      107      108 </v>
   <v type="int" >        8       45       48      107      123 </v>
   <v type="int" >        8       48      107      123      129 </v>
   <v type="int" >        8       48      107      108      129 </v>
   <v type="int" >        8       20       22       23      107 </v>
   <v type="int" >        8       22       23      107      108 </v>
   <v type="int" >        8       19       22       23      108 </v>
   <v type="int" >        8        5        6       18       26 </v>
   <v type="int" >        8        6       18       23       26 </v>
   <v type="int" >        8        6       18       21       23 </v>
   <v type="int" >        8       23       26       51      105 </v>
   <v type="int" >        8       23       48       51      105 </v>
   <v type="int" >        8       23       48      105      106 </v>
   <v type="int" >        8       18       23       26      105 </v>
   <v type="int" >        8       18       21       23      105 </v>
   <v type="int" >        8       21       23      105      106 </v>
   <v type="int" >        8       48       51       70      128 </v>
   <v type="int" >        8       48       67       70      128 </v>
   <v type="int" >        8       48       67      122      128 </v>
   <v type="int" >        8       48       51      105      128 </v>
   <v type="int" >        8       48      105      106      128 </v>
   <v type="int" >        8       48      106      122      128 </v>
   <v type="int" >        8       67       70       81      154 </v>
   <v type="int" >        8       67       80       81      154 </v>
   <v type="int" >        8       67       80      148      154 </v>
   <v type="int" >        8       67       70      128      154 </v>
   <v type="int" >        8       67      122      128      154 </v>
   <v type="int" >        8       67      122      148      154 </v>
   <v type="int" >        8       78       80       81      167 </v>
   <v type="int" >        8       78       80       85      167 </v>
   <v type="int" >        8       80       85      163      167 </v>
   <v type="int" >        8       80       81      154      167 </v>
   <v type="int" >        8       80      148      154      167 </v>
   <v type="int" >        8       80      148      163      167 </v>
   <v type="int" >        8       75       78       85      163 </v>
   <v type="int" >        8       78       85      163      167 </v>
   <v type="int" >        8       85      163      163      167 </v>
   <v type="int" >        4       85       85      163      163 </v>
   <v type="int" >        4       73       77       77       83 </v>
   <v type="int" >        4       77       77       83      164 </v>
   <v type="int" >        8       61       73       77      144 </v>
   <v type="int" >        8       61       64       77      144 </v>
   <v type="int" >        8       64       77      144      149 </v>
   <v type="int" >        4       73       77       77      144 </v>
   <v type="int" >        4       77       77      144      164 </v>
   <v type="int" >        8       77      144      149      164 </v>
   <v type="int" >        8       42       61       64      117 </v>
   <v type="int" >        8       42       45       64      117 </v>
   <v type="int" >        8       45       64      117      123 </v>
   <v type="int" >        8       61       64      117      144 </v>
   <v type="int" >        8       64      117      144      149 </v>
   <v type="int" >        8       64      117      123      149 </v>
   <v type="int" >        8       17       42       45      101 </v>
   <v type="int" >        8       17       20       45      101 </v>
   <v type="int" >        8       20       45      101      107 </v>
   <v type="int" >        8       42       45      101      117 </v>
   <v type="int" >        8       45      101      117      123 </v>
   <v type="int" >        8       45      101      107      123 </v>
   <v type="int" >        8       17       20       25      101 </v>
   <v type="int" >        8       20       25      101      107 </v>
   <v type="int" >        8       20       22       25      107 </v>
   <v type="int" >        8        4        5       15       29 </v>
   <v type="int" >        8        5       15       26       29 </v>
   <v type="int" >        8        5       15       18       26 </v>
   <v type="int" >        8       26       29       54       99 </v>
   <v type="int" >        8       26       51       54       99 </v>
   <v type="int" >        8       26       51       99      105 </v>
   <v type="int" >        8       15       26       29       99 </v>
   <v type="int" >        8       15       18       26       99 </v>
   <v type="int" >        8       18       26       99      105 </v>
   <v type="int" >        8       51       54       71      134 </v>
   <v type="int" >        8       51       70       71      134 </v>
   <v type="int" >        8       51       70      128      134 </v>
   <v type="int" >        8       51       54       99      134 </v>
   <v type="int" >        8       51       99      105      134 </v>
   <v type="int" >        8       51      105      128      134 </v>
   <v type="int" >        8       68       70       71      159 </v>
   <v type="int" >        8       68       70       81      159 </v>
   <v type="int" >        8       70       81      154      159 </v>
   <v type="int" >        8       70       71      134      159 </v>
   <v type="int" >        8       70      128      134      159 </v>
   <v type="int" >        8       70      128      154      159 </v>
   <v type="int" >        8       65       68       81      153 </v>
   <v type="int" >        8       65       78       81      153 </v>
   <v type="int" >        8       78       81      153      167 </v>
   <v type="int" >        8       68       81      153      159 </v>
   <v type="int" >        8       81      153      154      159 </v>
   <v type="int" >        8       81      153      154      167 </v>
   <v type="int" >        8       62       65       78      147 </v>
   <v type="int" >        8       62       75       78      147 </v>
   <v type="int" >        8       75       78      147      163 </v>
   <v type="int" >        8       65       78      147      153 </v>
   <v type="int" >        8       78      147      153      167 </v>
   <v type="int" >        8       78      147      163      167 </v>
   <v type="int" >        8       59       62       75      143 </v>
   <v type="int" >        8       62       75      143      147 </v>
   <v type="int" >        8       75      143      147      163 </v>
   <v type="int" >        4       57       61       61       73 </v>
   <v type="int" >        4       61       61       73      144 </v>
   <v type="int" >        8       39       57       61      112 </v>
   <v type="int" >        8       39       42       61      112 </v>
   <v type="int" >        8       42       61      112      117 </v>
   <v type="int" >        4       57       61       61      112 </v>
   <v type="int" >        4       61       61      112      144 </v>
   <v type="int" >        8       61      112      117      144 </v>
   <v type="int" >        8       14       39       42       95 </v>
   <v type="int" >        8       14       17       42       95 </v>
   <v type="int" >        8       17       42       95      101 </v>
   <v type="int" >        8       39       42       95      112 </v>
   <v type="int" >        8       42       95      112      117 </v>
   <v type="int" >        8       42       95      101      117 </v>
   <v type="int" >        8       14       17       28       95 </v>
   <v type="int" >        8       17       28       95      101 </v>
   <v type="int" >        8       17       25       28      101 </v>
   <v type="int" >        8        3        4       12       32 </v>
   <v type="int" >        8        4       12       29       32 </v>
   <v type="int" >        8        4       12       15       29 </v>
   <v type="int" >        8       29       32       55       93 </v>
   <v type="int" >        8       29       54       55       93 </v>
   <v type="int" >        8       29       54       93       99 </v>
   <v type="int" >        8       12       29       32       93 </v>
   <v type="int" >        8       12       15       29       93 </v>
   <v type="int" >        8       15       29       93       99 </v>
   <v type="int" >        8       52       54       55      139 </v>
   <v type="int" >        8       52       54       71      139 </v>
   <v type="int" >        8       54       71      134      139 </v>
   <v type="int" >        8       54       55       93      139 </v>
   <v type="int" >        8       54       93       99      139 </v>
   <v type="int" >        8       54       99      134      139 </v>
   <v type="int" >        8       49       52       71      133 </v>
   <v type="int" >        8       49       68       71      133 </v>
   <v type="int" >        8       68       71      133      159 </v>
   <v type="int" >        8       52       71      133      139 </v>
   <v type="int" >        8       71      133      134      139 </v>
   <v type="int" >        8       71      133      134      159 </v>
   <v type="int" >        8       46       49       68      127 </v>
   <v type="int" >        8       46       65       68      127 </v>
   <v type="int" >        8       65       68      127      153 </v>
   <v type="int" >        8       49       68      127      133 </v>
   <v type="int" >        8       68      127      133      159 </v>
   <v type="int" >        8       68      127      153      159 </v>
   <v type="int" >        8       43       46       65      121 </v>
   <v type="int" >        8       43       62       65      121 </v>
   <v type="int" >        8       62       65      121      147 </v>
   <v type="int" >        8       46       65      121      127 </v>
   <v type="int" >        8       65      121      127      153 </v>
   <v type="int" >        8       65      121      147      153 </v>
   <v type="int" >        8       40       43       62      115 </v>
   <v type="int" >        8       40       59       62      115 </v>
   <v type="int" >        8       59       62      115      143 </v>
   <v type="int" >        8       43       62      115      121 </v>
   <v type="int" >        8       62      115      121      147 </v>
   <v type="int" >        8       62      115      143      147 </v>
   <v type="int" >        8       37       40       59      111 </v>
   <v type="int" >        8       40       59      111      115 </v>
   <v type="int" >        8       59      111      115      143 </v>
   <v type="int" >        4       35       39       39       57 </v>
   <v type="int" >        4       39       39       57      112 </v>
   <v type="int" >        8       11       35       39       90 </v>
   <v type="int" >        8       11       14       39       90 </v>
   <v type="int" >        8       14       39       90       95 </v>
   <v type="int" >        4       35       39       39       90 </v>
   <v type="int" >        4       39       39       90      112 </v>
   <v type="int" >        8       39       90       95      112 </v>
   <v type="int" >        8       11       14       31       90 </v>
   <v type="int" >        8       14       31       90       95 </v>
   <v type="int" >        8       14       28       31       95 </v>
   <v type="int" >        8        2        3        9       33 </v>
   <v type="int" >        8        3        9       32       33 </v>
   <v type="int" >        8        3        9       12       32 </v>
   <v type="int" >        8       30       32       33       89 </v>
   <v type="int" >        8       30       32       55       89 </v>
   <v type="int" >        8       32       55       89       93 </v>
   <v type="int" >        8        9       32       33       89 </v>
   <v type="int" >        8        9       12       32       89 </v>
   <v type="int" >        8       12       32       89       93 </v>
   <v type="int" >        8       27       30       55       94 </v>
   <v type="int" >        8       27       52       55       94 </v>
   <v type="int" >        8       52       55       94      139 </v>
   <v type="int" >        8       30       55       89       94 </v>
   <v type="int" >        8       55       89       93       94 </v>
   <v type="int" >        8       55       93       94      139 </v>
   <v type="int" >        8       24       27       52      100 </v>
   <v type="int" >        8       24       49       52      100 </v>
   <v type="int" >        8       49       52      100      133 </v>
   <v type="int" >        8       27       52       94      100 </v>
   <v type="int" >        8       52       94      100      139 </v>
   <v type="int" >        8       52      100      133      139 </v>
   <v type="int" >        8       21       24       49      106 </v>
   <v type="int" >        8       21       46       49      106 </v>
   <v type="int" >        8       46       49      106      127 </v>
   <v type="int" >        8       24       49      100      106 </v>
   <v type="int" >        8       49      100      106      133 </v>
   <v type="int" >        8       49      106      127      133 </v>
   <v type="int" >        8       18       21       46      105 </v>
   <v type="int" >        8       18       43       46      105 </v>
   <v type="int" >        8       43       46      105      121 </v>
   <v type="int" >        8       21       46      105      106 </v>
   <v type="int" >        8       46      105      106      127 </v>
   <v type="int" >        8       46      105      121      127 </v>
   <v type="int" >        8       15       18       43       99 </v>
   <v type="int" >        8       15       40       43       99 </v>
   <v type="int" >        8       40       43       99      115 </v>
   <v type="int" >        8       18       43       99      105 </v>
   <v type="int" >        8       43       99      105      121 </v>
   <v type="int" >        8       43       99      115      121 </v>
   <v type="int" >        8       12       15       40       93 </v>
   <v type="int" >        8       12       37       40       93 </v>
   <v type="int" >        8       37       40       93      111 </v>
   <v type="int" >        8       15       40       93       99 </v>
   <v type="int" >        8       40       93       99      115 </v>
   <v type="int" >        8       40       93      111      115 </v>
   <v type="int" >        8        9       12       37       89 </v>
   <v type="int" >        8       12       37       89       93 </v>
   <v type="int" >        8       37       89       93      111 </v>
   <v type="int" >        4        7       11       11       35 </v>
   <v type="int" >        4       11       11       35       90 </v>
   <v type="int" >        4        7       11       11       34 </v>
   <v type="int" >        4       11       11       34       90 </v>
   <v type="int" >        8       11       31       34       90 </v>
   <v type="int" >        8        8       10       10       36 </v>
   <v type="int" >        4       31       31       34       87 </v>
   <v type="int" >        4       31       31       34       90 </v>
   <v type="int" >        8       31       56       87       91 </v>
   <v type="int" >        8       28       31       56       91 </v>
   <v type="int" >        8       28       31       56       95 </v>
   <v type="int" >        4       31       31       56       87 </v>
   <v type="int" >        4       31       31       56       90 </v>
   <v type="int" >        8       31       56       90       95 </v>
   <v type="int" >        8       28       53       91       97 </v>
   <v type="int" >        8       25       28       53       97 </v>
   <v type="int" >        8       25       28       53      101 </v>
   <v type="int" >        8       28       53       56       91 </v>
   <v type="int" >        8       28       53       56       95 </v>
   <v type="int" >        8       28       53       95      101 </v>
   <v type="int" >        8       25       50       97      103 </v>
   <v type="int" >        8       22       25       50      103 </v>
   <v type="int" >        8       22       25       50      107 </v>
   <v type="int" >        8       25       50       53       97 </v>
   <v type="int" >        8       25       50       53      101 </v>
   <v type="int" >        8       25       50      101      107 </v>
   <v type="int" >        8       22       47      103      104 </v>
   <v type="int" >        8       19       22       47      104 </v>
   <v type="int" >        8       19       22       47      108 </v>
   <v type="int" >        8       22       47       50      103 </v>
   <v type="int" >        8       22       47       50      107 </v>
   <v type="int" >        8       22       47      107      108 </v>
   <v type="int" >        8       19       44       98      104 </v>
   <v type="int" >        8       16       19       44       98 </v>
   <v type="int" >        8       16       19       44      102 </v>
   <v type="int" >        8       19       44       47      104 </v>
   <v type="int" >        8       19       44       47      108 </v>
   <v type="int" >        8       19       44      102      108 </v>
   <v type="int" >        8       16       41       92       98 </v>
   <v type="int" >        8       13       16       41       92 </v>
   <v type="int" >        8       13       16       41       96 </v>
   <v type="int" >        8       16       41       44       98 </v>
   <v type="int" >        8       16       41       44      102 </v>
   <v type="int" >        8       16       41       96      102 </v>
   <v type="int" >        8       13       38       88       92 </v>
   <v type="int" >       16       10       13       38       88 </v>
   <v type="int" >        8       13       38       41       92 </v>
   <v type="int" >        8       13       38       41       96 </v>
   <v type="int" >        8       13       38       88       96 </v>
   <v type="int" >        8       10       10       36       88 </v>
   <v type="int" >       16       10       36       38       88 </v>
   <v type="int" >        4       87       91       91      109 </v>
   <v type="int" >        4       56       87       91       91 </v>
   <v type="int" >        8       91      109      113      138 </v>
   <v type="int" >        8       91       97      113      138 </v>
   <v type="int" >        8       53       91       97      138 </v>
   <v type="int" >        4       91       91      109      138 </v>
   <v type="int" >        4       56       91       91      138 </v>
   <v type="int" >        8       53       56       91      138 </v>
   <v type="int" >        8       97      113      119      132 </v>
   <v type="int" >        8       97      103      119      132 </v>
   <v type="int" >        8       50       97      103      132 </v>
   <v type="int" >        8       97      113      132      138 </v>
   <v type="int" >        8       53       97      132      138 </v>
   <v type="int" >        8       50       53       97      132 </v>
   <v type="int" >        8      103      119      125      126 </v>
   <v type="int" >        8      103      104      125      126 </v>
   <v type="int" >        8       47      103      104      126 </v>
   <v type="int" >        8      103      119      126      132 </v>
   <v type="int" >        8       50      103      126      132 </v>
   <v type="int" >        8       47       50      103      126 </v>
   <v type="int" >        8      104      120      125      131 </v>
   <v type="int" >        8       98      104      120      131 </v>
   <v type="int" >        8       44       98      104      120 </v>
   <v type="int" >        8      104      120      125      126 </v>
   <v type="int" >        8       47      104      120      126 </v>
   <v type="int" >        8       44       47      104      120 </v>
   <v type="int" >        8       98      114      131      137 </v>
   <v type="int" >        8       92       98      114      137 </v>
   <v type="int" >        8       41       92       98      114 </v>
   <v type="int" >        8       98      114      120      131 </v>
   <v type="int" >        8       44       98      114      120 </v>
   <v type="int" >        8       41       44       98      114 </v>
   <v type="int" >        8       92       96      110      137 </v>
   <v type="int" >        8       88       92       96      110 </v>
   <v type="int" >        8       38       88       92      110 </v>
   <v type="int" >        8       92      110      114      137 </v>
   <v type="int" >        8       41       92      110      114 </v>
   <v type="int" >        8       38       41       92      110 </v>
   <v type="int" >        8       38       88       96      110 </v>
   <v type="int" >        8       38       38       88      110 </v>
   <v type="int" >        8       36       38       38       88 </v>
   <v type="int" >        8       89       93       94      111 </v>
   <v type="int" >        4      109      113      113      141 </v>
   <v type="int" >        4      109      113      113      138 </v>
   <v type="int" >        8      113      141      145      169 </v>
   <v type="int" >        8      113      119      145      169 </v>
   <v type="int" >        8      113      119      132      169 </v>
   <v type="int" >        4      113      113      141      169 </v>
   <v type="int" >        4      113      113      138      169 </v>
   <v type="int" >        8      113      132      138      169 </v>
   <v type="int" >        8      119      145      151      173 </v>
   <v type="int" >        8      119      125      151      173 </v>
   <v type="int" >        8      119      125      126      173 </v>
   <v type="int" >        8      119      145      169      173 </v>
   <v type="int" >        8      119      132      169      173 </v>
   <v type="int" >        8      119      126      132      173 </v>
   <v type="int" >        8      125      151      157      174 </v>
   <v type="int" >        8      125      131      157      174 </v>
   <v type="int" >        8      120      125      131      174 </v>
   <v type="int" >        8      125      151      173      174 </v>
   <v type="int" >        8      125      126      173      174 </v>
   <v type="int" >        8      120      125      126      174 </v>
   <v type="int" >        8      131      135      157      170 </v>
   <v type="int" >        8      131      135      137      170 </v>
   <v type="int" >        8      114      131      137      170 </v>
   <v type="int" >        8      131      157      170      174 </v>
   <v type="int" >        8      120      131      170      174 </v>
   <v type="int" >        8      114      120      131      170 </v>
   <v type="int" >        8      102      118      135      137 </v>
   <v type="int" >        8       96      102      118      137 </v>
   <v type="int" >        8       96      110      118      137 </v>
   <v type="int" >        8      118      135      137      170 </v>
   <v type="int" >        8      114      118      137      170 </v>
   <v type="int" >        8      110      114      118      137 </v>
   <v type="int" >        8       41       96      102      118 </v>
   <v type="int" >        8       41       96      110      118 </v>
   <v type="int" >        8       38       41       96      110 </v>
   <v type="int" >        8       94      100      116      139 </v>
   <v type="int" >        8       94      111      116      139 </v>
   <v type="int" >        8       93       94      111      139 </v>
   <v type="int" >        8      111      115      116      143 </v>
   <v type="int" >        8      111      115      116      139 </v>
   <v type="int" >        8       93      111      115      139 </v>
   <v type="int" >        4      141      145      145      161 </v>
   <v type="int" >        4      141      145      145      169 </v>
   <v type="int" >        8      145      161      165      179 </v>
   <v type="int" >        8      145      151      165      179 </v>
   <v type="int" >        8      145      151      173      179 </v>
   <v type="int" >        4      145      145      161      179 </v>
   <v type="int" >        4      145      145      169      179 </v>
   <v type="int" >        8      145      169      173      179 </v>
   <v type="int" >        8      151      155      165      183 </v>
   <v type="int" >        8      151      155      157      183 </v>
   <v type="int" >        8      151      157      174      183 </v>
   <v type="int" >        8      151      165      179      183 </v>
   <v type="int" >        8      151      173      179      183 </v>
   <v type="int" >        8      151      173      174      183 </v>
   <v type="int" >        8      129      155      157      178 </v>
   <v type="int" >        8      129      135      157      178 </v>
   <v type="int" >        8      135      157      170      178 </v>
   <v type="int" >        8      155      157      178      183 </v>
   <v type="int" >        8      157      174      178      183 </v>
   <v type="int" >        8      157      170      174      178 </v>
   <v type="int" >        8      108      124      129      135 </v>
   <v type="int" >        8      102      108      124      135 </v>
   <v type="int" >        8      102      118      124      135 </v>
   <v type="int" >        8      124      129      135      178 </v>
   <v type="int" >        8      124      135      170      178 </v>
   <v type="int" >        8      118      124      135      170 </v>
   <v type="int" >        8       44      102      108      124 </v>
   <v type="int" >        8       44      102      118      124 </v>
   <v type="int" >        8       41       44      102      118 </v>
   <v type="int" >        8      100      106      122      133 </v>
   <v type="int" >        8      100      116      122      133 </v>
   <v type="int" >        8      100      116      133      139 </v>
   <v type="int" >        8      116      122      148      171 </v>
   <v type="int" >        8      116      143      148      171 </v>
   <v type="int" >        8      115      116      143      171 </v>
   <v type="int" >        8      116      122      133      171 </v>
   <v type="int" >        8      116      133      139      171 </v>
   <v type="int" >        8      115      116      139      171 </v>
   <v type="int" >        8      143      147      148      163 </v>
   <v type="int" >        8      143      147      148      171 </v>
   <v type="int" >        8      115      143      147      171 </v>
   <v type="int" >        4      161      164      165      165 </v>
   <v type="int" >        4      161      165      165      179 </v>
   <v type="int" >        8      149      164      165      182 </v>
   <v type="int" >        8      149      155      165      182 </v>
   <v type="int" >        8      155      165      182      183 </v>
   <v type="int" >        4      164      165      165      182 </v>
   <v type="int" >        4      165      165      179      182 </v>
   <v type="int" >        8      165      179      182      183 </v>
   <v type="int" >        8      123      149      155      177 </v>
   <v type="int" >        8      123      129      155      177 </v>
   <v type="int" >        8      129      155      177      178 </v>
   <v type="int" >        8      149      155      177      182 </v>
   <v type="int" >        8      155      177      182      183 </v>
   <v type="int" >        8      155      177      178      183 </v>
   <v type="int" >        8      107      123      129      130 </v>
   <v type="int" >        8      107      108      129      130 </v>
   <v type="int" >        8      108      124      129      130 </v>
   <v type="int" >        8      123      129      130      177 </v>
   <v type="int" >        8      129      130      177      178 </v>
   <v type="int" >        8      124      129      130      178 </v>
   <v type="int" >        8       47      107      108      130 </v>
   <v type="int" >        8       47      108      124      130 </v>
   <v type="int" >        8       44       47      108      124 </v>
   <v type="int" >        8      105      106      127      128 </v>
   <v type="int" >        8      106      122      127      128 </v>
   <v type="int" >        8      106      122      127      133 </v>
   <v type="int" >        8      122      128      154      176 </v>
   <v type="int" >        8      122      148      154      176 </v>
   <v type="int" >        8      122      148      171      176 </v>
   <v type="int" >        8      122      127      128      176 </v>
   <v type="int" >        8      122      127      133      176 </v>
   <v type="int" >        8      122      133      171      176 </v>
   <v type="int" >        8      148      154      167      181 </v>
   <v type="int" >        8      148      163      167      181 </v>
   <v type="int" >        8      147      148      163      181 </v>
   <v type="int" >        8      148      154      176      181 </v>
   <v type="int" >        8      148      171      176      181 </v>
   <v type="int" >        8      147      148      171      181 </v>
   <v type="int" >        4      163      163      167      167 </v>
   <v type="int" >        8      163      167      167      181 </v>
   <v type="int" >        8      147      163      167      181 </v>
   <v type="int" >        4      144      149      149      164 </v>
   <v type="int" >        4      149      149      164      182 </v>
   <v type="int" >        8      117      144      149      172 </v>
   <v type="int" >        8      117      123      149      172 </v>
   <v type="int" >        8      123      149      172      177 </v>
   <v type="int" >        4      144      149      149      172 </v>
   <v type="int" >        4      149      149      172      182 </v>
   <v type="int" >        8      149      172      177      182 </v>
   <v type="int" >        8      101      117      123      136 </v>
   <v type="int" >        8      101      107      123      136 </v>
   <v type="int" >        8      107      123      130      136 </v>
   <v type="int" >        8      117      123      136      172 </v>
   <v type="int" >        8      123      136      172      177 </v>
   <v type="int" >        8      123      130      136      177 </v>
   <v type="int" >        8       50      101      107      136 </v>
   <v type="int" >        8       50      107      130      136 </v>
   <v type="int" >        8       47       50      107      130 </v>
   <v type="int" >        8       99      105      121      134 </v>
   <v type="int" >        8      105      121      128      134 </v>
   <v type="int" >        8      105      121      127      128 </v>
   <v type="int" >        8      128      134      159      175 </v>
   <v type="int" >        8      128      154      159      175 </v>
   <v type="int" >        8      128      154      175      176 </v>
   <v type="int" >        8      121      128      134      175 </v>
   <v type="int" >        8      121      127      128      175 </v>
   <v type="int" >        8      127      128      175      176 </v>
   <v type="int" >        8      153      154      159      185 </v>
   <v type="int" >        8      153      154      167      185 </v>
   <v type="int" >        8      154      167      181      185 </v>
   <v type="int" >        8      154      159      175      185 </v>
   <v type="int" >        8      154      175      176      185 </v>
   <v type="int" >        8      154      176      181      185 </v>
   <v type="int" >        8      147      153      167      181 </v>
   <v type="int" >        8      153      167      181      185 </v>
   <v type="int" >        8      167      181      181      185 </v>
   <v type="int" >        4      167      167      181      181 </v>
   <v type="int" >        4      112      117      117      144 </v>
   <v type="int" >        4      117      117      144      172 </v>
   <v type="int" >        8       95      112      117      140 </v>
   <v type="int" >        8       95      101      117      140 </v>
   <v type="int" >        8      101      117      136      140 </v>
   <v type="int" >        4      112      117      117      140 </v>
   <v type="int" >        4      117      117      140      172 </v>
   <v type="int" >        8      117      136      140      172 </v>
   <v type="int" >        8       53       95      101      140 </v>
   <v type="int" >        8       53      101      136      140 </v>
   <v type="int" >        8       50       53      101      136 </v>
   <v type="int" >        8       93       99      115      139 </v>
   <v type="int" >        8       99      115      134      139 </v>
   <v type="int" >        8       99      115      121      134 </v>
   <v type="int" >        8      133      134      139      171 </v>
   <v type="int" >        8      133      134      159      171 </v>
   <v type="int" >        8      134      159      171      175 </v>
   <v type="int" >        8      115      134      139      171 </v>
   <v type="int" >        8      115      121      134      171 </v>
   <v type="int" >        8      121      134      171      175 </v>
   <v type="int" >        8      127      133      159      176 </v>
   <v type="int" >        8      127      153      159      176 </v>
   <v type="int" >        8      153      159      176      185 </v>
   <v type="int" >        8      133      159      171      176 </v>
   <v type="int" >        8      159      171      175      176 </v>
   <v type="int" >        8      159      175      176      185 </v>
   <v type="int" >        8      121      127      153      175 </v>
   <v type="int" >        8      121      147      153      175 </v>
   <v type="int" >        8      147      153      175      181 </v>
   <v type="int" >        8      127      153      175      176 </v>
   <v type="int" >        8      153      175      176      185 </v>
   <v type="int" >        8      153      175      181      185 </v>
   <v type="int" >        8      115      121      147      171 </v>
   <v type="int" >        8      121      147      171      175 </v>
   <v type="int" >        8      147      171      175      181 </v>
   <v type="int" >        4       90       95       95      112 </v>
   <v type="int" >        4       95       95      112      140 </v>
   <v type="int" >        4       56       90       95       95 </v>
   <v type="int" >        4       56       95       95      140 </v>
   <v type="int" >        8       53       56       95      140 </v>
   <v type="int" >        8       36       38       38       58 </v>
   <v type="int" >        4       53       53       56      138 </v>
   <v type="int" >        4       53       53       56      140 </v>
   <v type="int" >        8       53       72      132      138 </v>
   <v type="int" >        8       50       53       72      132 </v>
   <v type="int" >        8       50       53       72      136 </v>
   <v type="int" >        4       53       53       72      138 </v>
   <v type="int" >        4       53       53       72      140 </v>
   <v type="int" >        8       53       72      136      140 </v>
   <v type="int" >        8       50       69      126      132 </v>
   <v type="int" >        8       47       50       69      126 </v>
   <v type="int" >        8       47       50       69      130 </v>
   <v type="int" >        8       50       69       72      132 </v>
   <v type="int" >        8       50       69       72      136 </v>
   <v type="int" >        8       50       69      130      136 </v>
   <v type="int" >        8       47       66      120      126 </v>
   <v type="int" >        8       44       47       66      120 </v>
   <v type="int" >        8       44       47       66      124 </v>
   <v type="int" >        8       47       66       69      126 </v>
   <v type="int" >        8       47       66       69      130 </v>
   <v type="int" >        8       47       66      124      130 </v>
   <v type="int" >        8       44       63      114      120 </v>
   <v type="int" >        8       41       44       63      114 </v>
   <v type="int" >        8       41       44       63      118 </v>
   <v type="int" >        8       44       63       66      120 </v>
   <v type="int" >        8       44       63       66      124 </v>
   <v type="int" >        8       44       63      118      124 </v>
   <v type="int" >        8       41       60      110      114 </v>
[...]
       </set>
       <set comment="band 20">
        <r> -0.0000 -0.0000  0.0866 -0.0000 -0.0000  0.0022 -0.0000  0.5864 -0.0000 </r>
       </set>
      </set>
      <set comment="kpoint 180">
       <set comment="band 1">
        <r>  0.0169  0.0397  0.0058  0.0000  0.0000  0.0021  0.7710  0.0000  0.0455 </r>
       </set>
       <set comment="band 2">
        <r> -0.0000 -0.0000 -0.0000  0.0448  0.8866  0.0000 -0.0000  0.0048 -0.0000 </r>
       </set>
       <set comment="band 3">
        <r> -0.0191 -0.0439 -0.0075  0.0000  0.0000 -0.0027 -0.7544  0.0000 -0.0447 </r>
       </set>
       <set comment="band 4">
        <r>  0.0000 -0.0000  0.0000 -0.0515 -0.8754  0.0000 -0.0000 -0.0050  0.0000 </r>
       </set>
       <set comment="band 5">
        <r>  0.0088  0.0000  0.0961 -0.0000 -0.0000  0.8067  0.0043 -0.0000  0.0168 </r>
       </set>
       <set comment="band 6">
        <r> -0.0105 -0.0000 -0.1167  0.0000  0.0000 -0.7711 -0.0066  0.0000 -0.0186 </r>
       </set>
       <set comment="band 7">
        <r>  0.0060  0.0031  0.0037 -0.0000 -0.0000  0.0105  0.0607  0.0000  0.8921 </r>
       </set>
       <set comment="band 8">
        <r> -0.0068 -0.0035 -0.0047  0.0000  0.0000 -0.0103 -0.0623  0.0000 -0.8870 </r>
       </set>
       <set comment="band 9">
        <r> -0.0000 -0.0000 -0.0000  0.0010  0.0069 -0.0000 -0.0000  0.9860 -0.0000 </r>
       </set>
       <set comment="band 10">
        <r>  0.0000  0.0000  0.0000 -0.0012 -0.0075  0.0000  0.0000 -0.9854 -0.0000 </r>
       </set>
       <set comment="band 11">
        <r>  0.0701  0.0199  0.4500 -0.0000 -0.0000  0.2202  0.0555 -0.0000  0.0037 </r>
       </set>
       <set comment="band 12">
        <r> -0.0651 -0.0185 -0.4304  0.0000  0.0000 -0.2541 -0.0572  0.0000 -0.0042 </r>
       </set>
       <set comment="band 13">
        <r> -0.0000 -0.0000 -0.0000  0.5408  0.2578  0.0000 -0.0000  0.0095 -0.0000 </r>
       </set>
       <set comment="band 14">
        <r>  0.0000  0.0000  0.0000 -0.5339 -0.2651  0.0000  0.0000 -0.0102  0.0000 </r>
       </set>
       <set comment="band 15">
        <r>  0.0789  0.1679  0.0913 -0.0000 -0.0000  0.0281  0.3771 -0.0000  0.0213 </r>
       </set>
       <set comment="band 16">
        <r> -0.0734 -0.1681 -0.0865  0.0000  0.0000 -0.0287 -0.3877  0.0000 -0.0228 </r>
       </set>
       <set comment="band 17">
        <r>  0.5032  0.1334  0.0249 -0.0000 -0.0000  0.0004  0.0007 -0.0000  0.0829 </r>
       </set>
       <set comment="band 18">
        <r> -0.5081 -0.1283 -0.0253  0.0000 -0.0000 -0.0004 -0.0002  0.0000 -0.0853 </r>
       </set>
       <set comment="band 19">
        <r> -0.0000 -0.0000  0.0000 -0.0862 -0.5888  0.0000  0.0000 -0.0022 -0.0000 </r>
       </set>
       <set comment="band 20">
        <r>  0.0000  0.0000 -0.0000  0.0877  0.5937  0.0000  0.0000  0.0022  0.0000 </r>
       </set>
      </set>
      <set comment="kpoint 181">
       <set comment="band 1">
        <r>  0.0169 -0.0000  0.0397  0.0058 -0.0000 -0.0000  0.0646  0.0021  0.7519 </r>
       </set>
       <set comment="band 2">
        <r> -0.0008  0.0430 -0.0018 -0.0003  0.0046  0.8506 -0.0026 -0.0001 -0.0298 </r>
       </set>
       <set comment="band 3">
        <r> -0.0183  0.0018 -0.0421 -0.0072  0.0002  0.0360 -0.0606 -0.0026 -0.7060 </r>
       </set>
       <set comment="band 4">
        <r>  0.0000 -0.0515  0.0000 -0.0000 -0.0050 -0.8754  0.0000  0.0000  0.0000 </r>
       </set>
       <set comment="band 5">
        <r>  0.0088 -0.0000  0.0000  0.0962 -0.0000 -0.0000  0.0063  0.8067  0.0147 </r>
       </set>
       <set comment="band 6">
        <r> -0.0105  0.0000 -0.0000 -0.1167  0.0000  0.0000 -0.0060 -0.7711 -0.0192 </r>
       </set>
       <set comment="band 7">
        <r>  0.0060 -0.0000  0.0031  0.0037  0.0000 -0.0000  0.8857  0.0105  0.0670 </r>
       </set>
       <set comment="band 8">
        <r> -0.0068  0.0000 -0.0035 -0.0047  0.0000  0.0000 -0.8844 -0.0104 -0.0649 </r>
       </set>
       <set comment="band 9">
        <r>  0.0000  0.0010 -0.0000 -0.0000  0.9860  0.0069 -0.0000 -0.0000 -0.0000 </r>
       </set>
       <set comment="band 10">
        <r> -0.0000 -0.0012  0.0000  0.0000 -0.9854 -0.0075 -0.0000  0.0000 -0.0000 </r>
       </set>
       <set comment="band 11">
        <r>  0.0701  0.0000  0.0199  0.4500  0.0000 -0.0000  0.0042  0.2202  0.0550 </r>
       </set>
       <set comment="band 12">
        <r> -0.0651  0.0000 -0.0185 -0.4304 -0.0000  0.0000 -0.0040 -0.2542 -0.0573 </r>
       </set>
       <set comment="band 13">
        <r> -0.0000  0.5409 -0.0000 -0.0000  0.0095  0.2579 -0.0000 -0.0000 -0.0000 </r>
       </set>
       <set comment="band 14">
        <r>  0.0000 -0.5340  0.0000  0.0000 -0.0102 -0.2651  0.0000  0.0000  0.0000 </r>
       </set>
       <set comment="band 15">
        <r>  0.0789 -0.0000  0.1680  0.0913 -0.0000 -0.0000  0.0327  0.0281  0.3657 </r>
       </set>
       <set comment="band 16">
        <r> -0.0734  0.0000 -0.1681 -0.0865  0.0000  0.0000 -0.0326 -0.0287 -0.3780 </r>
       </set>
       <set comment="band 17">
        <r>  0.5033 -0.0000  0.1333  0.0249 -0.0000 -0.0000  0.0560  0.0004  0.0276 </r>
       </set>
       <set comment="band 18">
        <r> -0.5081  0.0000 -0.1283 -0.0253 -0.0000 -0.0000 -0.0603 -0.0004 -0.0252 </r>
       </set>
       <set comment="band 19">
        <r>  0.0000 -0.0864  0.0000  0.0000 -0.0022 -0.5899  0.0000  0.0000  0.0000 </r>
       </set>
       <set comment="band 20">
        <r> -0.0000  0.0878 -0.0000 -0.0000  0.0022  0.5948 -0.0000 -0.0000 -0.0000 </r>
       </set>
      </set>
      <set comment="kpoint 182">
       <set comment="band 1">
        <r>  0.0170  0.0397 -0.0000  0.0058  0.0021 -0.0000  0.3886 -0.0000  0.4279 </r>
       </set>
       <set comment="band 2">
        <r> -0.0009 -0.0019  0.0428 -0.0003 -0.0001  0.8476 -0.0167  0.0046 -0.0184 </r>
       </set>
       <set comment="band 3">
        <r> -0.0182 -0.0420  0.0020 -0.0072 -0.0026  0.0390 -0.3645  0.0002 -0.3994 </r>
       </set>
       <set comment="band 4">
        <r>  0.0000  0.0000 -0.0515  0.0000  0.0000 -0.8754  0.0000 -0.0050  0.0000 </r>
       </set>
       <set comment="band 5">
        <r>  0.0088  0.0000 -0.0000  0.0961  0.8067 -0.0000  0.0210 -0.0000  0.0001 </r>
       </set>
       <set comment="band 6">
        <r> -0.0105 -0.0000  0.0000 -0.1167 -0.7711  0.0000 -0.0252  0.0000 -0.0000 </r>
       </set>
       <set comment="band 7">
        <r>  0.0060  0.0031 -0.0000  0.0037  0.0105 -0.0000  0.4832  0.0000  0.4696 </r>
       </set>
       <set comment="band 8">
        <r> -0.0068 -0.0035  0.0000 -0.0046 -0.0104  0.0000 -0.4771  0.0000 -0.4722 </r>
       </set>
       <set comment="band 9">
        <r> -0.0000 -0.0000  0.0010 -0.0000 -0.0000  0.0069 -0.0000  0.9860 -0.0000 </r>
       </set>
       <set comment="band 10">
        <r>  0.0000  0.0000 -0.0012  0.0000  0.0000 -0.0075  0.0000 -0.9854 -0.0000 </r>
       </set>
       <set comment="band 11">
        <r>  0.0701  0.0199 -0.0000  0.4500  0.2202 -0.0000  0.0291 -0.0000  0.0301 </r>
       </set>
       <set comment="band 12">
        <r> -0.0651 -0.0185  0.0000 -0.4304 -0.2541  0.0000 -0.0308  0.0000 -0.0305 </r>
       </set>
       <set comment="band 13">
        <r> -0.0000 -0.0000  0.5408 -0.0000 -0.0000  0.2578 -0.0000  0.0095 -0.0000 </r>
       </set>
       <set comment="band 14">
        <r>  0.0000  0.0000 -0.5338  0.0000  0.0000 -0.2650  0.0000 -0.0102  0.0000 </r>
       </set>
       <set comment="band 15">
        <r>  0.0789  0.1680 -0.0000  0.0913  0.0281 -0.0000  0.1878 -0.0000  0.2106 </r>
       </set>
       <set comment="band 16">
        <r> -0.0734 -0.1681  0.0000 -0.0865 -0.0287  0.0000 -0.1956  0.0000 -0.2150 </r>
       </set>
       <set comment="band 17">
        <r>  0.5032  0.1334 -0.0000  0.0249  0.0004 -0.0000  0.0687 -0.0000  0.0148 </r>
       </set>
       <set comment="band 18">
        <r> -0.5081 -0.1283  0.0000 -0.0253 -0.0004  0.0000 -0.0677  0.0000 -0.0178 </r>
       </set>
       <set comment="band 19">
        <r>  0.0000  0.0000 -0.0852  0.0000  0.0000 -0.5816  0.0000 -0.0022  0.0000 </r>
       </set>
       <set comment="band 20">
        <r> -0.0000  0.0000  0.0866 -0.0000 -0.0000  0.5865 -0.0000  0.0022 -0.0000 </r>
       </set>
      </set>
      <set comment="kpoint 183">
       <set comment="band 1">
        <r>  0.0014  0.0000  0.0019  0.0492  0.0000  0.0000  0.5358  0.0018  0.2961 </r>
       </set>
       <set comment="band 2">
        <r> -0.0013  0.0000 -0.0032 -0.0552 -0.0000  0.0000 -0.5283  0.0002 -0.2888 </r>
       </set>
       <set comment="band 3">
        <r>  0.0062  0.0000  0.0653  0.0023 -0.0000  0.0000  0.0015  0.8544  0.0010 </r>
       </set>
       <set comment="band 4">
        <r> -0.0000  0.0852 -0.0000 -0.0000  0.8324  0.0153  0.0000 -0.0000 -0.0000 </r>
       </set>
       <set comment="band 5">
        <r> -0.0077  0.0000 -0.0750 -0.0019  0.0000  0.0000 -0.0002 -0.8379 -0.0034 </r>
       </set>
       <set comment="band 6">
        <r>  0.0000 -0.1009  0.0000  0.0000 -0.8095 -0.0155  0.0000  0.0000 -0.0000 </r>
       </set>
       <set comment="band 7">
        <r>  0.0122 -0.0000  0.0015  0.0005  0.0000  0.0000  0.3382  0.0029  0.6161 </r>
       </set>
       <set comment="band 8">
        <r> -0.0139  0.0000 -0.0018 -0.0005  0.0000  0.0000 -0.3366 -0.0033 -0.6138 </r>
       </set>
       <set comment="band 9">
        <r> -0.0000  0.0009 -0.0000 -0.0000  0.0214  0.9716 -0.0000 -0.0000 -0.0000 </r>
       </set>
       <set comment="band 10">
        <r>  0.0000 -0.0010  0.0000  0.0000 -0.0230 -0.9700  0.0000  0.0000  0.0000 </r>
       </set>
       <set comment="band 11">
        <r> -0.0000  0.5584 -0.0001 -0.0000  0.2440  0.0133 -0.0000 -0.0000 -0.0000 </r>
       </set>
       <set comment="band 12">
        <r>  0.0688 -0.0004  0.3761  0.0716 -0.0002 -0.0000  0.0667  0.2032  0.0166 </r>
       </set>
       <set comment="band 13">
        <r>  0.0001 -0.5418  0.0003  0.0001 -0.2641 -0.0149  0.0001  0.0002  0.0000 </r>
       </set>
       <set comment="band 14">
        <r> -0.0682  0.0002 -0.3668 -0.0685  0.0001  0.0000 -0.0698 -0.2183 -0.0172 </r>
       </set>
       <set comment="band 15">
        <r>  0.2724 -0.0000  0.0116  0.1420 -0.0000 -0.0000  0.1349  0.0228  0.1857 </r>
       </set>
       <set comment="band 16">
        <r> -0.2699  0.0000 -0.0112 -0.1386  0.0000  0.0000 -0.1378 -0.0233 -0.1922 </r>
       </set>
       <set comment="band 17">
        <r>  0.3414 -0.0000  0.1594  0.0777 -0.0000 -0.0000  0.1377  0.0419  0.0037 </r>
       </set>
       <set comment="band 18">
        <r> -0.3409  0.0000 -0.1575 -0.0766  0.0000  0.0000 -0.1415 -0.0424 -0.0042 </r>
       </set>
       <set comment="band 19">
        <r> -0.0144  0.0000 -0.0502 -0.0944  0.0000  0.0000 -0.0001 -0.3601 -0.0384 </r>
       </set>
       <set comment="band 20">
        <r>  0.0151 -0.0000  0.0506  0.0967  0.0000 -0.0000  0.0002  0.3612  0.0403 </r>
       </set>
      </set>
      <set comment="kpoint 184">
       <set comment="band 1">
        <r>  0.0014  0.0492 -0.0000  0.0019  0.0018 -0.0000  0.7005 -0.0000  0.1314 </r>
       </set>
       <set comment="band 2">
        <r> -0.0013 -0.0552  0.0000 -0.0032 -0.0001  0.0000 -0.6874  0.0000 -0.1300 </r>
       </set>
       <set comment="band 3">
        <r>  0.0062  0.0023  0.0000  0.0653  0.8547 -0.0000  0.0001 -0.0000  0.0027 </r>
       </set>
       <set comment="band 4">
        <r> -0.0000 -0.0000  0.0852 -0.0000 -0.0000  0.8324 -0.0000  0.0153 -0.0000 </r>
       </set>
       <set comment="band 5">
        <r> -0.0077 -0.0019  0.0000 -0.0750 -0.8379  0.0000 -0.0019  0.0000 -0.0016 </r>
       </set>
       <set comment="band 6">
        <r>  0.0000  0.0000 -0.1009  0.0000  0.0000 -0.8095  0.0000 -0.0155  0.0000 </r>
       </set>
       <set comment="band 7">
        <r>  0.0122  0.0004 -0.0000  0.0015  0.0029 -0.0000  0.1518 -0.0000  0.8025 </r>
       </set>
       <set comment="band 8">
        <r> -0.0139 -0.0005  0.0000 -0.0018 -0.0033  0.0000 -0.1507  0.0000 -0.7998 </r>
       </set>
       <set comment="band 9">
        <r> -0.0000 -0.0000  0.0009 -0.0000 -0.0000  0.0214 -0.0000  0.9716 -0.0000 </r>
       </set>
       <set comment="band 10">
        <r>  0.0000  0.0000 -0.0010  0.0000  0.0000 -0.0230  0.0000 -0.9700  0.0000 </r>
       </set>
       <set comment="band 11">
        <r> -0.0000 -0.0000  0.5583 -0.0001 -0.0001  0.2440 -0.0000  0.0133 -0.0000 </r>
       </set>
       <set comment="band 12">
        <r>  0.0688  0.0716 -0.0005  0.3761  0.2032 -0.0003  0.0580 -0.0000  0.0253 </r>
       </set>
       <set comment="band 13">
        <r>  0.0001  0.0001 -0.5417  0.0004  0.0002 -0.2641  0.0001 -0.0149  0.0000 </r>
       </set>
       <set comment="band 14">
        <r> -0.0682 -0.0685  0.0002 -0.3669 -0.2183  0.0001 -0.0604  0.0000 -0.0267 </r>
       </set>
       <set comment="band 15">
        <r>  0.2723  0.1421 -0.0000  0.0115  0.0228 -0.0000  0.3102 -0.0000  0.0105 </r>
       </set>
       <set comment="band 16">
        <r> -0.2700 -0.1386  0.0000 -0.0112 -0.0233  0.0000 -0.3195  0.0000 -0.0105 </r>
       </set>
       <set comment="band 17">
        <r>  0.3415  0.0777 -0.0000  0.1594  0.0418 -0.0000  0.0176 -0.0000  0.1239 </r>
       </set>
       <set comment="band 18">
        <r> -0.3409 -0.0766  0.0000 -0.1575 -0.0424  0.0000 -0.0174  0.0000 -0.1284 </r>
       </set>
       <set comment="band 19">
        <r> -0.0156 -0.1022  0.0000 -0.0544 -0.3895  0.0000 -0.0335  0.0000 -0.0083 </r>
       </set>
       <set comment="band 20">
        <r>  0.0163  0.1045 -0.0000  0.0547  0.3906  0.0000  0.0355 -0.0000  0.0082 </r>
       </set>
      </set>
      <set comment="kpoint 185">
       <set comment="band 1">
        <r>  0.0014  0.0019  0.0492 -0.0000 -0.0000  0.0018  0.0110 -0.0000  0.8210 </r>
       </set>
       <set comment="band 2">
        <r> -0.0013 -0.0032 -0.0552  0.0000  0.0000  0.0002 -0.0105  0.0000 -0.8067 </r>
       </set>
       <set comment="band 3">
        <r>  0.0062  0.0652  0.0023  0.0000 -0.0000  0.8544  0.0024  0.0000  0.0001 </r>
       </set>
       <set comment="band 4">
        <r> -0.0000 -0.0000 -0.0000  0.0852  0.0152 -0.0000 -0.0000  0.8324 -0.0000 </r>
       </set>
       <set comment="band 5">
        <r> -0.0077 -0.0750 -0.0019  0.0000  0.0000 -0.8379 -0.0032  0.0000 -0.0003 </r>
       </set>
       <set comment="band 6">
        <r>  0.0000  0.0000 -0.0000 -0.1009 -0.0155  0.0000  0.0000 -0.8094  0.0000 </r>
       </set>
       <set comment="band 7">
        <r>  0.0122  0.0015  0.0004 -0.0000 -0.0000  0.0029  0.9420 -0.0000  0.0123 </r>
       </set>
       <set comment="band 8">
        <r> -0.0139 -0.0018 -0.0005  0.0000  0.0000 -0.0033 -0.9381  0.0000 -0.0123 </r>
       </set>
       <set comment="band 9">
        <r>  0.0000 -0.0000 -0.0000  0.0009  0.9716 -0.0000 -0.0000  0.0214 -0.0000 </r>
       </set>
       <set comment="band 10">
        <r> -0.0000  0.0000  0.0000 -0.0010 -0.9700  0.0000 -0.0000 -0.0230  0.0000 </r>
       </set>
       <set comment="band 11">
        <r> -0.0000  0.0000 -0.0000  0.5587  0.0133  0.0000 -0.0000  0.2441 -0.0000 </r>
       </set>
       <set comment="band 12">
        <r>  0.0689  0.3764  0.0717 -0.0000 -0.0000  0.2034  0.0003 -0.0000  0.0832 </r>
       </set>
       <set comment="band 13">
        <r>  0.0000  0.0001  0.0000 -0.5423 -0.0149  0.0000  0.0000 -0.2644  0.0000 </r>
       </set>
       <set comment="band 14">
        <r> -0.0683 -0.3670 -0.0685  0.0000  0.0000 -0.2184 -0.0003  0.0000 -0.0867 </r>
       </set>
       <set comment="band 15">
        <r>  0.2723  0.0116  0.1421 -0.0000  0.0000  0.0228  0.0359 -0.0000  0.2847 </r>
       </set>
       <set comment="band 16">
        <r> -0.2699 -0.0112 -0.1386  0.0000 -0.0000 -0.0233 -0.0377  0.0000 -0.2923 </r>
       </set>
       <set comment="band 17">
        <r>  0.3414  0.1594  0.0776 -0.0000  0.0000  0.0418  0.0569 -0.0000  0.0845 </r>
       </set>
       <set comment="band 18">
        <r> -0.3408 -0.1575 -0.0766  0.0000 -0.0000 -0.0424 -0.0597  0.0000 -0.0860 </r>
       </set>
       <set comment="band 19">
        <r> -0.0145 -0.0506 -0.0951  0.0000  0.0000 -0.3627 -0.0270  0.0000 -0.0119 </r>
       </set>
       <set comment="band 20">
        <r>  0.0152  0.0509  0.0974 -0.0000 -0.0000  0.3638  0.0278  0.0000  0.0130 </r>
       </set>
      </set>
      <set comment="kpoint 186">
       <set comment="band 1">
        <r>  0.0014  0.0019 -0.0000  0.0492  0.0018 -0.0000  0.7005 -0.0000  0.1314 </r>
       </set>
       <set comment="band 2">
        <r> -0.0013 -0.0032  0.0000 -0.0552 -0.0001  0.0000 -0.6874  0.0000 -0.1300 </r>
       </set>
       <set comment="band 3">
        <r>  0.0062  0.0653  0.0000  0.0023  0.8547 -0.0000  0.0001 -0.0000  0.0027 </r>
       </set>
       <set comment="band 4">
        <r> -0.0000 -0.0000  0.0852 -0.0000 -0.0000  0.0153 -0.0000  0.8324 -0.0000 </r>
       </set>
       <set comment="band 5">
        <r> -0.0077 -0.0750  0.0000 -0.0019 -0.8379  0.0000 -0.0019  0.0000 -0.0016 </r>
       </set>
       <set comment="band 6">
        <r>  0.0000  0.0000 -0.1009 -0.0000  0.0000 -0.0155  0.0000 -0.8095  0.0000 </r>
       </set>
       <set comment="band 7">
        <r>  0.0122  0.0015 -0.0000  0.0004  0.0029 -0.0000  0.1518 -0.0000  0.8025 </r>
       </set>
       <set comment="band 8">
        <r> -0.0139 -0.0018  0.0000 -0.0005 -0.0033  0.0000 -0.1507  0.0000 -0.7998 </r>
       </set>
       <set comment="band 9">
        <r> -0.0000 -0.0000  0.0009 -0.0000 -0.0000  0.9716 -0.0000  0.0214 -0.0000 </r>
       </set>
       <set comment="band 10">
        <r>  0.0000  0.0000 -0.0010  0.0000  0.0000 -0.9700  0.0000 -0.0230  0.0000 </r>
       </set>
       <set comment="band 11">
        <r> -0.0000 -0.0001  0.5583 -0.0000 -0.0001  0.0133 -0.0000  0.2440 -0.0000 </r>
       </set>
       <set comment="band 12">
        <r>  0.0688  0.3761 -0.0005  0.0716  0.2032 -0.0000  0.0580 -0.0003  0.0253 </r>
       </set>
       <set comment="band 13">
        <r>  0.0001  0.0004 -0.5417  0.0001  0.0002 -0.0149  0.0001 -0.2641  0.0000 </r>
       </set>
       <set comment="band 14">
        <r> -0.0682 -0.3669  0.0002 -0.0685 -0.2183  0.0000 -0.0604  0.0001 -0.0267 </r>
       </set>
       <set comment="band 15">
        <r>  0.2723  0.0115 -0.0000  0.1421  0.0228 -0.0000  0.3102 -0.0000  0.0105 </r>
       </set>
       <set comment="band 16">
        <r> -0.2700 -0.0112  0.0000 -0.1386 -0.0233  0.0000 -0.3195  0.0000 -0.0105 </r>
       </set>
       <set comment="band 17">
        <r>  0.3415  0.1594 -0.0000  0.0777  0.0418 -0.0000  0.0176 -0.0000  0.1239 </r>
       </set>
       <set comment="band 18">
        <r> -0.3409 -0.1575  0.0000 -0.0766 -0.0424  0.0000 -0.0174  0.0000 -0.1284 </r>
       </set>
       <set comment="band 19">
        <r> -0.0156 -0.0543  0.0000 -0.1022 -0.3894  0.0000 -0.0335  0.0000 -0.0083 </r>
       </set>
       <set comment="band 20">
        <r>  0.0163  0.0546 -0.0000  0.1045  0.3905 -0.0000  0.0355  0.0000  0.0082 </r>
       </set>
      </set>
     </set>
    </set>
   </array>
  </projected>
 </calculation>
 <structure name="finalpos" >
  <crystal>
   <varray name="basis" >
    <v>       1.76142189       1.76142189       0.00000000 </v>
    <v>       0.00000000       1.76142189       1.76142189 </v>
    <v>       1.76142189       0.00000000       1.76142189 </v>
   </varray>
   <i name="volume">     10.93000000 </i>
   <varray name="rec_basis" >
    <v>       0.28386158       0.28386158      -0.28386158 </v>
    <v>      -0.28386158       0.28386158       0.28386158 </v>
    <v>       0.28386158      -0.28386158       0.28386158 </v>
   </varray>
  </crystal>
  <varray name="positions" >
   <v>       0.00000000       0.00000000       0.00000000 </v>
  </varray>
 </structure>
</modeling>
