Ni fcc bulk                             
           1
     1.761422    1.761422    0.000000
     0.000000    1.761422    1.761422
     1.761422    0.000000    1.761422
   Ni
     1
Direct configuration=     1
   0.00000000  0.00000000  0.00000000
