fcc Si                                  
   3.80000000000000     
     0.500000    0.500000    0.000000
     0.000000    0.500000    0.500000
     0.500000    0.000000    0.500000
   Si
     1
Direct
  0.000000  0.000000  0.000000
 
   20   20   20
 -2.4053     -1.6963     0.14714      2.4181      4.3352      5.3979      5.5584      5.1485      4.6319      4.2663    
  4.1356      4.2663      4.6319      5.1485      5.5584      5.3979      4.3352      2.4181     0.14714     -1.6963    
 -1.6963     -.42238      1.6163      3.6604      5.0665      5.5755      5.3560      4.8338      4.3808      4.1286    
  4.1287      4.3810      4.8338      5.3558      5.5755      5.0667      3.6606      1.6160     -.42291     -1.6966    
 0.14714      1.6163      3.3881      4.8152      5.5033      5.4506      4.9721      4.4631      4.1113      3.9865    
  4.1113      4.4631      4.9721      5.4506      5.5033      4.8152      3.3881      1.6162     0.14711     -.42291    
  2.4181      3.6604      4.8152      5.4617      5.4768      5.0468      4.5128      4.0909      3.8615      3.8614    
  4.0908      4.5128      5.0469      5.4768      5.4616      4.8151      3.6606      2.4185      1.6162      1.6160    
  4.3352      5.0665      5.5033      5.4768      5.0693      4.5353      4.0751      3.7706      3.6647      3.7706    
  4.0751      4.5352      5.0693      5.4768      5.5033      5.0665      4.3353      3.6606      3.3881      3.6606    
  5.3979      5.5755      5.4506      5.0468      4.5353      4.0692      3.7234      3.5412      3.5412      3.7234    
  4.0693      4.5353      5.0468      5.4508      5.5755      5.3978      5.0665      4.8151      4.8152      5.0667    
  5.5584      5.3560      4.9721      4.5128      4.0751      3.7234      3.4995      3.4231      3.4995      3.7234    
  4.0751      4.5128      4.9720      5.3559      5.5585      5.5755      5.5033      5.4616      5.5033      5.5755    
  5.1485      4.8338      4.4631      4.0909      3.7706      3.5412      3.4231      3.4231      3.5412      3.7705    
  4.0908      4.4630      4.8338      5.1486      5.3559      5.4508      5.4768      5.4768      5.4506      5.3558    
  4.6319      4.3808      4.1113      3.8615      3.6647      3.5412      3.4995      3.5412      3.6646      3.8615    
  4.1113      4.3809      4.6319      4.8338      4.9720      5.0468      5.0693      5.0469      4.9721      4.8338    
  4.2663      4.1286      3.9865      3.8614      3.7706      3.7234      3.7234      3.7705      3.8615      3.9867    
  4.1287      4.2662      4.3809      4.4630      4.5128      4.5353      4.5352      4.5128      4.4631      4.3810    
  4.1356      4.1287      4.1113      4.0908      4.0751      4.0693      4.0751      4.0908      4.1113      4.1287    
  4.1356      4.1287      4.1113      4.0908      4.0751      4.0693      4.0751      4.0908      4.1113      4.1287    
  4.2663      4.3810      4.4631      4.5128      4.5352      4.5353      4.5128      4.4630      4.3809      4.2662    
  4.1287      3.9867      3.8615      3.7705      3.7234      3.7234      3.7706      3.8614      3.9865      4.1286    
  4.6319      4.8338      4.9721      5.0469      5.0693      5.0468      4.9720      4.8338      4.6319      4.3809    
  4.1113      3.8615      3.6646      3.5412      3.4995      3.5412      3.6647      3.8615      4.1113      4.3808    
  5.1485      5.3558      5.4506      5.4768      5.4768      5.4508      5.3559      5.1486      4.8338      4.4630    
  4.0908      3.7705      3.5412      3.4231      3.4231      3.5412      3.7706      4.0909      4.4631      4.8338    
  5.5584      5.5755      5.5033      5.4616      5.5033      5.5755      5.5585      5.3559      4.9720      4.5128    
  4.0751      3.7234      3.4995      3.4231      3.4995      3.7234      4.0751      4.5128      4.9721      5.3560    
  5.3979      5.0667      4.8152      4.8151      5.0665      5.3978      5.5755      5.4508      5.0468      4.5353    
  4.0693      3.7234      3.5412      3.5412      3.7234      4.0692      4.5353      5.0468      5.4506      5.5755    
  4.3352      3.6606      3.3881      3.6606      4.3353      5.0665      5.5033      5.4768      5.0693      4.5352    
  4.0751      3.7706      3.6647      3.7706      4.0751      4.5353      5.0693      5.4768      5.5033      5.0665    
  2.4181      1.6160      1.6162      2.4185      3.6606      4.8151      5.4616      5.4768      5.0469      4.5128    
  4.0908      3.8614      3.8615      4.0909      4.5128      5.0468      5.4768      5.4617      4.8152      3.6604    
 0.14714     -.42291     0.14711      1.6162      3.3881      4.8152      5.5033      5.4506      4.9721      4.4631    
  4.1113      3.9865      4.1113      4.4631      4.9721      5.4506      5.5033      4.8152      3.3881      1.6163    
 -1.6963     -1.6966     -.42291      1.6160      3.6606      5.0667      5.5755      5.3558      4.8338      4.3810    
  4.1287      4.1286      4.3808      4.8338      5.3560      5.5755      5.0665      3.6604      1.6163     -.42238    
 -1.6963     -.42241      1.6162      3.6604      5.0664      5.5755      5.3560      4.8338      4.3808      4.1286    
  4.1287      4.3810      4.8338      5.3558      5.5755      5.0667      3.6606      1.6160     -.42291     -1.6966    
 -.42241      1.1681      3.1004      4.6835      5.4893      5.5023      5.0434      4.5311      4.1744      4.0475    
  4.1744      4.5310      5.0433      5.5023      5.4896      4.6837      3.1002      1.1675     -.42295     -1.0380    
  1.6162      3.1004      4.5219      5.3916      5.5470      5.1715      4.6359      4.2031      3.9660      3.9659    
  4.2029      4.6358      5.1716      5.5472      5.3916      4.5217      3.1003      1.6161     0.66975     0.66978    
  3.6604      4.6835      5.3916      5.5523      5.2276      4.6956      4.2180      3.8979      3.7860      3.8980    
  4.2179      4.6955      5.2276      5.5523      5.3916      4.6836      3.6606      2.7602      2.4025      2.7600    
  5.0664      5.4893      5.5470      5.2276      4.7148      4.2240      3.8538      3.6570      3.6571      3.8539    
  4.2240      4.7147      5.2276      5.5471      5.4895      5.0665      4.4998      4.1039      4.1039      4.4998    
  5.5755      5.5023      5.1715      4.6956      4.2240      3.8387      3.5908      3.5058      3.5908      3.8387    
  4.2240      4.6956      5.1716      5.5023      5.5755      5.4264      5.2147      5.1186      5.2148      5.4265    
  5.3560      5.0434      4.6359      4.2180      3.8538      3.5908      3.4547      3.4547      3.5908      3.8538    
  4.2180      4.6358      5.0433      5.3559      5.5087      5.5281      5.5012      5.5011      5.5280      5.5086    
  4.8338      4.5311      4.2031      3.8979      3.6570      3.5058      3.4547      3.5058      3.6571      3.8979    
  4.2030      4.5309      4.8338      5.0721      5.2196      5.2851      5.3013      5.2850      5.2194      5.0720    
  4.3808      4.1744      3.9660      3.7860      3.6571      3.5908      3.5908      3.6571      3.7860      3.9660    
  4.1744      4.3809      4.5572      4.6863      4.7657      4.8019      4.8019      4.7657      4.6863      4.5572    
  4.1286      4.0475      3.9659      3.8980      3.8539      3.8387      3.8538      3.8979      3.9660      4.0477    
  4.1287      4.1961      4.2428      4.2696      4.2818      4.2851      4.2818      4.2696      4.2429      4.1961    
  4.1287      4.1744      4.2029      4.2179      4.2240      4.2240      4.2180      4.2030      4.1744      4.1287    
  4.0674      3.9981      3.9327      3.8829      3.8564      3.8564      3.8829      3.9327      3.9980      4.0674    
  4.3810      4.5310      4.6358      4.6955      4.7147      4.6956      4.6358      4.5309      4.3809      4.1961    
  3.9981      3.8142      3.6689      3.5777      3.5468      3.5777      3.6689      3.8141      3.9980      4.1961    
  4.8338      5.0433      5.1716      5.2276      5.2276      5.1716      5.0433      4.8338      4.5572      4.2428    
  3.9327      3.6689      3.4816      3.3856      3.3856      3.4816      3.6689      3.9327      4.2428      4.5572    
  5.3558      5.5023      5.5472      5.5523      5.5471      5.5023      5.3559      5.0721      4.6863      4.2696    
  3.8829      3.5777      3.3856      3.3204      3.3856      3.5777      3.8830      4.2697      4.6863      5.0720    
  5.5755      5.4896      5.3916      5.3916      5.4895      5.5755      5.5087      5.2196      4.7657      4.2818    
  3.8564      3.5468      3.3856      3.3856      3.5467      3.8564      4.2818      4.7657      5.2196      5.5086    
  5.0667      4.6837      4.5217      4.6836      5.0665      5.4264      5.5281      5.2851      4.8019      4.2851    
  3.8564      3.5777      3.4816      3.5777      3.8564      4.2850      4.8018      5.2850      5.5281      5.4265    
  3.6606      3.1002      3.1003      3.6606      4.4998      5.2147      5.5012      5.3013      4.8019      4.2818    
  3.8829      3.6689      3.6689      3.8830      4.2818      4.8018      5.3011      5.5012      5.2148      4.4998    
  1.6160      1.1675      1.6161      2.7602      4.1039      5.1186      5.5011      5.2850      4.7657      4.2696    
  3.9327      3.8141      3.9327      4.2697      4.7657      5.2850      5.5012      5.1186      4.1038      2.7600    
 -.42291     -.42295     0.66975      2.4025      4.1039      5.2148      5.5280      5.2194      4.6863      4.2429    
  3.9980      3.9980      4.2428      4.6863      5.2196      5.5281      5.2148      4.1038      2.4024     0.66980    
 -1.6966     -1.0380     0.66978      2.7600      4.4998      5.4265      5.5086      5.0720      4.5572      4.1961    
  4.0674      4.1961      4.5572      5.0720      5.5086      5.4265      4.4998      2.7600     0.66980     -1.0379    
 0.14711      1.6162      3.3881      4.8152      5.5033      5.4506      4.9721      4.4632      4.1113      3.9865    
  4.1113      4.4631      4.9721      5.4506      5.5033      4.8152      3.3881      1.6162     0.14710     -.42292    
  1.6162      3.1004      4.5219      5.3916      5.5470      5.1715      4.6359      4.2031      3.9660      3.9659    
  4.2030      4.6358      5.1716      5.5472      5.3916      4.5217      3.1002      1.6161     0.66974     0.66976    
  3.3881      4.5219      5.3339      5.5682      5.2787      4.7507      4.2677      3.9426      3.8286      3.9426    
  4.2677      4.7506      5.2788      5.5683      5.3339      4.5218      3.3881      2.4024      2.0127      2.4024    
  4.8152      5.3916      5.5682      5.3110      4.8071      4.3053      3.9232      3.7191      3.7192      3.9233    
  4.3053      4.8070      5.3109      5.5682      5.3917      4.8154      4.1039      3.6199      3.6198      4.1038    
  5.5033      5.5470      5.2787      4.8071      4.3176      3.9127      3.6503      3.5600      3.6503      3.9127    
  4.3175      4.8071      5.2788      5.5470      5.5033      5.2148      4.8898      4.7500      4.8897      5.2148    
  5.4506      5.1715      4.7507      4.3053      3.9127      3.6271      3.4785      3.4785      3.6270      3.9127    
  4.3053      4.7508      5.1716      5.4506      5.5280      5.4616      5.3782      5.3782      5.4617      5.5281    
  4.9721      4.6359      4.2677      3.9232      3.6503      3.4785      3.4203      3.4785      3.6503      3.9232    
  4.2677      4.6358      4.9720      5.2195      5.3461      5.3827      5.3860      5.3828      5.3461      5.2196    
  4.4632      4.2031      3.9426      3.7191      3.5600      3.4785      3.4785      3.5601      3.7192      3.9425    
  4.2030      4.4630      4.6863      4.8500      4.9479      4.9893      4.9892      4.9478      4.8499      4.6863    
  4.1113      3.9660      3.8286      3.7192      3.6503      3.6270      3.6503      3.7192      3.8286      3.9660    
  4.1113      4.2428      4.3446      4.4117      4.4476      4.4586      4.4476      4.4117      4.3446      4.2428    
  3.9865      3.9659      3.9426      3.9233      3.9127      3.9127      3.9232      3.9425      3.9660      3.9867    
  3.9980      3.9978      3.9890      3.9778      3.9705      3.9706      3.9779      3.9891      3.9978      3.9980    
  4.1113      4.2030      4.2677      4.3053      4.3175      4.3053      4.2677      4.2030      4.1113      3.9980    
  3.8752      3.7593      3.6664      3.6074      3.5873      3.6074      3.6664      3.7593      3.8752      3.9980    
  4.4631      4.6358      4.7506      4.8070      4.8071      4.7508      4.6358      4.4630      4.2428      3.9978    
  3.7593      3.5580      3.4157      3.3430      3.3430      3.4156      3.5579      3.7592      3.9978      4.2429    
  4.9721      5.1716      5.2788      5.3109      5.2788      5.1716      4.9720      4.6863      4.3446      3.9890    
  3.6664      3.4157      3.2595      3.2069      3.2596      3.4157      3.6664      3.9889      4.3446      4.6863    
  5.4506      5.5472      5.5683      5.5682      5.5470      5.4506      5.2195      4.8500      4.4117      3.9778    
  3.6074      3.3430      3.2069      3.2069      3.3430      3.6074      3.9779      4.4117      4.8499      5.2194    
  5.5033      5.3916      5.3339      5.3917      5.5033      5.5280      5.3461      4.9479      4.4476      3.9705    
  3.5873      3.3430      3.2596      3.3430      3.5873      3.9705      4.4476      4.9479      5.3461      5.5280    
  4.8152      4.5217      4.5218      4.8154      5.2148      5.4616      5.3827      4.9893      4.4586      3.9706    
  3.6074      3.4156      3.4157      3.6074      3.9705      4.4584      4.9892      5.3829      5.4617      5.2148    
  3.3881      3.1002      3.3881      4.1039      4.8898      5.3782      5.3860      4.9892      4.4476      3.9779    
  3.6664      3.5579      3.6664      3.9779      4.4476      4.9892      5.3859      5.3781      4.8897      4.1039    
  1.6162      1.6161      2.4024      3.6199      4.7500      5.3782      5.3828      4.9478      4.4117      3.9891    
  3.7593      3.7592      3.9889      4.4117      4.9479      5.3829      5.3781      4.7498      3.6198      2.4025    
 0.14710     0.66974      2.0127      3.6198      4.8897      5.4617      5.3461      4.8499      4.3446      3.9978    
  3.8752      3.9978      4.3446      4.8499      5.3461      5.4617      4.8897      3.6198      2.0127     0.66976    
 -.42292     0.66976      2.4024      4.1038      5.2148      5.5281      5.2196      4.6863      4.2428      3.9980    
  3.9980      4.2429      4.6863      5.2194      5.5280      5.2148      4.1039      2.4025     0.66976     -.42294    
  2.4180      3.6604      4.8152      5.4617      5.4768      5.0468      4.5128      4.0909      3.8615      3.8614    
  4.0908      4.5128      5.0468      5.4768      5.4616      4.8151      3.6606      2.4184      1.6162      1.6160    
  3.6604      4.6835      5.3916      5.5523      5.2276      4.6956      4.2180      3.8980      3.7860      3.8980    
  4.2180      4.6955      5.2276      5.5523      5.3916      4.6836      3.6606      2.7602      2.4025      2.7600    
  4.8152      5.3916      5.5683      5.3110      4.8071      4.3053      3.9232      3.7191      3.7192      3.9233    
  4.3053      4.8070      5.3109      5.5682      5.3917      4.8154      4.1039      3.6199      3.6198      4.1038    
  5.4617      5.5523      5.3110      4.8442      4.3493      3.9382      3.6710      3.5789      3.6710      3.9383    
  4.3494      4.8443      5.3109      5.5521      5.4617      5.1189      4.7501      4.5934      4.7498      5.1187    
  5.4768      5.2276      4.8071      4.3493      3.9431      3.6464      3.4917      3.4917      3.6464      3.9432    
  4.3494      4.8071      5.2275      5.4767      5.5011      5.3782      5.2584      5.2584      5.3781      5.5011    
  5.0468      4.6956      4.3053      3.9382      3.6464      3.4624      3.3999      3.4623      3.6464      3.9382    
  4.3053      4.6957      5.0468      5.2849      5.3826      5.3894      5.3802      5.3896      5.3828      5.2850    
  4.5128      4.2180      3.9232      3.6710      3.4917      3.3999      3.3999      3.4917      3.6710      3.9232    
  4.2180      4.5128      4.7657      4.9478      5.0481      5.0861      5.0861      5.0482      4.9479      4.7657    
  4.0909      3.8980      3.7191      3.5789      3.4917      3.4623      3.4917      3.5790      3.7192      3.8979    
  4.0908      4.2696      4.4117      4.5078      4.5604      4.5766      4.5603      4.5078      4.4118      4.2697    
  3.8615      3.7860      3.7192      3.6710      3.6464      3.6464      3.6710      3.7192      3.7860      3.8615    
  3.9327      3.9890      4.0260      4.0460      4.0541      4.0542      4.0461      4.0260      3.9889      3.9327    
  3.8614      3.8980      3.9233      3.9383      3.9432      3.9382      3.9232      3.8979      3.8615      3.8142    
  3.7593      3.7039      3.6569      3.6258      3.6150      3.6259      3.6570      3.7039      3.7592      3.8141    
  4.0908      4.2180      4.3053      4.3494      4.3494      4.3053      4.2180      4.0908      3.9327      3.7593    
  3.5914      3.4496      3.3491      3.2977      3.2976      3.3491      3.4496      3.5914      3.7593      3.9327    
  4.5128      4.6955      4.8070      4.8443      4.8071      4.6957      4.5128      4.2696      3.9890      3.7039    
  3.4496      3.2539      3.1329      3.0922      3.1329      3.2539      3.4495      3.7040      3.9891      4.2697    
  5.0468      5.2276      5.3109      5.3109      5.2275      5.0468      4.7657      4.4117      4.0260      3.6569    
  3.3491      3.1329      3.0227      3.0227      3.1329      3.3491      3.6569      4.0260      4.4117      4.7656    
  5.4768      5.5523      5.5682      5.5521      5.4767      5.2849      4.9478      4.5078      4.0460      3.6258    
  3.2977      3.0922      3.0227      3.0922      3.2977      3.6259      4.0460      4.5078      4.9477      5.2849    
  5.4616      5.3916      5.3917      5.4617      5.5011      5.3826      5.0481      4.5604      4.0541      3.6150    
  3.2976      3.1329      3.1329      3.2977      3.6150      4.0541      4.5604      5.0482      5.3827      5.5011    
  4.8151      4.6836      4.8154      5.1189      5.3782      5.3894      5.0861      4.5766      4.0542      3.6259    
  3.3491      3.2539      3.3491      3.6259      4.0541      4.5766      5.0862      5.3896      5.3782      5.1187    
  3.6606      3.6606      4.1039      4.7501      5.2584      5.3802      5.0861      4.5603      4.0461      3.6570    
  3.4496      3.4495      3.6569      4.0460      4.5604      5.0862      5.3802      5.2583      4.7500      4.1039    
  2.4184      2.7602      3.6199      4.5934      5.2584      5.3896      5.0482      4.5078      4.0260      3.7039    
  3.5914      3.7040      4.0260      4.5078      5.0482      5.3896      5.2583      4.5934      3.6199      2.7602    
  1.6162      2.4025      3.6198      4.7498      5.3781      5.3828      4.9479      4.4118      3.9889      3.7592    
  3.7593      3.9891      4.4117      4.9477      5.3827      5.3782      4.7500      3.6199      2.4024      1.6162    
  1.6160      2.7600      4.1038      5.1187      5.5011      5.2850      4.7657      4.2697      3.9327      3.8141    
  3.9327      4.2697      4.7656      5.2849      5.5011      5.1187      4.1039      2.7602      1.6162      1.1675    
  4.3352      5.0664      5.5033      5.4768      5.0693      4.5352      4.0751      3.7706      3.6647      3.7706    
  4.0751      4.5353      5.0693      5.4768      5.5034      5.0665      4.3352      3.6606      3.3881      3.6606    
  5.0664      5.4893      5.5470      5.2276      4.7148      4.2240      3.8538      3.6570      3.6571      3.8539    
  4.2240      4.7147      5.2275      5.5471      5.4895      5.0665      4.4997      4.1039      4.1039      4.4998    
  5.5033      5.5470      5.2788      4.8071      4.3176      3.9127      3.6503      3.5600      3.6503      3.9127    
  4.3176      4.8071      5.2787      5.5470      5.5033      5.2148      4.8897      4.7500      4.8897      5.2148    
  5.4768      5.2276      4.8071      4.3493      3.9431      3.6464      3.4917      3.4917      3.6464      3.9432    
  4.3494      4.8071      5.2275      5.4767      5.5011      5.3782      5.2584      5.2584      5.3781      5.5012    
  5.0693      4.7148      4.3176      3.9431      3.6452      3.4571      3.3933      3.4571      3.6452      3.9432    
  4.3176      4.7148      5.0693      5.3011      5.3859      5.3802      5.3658      5.3802      5.3859      5.3011    
  4.5352      4.2240      3.9127      3.6464      3.4571      3.3603      3.3603      3.4571      3.6464      3.9127    
  4.2240      4.5354      4.8019      4.9892      5.0861      5.1195      5.1196      5.0862      4.9892      4.8018    
  4.0751      3.8538      3.6503      3.4917      3.3933      3.3603      3.3933      3.4917      3.6503      3.8538    
  4.0751      4.2818      4.4476      4.5604      4.6221      4.6410      4.6221      4.5604      4.4476      4.2818    
  3.7706      3.6570      3.5600      3.4917      3.4571      3.4571      3.4917      3.5600      3.6571      3.7705    
  3.8829      3.9779      4.0461      4.0870      4.1052      4.1052      4.0869      4.0461      3.9780      3.8830    
  3.6647      3.6571      3.6503      3.6464      3.6452      3.6464      3.6503      3.6571      3.6646      3.6689    
  3.6664      3.6569      3.6443      3.6338      3.6297      3.6337      3.6443      3.6569      3.6664      3.6689    
  3.7706      3.8539      3.9127      3.9432      3.9432      3.9127      3.8538      3.7705      3.6689      3.5580    
  3.4496      3.3566      3.2895      3.2547      3.2547      3.2896      3.3566      3.4495      3.5579      3.6689    
  4.0751      4.2240      4.3176      4.3494      4.3176      4.2240      4.0751      3.8829      3.6664      3.4496    
  3.2573      3.1096      3.0180      2.9872      3.0181      3.1096      3.2574      3.4496      3.6664      3.8829    
  4.5353      4.7147      4.8071      4.8071      4.7148      4.5354      4.2818      3.9779      3.6569      3.3566    
  3.1096      2.9376      2.8503      2.8503      2.9376      3.1096      3.3566      3.6570      3.9779      4.2818    
  5.0693      5.2275      5.2787      5.2275      5.0693      4.8019      4.4476      4.0461      3.6443      3.2895    
  3.0180      2.8503      2.7939      2.8503      3.0181      3.2895      3.6443      4.0460      4.4476      4.8019    
  5.4768      5.5471      5.5470      5.4767      5.3011      4.9892      4.5604      4.0870      3.6338      3.2547    
  2.9872      2.8503      2.8503      2.9873      3.2547      3.6337      4.0869      4.5603      4.9892      5.3012    
  5.5034      5.4895      5.5033      5.5011      5.3859      5.0861      4.6221      4.1052      3.6297      3.2547    
  3.0181      2.9376      3.0181      3.2547      3.6297      4.1052      4.6221      5.0861      5.3860      5.5012    
  5.0665      5.0665      5.2148      5.3782      5.3802      5.1195      4.6410      4.1052      3.6337      3.2896    
  3.1096      3.1096      3.2895      3.6337      4.1052      4.6411      5.1196      5.3802      5.3782      5.2147    
  4.3352      4.4997      4.8897      5.2584      5.3658      5.1196      4.6221      4.0869      3.6443      3.3566    
  3.2574      3.3566      3.6443      4.0869      4.6221      5.1196      5.3658      5.2584      4.8897      4.4998    
  3.6606      4.1039      4.7500      5.2584      5.3802      5.0862      4.5604      4.0461      3.6569      3.4495    
  3.4496      3.6570      4.0460      4.5603      5.0861      5.3802      5.2584      4.7500      4.1039      3.6606    
  3.3881      4.1039      4.8897      5.3781      5.3859      4.9892      4.4476      3.9780      3.6664      3.5579    
  3.6664      3.9779      4.4476      4.9892      5.3860      5.3782      4.8897      4.1039      3.3881      3.1003    
  3.6606      4.4998      5.2148      5.5012      5.3011      4.8018      4.2818      3.8830      3.6689      3.6689    
  3.8829      4.2818      4.8019      5.3012      5.5012      5.2147      4.4998      3.6606      3.1003      3.1003    
  5.3979      5.5755      5.4506      5.0468      4.5352      4.0692      3.7234      3.5412      3.5412      3.7234    
  4.0693      4.5353      5.0468      5.4508      5.5756      5.3978      5.0665      4.8151      4.8152      5.0667    
  5.5755      5.5023      5.1715      4.6956      4.2240      3.8387      3.5908      3.5058      3.5908      3.8387    
  4.2240      4.6956      5.1716      5.5023      5.5755      5.4264      5.2147      5.1186      5.2148      5.4265    
  5.4506      5.1715      4.7507      4.3053      3.9127      3.6271      3.4785      3.4785      3.6270      3.9127    
  4.3053      4.7508      5.1716      5.4506      5.5280      5.4616      5.3782      5.3782      5.4617      5.5281    
  5.0468      4.6956      4.3053      3.9382      3.6464      3.4624      3.3999      3.4623      3.6464      3.9382    
  4.3053      4.6957      5.0468      5.2849      5.3826      5.3894      5.3802      5.3896      5.3829      5.2850    
  4.5352      4.2240      3.9127      3.6464      3.4571      3.3603      3.3603      3.4571      3.6464      3.9127    
  4.2240      4.5354      4.8019      4.9892      5.0861      5.1196      5.1196      5.0862      4.9892      4.8018    
  4.0692      3.8387      3.6271      3.4624      3.3603      3.3260      3.3603      3.4623      3.6270      3.8387    
  4.0693      4.2852      4.4586      4.5767      4.6411      4.6606      4.6411      4.5766      4.4584      4.2850    
  3.7234      3.5908      3.4785      3.3999      3.3603      3.3603      3.3999      3.4785      3.5908      3.7234    
  3.8564      3.9706      4.0541      4.1052      4.1285      4.1284      4.1052      4.0541      3.9705      3.8564    
  3.5412      3.5058      3.4785      3.4623      3.4571      3.4623      3.4785      3.5058      3.5412      3.5777    
  3.6074      3.6259      3.6338      3.6354      3.6353      3.6353      3.6337      3.6259      3.6075      3.5777    
  3.5412      3.5908      3.6270      3.6464      3.6464      3.6270      3.5908      3.5412      3.4816      3.4157    
  3.3491      3.2895      3.2448      3.2209      3.2209      3.2447      3.2895      3.3491      3.4157      3.4816    
  3.7234      3.8387      3.9127      3.9382      3.9127      3.8387      3.7234      3.5777      3.4157      3.2539    
  3.1096      2.9974      2.9270      2.9031      2.9270      2.9974      3.1096      3.2539      3.4156      3.5777    
  4.0693      4.2240      4.3053      4.3053      4.2240      4.0693      3.8564      3.6074      3.3491      3.1096    
  2.9131      2.7759      2.7060      2.7060      2.7759      2.9131      3.1096      3.3491      3.6074      3.8564    
  4.5353      4.6956      4.7508      4.6957      4.5354      4.2852      3.9706      3.6259      3.2895      2.9974    
  2.7759      2.6396      2.5939      2.6396      2.7759      2.9974      3.2896      3.6259      3.9706      4.2851    
  5.0468      5.1716      5.1716      5.0468      4.8019      4.4586      4.0541      3.6338      3.2448      2.9270    
  2.7060      2.5939      2.5939      2.7060      2.9269      3.2447      3.6337      4.0542      4.4586      4.8019    
  5.4508      5.5023      5.4506      5.2849      4.9892      4.5767      4.1052      3.6354      3.2209      2.9031    
  2.7060      2.6396      2.7060      2.9031      3.2209      3.6353      4.1051      4.5766      4.9893      5.2851    
  5.5756      5.5755      5.5280      5.3826      5.0861      4.6411      4.1285      3.6353      3.2209      2.9270    
  2.7759      2.7759      2.9269      3.2209      3.6353      4.1284      4.6410      5.0861      5.3827      5.5281    
  5.3978      5.4264      5.4616      5.3894      5.1196      4.6606      4.1284      3.6353      3.2447      2.9974    
  2.9131      2.9974      3.2447      3.6353      4.1284      4.6606      5.1196      5.3894      5.4616      5.4264    
  5.0665      5.2147      5.3782      5.3802      5.1196      4.6411      4.1052      3.6337      3.2895      3.1096    
  3.1096      3.2896      3.6337      4.1051      4.6410      5.1196      5.3802      5.3782      5.2148      5.0665    
  4.8151      5.1186      5.3782      5.3896      5.0862      4.5766      4.0541      3.6259      3.3491      3.2539    
  3.3491      3.6259      4.0542      4.5766      5.0861      5.3894      5.3782      5.1189      4.8154      4.6836    
  4.8152      5.2148      5.4617      5.3829      4.9892      4.4584      3.9705      3.6075      3.4157      3.4156    
  3.6074      3.9706      4.4586      4.9893      5.3827      5.4616      5.2148      4.8154      4.5218      4.5218    
  5.0667      5.4265      5.5281      5.2850      4.8018      4.2850      3.8564      3.5777      3.4816      3.5777    
  3.8564      4.2851      4.8019      5.2851      5.5281      5.4264      5.0665      4.6836      4.5218      4.6837    
  5.5584      5.3559      4.9721      4.5128      4.0751      3.7234      3.4995      3.4231      3.4995      3.7234    
  4.0751      4.5128      4.9720      5.3559      5.5585      5.5756      5.5033      5.4615      5.5033      5.5755    
  5.3559      5.0434      4.6359      4.2180      3.8538      3.5908      3.4547      3.4547      3.5908      3.8538    
  4.2180      4.6358      5.0433      5.3559      5.5087      5.5281      5.5011      5.5011      5.5280      5.5086    
  4.9721      4.6359      4.2677      3.9232      3.6503      3.4785      3.4203      3.4785      3.6503      3.9232    