fcc Si                                  
   3.80000000000000     
     0.500000    0.500000    0.000000
     0.000000    0.500000    0.500000
     0.500000    0.000000    0.500000
   Si
     1
Direct
  0.000000  0.000000  0.000000
 
   20   20   20
 -.24053425007E+01 -.16962942224E+01 0.14714248991E+00 0.24180517813E+01 0.43351983793E+01
 0.53978973834E+01 0.55584499520E+01 0.51485481890E+01 0.46319053665E+01 0.42662891709E+01
 0.41355812913E+01 0.42662891709E+01 0.46319053665E+01 0.51485481890E+01 0.55584499520E+01
 0.53978973834E+01 0.43351983793E+01 0.24180517813E+01 0.14714248991E+00 -.16962942224E+01
 -.16962942224E+01 -.42238484079E+00 0.16162655607E+01 0.36604256130E+01 0.50664548996E+01
 0.55755225762E+01 0.53559654821E+01 0.48338089802E+01 0.43808465145E+01 0.41286265230E+01
 0.41287253143E+01 0.43809890649E+01 0.48337695533E+01 0.53558015278E+01 0.55755155424E+01
 0.50666793688E+01 0.36605666682E+01 0.16160001847E+01 -.42291387122E+00 -.16965675563E+01
 0.14714248991E+00 0.16162655607E+01 0.33881036120E+01 0.48152241689E+01 0.55033070578E+01
 0.54506442887E+01 0.49720754812E+01 0.44631484921E+01 0.41113122490E+01 0.39865235074E+01
 0.41112980010E+01 0.44631242099E+01 0.49720545092E+01 0.54506375913E+01 0.55033053829E+01
 0.48152037995E+01 0.33880565175E+01 0.16162109808E+01 0.14710711970E+00 -.42291387122E+00
 0.24180517813E+01 0.36604256130E+01 0.48152241689E+01 0.54617179800E+01 0.54767987113E+01
 0.50467756586E+01 0.45127627284E+01 0.40909239713E+01 0.38615113655E+01 0.38614373404E+01
 0.40908027449E+01 0.45127526870E+01 0.50468593449E+01 0.54767909471E+01 0.54615502967E+01
 0.48151116303E+01 0.36606180608E+01 0.24184541710E+01 0.16162109808E+01 0.16160001847E+01
 0.43351983793E+01 0.50664548996E+01 0.55033070578E+01 0.54767987113E+01 0.50693073042E+01
 0.45352573003E+01 0.40750700845E+01 0.37705519202E+01 0.36646679718E+01 0.37705654171E+01
 0.40750691487E+01 0.45352460662E+01 0.50693190975E+01 0.54768347399E+01 0.55033384694E+01
 0.50664851099E+01 0.43352503561E+01 0.36606180608E+01 0.33880565175E+01 0.36605666682E+01
 0.53978973834E+01 0.55755225762E+01 0.54506442887E+01 0.50467756586E+01 0.45352573003E+01
 0.40692443110E+01 0.37233577568E+01 0.35411770259E+01 0.35412171382E+01 0.37234225413E+01
 0.40692622588E+01 0.45352610311E+01 0.50468445820E+01 0.54507556989E+01 0.55755488194E+01
 0.53977685948E+01 0.50664851099E+01 0.48151116303E+01 0.48152037995E+01 0.50666793688E+01
 0.55584499520E+01 0.53559654821E+01 0.49720754812E+01 0.45127627284E+01 0.40750700845E+01
 0.37233577568E+01 0.34994574739E+01 0.34230992720E+01 0.34994786727E+01 0.37233825412E+01
 0.40750790746E+01 0.45127500319E+01 0.49720472449E+01 0.53559439181E+01 0.55584557921E+01
 0.55755488194E+01 0.55033384694E+01 0.54615502967E+01 0.55033053829E+01 0.55755155424E+01
 0.51485481890E+01 0.48338089802E+01 0.44631484921E+01 0.40909239713E+01 0.37705519202E+01
 0.35411770259E+01 0.34230992720E+01 0.34231195197E+01 0.35412020755E+01 0.37705184606E+01
 0.40908183599E+01 0.44630395597E+01 0.48337845358E+01 0.51486334024E+01 0.53559439181E+01
 0.54507556989E+01 0.54768347399E+01 0.54767909471E+01 0.54506375913E+01 0.53558015278E+01
 0.46319053665E+01 0.43808465145E+01 0.41113122490E+01 0.38615113655E+01 0.36646679718E+01
 0.35412171382E+01 0.34994786727E+01 0.35412020755E+01 0.36646472878E+01 0.38614962146E+01
 0.41113101591E+01 0.43808616891E+01 0.46319314060E+01 0.48337845358E+01 0.49720472449E+01
 0.50468445820E+01 0.50693190975E+01 0.50468593449E+01 0.49720545092E+01 0.48337695533E+01
 0.42662891709E+01 0.41286265230E+01 0.39865235074E+01 0.38614373404E+01 0.37705654171E+01
 0.37234225413E+01 0.37233825412E+01 0.37705184606E+01 0.38614962146E+01 0.39866736891E+01
 0.41287276901E+01 0.42662456414E+01 0.43808616891E+01 0.44630395597E+01 0.45127500319E+01
 0.45352610311E+01 0.45352460662E+01 0.45127526870E+01 0.44631242099E+01 0.43809890649E+01
 0.41355812913E+01 0.41287253143E+01 0.41112980010E+01 0.40908027449E+01 0.40750691487E+01
 0.40692622588E+01 0.40750790746E+01 0.40908183599E+01 0.41113101591E+01 0.41287276901E+01
 0.41355786780E+01 0.41287276901E+01 0.41113101591E+01 0.40908183599E+01 0.40750790746E+01
 0.40692622588E+01 0.40750691487E+01 0.40908027449E+01 0.41112980010E+01 0.41287253143E+01
 0.42662891709E+01 0.43809890649E+01 0.44631242099E+01 0.45127526870E+01 0.45352460662E+01
 0.45352610311E+01 0.45127500319E+01 0.44630395597E+01 0.43808616891E+01 0.42662456414E+01
 0.41287276901E+01 0.39866736891E+01 0.38614962146E+01 0.37705184606E+01 0.37233825412E+01
 0.37234225413E+01 0.37705654171E+01 0.38614373404E+01 0.39865235074E+01 0.41286265230E+01
 0.46319053665E+01 0.48337695533E+01 0.49720545092E+01 0.50468593449E+01 0.50693190975E+01
 0.50468445820E+01 0.49720472449E+01 0.48337845358E+01 0.46319314060E+01 0.43808616891E+01
 0.41113101591E+01 0.38614962146E+01 0.36646472878E+01 0.35412020755E+01 0.34994786727E+01
 0.35412171382E+01 0.36646679718E+01 0.38615113655E+01 0.41113122490E+01 0.43808465145E+01
 0.51485481890E+01 0.53558015278E+01 0.54506375913E+01 0.54767909471E+01 0.54768347399E+01
 0.54507556989E+01 0.53559439181E+01 0.51486334024E+01 0.48337845358E+01 0.44630395597E+01
 0.40908183599E+01 0.37705184606E+01 0.35412020755E+01 0.34231195197E+01 0.34230992720E+01
 0.35411770259E+01 0.37705519202E+01 0.40909239713E+01 0.44631484921E+01 0.48338089802E+01
 0.55584499520E+01 0.55755155424E+01 0.55033053829E+01 0.54615502967E+01 0.55033384694E+01
 0.55755488194E+01 0.55584557921E+01 0.53559439181E+01 0.49720472449E+01 0.45127500319E+01
 0.40750790746E+01 0.37233825412E+01 0.34994786727E+01 0.34230992720E+01 0.34994574739E+01
 0.37233577568E+01 0.40750700845E+01 0.45127627284E+01 0.49720754812E+01 0.53559654821E+01
 0.53978973834E+01 0.50666793688E+01 0.48152037995E+01 0.48151116303E+01 0.50664851099E+01
 0.53977685948E+01 0.55755488194E+01 0.54507556989E+01 0.50468445820E+01 0.45352610311E+01
 0.40692622588E+01 0.37234225413E+01 0.35412171382E+01 0.35411770259E+01 0.37233577568E+01
 0.40692443110E+01 0.45352573003E+01 0.50467756586E+01 0.54506442887E+01 0.55755225762E+01
 0.43351983793E+01 0.36605666682E+01 0.33880565175E+01 0.36606180608E+01 0.43352503561E+01
 0.50664851099E+01 0.55033384694E+01 0.54768347399E+01 0.50693190975E+01 0.45352460662E+01
 0.40750691487E+01 0.37705654171E+01 0.36646679718E+01 0.37705519202E+01 0.40750700845E+01
 0.45352573003E+01 0.50693073042E+01 0.54767987113E+01 0.55033070578E+01 0.50664548996E+01
 0.24180517813E+01 0.16160001847E+01 0.16162109808E+01 0.24184541710E+01 0.36606180608E+01
 0.48151116303E+01 0.54615502967E+01 0.54767909471E+01 0.50468593449E+01 0.45127526870E+01
 0.40908027449E+01 0.38614373404E+01 0.38615113655E+01 0.40909239713E+01 0.45127627284E+01
 0.50467756586E+01 0.54767987113E+01 0.54617179800E+01 0.48152241689E+01 0.36604256130E+01
 0.14714248991E+00 -.42291387122E+00 0.14710711970E+00 0.16162109808E+01 0.33880565175E+01
 0.48152037995E+01 0.55033053829E+01 0.54506375913E+01 0.49720545092E+01 0.44631242099E+01
 0.41112980010E+01 0.39865235074E+01 0.41113122490E+01 0.44631484921E+01 0.49720754812E+01
 0.54506442887E+01 0.55033070578E+01 0.48152241689E+01 0.33881036120E+01 0.16162655607E+01
 -.16962942224E+01 -.16965675563E+01 -.42291387122E+00 0.16160001847E+01 0.36605666682E+01
 0.50666793688E+01 0.55755155424E+01 0.53558015278E+01 0.48337695533E+01 0.43809890649E+01
 0.41287253143E+01 0.41286265230E+01 0.43808465145E+01 0.48338089802E+01 0.53559654821E+01
 0.55755225762E+01 0.50664548996E+01 0.36604256130E+01 0.16162655607E+01 -.42238484079E+00
 -.16963096693E+01 -.42241153091E+00 0.16162495617E+01 0.36604210437E+01 0.50664467522E+01
 0.55755127363E+01 0.53559675076E+01 0.48338178109E+01 0.43808461466E+01 0.41286212584E+01
 0.41287314355E+01 0.43810024438E+01 0.48337735505E+01 0.53557999521E+01 0.55755255155E+01
 0.50666982004E+01 0.36605775330E+01 0.16160034297E+01 -.42290689171E+00 -.16965639028E+01
 -.42241153091E+00 0.11681189743E+01 0.31004358085E+01 0.46835111758E+01 0.54893065695E+01
 0.55022705225E+01 0.50433677330E+01 0.45310537821E+01 0.41743531317E+01 0.40475150007E+01
 0.41743577959E+01 0.45309881365E+01 0.50432805348E+01 0.55023462851E+01 0.54895857927E+01
 0.46837117478E+01 0.31002154515E+01 0.11675059764E+01 -.42295280474E+00 -.10379681364E+01
 0.16162495617E+01 0.31004358085E+01 0.45218543745E+01 0.53915949153E+01 0.55470086042E+01
 0.51715238062E+01 0.46358564455E+01 0.42031152632E+01 0.39659983159E+01 0.39659125859E+01
 0.42029467723E+01 0.46357841388E+01 0.51716301966E+01 0.55471782830E+01 0.53916381326E+01
 0.45217220334E+01 0.31002543895E+01 0.16161442280E+01 0.66975161709E+00 0.66977734775E+00
 0.36604210437E+01 0.46835111758E+01 0.53915949153E+01 0.55523151799E+01 0.52276224535E+01
 0.46955593592E+01 0.42179545314E+01 0.38979382504E+01 0.37860248454E+01 0.38979537000E+01
 0.42179487134E+01 0.46955183868E+01 0.52275652304E+01 0.55522586932E+01 0.53915755483E+01
 0.46835997048E+01 0.36606278613E+01 0.27601884929E+01 0.24024704278E+01 0.27599996622E+01
 0.50664467522E+01 0.54893065695E+01 0.55470086042E+01 0.52276224535E+01 0.47148231783E+01
 0.42240234430E+01 0.38537736732E+01 0.36570164306E+01 0.36570939647E+01 0.38538853101E+01
 0.42239914730E+01 0.47146773533E+01 0.52275563474E+01 0.55471113399E+01 0.54894690694E+01
 0.50665282798E+01 0.44997594532E+01 0.41038663658E+01 0.41038880283E+01 0.44997729984E+01
 0.55755127363E+01 0.55022705225E+01 0.51715238062E+01 0.46955593592E+01 0.42240234430E+01
 0.38387406426E+01 0.35908170000E+01 0.35057861886E+01 0.35908066930E+01 0.38387118981E+01
 0.42240032808E+01 0.46955951226E+01 0.51716102783E+01 0.55023316762E+01 0.55754802556E+01
 0.54263540460E+01 0.52147091355E+01 0.51186420934E+01 0.52147983774E+01 0.54264588339E+01
 0.53559675076E+01 0.50433677330E+01 0.46358564455E+01 0.42179545314E+01 0.38537736732E+01
 0.35908170000E+01 0.34546818799E+01 0.34546632420E+01 0.35907938237E+01 0.38537855348E+01
 0.42179723201E+01 0.46358123855E+01 0.50432629940E+01 0.53559035684E+01 0.55086979742E+01
 0.55280992458E+01 0.55011599225E+01 0.55010895435E+01 0.55279642284E+01 0.55086379846E+01
 0.48338178109E+01 0.45310537821E+01 0.42031152632E+01 0.38979382504E+01 0.36570164306E+01
 0.35057861886E+01 0.34546632420E+01 0.35058490998E+01 0.36570679345E+01 0.38978926643E+01
 0.42029608768E+01 0.45308886291E+01 0.48337714086E+01 0.50721447949E+01 0.52196130738E+01
 0.52851189013E+01 0.53012508801E+01 0.52849638370E+01 0.52194047109E+01 0.50720252280E+01
 0.43808461466E+01 0.41743531317E+01 0.39659983159E+01 0.37860248454E+01 0.36570939647E+01
 0.35908066930E+01 0.35907938237E+01 0.36570679345E+01 0.37860062611E+01 0.39659928679E+01
 0.41743545171E+01 0.43808543032E+01 0.45571712948E+01 0.46863168355E+01 0.47656674170E+01
 0.48019038641E+01 0.48019005579E+01 0.47656560714E+01 0.46862980936E+01 0.45571538456E+01
 0.41286212584E+01 0.40475150007E+01 0.39659125859E+01 0.38979537000E+01 0.38538853101E+01
 0.38387118981E+01 0.38537855348E+01 0.38978926643E+01 0.39659928679E+01 0.40476796338E+01
 0.41287233232E+01 0.41960540733E+01 0.42427786527E+01 0.42695512976E+01 0.42817776643E+01
 0.42850934897E+01 0.42818158480E+01 0.42696420450E+01 0.42428873621E+01 0.41960866049E+01
 0.41287314355E+01 0.41743577959E+01 0.42029467723E+01 0.42179487134E+01 0.42239914730E+01
 0.42240032808E+01 0.42179723201E+01 0.42029608768E+01 0.41743545171E+01 0.41287233232E+01
 0.40673837096E+01 0.39980530015E+01 0.39327014724E+01 0.38829231673E+01 0.38563900555E+01
 0.38563920029E+01 0.38829233809E+01 0.39326937949E+01 0.39980428048E+01 0.40673819846E+01
 0.43810024438E+01 0.45309881365E+01 0.46357841388E+01 0.46955183868E+01 0.47146773533E+01
 0.46955951226E+01 0.46358123855E+01 0.45308886291E+01 0.43808543032E+01 0.41960540733E+01
 0.39980530015E+01 0.38141938479E+01 0.36689267729E+01 0.35776813733E+01 0.35468357826E+01
 0.35776950796E+01 0.36688837505E+01 0.38140794257E+01 0.39979684161E+01 0.41961042733E+01
 0.48337735505E+01 0.50432805348E+01 0.51716301966E+01 0.52275652304E+01 0.52275563474E+01
 0.51716102783E+01 0.50432629940E+01 0.48337714086E+01 0.45571712948E+01 0.42427786527E+01
 0.39327014724E+01 0.36689267729E+01 0.34815650295E+01 0.33855930582E+01 0.33856058360E+01
 0.34815912362E+01 0.36689423722E+01 0.39326957235E+01 0.42427608520E+01 0.45571570497E+01
 0.53557999521E+01 0.55023462851E+01 0.55471782830E+01 0.55522586932E+01 0.55471113399E+01
 0.55023316762E+01 0.53559035684E+01 0.50721447949E+01 0.46863168355E+01 0.42695512976E+01
 0.38829231673E+01 0.35776813733E+01 0.33855930582E+01 0.33204429272E+01 0.33855509071E+01
 0.35776904207E+01 0.38830246895E+01 0.42696505644E+01 0.46862933083E+01 0.50720134491E+01
 0.55755255155E+01 0.54895857927E+01 0.53916381326E+01 0.53915755483E+01 0.54894690694E+01
 0.55754802556E+01 0.55086979742E+01 0.52196130738E+01 0.47656674170E+01 0.42817776643E+01
 0.38563900555E+01 0.35468357826E+01 0.33856058360E+01 0.33855509071E+01 0.35467408264E+01
 0.38563672017E+01 0.42818253487E+01 0.47656862387E+01 0.52195558521E+01 0.55086435625E+01
 0.50666982004E+01 0.46837117478E+01 0.45217220334E+01 0.46835997048E+01 0.50665282798E+01
 0.54263540460E+01 0.55280992458E+01 0.52851189013E+01 0.48019038641E+01 0.42850934897E+01
 0.38563920029E+01 0.35776950796E+01 0.34815912362E+01 0.35776904207E+01 0.38563672017E+01
 0.42850215166E+01 0.48017877701E+01 0.52850241381E+01 0.55281110996E+01 0.54264842817E+01
 0.36605775330E+01 0.31002154515E+01 0.31002543895E+01 0.36606278613E+01 0.44997594532E+01
 0.52147091355E+01 0.55011599225E+01 0.53012508801E+01 0.48019005579E+01 0.42818158480E+01
 0.38829233809E+01 0.36688837505E+01 0.36689423722E+01 0.38830246895E+01 0.42818253487E+01
 0.48017877701E+01 0.53011308528E+01 0.55011505245E+01 0.52147811257E+01 0.44997890253E+01
 0.16160034297E+01 0.11675059764E+01 0.16161442280E+01 0.27601884929E+01 0.41038663658E+01
 0.51186420934E+01 0.55010895435E+01 0.52849638370E+01 0.47656560714E+01 0.42696420450E+01
 0.39326937949E+01 0.38140794257E+01 0.39326957235E+01 0.42696505644E+01 0.47656862387E+01
 0.52850241381E+01 0.55011505245E+01 0.51186366228E+01 0.41037520974E+01 0.27600051080E+01
 -.42290689171E+00 -.42295280474E+00 0.66975161709E+00 0.24024704278E+01 0.41038880283E+01
 0.52147983774E+01 0.55279642284E+01 0.52194047109E+01 0.46862980936E+01 0.42428873621E+01
 0.39980428048E+01 0.39979684161E+01 0.42427608520E+01 0.46862933083E+01 0.52195558521E+01
 0.55281110996E+01 0.52147811257E+01 0.41037520974E+01 0.24023954538E+01 0.66979816914E+00
 -.16965639028E+01 -.10379681364E+01 0.66977734775E+00 0.27599996622E+01 0.44997729984E+01
 0.54264588339E+01 0.55086379846E+01 0.50720252280E+01 0.45571538456E+01 0.41960866049E+01
 0.40673819846E+01 0.41961042733E+01 0.45571570497E+01 0.50720134491E+01 0.55086435625E+01
 0.54264842817E+01 0.44997890253E+01 0.27600051080E+01 0.66979816914E+00 -.10379393836E+01
 0.14710955087E+00 0.16162291099E+01 0.33880959839E+01 0.48152341082E+01 0.55033051278E+01
 0.54506381727E+01 0.49720882117E+01 0.44631672803E+01 0.41113121701E+01 0.39865178239E+01
 0.41113124248E+01 0.44631453431E+01 0.49720559714E+01 0.54506327227E+01 0.55033214132E+01
 0.48152277627E+01 0.33880588981E+01 0.16161988990E+01 0.14710266834E+00 -.42292249452E+00
 0.16162291099E+01 0.31004224074E+01 0.45218596754E+01 0.53916073329E+01 0.55470131610E+01
 0.51715263520E+01 0.46358671793E+01 0.42031263342E+01 0.39659998579E+01 0.39659134176E+01
 0.42029570385E+01 0.46357945373E+01 0.51716301160E+01 0.55471770812E+01 0.53916464662E+01
 0.45217293392E+01 0.31002468726E+01 0.16161284033E+01 0.66973893318E+00 0.66976320484E+00
 0.33880959839E+01 0.45218596754E+01 0.53339011859E+01 0.55682327356E+01 0.52787389958E+01
 0.47506546243E+01 0.42677116083E+01 0.39425794522E+01 0.38286082827E+01 0.39425581989E+01
 0.42676708449E+01 0.47506288730E+01 0.52787635070E+01 0.55682768657E+01 0.53339032480E+01
 0.45218142293E+01 0.33880553002E+01 0.24023759966E+01 0.20126901871E+01 0.24023862943E+01
 0.48152341082E+01 0.53916073329E+01 0.55682327356E+01 0.53109863920E+01 0.48070687735E+01
 0.43052717183E+01 0.39232092731E+01 0.37191177988E+01 0.37191844466E+01 0.39233250097E+01
 0.43052984596E+01 0.48069845236E+01 0.53108827275E+01 0.55681928707E+01 0.53916572204E+01
 0.48153587647E+01 0.41039029323E+01 0.36198876040E+01 0.36198250223E+01 0.41037636842E+01
 0.55033051278E+01 0.55470131610E+01 0.52787389958E+01 0.48070687735E+01 0.43175627521E+01
 0.39127323788E+01 0.36502979870E+01 0.35599712527E+01 0.36503234420E+01 0.39127445791E+01
 0.43175493823E+01 0.48070580570E+01 0.52787508331E+01 0.55470342896E+01 0.55033263880E+01
 0.52148020181E+01 0.48897589415E+01 0.47499976184E+01 0.48897336163E+01 0.52147741255E+01
 0.54506381727E+01 0.51715263520E+01 0.47506546243E+01 0.43052717183E+01 0.39127323788E+01
 0.36271173370E+01 0.34785233899E+01 0.34784850099E+01 0.36270368489E+01 0.39126840812E+01
 0.43053096410E+01 0.47507584766E+01 0.51716108746E+01 0.54506194703E+01 0.55279601317E+01
 0.54615541971E+01 0.53781626307E+01 0.53782329764E+01 0.54617131428E+01 0.55280922168E+01
 0.49720882117E+01 0.46358671793E+01 0.42677116083E+01 0.39232092731E+01 0.36502979870E+01
 0.34785233899E+01 0.34203279974E+01 0.34785261961E+01 0.36503053861E+01 0.39232084944E+01
 0.42676850890E+01 0.46358201138E+01 0.49720412124E+01 0.52195276040E+01 0.53460618044E+01
 0.53827308191E+01 0.53859541798E+01 0.53827516939E+01 0.53460903697E+01 0.52195622777E+01
 0.44631672803E+01 0.42031263342E+01 0.39425794522E+01 0.37191177988E+01 0.35599712527E+01
 0.34784850099E+01 0.34785261961E+01 0.35600578443E+01 0.37191622946E+01 0.39425121328E+01
 0.42029679005E+01 0.44630293392E+01 0.46862988271E+01 0.48499951109E+01 0.49479100667E+01
 0.49893056361E+01 0.49892459519E+01 0.49477740770E+01 0.48498888822E+01 0.46863148210E+01
 0.41113121701E+01 0.39659998579E+01 0.38286082827E+01 0.37191844466E+01 0.36503234420E+01
 0.36270368489E+01 0.36503053861E+01 0.37191622946E+01 0.38285939269E+01 0.39659957278E+01
 0.41113165746E+01 0.42427699124E+01 0.43446481183E+01 0.44117361078E+01 0.44476089811E+01
 0.44585867338E+01 0.44476062990E+01 0.44117266209E+01 0.43446331483E+01 0.42427577784E+01
 0.39865178239E+01 0.39659134176E+01 0.39425581989E+01 0.39233250097E+01 0.39127445791E+01
 0.39126840812E+01 0.39232084944E+01 0.39425121328E+01 0.39659957278E+01 0.39866647708E+01
 0.39980448935E+01 0.39977974277E+01 0.39889564758E+01 0.39778326769E+01 0.39705457361E+01
 0.39705846042E+01 0.39779301004E+01 0.39890527033E+01 0.39978151643E+01 0.39979503700E+01
 0.41113124248E+01 0.42029570385E+01 0.42676708449E+01 0.43052984596E+01 0.43175493823E+01
 0.43053096410E+01 0.42676850890E+01 0.42029679005E+01 0.41113165746E+01 0.39980448935E+01
 0.38751824086E+01 0.37593028219E+01 0.36663967650E+01 0.36073830764E+01 0.35872986874E+01
 0.36073749097E+01 0.36663938719E+01 0.37593123664E+01 0.38751950008E+01 0.39980499418E+01
 0.44631453431E+01 0.46357945373E+01 0.47506288730E+01 0.48069845236E+01 0.48070580570E+01
 0.47507584766E+01 0.46358201138E+01 0.44630293392E+01 0.42427699124E+01 0.39977974277E+01
 0.37593028219E+01 0.35579709554E+01 0.34156653641E+01 0.33430017210E+01 0.33429981505E+01
 0.34156338360E+01 0.35578970965E+01 0.37592421933E+01 0.39978376844E+01 0.42429104066E+01
 0.49720559714E+01 0.51716301160E+01 0.52787635070E+01 0.53108827275E+01 0.52787508331E+01
 0.51716108746E+01 0.49720412124E+01 0.46862988271E+01 0.43446481183E+01 0.39889564758E+01
 0.36663967650E+01 0.34156653641E+01 0.32595389041E+01 0.32069105182E+01 0.32595583051E+01
 0.34156857954E+01 0.36663993900E+01 0.39889419083E+01 0.43446316072E+01 0.46862966426E+01
 0.54506327227E+01 0.55471770812E+01 0.55682768657E+01 0.55681928707E+01 0.55470342896E+01
 0.54506194703E+01 0.52195276040E+01 0.48499951109E+01 0.44117361078E+01 0.39778326769E+01
 0.36073830764E+01 0.33430017210E+01 0.32069105182E+01 0.32068786856E+01 0.33429702335E+01
 0.36074415158E+01 0.39779391475E+01 0.44117467965E+01 0.48498632023E+01 0.52193878390E+01
 0.55033214132E+01 0.53916464662E+01 0.53339032480E+01 0.53916572204E+01 0.55033263880E+01
 0.55279601317E+01 0.53460618044E+01 0.49479100667E+01 0.44476089811E+01 0.39705457361E+01
 0.35872986874E+01 0.33429981505E+01 0.32595583051E+01 0.33429702335E+01 0.35872646391E+01
 0.39705283644E+01 0.44476157447E+01 0.49479343411E+01 0.53460870699E+01 0.55279730543E+01
 0.48152277627E+01 0.45217293392E+01 0.45218142293E+01 0.48153587647E+01 0.52148020181E+01
 0.54615541971E+01 0.53827308191E+01 0.49893056361E+01 0.44585867338E+01 0.39705846042E+01
 0.36073749097E+01 0.34156338360E+01 0.34156857954E+01 0.36074415158E+01 0.39705283644E+01
 0.44584380297E+01 0.49892477884E+01 0.53828595063E+01 0.54617324003E+01 0.52148253920E+01
 0.33880588981E+01 0.31002468726E+01 0.33880553002E+01 0.41039029323E+01 0.48897589415E+01
 0.53781626307E+01 0.53859541798E+01 0.49892459519E+01 0.44476062990E+01 0.39779301004E+01
 0.36663938719E+01 0.35578970965E+01 0.36663993900E+01 0.39779391475E+01 0.44476157447E+01
 0.49892477884E+01 0.53859385662E+01 0.53781312208E+01 0.48897293056E+01 0.41038931016E+01
 0.16161988990E+01 0.16161284033E+01 0.24023759966E+01 0.36198876040E+01 0.47499976184E+01
 0.53782329764E+01 0.53827516939E+01 0.49477740770E+01 0.44117266209E+01 0.39890527033E+01
 0.37593123664E+01 0.37592421933E+01 0.39889419083E+01 0.44117467965E+01 0.49479343411E+01
 0.53828595063E+01 0.53781312208E+01 0.47497845125E+01 0.36197977067E+01 0.24024595995E+01
 0.14710266834E+00 0.66973893318E+00 0.20126901871E+01 0.36198250223E+01 0.48897336163E+01
 0.54617131428E+01 0.53460903697E+01 0.48498888822E+01 0.43446331483E+01 0.39978151643E+01
 0.38751950008E+01 0.39978376844E+01 0.43446316072E+01 0.48498632023E+01 0.53460870699E+01
 0.54617324003E+01 0.48897293056E+01 0.36197977067E+01 0.20126870103E+01 0.66976044237E+00
 -.42292249452E+00 0.66976320484E+00 0.24023862943E+01 0.41037636842E+01 0.52147741255E+01
 0.55280922168E+01 0.52195622777E+01 0.46863148210E+01 0.42427577784E+01 0.39979503700E+01
 0.39980499418E+01 0.42429104066E+01 0.46862966426E+01 0.52193878390E+01 0.55279730543E+01
 0.52148253920E+01 0.41038931016E+01 0.24024595995E+01 0.66976044237E+00 -.42293636983E+00
 0.24180293526E+01 0.36604077192E+01 0.48152387552E+01 0.54617403452E+01 0.54767970524E+01
 0.50467688424E+01 0.45127780442E+01 0.40909410298E+01 0.38615037341E+01 0.38614268229E+01
 0.40908163793E+01 0.45127684381E+01 0.50468499788E+01 0.54767789377E+01 0.54615634546E+01
 0.48151269068E+01 0.36606051020E+01 0.24184323589E+01 0.16162083301E+01 0.16159987824E+01
 0.36604077192E+01 0.46835126852E+01 0.53916202840E+01 0.55523396399E+01 0.52276272898E+01
 0.46955613819E+01 0.42179693164E+01 0.38979501574E+01 0.37860209487E+01 0.38979512005E+01
 0.42179604022E+01 0.46955263262E+01 0.52275564681E+01 0.55522514578E+01 0.53915821719E+01
 0.46835993177E+01 0.36606042629E+01 0.27601603722E+01 0.24024567072E+01 0.27599900664E+01
 0.48152387552E+01 0.53916202840E+01 0.55682522259E+01 0.53109992454E+01 0.48070703598E+01
 0.43052726886E+01 0.39232154423E+01 0.37191212124E+01 0.37191812110E+01 0.39233233919E+01
 0.43053017470E+01 0.48069840238E+01 0.53108752390E+01 0.55681870223E+01 0.53916551998E+01
 0.48153501941E+01 0.41038847327E+01 0.36198721147E+01 0.36198207863E+01 0.41037655219E+01
 0.54617403452E+01 0.55523396399E+01 0.53109992454E+01 0.48442138461E+01 0.43492593458E+01
 0.39381995638E+01 0.36710333074E+01 0.35789335882E+01 0.36710405009E+01 0.39382703701E+01
 0.43493808212E+01 0.48442535672E+01 0.53108572434E+01 0.55521230183E+01 0.54616935972E+01
 0.51188686095E+01 0.47500642214E+01 0.45934158327E+01 0.47498197994E+01 0.51186598935E+01
 0.54767970524E+01 0.52276272898E+01 0.48070703598E+01 0.43492593458E+01 0.39431358271E+01
 0.36464423468E+01 0.34917041981E+01 0.34916701365E+01 0.36464092338E+01 0.39432015802E+01
 0.43493882431E+01 0.48071143044E+01 0.52275229931E+01 0.54766593311E+01 0.55011253168E+01
 0.53782313930E+01 0.52584235444E+01 0.52583605563E+01 0.53781332588E+01 0.55011437433E+01
 0.50467688424E+01 0.46955613819E+01 0.43052726886E+01 0.39381995638E+01 0.36464423468E+01
 0.34623626224E+01 0.33999029026E+01 0.34623392695E+01 0.36464124818E+01 0.39381924182E+01
 0.43053191639E+01 0.46956563693E+01 0.50468366616E+01 0.52849460348E+01 0.53826466401E+01
 0.53894257388E+01 0.53801912628E+01 0.53896044148E+01 0.53828392659E+01 0.52850052782E+01
 0.45127780442E+01 0.42179693164E+01 0.39232154423E+01 0.36710333074E+01 0.34917041981E+01
 0.33999029026E+01 0.33998984641E+01 0.34916998136E+01 0.36710401879E+01 0.39232288228E+01
 0.42179812322E+01 0.45127812144E+01 0.47656628230E+01 0.49478473807E+01 0.50481203571E+01
 0.50860768468E+01 0.50861322026E+01 0.50482370109E+01 0.49479386673E+01 0.47656950033E+01
 0.40909410298E+01 0.38979501574E+01 0.37191212124E+01 0.35789335882E+01 0.34916701365E+01
 0.34623392695E+01 0.34916998136E+01 0.35789894120E+01 0.37191643403E+01 0.38979227275E+01
 0.40908368403E+01 0.42695635479E+01 0.44117452606E+01 0.45078399376E+01 0.45603702954E+01
 0.45766319085E+01 0.45602989495E+01 0.45077759943E+01 0.44117679465E+01 0.42696691635E+01
 0.38615037341E+01 0.37860209487E+01 0.37191812110E+01 0.36710405009E+01 0.36464092338E+01
 0.36464124818E+01 0.36710401879E+01 0.37191643403E+01 0.37859979039E+01 0.38615007944E+01
 0.39327100275E+01 0.39889661043E+01 0.40260172643E+01 0.40460400567E+01 0.40541424217E+01
 0.40541507704E+01 0.40460513897E+01 0.40260081389E+01 0.39889356149E+01 0.39326848526E+01
 0.38614268229E+01 0.38979512005E+01 0.39233233919E+01 0.39382703701E+01 0.39432015802E+01
 0.39381924182E+01 0.39232288228E+01 0.38979227275E+01 0.38615007944E+01 0.38141839761E+01
 0.37592994053E+01 0.37039263397E+01 0.36569238329E+01 0.36258283439E+01 0.36150473187E+01
 0.36259034479E+01 0.36570110341E+01 0.37039439792E+01 0.37592171087E+01 0.38140573086E+01
 0.40908163793E+01 0.42179604022E+01 0.43053017470E+01 0.43493808212E+01 0.43493882431E+01
 0.43053191639E+01 0.42179812322E+01 0.40908368403E+01 0.39327100275E+01 0.37592994053E+01
 0.35913636827E+01 0.34495744165E+01 0.33490990925E+01 0.32976533254E+01 0.32976471609E+01
 0.33490954133E+01 0.34495923830E+01 0.35913926718E+01 0.37593125895E+01 0.39327000778E+01
 0.45127684381E+01 0.46955263262E+01 0.48069840238E+01 0.48442535672E+01 0.48071143044E+01
 0.46956563693E+01 0.45127812144E+01 0.42695635479E+01 0.39889661043E+01 0.37039263397E+01
 0.34495744165E+01 0.32539164923E+01 0.31328784685E+01 0.30921994669E+01 0.31328526848E+01
 0.32538745958E+01 0.34495494026E+01 0.37039629497E+01 0.39890694383E+01 0.42696587222E+01
 0.50468499788E+01 0.52275564681E+01 0.53108752390E+01 0.53108572434E+01 0.52275229931E+01
 0.50468366616E+01 0.47656628230E+01 0.44117452606E+01 0.40260172643E+01 0.36569238329E+01
 0.33490990925E+01 0.31328784685E+01 0.30226676597E+01 0.30226674460E+01 0.31328827140E+01
 0.33491110614E+01 0.36569327387E+01 0.40260064774E+01 0.44117160745E+01 0.47656436578E+01
 0.54767789377E+01 0.55522514578E+01 0.55681870223E+01 0.55521230183E+01 0.54766593311E+01
 0.52849460348E+01 0.49478473807E+01 0.45078399376E+01 0.40460400567E+01 0.36258283439E+01
 0.32976533254E+01 0.30921994669E+01 0.30226674460E+01 0.30922053602E+01 0.32976856767E+01
 0.36258738105E+01 0.40460369303E+01 0.45077542098E+01 0.49477452636E+01 0.52849405663E+01
 0.54615634546E+01 0.53915821719E+01 0.53916551998E+01 0.54616935972E+01 0.55011253168E+01
 0.53826466401E+01 0.50481203571E+01 0.45603702954E+01 0.40541424217E+01 0.36150473187E+01
 0.32976471609E+01 0.31328526848E+01 0.31328827140E+01 0.32976856767E+01 0.36150234182E+01
 0.40540855876E+01 0.45603858403E+01 0.50482344273E+01 0.53827478303E+01 0.55010953138E+01
 0.48151269068E+01 0.46835993177E+01 0.48153501941E+01 0.51188686095E+01 0.53782313930E+01
 0.53894257388E+01 0.50860768468E+01 0.45766319085E+01 0.40541507704E+01 0.36259034479E+01
 0.33490954133E+01 0.32538745958E+01 0.33491110614E+01 0.36258738105E+01 0.40540855876E+01
 0.45766483961E+01 0.50862418863E+01 0.53896183161E+01 0.53782438967E+01 0.51186593176E+01
 0.36606051020E+01 0.36606042629E+01 0.41038847327E+01 0.47500642214E+01 0.52584235444E+01
 0.53801912628E+01 0.50861322026E+01 0.45602989495E+01 0.40460513897E+01 0.36570110341E+01
 0.34495923830E+01 0.34495494026E+01 0.36569327387E+01 0.40460369303E+01 0.45603858403E+01
 0.50862418863E+01 0.53802142601E+01 0.52583481485E+01 0.47499798705E+01 0.41038559656E+01
 0.24184323589E+01 0.27601603722E+01 0.36198721147E+01 0.45934158327E+01 0.52583605563E+01
 0.53896044148E+01 0.50482370109E+01 0.45077759943E+01 0.40260081389E+01 0.37039439792E+01
 0.35913926718E+01 0.37039629497E+01 0.40260064774E+01 0.45077542098E+01 0.50482344273E+01
 0.53896183161E+01 0.52583481485E+01 0.45933778345E+01 0.36198538468E+01 0.27601688830E+01
 0.16162083301E+01 0.24024567072E+01 0.36198207863E+01 0.47498197994E+01 0.53781332588E+01
 0.53828392659E+01 0.49479386673E+01 0.44117679465E+01 0.39889356149E+01 0.37592171087E+01
 0.37593125895E+01 0.39890694383E+01 0.44117160745E+01 0.49477452636E+01 0.53827478303E+01
 0.53782438967E+01 0.47499798705E+01 0.36198538468E+01 0.24023753500E+01 0.16161550990E+01
 0.16159987824E+01 0.27599900664E+01 0.41037655219E+01 0.51186598935E+01 0.55011437433E+01
 0.52850052782E+01 0.47656950033E+01 0.42696691635E+01 0.39326848526E+01 0.38140573086E+01
 0.39327000778E+01 0.42696587222E+01 0.47656436578E+01 0.52849405663E+01 0.55010953138E+01
 0.51186593176E+01 0.41038559656E+01 0.27601688830E+01 0.16161550990E+01 0.11675291043E+01
 0.43351883521E+01 0.50664457029E+01 0.55033211487E+01 0.54768090973E+01 0.50692916483E+01
 0.45352431281E+01 0.40750804794E+01 0.37705601001E+01 0.36646514356E+01 0.37705513142E+01
 0.40750801868E+01 0.45352552630E+01 0.50693039956E+01 0.54768227184E+01 0.55033524897E+01
 0.50664982713E+01 0.43352399613E+01 0.36606108917E+01 0.33880746893E+01 0.36605824068E+01
 0.50664457029E+01 0.54893160125E+01 0.55470337036E+01 0.52276361811E+01 0.47148145565E+01
 0.42240177460E+01 0.38537838259E+01 0.36570204605E+01 0.36570812609E+01 0.38538783754E+01