   1   1   0   0
  0.1371800E+02  0.2687006E-09  0.2687006E-09  0.2687006E-09  0.5000000E-15
  1.000000000000000E-004
  CAR 
 fcc Si                                  
     40.16305904     -6.17251509  301     10.84892594      1.00000000
     -6.173  0.0000E+00  0.0000E+00
     -6.018  0.0000E+00  0.0000E+00
     -5.864  0.0000E+00  0.0000E+00
     -5.709  0.0000E+00  0.0000E+00
     -5.555  0.0000E+00  0.0000E+00
     -5.400  0.0000E+00  0.0000E+00
     -5.246  0.0000E+00  0.0000E+00
     -5.091  0.0000E+00  0.0000E+00
     -4.937  0.0000E+00  0.0000E+00
     -4.782  0.0000E+00  0.0000E+00
     -4.628  0.9721E-17  0.1501E-17
     -4.474  0.4127E-10  0.6374E-11
     -4.319  0.1708E-05  0.2639E-06
     -4.165  0.7987E-03  0.1236E-03
     -4.010  0.7098E-02  0.1220E-02
     -3.856  0.2696E-01  0.5384E-02
     -3.701  0.8825E-01  0.1901E-01
     -3.547  0.2492E-01  0.2286E-01
     -3.392  0.6247E-01  0.3251E-01
     -3.238  0.7846E-01  0.4463E-01
     -3.083  0.2023E+00  0.7587E-01
     -2.929  0.8099E-01  0.8838E-01
     -2.775  0.1955E-01  0.9140E-01
     -2.620  0.4605E-01  0.9852E-01
     -2.466  0.1923E+00  0.1282E+00
     -2.311  0.2481E+00  0.1665E+00
     -2.157  0.5224E-01  0.1746E+00
     -2.002  0.1717E+00  0.2011E+00
     -1.848  0.1563E+00  0.2253E+00
     -1.693  0.1776E+00  0.2527E+00
     -1.539  0.1340E-01  0.2548E+00
     -1.385  0.7573E-01  0.2665E+00
     -1.230  0.1402E+00  0.2881E+00
     -1.076  0.4939E+00  0.3644E+00
     -0.921  0.1609E+00  0.3893E+00
     -0.767  0.1111E+00  0.4064E+00
     -0.612  0.1405E+00  0.4281E+00
     -0.458  0.2560E+00  0.4677E+00
     -0.303  0.1851E+00  0.4962E+00
     -0.149  0.2999E-01  0.5009E+00
      0.006  0.6664E-01  0.5112E+00
      0.160  0.3324E+00  0.5625E+00
      0.314  0.3342E+00  0.6141E+00
      0.469  0.9158E-01  0.6283E+00
      0.623  0.3459E+00  0.6817E+00
      0.778  0.3682E+00  0.7386E+00
      0.932  0.3705E+00  0.7958E+00
      1.087  0.1762E-01  0.7985E+00
      1.241  0.4089E-01  0.8048E+00
      1.396  0.1032E+00  0.8208E+00
      1.550  0.4557E+00  0.8911E+00
      1.705  0.1633E+00  0.9164E+00
      1.859  0.2058E+00  0.9482E+00
      2.013  0.2321E+00  0.9840E+00
      2.168  0.5168E+00  0.1064E+01
      2.322  0.1655E+00  0.1089E+01
      2.477  0.1076E+00  0.1106E+01
      2.631  0.2009E+00  0.1137E+01
      2.786  0.6928E+00  0.1244E+01
      2.940  0.3915E+00  0.1305E+01
      3.095  0.1377E+00  0.1326E+01
      3.249  0.1277E+00  0.1345E+01
      3.404  0.3140E+00  0.1394E+01
      3.558  0.1298E+00  0.1414E+01
      3.712  0.9383E-01  0.1429E+01
      3.867  0.1485E+00  0.1451E+01
      4.021  0.3968E+00  0.1513E+01
      4.176  0.5416E+00  0.1596E+01
      4.330  0.2372E+00  0.1633E+01
      4.485  0.4773E+00  0.1707E+01
      4.639  0.3799E+00  0.1765E+01
      4.794  0.5914E+00  0.1857E+01
      4.948  0.7063E-01  0.1868E+01
      5.102  0.1034E-02  0.1868E+01
      5.257  0.1334E+00  0.1888E+01
      5.411  0.8242E+00  0.2016E+01
      5.566  0.4293E+00  0.2082E+01
      5.720  0.3302E+00  0.2133E+01
      5.875  0.7265E-01  0.2144E+01
      6.029  0.2522E+00  0.2183E+01
      6.184  0.1784E+00  0.2211E+01
      6.338  0.9205E-01  0.2225E+01
      6.493  0.1834E+00  0.2253E+01
      6.647  0.8876E+00  0.2390E+01
      6.801  0.3785E+00  0.2449E+01
      6.956  0.2796E+00  0.2492E+01
      7.110  0.3148E+00  0.2541E+01
      7.265  0.8562E+00  0.2673E+01
      7.419  0.3784E+00  0.2731E+01
      7.574  0.1086E+00  0.2748E+01
      7.728  0.1713E+00  0.2775E+01
      7.883  0.2195E+00  0.2809E+01
      8.037  0.3509E+00  0.2863E+01
      8.192  0.4086E+00  0.2926E+01
      8.346  0.3888E+00  0.2986E+01
      8.500  0.5621E+00  0.3073E+01
      8.655  0.1557E+00  0.3097E+01
      8.809  0.1252E-01  0.3099E+01
      8.964  0.1693E+00  0.3125E+01
      9.118  0.5756E+00  0.3214E+01
      9.273  0.8641E+00  0.3347E+01
      9.427  0.6693E+00  0.3451E+01
      9.582  0.1908E+00  0.3480E+01
      9.736  0.3794E+00  0.3539E+01
      9.890  0.4790E+00  0.3613E+01
     10.045  0.4713E-01  0.3620E+01
     10.199  0.8894E-01  0.3634E+01
     10.354  0.7370E+00  0.3747E+01
     10.508  0.8344E+00  0.3876E+01
     10.663  0.2959E+00  0.3922E+01
     10.817  0.3831E+00  0.3981E+01
     10.972  0.5629E+00  0.4068E+01
     11.126  0.4191E+00  0.4133E+01
     11.281  0.8485E-01  0.4146E+01
     11.435  0.5253E-01  0.4154E+01
     11.589  0.5113E-01  0.4162E+01
     11.744  0.6051E+00  0.4255E+01
     11.898  0.9357E+00  0.4400E+01
     12.053  0.4674E+00  0.4472E+01
     12.207  0.5239E+00  0.4553E+01
     12.362  0.7010E+00  0.4661E+01
     12.516  0.1784E+00  0.4689E+01
     12.671  0.3153E+00  0.4738E+01
     12.825  0.3639E+00  0.4794E+01
     12.980  0.5369E+00  0.4877E+01
     13.134  0.5961E+00  0.4969E+01
     13.288  0.6029E+00  0.5062E+01
     13.443  0.5775E+00  0.5151E+01
     13.597  0.5745E+00  0.5240E+01
     13.752  0.2539E+00  0.5279E+01
     13.906  0.3112E+00  0.5327E+01
     14.061  0.4394E+00  0.5395E+01
     14.215  0.7242E+00  0.5507E+01
     14.370  0.3788E+00  0.5565E+01
     14.524  0.4253E+00  0.5631E+01
     14.678  0.4293E+00  0.5697E+01
     14.833  0.8504E+00  0.5829E+01
     14.987  0.3907E+00  0.5889E+01
     15.142  0.2038E+00  0.5921E+01
     15.296  0.8366E+00  0.6050E+01
     15.451  0.7143E+00  0.6160E+01
     15.605  0.7446E+00  0.6275E+01
     15.760  0.2125E+00  0.6308E+01
     15.914  0.5174E+00  0.6388E+01
     16.069  0.2733E+00  0.6430E+01
     16.223  0.2656E+00  0.6471E+01
     16.377  0.6930E-01  0.6482E+01
     16.532  0.5188E+00  0.6562E+01
     16.686  0.9211E+00  0.6704E+01
     16.841  0.6650E+00  0.6807E+01
     16.995  0.5330E+00  0.6889E+01
     17.150  0.2954E+00  0.6935E+01
     17.304  0.4638E+00  0.7006E+01
     17.459  0.5628E+00  0.7093E+01
     17.613  0.2611E+00  0.7134E+01
     17.768  0.5283E+00  0.7215E+01
     17.922  0.4506E+00  0.7285E+01
     18.076  0.3573E+00  0.7340E+01
     18.231  0.5206E+00  0.7421E+01
     18.385  0.7763E+00  0.7540E+01
     18.540  0.4921E+00  0.7616E+01
     18.694  0.1896E+00  0.7646E+01
     18.849  0.1096E+00  0.7663E+01
     19.003  0.2641E+00  0.7703E+01
     19.158  0.3280E+00  0.7754E+01
     19.312  0.1150E+01  0.7932E+01
     19.467  0.6457E+00  0.8031E+01
     19.621  0.3055E+00  0.8079E+01
     19.775  0.3801E+00  0.8137E+01
     19.930  0.7942E+00  0.8260E+01
     20.084  0.9307E+00  0.8404E+01
     20.239  0.3337E+00  0.8455E+01
     20.393  0.2394E+00  0.8492E+01
     20.548  0.3606E+00  0.8548E+01
     20.702  0.5657E+00  0.8635E+01
     20.857  0.8024E+00  0.8759E+01
     21.011  0.1297E+01  0.8960E+01
     21.165  0.6320E+00  0.9057E+01
     21.320  0.2059E+00  0.9089E+01
     21.474  0.8059E-01  0.9101E+01
     21.629  0.4823E+00  0.9176E+01
     21.783  0.2571E+00  0.9216E+01
     21.938  0.4104E+00  0.9279E+01
     22.092  0.5228E+00  0.9360E+01
     22.247  0.9640E+00  0.9509E+01
     22.401  0.1125E+01  0.9682E+01
     22.556  0.3662E+00  0.9739E+01
     22.710  0.3677E+00  0.9796E+01
     22.864  0.5174E+00  0.9876E+01
     23.019  0.5951E+00  0.9968E+01
     23.173  0.5990E+00  0.1006E+02
     23.328  0.2450E+00  0.1010E+02
     23.482  0.7233E+00  0.1021E+02
     23.637  0.5832E+00  0.1030E+02
     23.791  0.4334E+00  0.1037E+02
     23.946  0.4341E+00  0.1043E+02
     24.100  0.1087E+01  0.1060E+02
     24.255  0.1004E+01  0.1076E+02
     24.409  0.5259E+00  0.1084E+02
     24.563  0.3708E+00  0.1090E+02
     24.718  0.8399E+00  0.1102E+02
     24.872  0.3930E+00  0.1109E+02
     25.027  0.4559E-01  0.1109E+02
     25.181  0.3130E+00  0.1114E+02
     25.336  0.8708E+00  0.1128E+02
     25.490  0.5651E+00  0.1136E+02
     25.645  0.5630E+00  0.1145E+02
     25.799  0.1199E+01  0.1163E+02
     25.953  0.6911E+00  0.1174E+02
     26.108  0.3872E+00  0.1180E+02
     26.262  0.4091E+00  0.1186E+02
     26.417  0.9031E+00  0.1200E+02
     26.571  0.5006E+00  0.1208E+02
     26.726  0.6522E+00  0.1218E+02
     26.880  0.8314E+00  0.1231E+02
     27.035  0.6671E+00  0.1241E+02
     27.189  0.4328E+00  0.1248E+02
     27.344  0.4748E+00  0.1255E+02
     27.498  0.3631E+00  0.1261E+02
     27.652  0.1734E+00  0.1264E+02
     27.807  0.9362E+00  0.1278E+02
     27.961  0.1121E+01  0.1295E+02
     28.116  0.3536E+00  0.1301E+02
     28.270  0.5780E+00  0.1310E+02
     28.425  0.7634E+00  0.1322E+02
     28.579  0.5909E+00  0.1331E+02
     28.734  0.8637E+00  0.1344E+02
     28.888  0.4355E+00  0.1351E+02
     29.043  0.3267E+00  0.1356E+02
     29.197  0.5213E+00  0.1364E+02
     29.351  0.9024E+00  0.1378E+02
     29.506  0.8552E+00  0.1391E+02
     29.660  0.4762E+00  0.1398E+02
     29.815  0.3884E+00  0.1404E+02
     29.969  0.7519E+00  0.1416E+02
     30.124  0.3448E+00  0.1421E+02
     30.278  0.6420E-01  0.1422E+02
     30.433  0.4198E+00  0.1429E+02
     30.587  0.6535E+00  0.1439E+02
     30.741  0.5804E+00  0.1448E+02
     30.896  0.3493E+00  0.1453E+02
     31.050  0.4214E+00  0.1460E+02
     31.205  0.3039E+00  0.1464E+02
     31.359  0.3696E-01  0.1465E+02
     31.514  0.4008E+00  0.1471E+02
     31.668  0.5545E+00  0.1480E+02
     31.823  0.4417E+00  0.1487E+02
     31.977  0.7536E+00  0.1498E+02
     32.132  0.8468E+00  0.1511E+02
     32.286  0.4388E+00  0.1518E+02
     32.440  0.2177E+00  0.1521E+02
     32.595  0.4737E+00  0.1529E+02
     32.749  0.1919E+00  0.1532E+02
     32.904  0.4409E+00  0.1539E+02
     33.058  0.5355E+00  0.1547E+02
     33.213  0.3160E+00  0.1552E+02
     33.367  0.1445E+00  0.1554E+02
     33.522  0.1627E+00  0.1556E+02
     33.676  0.4259E-01  0.1557E+02
     33.831  0.1855E+00  0.1560E+02
     33.985  0.2005E+00  0.1563E+02
     34.139  0.7668E-01  0.1564E+02
     34.294  0.1735E+00  0.1567E+02
     34.448  0.1779E+00  0.1570E+02
     34.603  0.9181E-01  0.1571E+02
     34.757  0.5914E-02  0.1571E+02
     34.912  0.1013E+00  0.1573E+02
     35.066  0.3527E+00  0.1578E+02
     35.221  0.7089E-01  0.1579E+02
     35.375  0.1189E+00  0.1581E+02
     35.530  0.1081E+00  0.1583E+02
     35.684  0.2898E-01  0.1583E+02
     35.838  0.2337E+00  0.1587E+02
     35.993  0.1180E+00  0.1589E+02
     36.147  0.1136E+00  0.1590E+02
     36.302  0.2139E+00  0.1594E+02
     36.456  0.1987E+00  0.1597E+02
     36.611  0.2959E-01  0.1597E+02
     36.765  0.2304E-03  0.1597E+02
     36.920  0.3387E-07  0.1597E+02
     37.074  0.9733E-09  0.1597E+02
     37.228  0.3163E-04  0.1597E+02
     37.383  0.1178E-01  0.1597E+02
     37.537  0.8374E-01  0.1599E+02
     37.692  0.2108E-01  0.1599E+02
     37.846  0.1999E-03  0.1599E+02
     38.001  0.1238E-01  0.1599E+02
     38.155  0.4111E-01  0.1600E+02
     38.310  0.4792E-02  0.1600E+02
     38.464  0.1025E-04  0.1600E+02
     38.619  0.2476E-09  0.1600E+02
     38.773  0.5833E-16  0.1600E+02
     38.927  0.0000E+00  0.1600E+02
     39.082  0.0000E+00  0.1600E+02
     39.236  0.0000E+00  0.1600E+02
     39.391  0.0000E+00  0.1600E+02
     39.545  0.0000E+00  0.1600E+02
     39.700  0.0000E+00  0.1600E+02
     39.854  0.0000E+00  0.1600E+02
     40.009  0.0000E+00  0.1600E+02
     40.163  0.0000E+00  0.1600E+02
