    1    1    1    1
  0.1371800E+02  0.2687006E-09  0.2687006E-09  0.2687006E-09  0.5000000E-15
  1.000000000000000E-004
  CAR 
 fcc Si                                  
      4     56      8
 
  0.0000000E+00  0.0000000E+00  0.0000000E+00  0.7513148E-03
      1         -4.066353   1.000000
      2         22.697223   0.000000
      3         22.697375   0.000000
      4         22.697375   0.000000
      5         23.189986   0.000000
      6         23.190018   0.000000
      7         23.190018   0.000000
      8         28.514736   0.000000
 
  0.9090909E-01 -0.7818706E-18 -0.7818706E-18  0.6010518E-02
      1         -3.816880   1.000000
      2         19.209914   0.000000
      3         21.568746   0.000000
      4         21.568847   0.000000
      5         24.597543   0.000000
      6         24.621735   0.000000
      7         24.621885   0.000000
      8         29.316593   0.000000
 
  0.1818182E+00  0.6069042E-17  0.6069042E-17  0.6010518E-02
      1         -3.070202   1.000000
      2         15.163301   0.000000
      3         20.605886   0.000000
      4         20.606080   0.000000
      5         24.655299   0.000000
      6         25.652642   0.000000
      7         25.653420   0.000000
      8         28.383495   0.000000
 
  0.2727273E+00 -0.7549782E-17 -0.7549782E-17  0.6010518E-02
      1         -1.830521   1.000000
      2         11.323093   0.000000
      3         20.057511   0.000000
      4         20.057745   0.000000
      5         24.462725   0.000000
      6         24.463425   0.000000
      7         24.557700   0.000000
      8         29.780869   0.000000
 
  0.3636364E+00  0.3811412E-17  0.3811412E-17  0.6010518E-02
      1         -0.110101   1.000000
      2          7.833328   1.000000
      3         19.873791   0.000000
      4         19.873997   0.000000
      5         23.044243   0.000000
      6         23.044907   0.000000
      7         24.614884   0.000000
      8         28.193055   0.000000
 
  0.4545455E+00 -0.2784854E-16 -0.9296126E-19  0.6010518E-02
      1          2.071539   1.000000
      2          4.761125   1.000000
      3         19.931494   0.000000
      4         19.931644   0.000000
      5         22.153992   0.000000
      6         22.154699   0.000000
      7         24.840884   0.000000
      8         27.157180   0.000000
 
  0.9090909E-01  0.9090909E-01 -0.2696706E-18  0.4507889E-02
      1         -3.733763   1.000000
      2         20.101714   0.000000
      3         20.101779   0.000000
      4         21.586272   0.000000
      5         21.970121   0.000000
      6         26.191353   0.000000
      7         26.191454   0.000000
      8         27.311857   0.000000
 
  0.1818182E+00  0.9090909E-01  0.1378981E-16  0.1803156E-01
      1         -3.152951   1.000000
      2         16.653252   0.000000
      3         19.020719   0.000000
      4         20.863132   0.000000
      5         22.702255   0.000000
      6         25.301407   0.000000
      7         26.997901   0.000000
      8         27.660449   0.000000
 
  0.2727273E+00  0.9090909E-01 -0.2168653E-16  0.1803156E-01
      1         -2.078231   1.000000
      2         12.755785   0.000000
      3         18.366890   0.000000
      4         20.097974   0.000000
      5         22.141261   0.000000
      6         25.808358   0.000000
      7         27.071965   0.000000
      8         27.416919   0.000000
 
  0.3636364E+00  0.9090909E-01 -0.8937561E-17  0.1803156E-01
      1         -0.517573   1.000000
      2          9.157161   1.000000
      3         18.135288   0.000000
      4         19.303276   0.000000
      5         21.072633   0.000000
      6         25.584366   0.000000
      7         26.383548   0.000000
      8         29.316187   0.000000
 
  0.4545455E+00  0.9090909E-01  0.1352586E-16  0.1803156E-01
      1          1.512770   1.000000
      2          5.944202   1.000000
      3         18.293977   0.000000
      4         18.322292   0.000000
      5         20.970487   0.000000
      6         24.320015   0.000000
      7         26.468218   0.000000
      8         29.302729   0.000000
 
 -0.4545455E+00  0.9090909E-01  0.1509956E-16  0.1803156E-01
      1          3.084960   1.000000
      2          4.075061   1.000000
      3         17.448837   0.000000
      4         18.907079   0.000000
      5         21.539299   0.000000
      6         23.469162   0.000000
      7         26.294805   0.000000
      8         29.213954   0.000000
 
 -0.3636364E+00  0.9090909E-01  0.3617521E-16  0.1803156E-01
      1          0.785053   1.000000
      2          6.966874   1.000000
      3         16.966601   0.000000
      4         19.835892   0.000000
      5         22.622213   0.000000
      6         23.107879   0.000000
      7         25.972057   0.000000
      8         29.946521   0.000000
 
 -0.2727273E+00  0.9090909E-01 -0.3811412E-17  0.1803156E-01
      1         -1.090835   1.000000
      2         10.314127   1.000000
      3         16.910092   0.000000
      4         20.951562   0.000000
      5         23.402906   0.000000
      6         24.119510   0.000000
      7         25.779349   0.000000
      8         29.329878   0.000000
 
 -0.1818182E+00  0.9090909E-01  0.7549782E-17  0.1803156E-01
      1         -2.490951   1.000000
      2         14.022200   0.000000
      3         17.289319   0.000000
      4         22.003143   0.000000
      5         24.291777   0.000000
      6         25.670234   0.000000
      7         25.849626   0.000000
      8         26.887233   0.000000
 
 -0.9090909E-01  0.9090909E-01  0.1563741E-17  0.9015778E-02
      1         -3.401682   1.000000
      2         17.751482   0.000000
      3         18.309567   0.000000
      4         22.807138   0.000000
      5         23.835436   0.000000
      6         25.263846   0.000000
      7         26.469083   0.000000
      8         27.227309   0.000000
 
  0.1818182E+00  0.1818182E+00  0.1195067E-16  0.4507889E-02
      1         -2.738443   1.000000
      2         17.800847   0.000000
      3         17.800968   0.000000
      4         19.201598   0.000000
      5         20.013875   0.000000
      6         22.674312   0.000000
      7         29.651706   0.000000
      8         29.651776   0.000000
 
  0.2727273E+00  0.1818182E+00  0.6850913E-17  0.1803156E-01
      1         -1.830717   1.000000
      2         14.565529   0.000000
      3         17.003660   0.000000
      4         18.408026   0.000000
      5         19.584957   0.000000
      6         22.305369   0.000000
      7         29.979975   0.000000
      8         30.532771   0.000000
 
  0.3636364E+00  0.1818182E+00  0.1162016E-16  0.1803156E-01
      1         -0.435305   1.000000
      2         10.913509   0.180530
      3         16.639111   0.000000
      4         16.732265   0.000000
      5         19.252741   0.000000
      6         24.593910   0.000000
      7         28.651176   0.000000
      8         30.642675   0.000000
 
  0.4545455E+00  0.1818182E+00 -0.7549782E-17  0.1803156E-01
      1          1.434503   1.000000
      2          7.590133   1.000000
      3         15.242450   0.000000
      4         16.707756   0.000000
      5         19.334452   0.000000
      6         27.300931   0.000000
      7         27.335039   0.000000
      8         30.680393   0.000000
 
 -0.4545455E+00  0.1818182E+00  0.2177949E-16  0.1803156E-01
      1          3.729609   1.000000
      2          4.705595   1.000000
      3         14.136847   0.000000
      4         17.199294   0.000000
      5         19.877762   0.000000
      6         26.339471   0.000000
      7         28.615757   0.000000
      8         31.952835   0.000000
 
 -0.3636364E+00  0.1818182E+00  0.1787512E-16  0.1803156E-01
      1          2.160253   1.000000
      2          6.563814   1.000000
      3         13.469470   0.000000
      4         18.105315   0.000000
      5         20.879585   0.000000
      6         25.753158   0.000000
      7         28.378667   0.000000
      8         32.023157   0.000000
 
 -0.2727273E+00  0.1818182E+00  0.1480740E-17  0.1803156E-01
      1          0.135844   1.000000
      2          9.730905   1.000000
      3         13.276138   0.000000
      4         19.400242   0.000000
      5         22.311891   0.000000
      6         25.608282   0.000000
      7         27.896516   0.000000
      8         28.767563   0.000000
 
 -0.1818182E+00  0.1818182E+00 -0.1213808E-16  0.9015778E-02
      1         -1.419229   1.000000
      2         12.897104   0.000000
      3         13.910841   0.000000
      4         20.974803   0.000000
      5         24.084861   0.000000
      6         25.751378   0.000000
      7         26.121690   0.000000
      8         27.090707   0.000000
 
  0.2727273E+00  0.2727273E+00 -0.1502901E-17  0.4507889E-02
      1         -1.090882   1.000000
      2         16.063668   0.000000
      3         16.063781   0.000000
      4         16.142240   0.000000
      5         17.294528   0.000000
      6         20.014058   0.000000
      7         32.967299   0.000000
      8         32.976016   0.000000
 
  0.3636364E+00  0.2727273E+00 -0.7373820E-17  0.1803156E-01
      1          0.136283   1.000000
      2         13.025531   0.000000
      3         14.091088   0.000000
      4         15.555823   0.000000
      5         17.793178   0.000000
      6         20.789006   0.000000
      7         31.969467   0.000000
      8         33.761777   0.000000
 
  0.4545455E+00  0.2727273E+00  0.6762932E-17  0.1803156E-01
      1          1.838824   1.000000
      2          9.668112   1.000000
      3         12.350624   0.000000
      4         15.480896   0.000000
      5         17.956752   0.000000
      6         23.569544   0.000000
      7         30.727095   0.000000
      8         33.417250   0.000000
 
 -0.4545455E+00  0.2727273E+00  0.9030522E-17  0.1803156E-01
      1          3.995138   1.000000
      2          6.645289   1.000000
      3         11.054790   0.001799
      4         15.835439   0.000000
      5         18.398702   0.000000
      6         26.862845   0.000000
      7         29.629704   0.000000
      8         32.581959   0.000000
 
 -0.3636364E+00  0.2727273E+00  0.5126149E-17  0.1803156E-01
      1          4.002531   1.000000
      2          6.605950   1.000000
      3         10.243297   1.000000
      4         16.620767   0.000000
      5         19.284587   0.000000
      6         28.904855   0.000000
      7         29.963855   0.000000
      8         31.634537   0.000000
 
 -0.2727273E+00  0.2727273E+00  0.1509956E-16  0.9015778E-02
      1          1.840248   1.000000
      2          9.175268   1.000000
      3         10.327993   1.000000
      4         17.830189   0.000000
      5         20.622249   0.000000
      6         28.401510   0.000000
      7         28.903550   0.000000
      8         29.870445   0.000000
 
  0.3636364E+00  0.3636364E+00 -0.1495647E-16  0.4507889E-02
      1          1.192365   1.000000
      2         11.716936   0.000000
      3         14.903457   0.000000
      4         14.903567   0.000000
      5         15.995112   0.000000
      6         18.757740   0.000000
      7         34.862560   0.000000
      8         35.997734   0.000000
 
  0.4545455E+00  0.3636364E+00  0.8932581E-17  0.1803156E-01
      1          2.720732   1.000000
      2          9.794251   1.000000
      3         12.149031   0.000000
      4         14.682013   0.000000
      5         16.823796   0.000000
      6         19.921267   0.000000
      7         34.231610   0.000000
      8         36.339967   0.000000
 
 -0.4545455E+00  0.3636364E+00 -0.9428928E-18  0.1803156E-01
      1          4.687054   1.000000
      2          8.308448   1.000000
      3          9.112723   1.000000
      4         14.898197   0.000000
      5         17.319478   0.000000
      6         23.045747   0.000000
      7         33.188065   0.000000
      8         35.370593   0.000000
 
 -0.3636364E+00  0.3636364E+00 -0.7622823E-17  0.9015778E-02
      1          6.277453   1.000000
      2          6.678716   1.000000
      3          7.860869   1.000000
      4         15.546037   0.000000
      5         18.092396   0.000000
      6         26.659316   0.000000
      7         31.923046   0.000000
      8         33.083316   0.000000
 
  0.4545455E+00  0.4545455E+00  0.1044777E-16  0.4507889E-02
      1          4.052736   1.000000
      2          7.723723   1.000000
      3         14.318681   0.000000
      4         14.318811   0.000000
      5         15.317060   0.000000
      6         18.149378   0.000000
      7         36.421215   0.000000
      8         38.056897   0.000000
 
 -0.4545455E+00  0.4545455E+00  0.2961480E-17  0.9015778E-02
      1          5.428947   1.000000
      2          6.519374   1.000000
      3         11.837250   0.000000
      4         14.390825   0.000000
      5         16.506509   0.000000
      6         19.631588   0.000000
      7         35.822722   0.000000
      8         37.473069   0.000000
 
  0.2727273E+00  0.1818182E+00  0.9090909E-01  0.1803156E-01
      1         -2.408009   1.000000
      2         15.351989   0.000000
      3         16.116987   0.000000
      4         20.917038   0.000000
      5         22.222951   0.000000
      6         23.930422   0.000000
      7         27.836002   0.000000
      8         28.504974   0.000000
 
  0.3636364E+00  0.1818182E+00  0.9090909E-01  0.3606311E-01
      1         -1.172855   1.000000
      2         11.887859   0.000000
      3         15.294693   0.000000
      4         19.235004   0.000000
      5         22.310973   0.000000
      6         25.166644   0.000000
      7         26.636924   0.000000
      8         29.090659   0.000000
 
  0.4545455E+00  0.1818182E+00  0.9090909E-01  0.3606311E-01
      1          0.542723   1.000000
      2          8.446460   1.000000
      3         15.192244   0.000000
      4         17.659605   0.000000
      5         22.196923   0.000000
      6         24.724473   0.000000
      7         27.892652   0.000000
      8         29.840752   0.000000
 
 -0.4545455E+00  0.1818182E+00  0.9090909E-01  0.3606311E-01
      1          2.717680   1.000000
      2          5.391008   1.000000
      3         15.505064   0.000000
      4         16.473988   0.000000
      5         22.399995   0.000000
      6         23.709576   0.000000
      7         28.679298   0.000000
      8         31.939511   0.000000
 
  0.3636364E+00  0.2727273E+00  0.9090909E-01  0.1803156E-01
      1         -0.762741   1.000000
      2         13.508913   0.000000
      3         14.355437   0.000000
      4         16.571909   0.000000
      5         20.439157   0.000000
      6         22.002350   0.000000
      7         29.459758   0.000000
      8         32.309447   0.000000
 
  0.4545455E+00  0.2727273E+00  0.9090909E-01  0.3606311E-01
      1          0.787026   1.000000
      2         10.342022   1.000000
      3         13.758866   0.000000
      4         14.774430   0.000000
      5         20.858388   0.000000
      6         24.137822   0.000000
      7         28.126637   0.000000
      8         32.879030   0.000000
 
 -0.4545455E+00  0.2727273E+00  0.9090909E-01  0.3606311E-01
      1          2.803312   1.000000
      2          7.189963   1.000000
      3         13.193062   0.000000
      4         14.111993   0.000000
      5         21.147048   0.000000
      6         26.325218   0.000000
      7         27.812078   0.000000
      8         32.523829   0.000000
 
 -0.3636364E+00  0.2727273E+00  0.9090909E-01  0.3606311E-01
      1          4.373427   1.000000
      2          5.326199   1.000000
      3         12.257910   0.000000
      4         14.735002   0.000000
      5         21.822202   0.000000
      6         25.745287   0.000000
      7         30.510124   0.000000
      8         31.080387   0.000000
 
 -0.2727273E+00  0.2727273E+00  0.9090909E-01  0.3606311E-01
      1          2.081833   1.000000
      2          8.171795   1.000000
      3         11.765917   0.000000
      4         15.844024   0.000000
      5         22.866164   0.000000
      6         25.293342   0.000000
      7         28.297277   0.000000
      8         31.714009   0.000000
 
 -0.1818182E+00  0.2727273E+00  0.9090909E-01  0.1803156E-01
      1          0.217618   1.000000
      2         11.041468   0.003235
      3         12.133790   0.000000
      4         17.376181   0.000000
      5         24.078094   0.000000
      6         24.666534   0.000000
      7         26.051685   0.000000
      8         30.908345   0.000000
 
  0.4545455E+00  0.3636364E+00  0.9090909E-01  0.1803156E-01
      1          1.515879   1.000000
      2         11.978101   0.000000
      3         12.278968   0.000000
      4         13.290520   0.000000
      5         19.222038   0.000000
      6         20.886380   0.000000
      7         31.519829   0.000000
      8         35.774718   0.000000
 
 -0.4545455E+00  0.3636364E+00  0.9090909E-01  0.3606311E-01
      1          3.361654   1.000000
      2          9.388281   1.000000
      3         10.447842   1.000000
      4         12.957727   0.000000
      5         19.977904   0.000000
      6         23.400692   0.000000
      7         30.362055   0.000000
      8         34.990910   0.000000
 
 -0.3636364E+00  0.3636364E+00  0.9090909E-01  0.3606311E-01
      1          5.616866   1.000000
      2          6.567684   1.000000
      3          9.314284   1.000000
      4         13.454029   0.000000
      5         20.594677   0.000000
      6         26.758989   0.000000
      7         29.426779   0.000000
      8         32.110247   0.000000
 
 -0.2727273E+00  0.3636364E+00  0.9090909E-01  0.1803156E-01
      1          4.084784   1.000000
      2          7.927979   1.000000
      3          9.086942   1.000000
      4         14.426467   0.000000
      5         21.574853   0.000000
      6         28.294065   0.000000
      7         28.570502   0.000000
      8         30.916558   0.000000
 
 -0.4545455E+00  0.4545455E+00  0.9090909E-01  0.1803156E-01
      1          4.370538   1.000000
      2          8.034528   1.000000
      3         11.660355   0.000000
      4         12.642453   0.000000
      5         18.594799   0.000000
      6         20.321503   0.000000
      7         33.933535   0.000000
      8         36.173409   0.000000
 
 -0.3636364E+00  0.4545455E+00  0.9090909E-01  0.1803156E-01
      1          6.053929   1.000000
      2          7.141345   1.000000
      3          9.129860   1.000000
      4         12.644746   0.000000
      5         19.674808   0.000000
      6         23.131327   0.000000
      7         32.890262   0.000000
      8         33.036141   0.000000
 
 -0.4545455E+00  0.3636364E+00  0.1818182E+00  0.1803156E-01
      1          2.484016   1.000000
      2          9.799893   1.000000
      3         10.893190   0.265662
      4         13.010727   0.000000
      5         23.527851   0.000000
      6         24.270659   0.000000
      7         26.935823   0.000000
      8         34.430325   0.000000
 
 -0.3636364E+00  0.3636364E+00  0.1818182E+00  0.3606311E-01
      1          4.633827   1.000000
      2          7.231011   1.000000
      3         10.790586   0.795329
      4         11.752424   0.000000
      5         24.088292   0.000000
      6         25.375388   0.000000
      7         27.778399   0.000000
      8         31.488165   0.000000
 
 -0.3636364E+00  0.4545455E+00  0.1818182E+00  0.1803156E-01
      1          5.320283   1.000000
      2          8.926450   1.000000
      3          9.176605   1.000000
      4         10.402042   1.000000
      5         22.918768   0.000000
      6         23.962972   0.000000
      7         29.240591   0.000000
      8         32.176756   0.000000
 
 -0.2727273E+00  0.4545455E+00  0.1818182E+00  0.1803156E-01
      1          6.876852   1.000000
      2          7.303939   1.000000
      3          8.446492   1.000000
      4         10.600255   0.999782
      5         24.000470   0.000000
      6         26.781922   0.000000
      7         27.765801   0.000000
      8         29.527654   0.000000
