       N       E                     dE             d eps       ncg     rms          rms(c)
DAV:   1    -0.404665220225E+01   -0.40467E+01   -0.12482E+03  1016   0.215E+02
DAV:   2    -0.488455376559E+01   -0.83790E+00   -0.79909E+00  1360   0.168E+01
DAV:   3    -0.488742589941E+01   -0.28721E-02   -0.28717E-02   976   0.909E-01
DAV:   4    -0.488742715637E+01   -0.12570E-05   -0.12579E-05  1448   0.175E-02
DAV:   5    -0.488742715578E+01    0.58520E-09   -0.45365E-10   912   0.778E-05    0.335E+00
DAV:   6    -0.487296407268E+01    0.14463E-01   -0.38946E-03  1032   0.274E-01    0.186E+00
DAV:   7    -0.486458054756E+01    0.83835E-02   -0.78079E-03  1064   0.388E-01    0.138E-01
DAV:   8    -0.486453234811E+01    0.48199E-04   -0.21370E-05  1000   0.331E-02
   1 F= -.48645323E+01 E0= -.48630343E+01  d E =-.299612E-02
