<?xml version="1.0" encoding="ISO-8859-1"?>
<modeling>
 <generator>
  <i name="program" type="string">vasp </i>
  <i name="version" type="string">6.3.0  </i>
  <i name="subversion" type="string">20Jan22 (build Feb 01 2022 16:52:37) complex                          parallel </i>
  <i name="platform" type="string">TETRA_NSC1 </i>
  <i name="date" type="string">2022 02 22 </i>
  <i name="time" type="string">16:07:14 </i>
 </generator>
 <incar>
  <i type="string" name="SYSTEM">fcc Si</i>
  <i type="int" name="ISTART">     0</i>
  <i type="int" name="ICHARG">     2</i>
  <i name="ENCUT">    240.00000000</i>
  <i type="int" name="ISMEAR">     0</i>
  <i name="SIGMA">      0.10000000</i>
 </incar>
 <primitive_cell>
  <structure name="primitive_cell" >
   <crystal>
    <varray name="basis" >
     <v>       1.90000000       1.90000000       0.00000000 </v>
     <v>       0.00000000       1.90000000       1.90000000 </v>
     <v>       1.90000000       0.00000000       1.90000000 </v>
    </varray>
    <i name="volume">     13.71800000 </i>
    <varray name="rec_basis" >
     <v>       0.26315789       0.26315789      -0.26315789 </v>
     <v>      -0.26315789       0.26315789       0.26315789 </v>
     <v>       0.26315789      -0.26315789       0.26315789 </v>
    </varray>
   </crystal>
   <varray name="positions" >
    <v>       0.00000000       0.00000000       0.00000000 </v>
   </varray>
  </structure>
  <varray name="primitive_index" >
   <v type="int" >        1 </v>
  </varray>
 </primitive_cell>
 <kpoints>
  <generation param="Monkhorst-Pack">
   <v type="int" name="divisions">      11       11       11 </v>
   <v name="usershift">      0.00000000       0.00000000       0.00000000 </v>
   <v name="genvec1">      0.09090909      -0.00000000      -0.00000000 </v>
   <v name="genvec2">     -0.00000000       0.09090909       0.00000000 </v>
   <v name="genvec3">      0.00000000       0.00000000       0.09090909 </v>
   <v name="shift">      0.00000000       0.00000000       0.00000000 </v>
  </generation>
  <varray name="kpointlist" >
   <v>       0.00000000       0.00000000       0.00000000 </v>
   <v>       0.09090909      -0.00000000      -0.00000000 </v>
   <v>       0.18181818       0.00000000       0.00000000 </v>
   <v>       0.27272727      -0.00000000      -0.00000000 </v>
   <v>       0.36363636       0.00000000       0.00000000 </v>
   <v>       0.45454545      -0.00000000      -0.00000000 </v>
   <v>       0.09090909       0.09090909      -0.00000000 </v>
   <v>       0.18181818       0.09090909       0.00000000 </v>
   <v>       0.27272727       0.09090909      -0.00000000 </v>
   <v>       0.36363636       0.09090909      -0.00000000 </v>
   <v>       0.45454545       0.09090909       0.00000000 </v>
   <v>      -0.45454545       0.09090909       0.00000000 </v>
   <v>      -0.36363636       0.09090909       0.00000000 </v>
   <v>      -0.27272727       0.09090909      -0.00000000 </v>
   <v>      -0.18181818       0.09090909       0.00000000 </v>
   <v>      -0.09090909       0.09090909       0.00000000 </v>
   <v>       0.18181818       0.18181818       0.00000000 </v>
   <v>       0.27272727       0.18181818       0.00000000 </v>
   <v>       0.36363636       0.18181818       0.00000000 </v>
   <v>       0.45454545       0.18181818      -0.00000000 </v>
   <v>      -0.45454545       0.18181818       0.00000000 </v>
   <v>      -0.36363636       0.18181818       0.00000000 </v>
   <v>      -0.27272727       0.18181818       0.00000000 </v>
   <v>      -0.18181818       0.18181818      -0.00000000 </v>
   <v>       0.27272727       0.27272727      -0.00000000 </v>
   <v>       0.36363636       0.27272727      -0.00000000 </v>
   <v>       0.45454545       0.27272727       0.00000000 </v>
   <v>      -0.45454545       0.27272727       0.00000000 </v>
   <v>      -0.36363636       0.27272727       0.00000000 </v>
   <v>      -0.27272727       0.27272727       0.00000000 </v>
   <v>       0.36363636       0.36363636      -0.00000000 </v>
   <v>       0.45454545       0.36363636       0.00000000 </v>
   <v>      -0.45454545       0.36363636      -0.00000000 </v>
   <v>      -0.36363636       0.36363636      -0.00000000 </v>
   <v>       0.45454545       0.45454545       0.00000000 </v>
   <v>      -0.45454545       0.45454545       0.00000000 </v>
   <v>       0.27272727       0.18181818       0.09090909 </v>
   <v>       0.36363636       0.18181818       0.09090909 </v>
   <v>       0.45454545       0.18181818       0.09090909 </v>
   <v>      -0.45454545       0.18181818       0.09090909 </v>
   <v>       0.36363636       0.27272727       0.09090909 </v>
   <v>       0.45454545       0.27272727       0.09090909 </v>
   <v>      -0.45454545       0.27272727       0.09090909 </v>
   <v>      -0.36363636       0.27272727       0.09090909 </v>
   <v>      -0.27272727       0.27272727       0.09090909 </v>
   <v>      -0.18181818       0.27272727       0.09090909 </v>
   <v>       0.45454545       0.36363636       0.09090909 </v>
   <v>      -0.45454545       0.36363636       0.09090909 </v>
   <v>      -0.36363636       0.36363636       0.09090909 </v>
   <v>      -0.27272727       0.36363636       0.09090909 </v>
   <v>      -0.45454545       0.45454545       0.09090909 </v>
   <v>      -0.36363636       0.45454545       0.09090909 </v>
   <v>      -0.45454545       0.36363636       0.18181818 </v>
   <v>      -0.36363636       0.36363636       0.18181818 </v>
   <v>      -0.36363636       0.45454545       0.18181818 </v>
   <v>      -0.27272727       0.45454545       0.18181818 </v>
  </varray>
  <varray name="weights" >
   <v>       0.00075131 </v>
   <v>       0.00601052 </v>
   <v>       0.00601052 </v>
   <v>       0.00601052 </v>
   <v>       0.00601052 </v>
   <v>       0.00601052 </v>
   <v>       0.00450789 </v>
   <v>       0.01803156 </v>
   <v>       0.01803156 </v>
   <v>       0.01803156 </v>
   <v>       0.01803156 </v>
   <v>       0.01803156 </v>
   <v>       0.01803156 </v>
   <v>       0.01803156 </v>
   <v>       0.01803156 </v>
   <v>       0.00901578 </v>
   <v>       0.00450789 </v>
   <v>       0.01803156 </v>
   <v>       0.01803156 </v>
   <v>       0.01803156 </v>
   <v>       0.01803156 </v>
   <v>       0.01803156 </v>
   <v>       0.01803156 </v>
   <v>       0.00901578 </v>
   <v>       0.00450789 </v>
   <v>       0.01803156 </v>
   <v>       0.01803156 </v>
   <v>       0.01803156 </v>
   <v>       0.01803156 </v>
   <v>       0.00901578 </v>
   <v>       0.00450789 </v>
   <v>       0.01803156 </v>
   <v>       0.01803156 </v>
   <v>       0.00901578 </v>
   <v>       0.00450789 </v>
   <v>       0.00901578 </v>
   <v>       0.01803156 </v>
   <v>       0.03606311 </v>
   <v>       0.03606311 </v>
   <v>       0.03606311 </v>
   <v>       0.01803156 </v>
   <v>       0.03606311 </v>
   <v>       0.03606311 </v>
   <v>       0.03606311 </v>
   <v>       0.03606311 </v>
   <v>       0.01803156 </v>
   <v>       0.01803156 </v>
   <v>       0.03606311 </v>
   <v>       0.03606311 </v>
   <v>       0.01803156 </v>
   <v>       0.01803156 </v>
   <v>       0.01803156 </v>
   <v>       0.01803156 </v>
   <v>       0.03606311 </v>
   <v>       0.01803156 </v>
   <v>       0.01803156 </v>
  </varray>
 </kpoints>
 <parameters>
  <separator name="general" >
   <i type="string" name="SYSTEM">fcc Si</i>
   <i type="logical" name="LCOMPAT"> F  </i>
  </separator>
  <separator name="electronic" >
   <i type="string" name="PREC">normal</i>
   <i name="ENMAX">    240.00000000</i>
   <i name="ENAUG">    322.06900000</i>
   <i name="EDIFF">      0.00010000</i>
   <i type="int" name="IALGO">    38</i>
   <i type="int" name="IWAVPR">    10</i>
   <i type="int" name="NBANDS">     8</i>
   <i type="int" name="NBANDSLOW">    -1</i>
   <i type="int" name="NBANDSHIGH">    -1</i>
   <i name="NELECT">      4.00000000</i>
   <i type="int" name="TURBO">     0</i>
   <i type="int" name="IRESTART">     0</i>
   <i type="int" name="NREBOOT">     0</i>
   <i type="int" name="NMIN">     0</i>
   <i name="EREF">      0.00000000</i>
   <separator name="electronic smearing" >
    <i type="int" name="ISMEAR">     0</i>
    <i name="SIGMA">      0.10000000</i>
    <i name="KSPACING">      0.50000000</i>
    <i type="logical" name="KGAMMA"> T  </i>
    <i type="logical" name="KBLOWUP"> T  </i>
   </separator>
   <separator name="electronic projectors" >
    <i type="logical" name="LREAL"> F  </i>
    <v name="ROPT">      0.00000000</v>
    <i type="int" name="LMAXPAW">  -100</i>
    <i type="int" name="LMAXMIX">     2</i>
    <i type="logical" name="NLSPLINE"> F  </i>
   </separator>
   <separator name="electronic startup" >
    <i type="int" name="ISTART">     0</i>
    <i type="int" name="ICHARG">     2</i>
    <i type="int" name="INIWAV">     1</i>
   </separator>
   <separator name="electronic spin" >
    <i type="int" name="ISPIN">     1</i>
    <i type="logical" name="LNONCOLLINEAR"> F  </i>
    <v name="MAGMOM">      1.00000000</v>
    <i name="NUPDOWN">     -1.00000000</i>
    <i type="logical" name="LSORBIT"> F  </i>
    <v name="SAXIS">      0.00000000      0.00000000      1.00000000</v>
    <i type="logical" name="LSPIRAL"> F  </i>
    <v name="QSPIRAL">      0.00000000      0.00000000      0.00000000</v>
    <i type="logical" name="LZEROZ"> F  </i>
   </separator>
   <separator name="electronic exchange-correlation" >
    <i type="logical" name="LASPH"> F  </i>
    <i type="logical" name="LMETAGGA"> F  </i>
   </separator>
   <separator name="electronic convergence" >
    <i type="int" name="NELM">    60</i>
    <i type="int" name="NELMDL">    -5</i>
    <i type="int" name="NELMIN">     2</i>
    <i name="ENINI">    240.00000000</i>
    <separator name="electronic convergence detail" >
     <i type="logical" name="LDIAG"> T  </i>
     <i type="logical" name="LSUBROT"> F  </i>
     <i name="WEIMIN">      0.00000000</i>
     <i name="EBREAK">      0.00000313</i>
     <i name="DEPER">      0.30000000</i>
     <i type="int" name="NRMM">     4</i>
     <i name="TIME">      0.40000000</i>
    </separator>
   </separator>
   <separator name="electronic mixer" >
    <i name="AMIX">      0.40000000</i>
    <i name="BMIX">      1.00000000</i>
    <i name="AMIN">      0.10000000</i>
    <i name="AMIX_MAG">      1.60000000</i>
    <i name="BMIX_MAG">      1.00000000</i>
    <separator name="electronic mixer details" >
     <i type="int" name="IMIX">     4</i>
     <i type="logical" name="MIXFIRST"> F  </i>
     <i type="int" name="MAXMIX">   -45</i>
     <i name="WC">    100.00000000</i>
     <i type="int" name="INIMIX">     1</i>
     <i type="int" name="MIXPRE">     1</i>
     <i type="int" name="MREMOVE">     5</i>
    </separator>
   </separator>
   <separator name="electronic dipolcorrection" >
    <i type="logical" name="LDIPOL"> F  </i>
    <i type="logical" name="LMONO"> F  </i>
    <i type="int" name="IDIPOL">     0</i>
    <i name="EPSILON">      1.00000000</i>
    <v name="DIPOL">   -100.00000000   -100.00000000   -100.00000000</v>
    <i name="EFIELD">      0.00000000</i>
   </separator>
  </separator>
  <separator name="grids" >
   <i type="int" name="NGX">    10</i>
   <i type="int" name="NGY">    10</i>
   <i type="int" name="NGZ">    10</i>
   <i type="int" name="NGXF">    20</i>
   <i type="int" name="NGYF">    20</i>
   <i type="int" name="NGZF">    20</i>
   <i type="logical" name="ADDGRID"> F  </i>
  </separator>
  <separator name="ionic" >
   <i type="int" name="NSW">     0</i>
   <i type="int" name="IBRION">    -1</i>
   <i type="int" name="MDALGO">     0</i>
   <i type="int" name="ISIF">     2</i>
   <i name="PSTRESS">      0.00000000</i>
   <i name="EDIFFG">      0.00100000</i>
   <i type="int" name="NFREE">     0</i>
   <i name="POTIM">      0.50000000</i>
   <i name="SMASS">     -3.00000000</i>
   <i name="SCALEE">      1.00000000</i>
  </separator>
  <separator name="ionic md" >
   <i name="TEBEG">      0.00010000</i>
   <i name="TEEND">      0.00010000</i>
   <i type="int" name="NBLOCK">     1</i>
   <i type="int" name="KBLOCK">     1</i>
   <i type="int" name="NPACO">   256</i>
   <i name="APACO">     10.00000000</i>
  </separator>
  <separator name="symmetry" >
   <i type="int" name="ISYM">     2</i>
   <i name="SYMPREC">      0.00001000</i>
  </separator>
  <separator name="dos" >
   <i type="int" name="LORBIT">     0</i>
   <v name="RWIGS">     -1.00000000</v>
   <i type="int" name="NEDOS">   301</i>
   <i name="EMIN">     10.00000000</i>
   <i name="EMAX">    -10.00000000</i>
   <i name="EFERMI">      0.00000000</i>
  </separator>
  <separator name="writing" >
   <i type="int" name="NWRITE">     2</i>
   <i type="logical" name="LWAVE"> T  </i>
   <i type="logical" name="LDOWNSAMPLE"> F  </i>
   <i type="logical" name="LCHARG"> T  </i>
   <i type="logical" name="LPARD"> F  </i>
   <i type="logical" name="LVTOT"> F  </i>
   <i type="logical" name="LVHAR"> F  </i>
   <i type="logical" name="LELF"> F  </i>
   <i type="logical" name="LOPTICS"> F  </i>
   <v name="STM">      0.00000000      0.00000000      0.00000000      0.00000000      0.00000000      0.00000000      0.00000000</v>
  </separator>
  <separator name="performance" >
   <i type="int" name="NPAR">     4</i>
   <i type="int" name="NSIM">     4</i>
   <i type="int" name="NBLK">    -1</i>
   <i type="logical" name="LPLANE"> T  </i>
   <i type="logical" name="LSCALAPACK"> T  </i>
   <i type="logical" name="LSCAAWARE"> F  </i>
   <i type="logical" name="LSCALU"> F  </i>
   <i type="logical" name="LASYNC"> F  </i>
   <i type="logical" name="LORBITALREAL"> F  </i>
  </separator>
  <separator name="miscellaneous" >
   <i type="int" name="IDIOT">     3</i>
   <i type="int" name="PHON_NSTRUCT">    -1</i>
   <i type="logical" name="LMUSIC"> F  </i>
   <v name="POMASS">     28.08500000</v>
   <v name="DARWINR">      0.00000000</v>
   <v name="DARWINV">      1.00000000</v>
   <i type="logical" name="LCORR"> T  </i>
  </separator>
  <i type="logical" name="GGA_COMPAT"> T  </i>
  <i type="logical" name="LBERRY"> F  </i>
  <i type="int" name="ICORELEVEL">     0</i>
  <i type="logical" name="LDAU"> F  </i>
  <i type="int" name="I_CONSTRAINED_M">     0</i>
  <separator name="electronic exchange-correlation" >
   <i type="string" name="GGA">--</i>
   <i type="int" name="VOSKOWN">     0</i>
   <i type="logical" name="LHFCALC"> F  </i>
   <i type="string" name="PRECFOCK"></i>
   <i type="logical" name="LSYMGRAD"> F  </i>
   <i type="logical" name="LHFONE"> F  </i>
   <i type="logical" name="LRHFCALC"> F  </i>
   <i type="logical" name="LTHOMAS"> F  </i>
   <i type="logical" name="LMODELHF"> F  </i>
   <i type="logical" name="LFOCKACE"> F  </i>
   <i name="ENCUT4O">     -1.00000000</i>
   <i type="int" name="EXXOEP">     0</i>
   <i type="int" name="FOURORBIT">     0</i>
   <i name="AEXX">      0.00000000</i>
   <i name="HFALPHA">      0.00000000</i>
   <i name="MCALPHA">      0.00000000</i>
   <i name="ALDAX">      1.00000000</i>
   <i name="AGGAX">      1.00000000</i>
   <i name="ALDAC">      1.00000000</i>
   <i name="AGGAC">      1.00000000</i>
   <i type="int" name="NKREDX">     1</i>
   <i type="int" name="NKREDY">     1</i>
   <i type="int" name="NKREDZ">     1</i>
   <i type="logical" name="SHIFTRED"> F  </i>
   <i type="logical" name="ODDONLY"> F  </i>
   <i type="logical" name="EVENONLY"> F  </i>
   <i type="int" name="LMAXFOCK">     0</i>
   <i type="int" name="NMAXFOCKAE">     0</i>
   <i type="logical" name="LFOCKAEDFT"> F  </i>
   <i name="HFSCREEN">      0.00000000</i>
   <i name="HFSCREENC">      0.00000000</i>
   <i type="int" name="NBANDSGWLOW">     0</i>
  </separator>
  <separator name="vdW DFT" >
   <i type="logical" name="LUSE_VDW"> F  </i>
   <i name="Zab_VDW">     -0.84910000</i>
   <i name="PARAM1">      0.12340000</i>
   <i name="PARAM2">      1.00000000</i>
   <i name="PARAM3">      0.00000000</i>
  </separator>
  <separator name="model GW" >
   <i type="int" name="MODEL_GW">     0</i>
   <i name="MODEL_EPS0">      8.23080000</i>
   <i name="MODEL_ALPHA">      1.00000000</i>
  </separator>
  <separator name="linear response parameters" >
   <i type="logical" name="LEPSILON"> F  </i>
   <i type="logical" name="LRPA"> F  </i>
   <i type="logical" name="LNABLA"> F  </i>
   <i type="logical" name="LVEL"> F  </i>
   <i name="CSHIFT">      0.10000000</i>
   <i name="OMEGAMAX">     -1.00000000</i>
   <i name="DEG_THRESHOLD">      0.00200000</i>
   <i name="RTIME">     -0.10000000</i>
   <i name="WPLASMAI">      0.00000000</i>
   <v name="DFIELD">      0.00000000      0.00000000      0.00000000</v>
   <v name="WPLASMA">      0.00000000      0.00000000      0.00000000      0.00000000      0.00000000      0.00000000      0.00000000      0.00000000      0.00000000</v>
  </separator>
  <separator name="orbital magnetization" >
   <i type="logical" name="NUCIND"> F  </i>
   <v name="MAGPOS">      0.00000000      0.00000000      0.00000000</v>
   <i type="logical" name="LNICSALL"> T  </i>
   <i type="logical" name="ORBITALMAG"> F  </i>
   <i type="logical" name="LMAGBLOCH"> F  </i>
   <i type="logical" name="LCHIMAG"> F  </i>
   <i type="logical" name="LGAUGE"> T  </i>
   <i type="int" name="MAGATOM">     0</i>
   <v name="MAGDIPOL">      0.00000000      0.00000000      0.00000000</v>
   <v name="AVECCONST">      0.00000000      0.00000000      0.00000000</v>
  </separator>
  <separator name="response functions" >
   <i type="logical" name="LFINITE_TEMPERATURE"> F  </i>
   <i type="logical" name="LADDER"> F  </i>
   <i type="logical" name="LRPAFORCE"> F  </i>
   <i type="logical" name="LFXC"> F  </i>
   <i type="logical" name="LHARTREE"> T  </i>
   <i type="int" name="IBSE">     0</i>
   <v type="int" name="KPOINT">    -1     0     0     0</v>
   <i type="logical" name="LTCTC"> F  </i>
   <i type="logical" name="LTCTE"> F  </i>
   <i type="logical" name="LTETE"> F  </i>
   <i type="logical" name="LTRIPLET"> F  </i>
   <i type="logical" name="LFXCEPS"> F  </i>
   <i type="logical" name="LFXHEG"> F  </i>
   <i type="int" name="NATURALO">     2</i>
   <i type="logical" name="LHOLEGF"> F  </i>
   <i type="logical" name="L2ORDER"> F  </i>
   <i type="logical" name="LDMP1"> F  </i>
   <i type="logical" name="LMP2LT"> F  </i>
   <i type="logical" name="LSMP2LT"> F  </i>
   <i type="logical" name="LGWLF"> F  </i>
   <i name="ENCUTGW">     -2.00000000</i>
   <i name="ENCUTGWSOFT">     -2.00000000</i>
   <i name="ENCUTLF">     -1.00000000</i>
   <i type="logical" name="LESF_SPLINES"> F  </i>
   <i type="int" name="LMAXMP2">    -1</i>
   <i name="SCISSOR">      0.00000000</i>
   <i type="int" name="NOMEGA">     0</i>
   <i type="int" name="NOMEGAR">     0</i>
   <i type="int" name="NBANDSGW">    -1</i>
   <i type="int" name="NBANDSO">    -1</i>
   <i type="int" name="NBANDSV">    -1</i>
   <i type="int" name="NELMGW">     1</i>
   <i type="int" name="NELMHF">     1</i>
   <i type="int" name="DIM">     3</i>
   <i type="int" name="IESPILON">     4</i>
   <i type="int" name="ANTIRES">     0</i>
   <i name="OMEGAMAX">    -30.00000000</i>
   <i name="OMEGAMIN">    -30.00000000</i>
   <i name="OMEGATL">   -200.00000000</i>
   <i type="int" name="OMEGAGRID">     0</i>
   <i name="CSHIFT">     -0.10000000</i>
   <i type="logical" name="LSELFENERGY"> F  </i>
   <i type="logical" name="LSPECTRAL"> F  </i>
   <i type="logical" name="LSPECTRALGW"> F  </i>
   <i type="logical" name="LSINGLES"> F  </i>
   <i type="logical" name="LFERMIGW"> F  </i>
   <i type="logical" name="ODDONLYGW"> F  </i>
   <i type="logical" name="EVENONLYGW"> F  </i>
   <i type="int" name="NKREDLFX">     1</i>
   <i type="int" name="NKREDLFY">     1</i>
   <i type="int" name="NKREDLFZ">     1</i>
   <i type="int" name="MAXMEM">  2800</i>
   <i type="int" name="TELESCOPE">     0</i>
   <i type="int" name="NTAUPAR">    -1</i>
   <i type="int" name="NOMEGAPAR">    -1</i>
   <i name="DAMP_NEWTON">      0.80000001</i>
   <i name="LAMBDA">      1.00000000</i>
  </separator>
  <separator name="External order field" >
   <i name="OFIELD_KAPPA">      0.00000000</i>
   <v name="OFIELD_K">      0.00000000      0.00000000      0.00000000</v>
   <i name="OFIELD_Q6_NEAR">      0.00000000</i>
   <i name="OFIELD_Q6_FAR">      0.00000000</i>
   <i name="OFIELD_A">      0.00000000</i>
  </separator>
  <separator name="optional k-points parameters" >
   <i type="int" name="KPOINTS_OPT_MODE">     1</i>
   <i type="logical" name="LKPOINTS_OPT"> F  </i>
  </separator>
 </parameters>
 <atominfo>
  <atoms>       1 </atoms>
  <types>       1 </types>
  <array name="atoms" >
   <dimension dim="1">ion</dimension>
   <field type="string">element</field>
   <field type="int">atomtype</field>
   <set>
    <rc><c>Si</c><c>   1</c></rc>
   </set>
  </array>
  <array name="atomtypes" >
   <dimension dim="1">type</dimension>
   <field type="int">atomspertype</field>
   <field type="string">element</field>
   <field>mass</field>
   <field>valence</field>
   <field type="string">pseudopotential</field>
   <set>
    <rc><c>   1</c><c>Si</c><c>     28.08500000</c><c>      4.00000000</c><c>  PAW_PBE Si 05Jan2001                  </c></rc>
   </set>
  </array>
 </atominfo>
 <structure name="initialpos" >
  <crystal>
   <varray name="basis" >
    <v>       1.90000000       1.90000000       0.00000000 </v>
    <v>       0.00000000       1.90000000       1.90000000 </v>
    <v>       1.90000000       0.00000000       1.90000000 </v>
   </varray>
   <i name="volume">     13.71800000 </i>
   <varray name="rec_basis" >
    <v>       0.26315789       0.26315789      -0.26315789 </v>
    <v>      -0.26315789       0.26315789       0.26315789 </v>
    <v>       0.26315789      -0.26315789       0.26315789 </v>
   </varray>
  </crystal>
  <varray name="positions" >
   <v>       0.00000000       0.00000000       0.00000000 </v>
  </varray>
 </structure>
 <calculation>
  <scstep>
   <time name="dav">    0.04    0.04</time>
   <time name="total">    0.04    0.04</time>
   <energy>
    <i name="alphaZ">      2.45393868 </i>
    <i name="ewald">   -138.99165905 </i>
    <i name="hartreedc">     -0.49269821 </i>
    <i name="XCdc">     -8.66237755 </i>
    <i name="pawpsdc">     88.12379961 </i>
    <i name="pawaedc">    -70.53051779 </i>
    <i name="eentropy">     -0.00105800 </i>
    <i name="bandstr">     20.99314352 </i>
    <i name="atom">    103.06077658 </i>
    <i name="e_fr_energy">     -4.04665220 </i>
    <i name="e_wo_entrp">     -4.04559420 </i>
    <i name="e_0_energy">     -4.04612320 </i>
   </energy>
  </scstep>
  <scstep>
   <time name="dav">    0.05    0.05</time>
   <time name="total">    0.05    0.05</time>
   <energy>
    <i name="e_fr_energy">     -4.88455377 </i>
    <i name="e_wo_entrp">     -4.88137925 </i>
    <i name="e_0_energy">     -4.88296651 </i>
   </energy>
  </scstep>
  <scstep>
   <time name="dav">    0.03    0.03</time>
   <time name="total">    0.03    0.03</time>
   <energy>
    <i name="e_fr_energy">     -4.88742590 </i>
    <i name="e_wo_entrp">     -4.88423676 </i>
    <i name="e_0_energy">     -4.88583133 </i>
   </energy>
  </scstep>
  <scstep>
   <time name="dav">    0.06    0.06</time>
   <time name="total">    0.06    0.06</time>
   <energy>
    <i name="e_fr_energy">     -4.88742716 </i>
    <i name="e_wo_entrp">     -4.88423800 </i>
    <i name="e_0_energy">     -4.88583258 </i>
   </energy>
  </scstep>
  <scstep>
   <time name="dav">    0.04    0.04</time>
   <time name="total">    0.04    0.04</time>
   <energy>
    <i name="e_fr_energy">     -4.88742716 </i>
    <i name="e_wo_entrp">     -4.88423800 </i>
    <i name="e_0_energy">     -4.88583258 </i>
   </energy>
  </scstep>
  <scstep>
   <time name="dav">    0.03    0.03</time>
   <time name="total">    0.04    0.04</time>
   <energy>
    <i name="e_fr_energy">     -4.87296407 </i>
    <i name="e_wo_entrp">     -4.86985506 </i>
    <i name="e_0_energy">     -4.87140956 </i>
   </energy>
  </scstep>
  <scstep>
   <time name="dav">    0.04    0.04</time>
   <time name="total">    0.04    0.04</time>
   <energy>
    <i name="e_fr_energy">     -4.86458055 </i>
    <i name="e_wo_entrp">     -4.86158244 </i>
    <i name="e_0_energy">     -4.86308149 </i>
   </energy>
  </scstep>
  <scstep>
   <time name="dav">    0.04    0.04</time>
   <time name="total">    0.04    0.04</time>
   <energy>
    <i name="alphaZ">      2.45393868 </i>
    <i name="ewald">   -138.99165905 </i>
    <i name="hartreedc">     -0.37400461 </i>
    <i name="XCdc">     -8.58856684 </i>
    <i name="pawpsdc">    402.51501079 </i>
    <i name="pawaedc">   -384.94340765 </i>
    <i name="eentropy">     -0.00299612 </i>
    <i name="bandstr">     20.00637586 </i>
    <i name="atom">    103.06077658 </i>
    <i name="e_fr_energy">     -4.86453235 </i>
    <i name="e_wo_entrp">     -4.86153623 </i>
    <i name="e_0_energy">     -4.86303429 </i>
   </energy>
  </scstep>
  <structure>
   <crystal>
    <varray name="basis" >
     <v>       1.90000000       1.90000000       0.00000000 </v>
     <v>       0.00000000       1.90000000       1.90000000 </v>
     <v>       1.90000000       0.00000000       1.90000000 </v>
    </varray>
    <i name="volume">     13.71800000 </i>
    <varray name="rec_basis" >
     <v>       0.26315789       0.26315789      -0.26315789 </v>
     <v>      -0.26315789       0.26315789       0.26315789 </v>
     <v>       0.26315789      -0.26315789       0.26315789 </v>
    </varray>
   </crystal>
   <varray name="positions" >
    <v>       0.00000000       0.00000000       0.00000000 </v>
   </varray>
  </structure>
  <varray name="forces" >
   <v>       0.00000000      -0.00000000       0.00000000 </v>
  </varray>
  <varray name="stress" >
   <v>      51.31710989       0.00000000       0.00000000 </v>
   <v>       0.00000000      51.31710989      -0.00000000 </v>
   <v>       0.00000000      -0.00000000      51.31710989 </v>
  </varray>
  <energy>
   <i name="e_fr_energy">     -4.86453235 </i>
   <i name="e_wo_entrp">     -4.86153623 </i>
   <i name="e_0_energy">     -4.86303429 </i>
  </energy>
  <time name="totalsc">    0.39    0.39</time>
  <eigenvalues>
   <array>
    <dimension dim="1">band</dimension>
    <dimension dim="2">kpoint</dimension>
    <dimension dim="3">spin</dimension>
    <field>eigene</field>
    <field>occ</field>
    <set>
     <set comment="spin 1">
      <set comment="kpoint 1">
       <r>   -4.0664    1.0000 </r>
       <r>   22.6972    0.0000 </r>
       <r>   22.6974    0.0000 </r>
       <r>   22.6974    0.0000 </r>
       <r>   23.1900    0.0000 </r>
       <r>   23.1900    0.0000 </r>
       <r>   23.1900    0.0000 </r>
       <r>   28.5147    0.0000 </r>
      </set>
      <set comment="kpoint 2">
       <r>   -3.8169    1.0000 </r>
       <r>   19.2099    0.0000 </r>
       <r>   21.5687    0.0000 </r>
       <r>   21.5688    0.0000 </r>
       <r>   24.5975    0.0000 </r>
       <r>   24.6217    0.0000 </r>
       <r>   24.6219    0.0000 </r>
       <r>   29.3166    0.0000 </r>
      </set>
      <set comment="kpoint 3">
       <r>   -3.0702    1.0000 </r>
       <r>   15.1633    0.0000 </r>
       <r>   20.6059    0.0000 </r>
       <r>   20.6061    0.0000 </r>
       <r>   24.6553    0.0000 </r>
       <r>   25.6526    0.0000 </r>
       <r>   25.6534    0.0000 </r>
       <r>   28.3835    0.0000 </r>
      </set>
      <set comment="kpoint 4">
       <r>   -1.8305    1.0000 </r>
       <r>   11.3231    0.0000 </r>
       <r>   20.0575    0.0000 </r>
       <r>   20.0577    0.0000 </r>
       <r>   24.4627    0.0000 </r>
       <r>   24.4634    0.0000 </r>
       <r>   24.5577    0.0000 </r>
       <r>   29.7809    0.0000 </r>
      </set>
      <set comment="kpoint 5">
       <r>   -0.1101    1.0000 </r>
       <r>    7.8333    1.0000 </r>
       <r>   19.8738    0.0000 </r>
       <r>   19.8740    0.0000 </r>
       <r>   23.0442    0.0000 </r>
       <r>   23.0449    0.0000 </r>
       <r>   24.6149    0.0000 </r>
       <r>   28.1931    0.0000 </r>
      </set>
      <set comment="kpoint 6">
       <r>    2.0715    1.0000 </r>
       <r>    4.7611    1.0000 </r>
       <r>   19.9315    0.0000 </r>
       <r>   19.9316    0.0000 </r>
       <r>   22.1540    0.0000 </r>
       <r>   22.1547    0.0000 </r>
       <r>   24.8409    0.0000 </r>
       <r>   27.1572    0.0000 </r>
      </set>
      <set comment="kpoint 7">
       <r>   -3.7338    1.0000 </r>
       <r>   20.1017    0.0000 </r>
       <r>   20.1018    0.0000 </r>
       <r>   21.5863    0.0000 </r>
       <r>   21.9701    0.0000 </r>
       <r>   26.1914    0.0000 </r>
       <r>   26.1915    0.0000 </r>
       <r>   27.3119    0.0000 </r>
      </set>
      <set comment="kpoint 8">
       <r>   -3.1530    1.0000 </r>
       <r>   16.6533    0.0000 </r>
       <r>   19.0207    0.0000 </r>
       <r>   20.8631    0.0000 </r>
       <r>   22.7023    0.0000 </r>
       <r>   25.3014    0.0000 </r>
       <r>   26.9979    0.0000 </r>
       <r>   27.6604    0.0000 </r>
      </set>
      <set comment="kpoint 9">
       <r>   -2.0782    1.0000 </r>
       <r>   12.7558    0.0000 </r>
       <r>   18.3669    0.0000 </r>
       <r>   20.0980    0.0000 </r>
       <r>   22.1413    0.0000 </r>
       <r>   25.8084    0.0000 </r>
       <r>   27.0720    0.0000 </r>
       <r>   27.4169    0.0000 </r>
      </set>
      <set comment="kpoint 10">
       <r>   -0.5176    1.0000 </r>
       <r>    9.1572    1.0000 </r>
       <r>   18.1353    0.0000 </r>
       <r>   19.3033    0.0000 </r>
       <r>   21.0726    0.0000 </r>
       <r>   25.5844    0.0000 </r>
       <r>   26.3835    0.0000 </r>
       <r>   29.3162    0.0000 </r>
      </set>
      <set comment="kpoint 11">
       <r>    1.5128    1.0000 </r>
       <r>    5.9442    1.0000 </r>
       <r>   18.2940    0.0000 </r>
       <r>   18.3223    0.0000 </r>
       <r>   20.9705    0.0000 </r>
       <r>   24.3200    0.0000 </r>
       <r>   26.4682    0.0000 </r>
       <r>   29.3027    0.0000 </r>
      </set>
      <set comment="kpoint 12">
       <r>    3.0850    1.0000 </r>
       <r>    4.0751    1.0000 </r>
       <r>   17.4488    0.0000 </r>
       <r>   18.9071    0.0000 </r>
       <r>   21.5393    0.0000 </r>
       <r>   23.4692    0.0000 </r>
       <r>   26.2948    0.0000 </r>
       <r>   29.2140    0.0000 </r>
      </set>
      <set comment="kpoint 13">
       <r>    0.7851    1.0000 </r>
       <r>    6.9669    1.0000 </r>
       <r>   16.9666    0.0000 </r>
       <r>   19.8359    0.0000 </r>
       <r>   22.6222    0.0000 </r>
       <r>   23.1079    0.0000 </r>
       <r>   25.9721    0.0000 </r>
       <r>   29.9465    0.0000 </r>
      </set>
      <set comment="kpoint 14">
       <r>   -1.0908    1.0000 </r>
       <r>   10.3141    1.0000 </r>
       <r>   16.9101    0.0000 </r>
       <r>   20.9516    0.0000 </r>
       <r>   23.4029    0.0000 </r>
       <r>   24.1195    0.0000 </r>
       <r>   25.7793    0.0000 </r>
       <r>   29.3299    0.0000 </r>
      </set>
      <set comment="kpoint 15">
       <r>   -2.4910    1.0000 </r>
       <r>   14.0222    0.0000 </r>
       <r>   17.2893    0.0000 </r>
       <r>   22.0031    0.0000 </r>
       <r>   24.2918    0.0000 </r>
       <r>   25.6702    0.0000 </r>
       <r>   25.8496    0.0000 </r>
       <r>   26.8872    0.0000 </r>
      </set>
      <set comment="kpoint 16">
       <r>   -3.4017    1.0000 </r>
       <r>   17.7515    0.0000 </r>
       <r>   18.3096    0.0000 </r>
       <r>   22.8071    0.0000 </r>
       <r>   23.8354    0.0000 </r>
       <r>   25.2638    0.0000 </r>
       <r>   26.4691    0.0000 </r>
       <r>   27.2273    0.0000 </r>
      </set>
      <set comment="kpoint 17">
       <r>   -2.7384    1.0000 </r>
       <r>   17.8008    0.0000 </r>
       <r>   17.8010    0.0000 </r>
       <r>   19.2016    0.0000 </r>
       <r>   20.0139    0.0000 </r>
       <r>   22.6743    0.0000 </r>
       <r>   29.6517    0.0000 </r>
       <r>   29.6518    0.0000 </r>
      </set>
      <set comment="kpoint 18">
       <r>   -1.8307    1.0000 </r>
       <r>   14.5655    0.0000 </r>
       <r>   17.0037    0.0000 </r>
       <r>   18.4080    0.0000 </r>
       <r>   19.5850    0.0000 </r>
       <r>   22.3054    0.0000 </r>
       <r>   29.9800    0.0000 </r>
       <r>   30.5328    0.0000 </r>
      </set>
      <set comment="kpoint 19">
       <r>   -0.4353    1.0000 </r>
       <r>   10.9135    0.1805 </r>
       <r>   16.6391    0.0000 </r>
       <r>   16.7323    0.0000 </r>
       <r>   19.2527    0.0000 </r>
       <r>   24.5939    0.0000 </r>
       <r>   28.6512    0.0000 </r>
       <r>   30.6427    0.0000 </r>
      </set>
      <set comment="kpoint 20">
       <r>    1.4345    1.0000 </r>
       <r>    7.5901    1.0000 </r>
       <r>   15.2425    0.0000 </r>
       <r>   16.7078    0.0000 </r>
       <r>   19.3345    0.0000 </r>
       <r>   27.3009    0.0000 </r>
       <r>   27.3350    0.0000 </r>
       <r>   30.6804    0.0000 </r>
      </set>
      <set comment="kpoint 21">
       <r>    3.7296    1.0000 </r>
       <r>    4.7056    1.0000 </r>
       <r>   14.1368    0.0000 </r>
       <r>   17.1993    0.0000 </r>
       <r>   19.8778    0.0000 </r>
       <r>   26.3395    0.0000 </r>
       <r>   28.6158    0.0000 </r>
       <r>   31.9528    0.0000 </r>
      </set>
      <set comment="kpoint 22">
       <r>    2.1603    1.0000 </r>
       <r>    6.5638    1.0000 </r>
       <r>   13.4695    0.0000 </r>
       <r>   18.1053    0.0000 </r>
       <r>   20.8796    0.0000 </r>
       <r>   25.7532    0.0000 </r>
       <r>   28.3787    0.0000 </r>
       <r>   32.0232    0.0000 </r>
      </set>
      <set comment="kpoint 23">
       <r>    0.1358    1.0000 </r>
       <r>    9.7309    1.0000 </r>
       <r>   13.2761    0.0000 </r>
       <r>   19.4002    0.0000 </r>
       <r>   22.3119    0.0000 </r>
       <r>   25.6083    0.0000 </r>
       <r>   27.8965    0.0000 </r>
       <r>   28.7676    0.0000 </r>
      </set>
      <set comment="kpoint 24">
       <r>   -1.4192    1.0000 </r>
       <r>   12.8971    0.0000 </r>
       <r>   13.9108    0.0000 </r>
       <r>   20.9748    0.0000 </r>
       <r>   24.0849    0.0000 </r>
       <r>   25.7514    0.0000 </r>
       <r>   26.1217    0.0000 </r>
       <r>   27.0907    0.0000 </r>
      </set>
      <set comment="kpoint 25">
       <r>   -1.0909    1.0000 </r>
       <r>   16.0637    0.0000 </r>
       <r>   16.0638    0.0000 </r>
       <r>   16.1422    0.0000 </r>
       <r>   17.2945    0.0000 </r>
       <r>   20.0141    0.0000 </r>
       <r>   32.9673    0.0000 </r>
       <r>   32.9760    0.0000 </r>
      </set>
      <set comment="kpoint 26">
       <r>    0.1363    1.0000 </r>
       <r>   13.0255    0.0000 </r>
       <r>   14.0911    0.0000 </r>
       <r>   15.5558    0.0000 </r>
       <r>   17.7932    0.0000 </r>
       <r>   20.7890    0.0000 </r>
       <r>   31.9695    0.0000 </r>
       <r>   33.7618    0.0000 </r>
      </set>
      <set comment="kpoint 27">
       <r>    1.8388    1.0000 </r>
       <r>    9.6681    1.0000 </r>
       <r>   12.3506    0.0000 </r>
       <r>   15.4809    0.0000 </r>
       <r>   17.9568    0.0000 </r>
       <r>   23.5695    0.0000 </r>
       <r>   30.7271    0.0000 </r>
       <r>   33.4172    0.0000 </r>
      </set>
      <set comment="kpoint 28">
       <r>    3.9951    1.0000 </r>
       <r>    6.6453    1.0000 </r>
       <r>   11.0548    0.0018 </r>
       <r>   15.8354    0.0000 </r>
       <r>   18.3987    0.0000 </r>
       <r>   26.8628    0.0000 </r>
       <r>   29.6297    0.0000 </r>
       <r>   32.5820    0.0000 </r>
      </set>
      <set comment="kpoint 29">
       <r>    4.0025    1.0000 </r>
       <r>    6.6060    1.0000 </r>
       <r>   10.2433    1.0000 </r>
       <r>   16.6208    0.0000 </r>
       <r>   19.2846    0.0000 </r>
       <r>   28.9049    0.0000 </r>
       <r>   29.9639    0.0000 </r>
       <r>   31.6345    0.0000 </r>
      </set>
      <set comment="kpoint 30">
       <r>    1.8402    1.0000 </r>
       <r>    9.1753    1.0000 </r>
       <r>   10.3280    1.0000 </r>
       <r>   17.8302    0.0000 </r>
       <r>   20.6222    0.0000 </r>
       <r>   28.4015    0.0000 </r>
       <r>   28.9036    0.0000 </r>
       <r>   29.8704    0.0000 </r>
      </set>
      <set comment="kpoint 31">
       <r>    1.1924    1.0000 </r>
       <r>   11.7169    0.0000 </r>
       <r>   14.9035    0.0000 </r>
       <r>   14.9036    0.0000 </r>
       <r>   15.9951    0.0000 </r>
       <r>   18.7577    0.0000 </r>
       <r>   34.8626    0.0000 </r>
       <r>   35.9977    0.0000 </r>
      </set>
      <set comment="kpoint 32">
       <r>    2.7207    1.0000 </r>
       <r>    9.7943    1.0000 </r>
       <r>   12.1490    0.0000 </r>
       <r>   14.6820    0.0000 </r>
       <r>   16.8238    0.0000 </r>
       <r>   19.9213    0.0000 </r>
       <r>   34.2316    0.0000 </r>
       <r>   36.3400    0.0000 </r>
      </set>
      <set comment="kpoint 33">
       <r>    4.6871    1.0000 </r>
       <r>    8.3084    1.0000 </r>
       <r>    9.1127    1.0000 </r>
       <r>   14.8982    0.0000 </r>
       <r>   17.3195    0.0000 </r>
       <r>   23.0457    0.0000 </r>
       <r>   33.1881    0.0000 </r>
       <r>   35.3706    0.0000 </r>
      </set>
      <set comment="kpoint 34">
       <r>    6.2775    1.0000 </r>
       <r>    6.6787    1.0000 </r>
       <r>    7.8609    1.0000 </r>
       <r>   15.5460    0.0000 </r>
       <r>   18.0924    0.0000 </r>
       <r>   26.6593    0.0000 </r>
       <r>   31.9230    0.0000 </r>
       <r>   33.0833    0.0000 </r>
      </set>
      <set comment="kpoint 35">
       <r>    4.0527    1.0000 </r>
       <r>    7.7237    1.0000 </r>
       <r>   14.3187    0.0000 </r>
       <r>   14.3188    0.0000 </r>
       <r>   15.3171    0.0000 </r>
       <r>   18.1494    0.0000 </r>
       <r>   36.4212    0.0000 </r>
       <r>   38.0569    0.0000 </r>
      </set>
      <set comment="kpoint 36">
       <r>    5.4289    1.0000 </r>
       <r>    6.5194    1.0000 </r>
       <r>   11.8373    0.0000 </r>
       <r>   14.3908    0.0000 </r>
       <r>   16.5065    0.0000 </r>
       <r>   19.6316    0.0000 </r>
       <r>   35.8227    0.0000 </r>
       <r>   37.4731    0.0000 </r>
      </set>
      <set comment="kpoint 37">
       <r>   -2.4080    1.0000 </r>
       <r>   15.3520    0.0000 </r>
       <r>   16.1170    0.0000 </r>
       <r>   20.9170    0.0000 </r>
       <r>   22.2230    0.0000 </r>
       <r>   23.9304    0.0000 </r>
       <r>   27.8360    0.0000 </r>
       <r>   28.5050    0.0000 </r>
      </set>
      <set comment="kpoint 38">
       <r>   -1.1729    1.0000 </r>
       <r>   11.8879    0.0000 </r>
       <r>   15.2947    0.0000 </r>
       <r>   19.2350    0.0000 </r>
       <r>   22.3110    0.0000 </r>
       <r>   25.1666    0.0000 </r>
       <r>   26.6369    0.0000 </r>
       <r>   29.0907    0.0000 </r>
      </set>
      <set comment="kpoint 39">
       <r>    0.5427    1.0000 </r>
       <r>    8.4465    1.0000 </r>
       <r>   15.1922    0.0000 </r>
       <r>   17.6596    0.0000 </r>
       <r>   22.1969    0.0000 </r>
       <r>   24.7245    0.0000 </r>
       <r>   27.8927    0.0000 </r>
       <r>   29.8408    0.0000 </r>
      </set>
      <set comment="kpoint 40">
       <r>    2.7177    1.0000 </r>
       <r>    5.3910    1.0000 </r>
       <r>   15.5051    0.0000 </r>
       <r>   16.4740    0.0000 </r>
       <r>   22.4000    0.0000 </r>
       <r>   23.7096    0.0000 </r>
       <r>   28.6793    0.0000 </r>
       <r>   31.9395    0.0000 </r>
      </set>
      <set comment="kpoint 41">
       <r>   -0.7627    1.0000 </r>
       <r>   13.5089    0.0000 </r>
       <r>   14.3554    0.0000 </r>
       <r>   16.5719    0.0000 </r>
       <r>   20.4392    0.0000 </r>
       <r>   22.0023    0.0000 </r>
       <r>   29.4598    0.0000 </r>
       <r>   32.3094    0.0000 </r>
      </set>
      <set comment="kpoint 42">
       <r>    0.7870    1.0000 </r>
       <r>   10.3420    1.0000 </r>
       <r>   13.7589    0.0000 </r>
       <r>   14.7744    0.0000 </r>
       <r>   20.8584    0.0000 </r>
       <r>   24.1378    0.0000 </r>
       <r>   28.1266    0.0000 </r>
       <r>   32.8790    0.0000 </r>
      </set>
      <set comment="kpoint 43">
       <r>    2.8033    1.0000 </r>
       <r>    7.1900    1.0000 </r>
       <r>   13.1931    0.0000 </r>
       <r>   14.1120    0.0000 </r>
       <r>   21.1470    0.0000 </r>
       <r>   26.3252    0.0000 </r>
       <r>   27.8121    0.0000 </r>
       <r>   32.5238    0.0000 </r>
      </set>
      <set comment="kpoint 44">
       <r>    4.3734    1.0000 </r>
       <r>    5.3262    1.0000 </r>
       <r>   12.2579    0.0000 </r>
       <r>   14.7350    0.0000 </r>
       <r>   21.8222    0.0000 </r>
       <r>   25.7453    0.0000 </r>
       <r>   30.5101    0.0000 </r>
       <r>   31.0804    0.0000 </r>
      </set>
      <set comment="kpoint 45">
       <r>    2.0818    1.0000 </r>
       <r>    8.1718    1.0000 </r>
       <r>   11.7659    0.0000 </r>
       <r>   15.8440    0.0000 </r>
       <r>   22.8662    0.0000 </r>
       <r>   25.2933    0.0000 </r>
       <r>   28.2973    0.0000 </r>
       <r>   31.7140    0.0000 </r>
      </set>
      <set comment="kpoint 46">
       <r>    0.2176    1.0000 </r>
       <r>   11.0415    0.0032 </r>
       <r>   12.1338    0.0000 </r>
       <r>   17.3762    0.0000 </r>
       <r>   24.0781    0.0000 </r>
       <r>   24.6665    0.0000 </r>
       <r>   26.0517    0.0000 </r>
       <r>   30.9083    0.0000 </r>
      </set>
      <set comment="kpoint 47">
       <r>    1.5159    1.0000 </r>
       <r>   11.9781    0.0000 </r>
       <r>   12.2790    0.0000 </r>
       <r>   13.2905    0.0000 </r>
       <r>   19.2220    0.0000 </r>
       <r>   20.8864    0.0000 </r>
       <r>   31.5198    0.0000 </r>
       <r>   35.7747    0.0000 </r>
      </set>
      <set comment="kpoint 48">
       <r>    3.3617    1.0000 </r>
       <r>    9.3883    1.0000 </r>
       <r>   10.4478    1.0000 </r>
       <r>   12.9577    0.0000 </r>
       <r>   19.9779    0.0000 </r>
       <r>   23.4007    0.0000 </r>
       <r>   30.3621    0.0000 </r>
       <r>   34.9909    0.0000 </r>
      </set>
      <set comment="kpoint 49">
       <r>    5.6169    1.0000 </r>
       <r>    6.5677    1.0000 </r>
       <r>    9.3143    1.0000 </r>
       <r>   13.4540    0.0000 </r>
       <r>   20.5947    0.0000 </r>
       <r>   26.7590    0.0000 </r>
       <r>   29.4268    0.0000 </r>
       <r>   32.1102    0.0000 </r>
      </set>
      <set comment="kpoint 50">
       <r>    4.0848    1.0000 </r>
       <r>    7.9280    1.0000 </r>
       <r>    9.0869    1.0000 </r>
       <r>   14.4265    0.0000 </r>
       <r>   21.5749    0.0000 </r>
       <r>   28.2941    0.0000 </r>
       <r>   28.5705    0.0000 </r>
       <r>   30.9166    0.0000 </r>
      </set>
      <set comment="kpoint 51">
       <r>    4.3705    1.0000 </r>
       <r>    8.0345    1.0000 </r>
       <r>   11.6604    0.0000 </r>
       <r>   12.6425    0.0000 </r>
       <r>   18.5948    0.0000 </r>
       <r>   20.3215    0.0000 </r>
       <r>   33.9335    0.0000 </r>
       <r>   36.1734    0.0000 </r>
      </set>
      <set comment="kpoint 52">
       <r>    6.0539    1.0000 </r>
       <r>    7.1413    1.0000 </r>
       <r>    9.1299    1.0000 </r>
       <r>   12.6447    0.0000 </r>
       <r>   19.6748    0.0000 </r>
       <r>   23.1313    0.0000 </r>
       <r>   32.8903    0.0000 </r>
       <r>   33.0361    0.0000 </r>
      </set>
      <set comment="kpoint 53">
       <r>    2.4840    1.0000 </r>
       <r>    9.7999    1.0000 </r>
       <r>   10.8932    0.2657 </r>
       <r>   13.0107    0.0000 </r>
       <r>   23.5279    0.0000 </r>
       <r>   24.2707    0.0000 </r>
       <r>   26.9358    0.0000 </r>
       <r>   34.4303    0.0000 </r>
      </set>
      <set comment="kpoint 54">
       <r>    4.6338    1.0000 </r>
       <r>    7.2310    1.0000 </r>
       <r>   10.7906    0.7953 </r>
       <r>   11.7524    0.0000 </r>
       <r>   24.0883    0.0000 </r>
       <r>   25.3754    0.0000 </r>
       <r>   27.7784    0.0000 </r>
       <r>   31.4882    0.0000 </r>
      </set>
      <set comment="kpoint 55">
       <r>    5.3203    1.0000 </r>
       <r>    8.9265    1.0000 </r>
       <r>    9.1766    1.0000 </r>
       <r>   10.4020    1.0000 </r>
       <r>   22.9188    0.0000 </r>
       <r>   23.9630    0.0000 </r>
       <r>   29.2406    0.0000 </r>
       <r>   32.1768    0.0000 </r>
      </set>
      <set comment="kpoint 56">
       <r>    6.8769    1.0000 </r>
       <r>    7.3039    1.0000 </r>
       <r>    8.4465    1.0000 </r>
       <r>   10.6003    0.9998 </r>
       <r>   24.0005    0.0000 </r>
       <r>   26.7819    0.0000 </r>
       <r>   27.7658    0.0000 </r>
       <r>   29.5277    0.0000 </r>
      </set>
     </set>
    </set>
   </array>
  </eigenvalues>
  <separator name="orbital magnetization" >
   <v name="MAGDIPOLOUT">      0.00000000      0.00000000      0.00000000</v>
  </separator>
  <dos>
   <i name="efermi">     10.84892594 </i>
   <total>
    <array>
     <dimension dim="1">gridpoints</dimension>
     <dimension dim="2">spin</dimension>
     <field>energy</field>
     <field>total</field>
     <field>integrated</field>
     <set>
      <set comment="spin 1">
       <r>    -6.1725     0.0000     0.0000 </r>
       <r>    -6.0181     0.0000     0.0000 </r>
       <r>    -5.8636     0.0000     0.0000 </r>
       <r>    -5.7092     0.0000     0.0000 </r>
       <r>    -5.5547     0.0000     0.0000 </r>
       <r>    -5.4003     0.0000     0.0000 </r>
       <r>    -5.2458     0.0000     0.0000 </r>
       <r>    -5.0914     0.0000     0.0000 </r>
       <r>    -4.9369     0.0000     0.0000 </r>
       <r>    -4.7824     0.0000     0.0000 </r>
       <r>    -4.6280     0.0000     0.0000 </r>
       <r>    -4.4735     0.0000     0.0000 </r>
       <r>    -4.3191     0.0000     0.0000 </r>
       <r>    -4.1646     0.0008     0.0001 </r>
       <r>    -4.0102     0.0071     0.0012 </r>
       <r>    -3.8557     0.0270     0.0054 </r>
       <r>    -3.7013     0.0882     0.0190 </r>
       <r>    -3.5468     0.0249     0.0229 </r>
       <r>    -3.3924     0.0625     0.0325 </r>
       <r>    -3.2379     0.0785     0.0446 </r>
       <r>    -3.0835     0.2023     0.0759 </r>
       <r>    -2.9290     0.0810     0.0884 </r>
       <r>    -2.7746     0.0196     0.0914 </r>
       <r>    -2.6201     0.0461     0.0985 </r>
       <r>    -2.4657     0.1923     0.1282 </r>
       <r>    -2.3112     0.2481     0.1665 </r>
       <r>    -2.1568     0.0522     0.1746 </r>
       <r>    -2.0023     0.1717     0.2011 </r>
       <r>    -1.8479     0.1563     0.2253 </r>
       <r>    -1.6934     0.1776     0.2527 </r>
       <r>    -1.5390     0.0134     0.2548 </r>
       <r>    -1.3845     0.0757     0.2665 </r>
       <r>    -1.2301     0.1402     0.2881 </r>
       <r>    -1.0756     0.4939     0.3644 </r>
       <r>    -0.9212     0.1609     0.3893 </r>
       <r>    -0.7667     0.1111     0.4064 </r>
       <r>    -0.6122     0.1405     0.4281 </r>
       <r>    -0.4578     0.2560     0.4677 </r>
       <r>    -0.3033     0.1851     0.4962 </r>
       <r>    -0.1489     0.0300     0.5009 </r>
       <r>     0.0056     0.0666     0.5112 </r>
       <r>     0.1600     0.3324     0.5625 </r>
       <r>     0.3145     0.3342     0.6141 </r>
       <r>     0.4689     0.0916     0.6283 </r>
       <r>     0.6234     0.3459     0.6817 </r>
       <r>     0.7778     0.3682     0.7386 </r>
       <r>     0.9323     0.3705     0.7958 </r>
       <r>     1.0867     0.0176     0.7985 </r>
       <r>     1.2412     0.0409     0.8048 </r>
       <r>     1.3956     0.1032     0.8208 </r>
       <r>     1.5501     0.4557     0.8911 </r>
       <r>     1.7045     0.1633     0.9164 </r>
       <r>     1.8590     0.2058     0.9482 </r>
       <r>     2.0134     0.2321     0.9840 </r>
       <r>     2.1679     0.5168     1.0638 </r>
       <r>     2.3223     0.1655     1.0894 </r>
       <r>     2.4768     0.1076     1.1060 </r>
       <r>     2.6312     0.2009     1.1370 </r>
       <r>     2.7857     0.6928     1.2440 </r>
       <r>     2.9401     0.3915     1.3045 </r>
       <r>     3.0946     0.1377     1.3258 </r>
       <r>     3.2491     0.1277     1.3455 </r>
       <r>     3.4035     0.3140     1.3940 </r>
       <r>     3.5580     0.1298     1.4141 </r>
       <r>     3.7124     0.0938     1.4285 </r>
       <r>     3.8669     0.1485     1.4515 </r>
       <r>     4.0213     0.3968     1.5128 </r>
       <r>     4.1758     0.5416     1.5964 </r>
       <r>     4.3302     0.2372     1.6331 </r>
       <r>     4.4847     0.4773     1.7068 </r>
       <r>     4.6391     0.3799     1.7654 </r>
       <r>     4.7936     0.5914     1.8568 </r>
       <r>     4.9480     0.0706     1.8677 </r>
       <r>     5.1025     0.0010     1.8679 </r>
       <r>     5.2569     0.1334     1.8885 </r>
       <r>     5.4114     0.8242     2.0158 </r>
       <r>     5.5658     0.4293     2.0821 </r>
       <r>     5.7203     0.3302     2.1331 </r>
       <r>     5.8747     0.0727     2.1443 </r>
       <r>     6.0292     0.2522     2.1833 </r>
       <r>     6.1836     0.1784     2.2108 </r>
       <r>     6.3381     0.0921     2.2250 </r>
       <r>     6.4925     0.1834     2.2534 </r>
       <r>     6.6470     0.8876     2.3904 </r>
       <r>     6.8014     0.3785     2.4489 </r>
       <r>     6.9559     0.2796     2.4921 </r>
       <r>     7.1103     0.3148     2.5407 </r>
       <r>     7.2648     0.8562     2.6729 </r>
       <r>     7.4193     0.3784     2.7314 </r>
       <r>     7.5737     0.1086     2.7482 </r>
       <r>     7.7282     0.1713     2.7746 </r>
       <r>     7.8826     0.2195     2.8085 </r>
       <r>     8.0371     0.3509     2.8627 </r>
       <r>     8.1915     0.4086     2.9258 </r>
       <r>     8.3460     0.3888     2.9859 </r>
       <r>     8.5004     0.5621     3.0727 </r>
       <r>     8.6549     0.1557     3.0967 </r>
       <r>     8.8093     0.0125     3.0987 </r>
       <r>     8.9638     0.1693     3.1248 </r>
       <r>     9.1182     0.5756     3.2137 </r>
       <r>     9.2727     0.8641     3.3472 </r>
       <r>     9.4271     0.6693     3.4506 </r>
       <r>     9.5816     0.1908     3.4800 </r>
       <r>     9.7360     0.3794     3.5387 </r>
       <r>     9.8905     0.4790     3.6126 </r>
       <r>    10.0449     0.0471     3.6199 </r>
       <r>    10.1994     0.0889     3.6336 </r>
       <r>    10.3538     0.7370     3.7475 </r>
       <r>    10.5083     0.8344     3.8764 </r>
       <r>    10.6627     0.2959     3.9221 </r>
       <r>    10.8172     0.3831     3.9812 </r>
       <r>    10.9716     0.5629     4.0682 </r>
       <r>    11.1261     0.4191     4.1329 </r>
       <r>    11.2806     0.0848     4.1460 </r>
       <r>    11.4350     0.0525     4.1541 </r>
       <r>    11.5895     0.0511     4.1620 </r>
       <r>    11.7439     0.6051     4.2555 </r>
       <r>    11.8984     0.9357     4.4000 </r>
       <r>    12.0528     0.4674     4.4722 </r>
       <r>    12.2073     0.5239     4.5531 </r>
       <r>    12.3617     0.7010     4.6614 </r>
       <r>    12.5162     0.1784     4.6889 </r>
       <r>    12.6706     0.3153     4.7376 </r>
       <r>    12.8251     0.3639     4.7938 </r>
       <r>    12.9795     0.5369     4.8768 </r>
       <r>    13.1340     0.5961     4.9688 </r>
       <r>    13.2884     0.6029     5.0619 </r>
       <r>    13.4429     0.5775     5.1511 </r>
       <r>    13.5973     0.5745     5.2399 </r>
       <r>    13.7518     0.2539     5.2791 </r>
       <r>    13.9062     0.3112     5.3271 </r>
       <r>    14.0607     0.4394     5.3950 </r>
       <r>    14.2151     0.7242     5.5069 </r>
       <r>    14.3696     0.3788     5.5654 </r>
       <r>    14.5240     0.4253     5.6311 </r>
       <r>    14.6785     0.4293     5.6974 </r>
       <r>    14.8329     0.8504     5.8287 </r>
       <r>    14.9874     0.3907     5.8891 </r>
       <r>    15.1418     0.2038     5.9206 </r>
       <r>    15.2963     0.8366     6.0498 </r>
       <r>    15.4508     0.7143     6.1601 </r>
       <r>    15.6052     0.7446     6.2751 </r>
       <r>    15.7597     0.2125     6.3079 </r>
       <r>    15.9141     0.5174     6.3878 </r>
       <r>    16.0686     0.2733     6.4300 </r>
       <r>    16.2230     0.2656     6.4711 </r>
       <r>    16.3775     0.0693     6.4818 </r>
       <r>    16.5319     0.5188     6.5619 </r>
       <r>    16.6864     0.9211     6.7042 </r>
       <r>    16.8408     0.6650     6.8069 </r>
       <r>    16.9953     0.5330     6.8892 </r>
       <r>    17.1497     0.2954     6.9348 </r>
       <r>    17.3042     0.4638     7.0065 </r>
       <r>    17.4586     0.5628     7.0934 </r>
       <r>    17.6131     0.2611     7.1337 </r>
       <r>    17.7675     0.5283     7.2153 </r>
       <r>    17.9220     0.4506     7.2849 </r>
       <r>    18.0764     0.3573     7.3401 </r>
       <r>    18.2309     0.5206     7.4205 </r>
       <r>    18.3853     0.7763     7.5404 </r>
       <r>    18.5398     0.4921     7.6164 </r>
       <r>    18.6942     0.1896     7.6457 </r>
       <r>    18.8487     0.1096     7.6626 </r>
       <r>    19.0031     0.2641     7.7034 </r>
       <r>    19.1576     0.3280     7.7541 </r>
       <r>    19.3121     1.1499     7.9317 </r>
       <r>    19.4665     0.6457     8.0314 </r>
       <r>    19.6210     0.3055     8.0786 </r>
       <r>    19.7754     0.3801     8.1373 </r>
       <r>    19.9299     0.7942     8.2600 </r>
       <r>    20.0843     0.9307     8.4037 </r>
       <r>    20.2388     0.3337     8.4553 </r>
       <r>    20.3932     0.2394     8.4923 </r>
       <r>    20.5477     0.3606     8.5480 </r>
       <r>    20.7021     0.5657     8.6353 </r>
       <r>    20.8566     0.8024     8.7593 </r>
       <r>    21.0110     1.2965     8.9595 </r>
       <r>    21.1655     0.6320     9.0571 </r>
       <r>    21.3199     0.2059     9.0889 </r>
       <r>    21.4744     0.0806     9.1014 </r>
       <r>    21.6288     0.4823     9.1759 </r>
       <r>    21.7833     0.2571     9.2156 </r>
       <r>    21.9377     0.4104     9.2790 </r>
       <r>    22.0922     0.5228     9.3597 </r>
       <r>    22.2466     0.9640     9.5086 </r>
       <r>    22.4011     1.1251     9.6824 </r>
       <r>    22.5555     0.3662     9.7389 </r>
       <r>    22.7100     0.3677     9.7957 </r>
       <r>    22.8644     0.5174     9.8756 </r>
       <r>    23.0189     0.5951     9.9676 </r>
       <r>    23.1733     0.5990    10.0601 </r>
       <r>    23.3278     0.2450    10.0979 </r>
       <r>    23.4823     0.7233    10.2096 </r>
       <r>    23.6367     0.5832    10.2997 </r>
       <r>    23.7912     0.4334    10.3666 </r>
       <r>    23.9456     0.4341    10.4337 </r>
       <r>    24.1001     1.0866    10.6015 </r>
       <r>    24.2545     1.0042    10.7566 </r>
       <r>    24.4090     0.5259    10.8379 </r>
       <r>    24.5634     0.3708    10.8951 </r>
       <r>    24.7179     0.8399    11.0249 </r>
       <r>    24.8723     0.3930    11.0856 </r>
       <r>    25.0268     0.0456    11.0926 </r>
       <r>    25.1812     0.3130    11.1409 </r>
       <r>    25.3357     0.8708    11.2754 </r>
       <r>    25.4901     0.5651    11.3627 </r>
       <r>    25.6446     0.5630    11.4497 </r>
       <r>    25.7990     1.1995    11.6350 </r>
       <r>    25.9535     0.6911    11.7417 </r>
       <r>    26.1079     0.3872    11.8015 </r>
       <r>    26.2624     0.4091    11.8647 </r>
       <r>    26.4168     0.9031    12.0042 </r>
       <r>    26.5713     0.5006    12.0815 </r>
       <r>    26.7257     0.6522    12.1822 </r>
       <r>    26.8802     0.8314    12.3106 </r>
       <r>    27.0346     0.6671    12.4137 </r>
       <r>    27.1891     0.4328    12.4805 </r>
       <r>    27.3436     0.4748    12.5538 </r>
       <r>    27.4980     0.3631    12.6099 </r>
       <r>    27.6525     0.1734    12.6367 </r>
       <r>    27.8069     0.9362    12.7813 </r>
       <r>    27.9614     1.1208    12.9544 </r>
       <r>    28.1158     0.3536    13.0090 </r>
       <r>    28.2703     0.5780    13.0983 </r>
       <r>    28.4247     0.7634    13.2162 </r>
       <r>    28.5792     0.5909    13.3075 </r>
       <r>    28.7336     0.8637    13.4409 </r>
       <r>    28.8881     0.4355    13.5081 </r>
       <r>    29.0425     0.3267    13.5586 </r>
       <r>    29.1970     0.5213    13.6391 </r>
       <r>    29.3514     0.9024    13.7785 </r>
       <r>    29.5059     0.8552    13.9106 </r>
       <r>    29.6603     0.4762    13.9841 </r>
       <r>    29.8148     0.3884    14.0441 </r>
       <r>    29.9692     0.7519    14.1602 </r>
       <r>    30.1237     0.3448    14.2135 </r>
       <r>    30.2781     0.0642    14.2234 </r>
       <r>    30.4326     0.4198    14.2882 </r>
       <r>    30.5870     0.6535    14.3892 </r>
       <r>    30.7415     0.5804    14.4788 </r>
       <r>    30.8959     0.3493    14.5328 </r>
       <r>    31.0504     0.4214    14.5979 </r>
       <r>    31.2048     0.3039    14.6448 </r>
       <r>    31.3593     0.0370    14.6505 </r>
       <r>    31.5138     0.4008    14.7124 </r>
       <r>    31.6682     0.5545    14.7981 </r>
       <r>    31.8227     0.4417    14.8663 </r>
       <r>    31.9771     0.7536    14.9827 </r>
       <r>    32.1316     0.8468    15.1135 </r>
       <r>    32.2860     0.4388    15.1813 </r>
       <r>    32.4405     0.2177    15.2149 </r>
       <r>    32.5949     0.4737    15.2880 </r>
       <r>    32.7494     0.1919    15.3177 </r>
       <r>    32.9038     0.4409    15.3858 </r>
       <r>    33.0583     0.5355    15.4685 </r>
       <r>    33.2127     0.3160    15.5173 </r>
       <r>    33.3672     0.1445    15.5396 </r>
       <r>    33.5216     0.1627    15.5647 </r>
       <r>    33.6761     0.0426    15.5713 </r>
       <r>    33.8305     0.1855    15.6000 </r>
       <r>    33.9850     0.2005    15.6309 </r>
       <r>    34.1394     0.0767    15.6428 </r>
       <r>    34.2939     0.1735    15.6696 </r>
       <r>    34.4483     0.1779    15.6971 </r>
       <r>    34.6028     0.0918    15.7112 </r>
       <r>    34.7572     0.0059    15.7121 </r>
       <r>    34.9117     0.1013    15.7278 </r>
       <r>    35.0661     0.3527    15.7823 </r>
       <r>    35.2206     0.0709    15.7932 </r>
       <r>    35.3750     0.1189    15.8116 </r>
       <r>    35.5295     0.1081    15.8283 </r>
       <r>    35.6840     0.0290    15.8327 </r>
       <r>    35.8384     0.2337    15.8688 </r>
       <r>    35.9929     0.1180    15.8871 </r>
       <r>    36.1473     0.1136    15.9046 </r>
       <r>    36.3018     0.2139    15.9377 </r>
       <r>    36.4562     0.1987    15.9683 </r>
       <r>    36.6107     0.0296    15.9729 </r>
       <r>    36.7651     0.0002    15.9730 </r>
       <r>    36.9196     0.0000    15.9730 </r>
       <r>    37.0740     0.0000    15.9730 </r>
       <r>    37.2285     0.0000    15.9730 </r>
       <r>    37.3829     0.0118    15.9748 </r>
       <r>    37.5374     0.0837    15.9877 </r>
       <r>    37.6918     0.0211    15.9910 </r>
       <r>    37.8463     0.0002    15.9910 </r>
       <r>    38.0007     0.0124    15.9929 </r>
       <r>    38.1552     0.0411    15.9993 </r>
       <r>    38.3096     0.0048    16.0000 </r>
       <r>    38.4641     0.0000    16.0000 </r>
       <r>    38.6185     0.0000    16.0000 </r>
       <r>    38.7730     0.0000    16.0000 </r>
       <r>    38.9274     0.0000    16.0000 </r>
       <r>    39.0819     0.0000    16.0000 </r>
       <r>    39.2363     0.0000    16.0000 </r>
       <r>    39.3908     0.0000    16.0000 </r>
       <r>    39.5453     0.0000    16.0000 </r>
       <r>    39.6997     0.0000    16.0000 </r>
       <r>    39.8542     0.0000    16.0000 </r>
       <r>    40.0086     0.0000    16.0000 </r>
       <r>    40.1631     0.0000    16.0000 </r>
      </set>
     </set>
    </array>
   </total>
  </dos>
 </calculation>
 <structure name="finalpos" >
  <crystal>
   <varray name="basis" >
    <v>       1.90000000       1.90000000       0.00000000 </v>
    <v>       0.00000000       1.90000000       1.90000000 </v>
    <v>       1.90000000       0.00000000       1.90000000 </v>
   </varray>
   <i name="volume">     13.71800000 </i>
   <varray name="rec_basis" >
    <v>       0.26315789       0.26315789      -0.26315789 </v>
    <v>      -0.26315789       0.26315789       0.26315789 </v>
    <v>       0.26315789      -0.26315789       0.26315789 </v>
   </varray>
  </crystal>
  <varray name="positions" >
   <v>       0.00000000       0.00000000       0.00000000 </v>
  </varray>
 </structure>
</modeling>
