unknown system                          
   5.43000000000000     
     0.500000    0.500000    0.000000
     0.000000    0.500000    0.500000
     0.500000    0.000000    0.500000
   Si
     1
Direct
  0.000000  0.000000  0.000000
 
   32   32   32
 -6.8580     -5.1726     -.69439      5.0881      10.389      13.809      14.787      13.664      11.383      8.9706    
  6.8834      5.2258      3.9972      3.1415      2.5891      2.2821      2.1838      2.2821      2.5891      3.1415    
  3.9972      5.2258      6.8834      8.9706      11.383      13.664      14.787      13.809      10.389      5.0881    
 -.69439     -5.1726     -5.1726     -2.0952      3.0042      8.4604      12.668      14.660      14.368      12.481    
  10.040      7.7927      5.9375      4.5174      3.4972      2.8103      2.3918      2.1945      2.1945      2.3918    
  2.8103      3.4972      4.5174      5.9375      7.7927      10.040      12.480      14.368      14.660      12.667    
  8.4605      3.0045     -2.0950     -5.1725     -.69439      3.0042      7.7087      11.882      14.346      14.675    
  13.238      10.916      8.5922      6.5992      5.0229      3.8561      3.0432      2.5177      2.2251      2.1314    
  2.2251      2.5177      3.0432      3.8561      5.0229      6.5992      8.5922      10.916      13.238      14.675    
  14.346      11.882      7.7089      3.0045     -.69419     -2.0950      5.0881      8.4604      11.882      14.193    
  14.761      13.659      11.530      9.2150      7.1552      5.4733      4.1917      3.2714      2.6503      2.2706    
  2.0913      2.0913      2.2706      2.6503      3.2714      4.1917      5.4733      7.1552      9.2150      11.530    
  13.659      14.761      14.193      11.882      8.4604      5.0882      3.0045      3.0045      10.389      12.668    
  14.346      14.761      13.790      11.842      9.6096      7.5563      5.8292      4.4757      3.4759      2.7776    
  2.3242      2.0705      1.9890      2.0705      2.3242      2.7776      3.4759      4.4757      5.8292      7.5562    
  9.6095      11.842      13.790      14.761      14.346      12.667      10.389      8.4604      7.7089      8.4605    
  13.809      14.660      14.675      13.659      11.842      9.7446      7.7663      6.0573      4.6818      3.6383    
  2.8872      2.3774      2.0637      1.9147      1.9147      2.0637      2.3774      2.8872      3.6383      4.6818    
  6.0573      7.7662      9.7445      11.842      13.659      14.675      14.660      13.809      12.667      11.882    
  11.882      12.667      14.787      14.368      13.238      11.530      9.6095      7.7663      6.1359      4.7902    
  3.7426      2.9675      2.4222      2.0650      1.8637      1.7987      1.8637      2.0650      2.4222      2.9675    
  3.7426      4.7902      6.1359      7.7662      9.6095      11.530      13.238      14.368      14.787      14.660    
  14.346      14.193      14.346      14.660      13.664      12.481      10.916      9.2150      7.5563      6.0573    
  4.7902      3.7786      3.0099      2.4521      2.0693      1.8313      1.7174      1.7174      1.8313      2.0693    
  2.4521      3.0099      3.7786      4.7902      6.0574      7.5563      9.2149      10.916      12.480      13.664    
  14.368      14.675      14.761      14.761      14.675      14.368      11.383      10.040      8.5922      7.1552    
  5.8292      4.6818      3.7426      3.0099      2.4625      2.0725      1.8137      1.6663      1.6185      1.6663    
  1.8137      2.0725      2.4625      3.0099      3.7426      4.6818      5.8293      7.1552      8.5922      10.040    
  11.382      12.480      13.238      13.659      13.790      13.659      13.238      12.480      8.9706      7.7927    
  6.5992      5.4733      4.4757      3.6383      2.9675      2.4521      2.0725      1.8081      1.6417      1.5614    
  1.5614      1.6417      1.8081      2.0725      2.4521      2.9674      3.6382      4.4757      5.4734      6.5993    
  7.7928      8.9706      10.040      10.916      11.530      11.842      11.842      11.530      10.916      10.040    
  6.8834      5.9375      5.0229      4.1918      3.4759      2.8872      2.4222      2.0693      1.8137      1.6417    
  1.5428      1.5106      1.5428      1.6417      1.8137      2.0693      2.4222      2.8872      3.4759      4.1917    
  5.0229      5.9376      6.8835      7.7928      8.5922      9.2149      9.6095      9.7445      9.6095      9.2150    
  8.5922      7.7927      5.2258      4.5174      3.8561      3.2714      2.7776      2.3774      2.0650      1.8313    
  1.6663      1.5614      1.5106      1.5106      1.5614      1.6663      1.8313      2.0651      2.3774      2.7776    
  3.2713      3.8560      4.5174      5.2258      5.9376      6.5993      7.1552      7.5563      7.7662      7.7662    
  7.5562      7.1552      6.5992      5.9375      3.9972      3.4972      3.0432      2.6503      2.3242      2.0637    
  1.8637      1.7174      1.6185      1.5614      1.5428      1.5614      1.6185      1.7174      1.8637      2.0637    
  2.3242      2.6503      3.0432      3.4972      3.9971      4.5174      5.0229      5.4734      5.8292      6.0574    
  6.1359      6.0573      5.8292      5.4733      5.0229      4.5174      3.1415      2.8103      2.5177      2.2706    
  2.0705      1.9147      1.7987      1.7174      1.6663      1.6417      1.6417      1.6663      1.7174      1.7987    
  1.9147      2.0705      2.2707      2.5178      2.8104      3.1415      3.4972      3.8560      4.1917      4.4757    
  4.6818      4.7902      4.7902      4.6818      4.4757      4.1917      3.8561      3.4972      2.5891      2.3918    
  2.2251      2.0913      1.9890      1.9147      1.8637      1.8313      1.8137      1.8081      1.8137      1.8313    
  1.8637      1.9147      1.9890      2.0912      2.2251      2.3918      2.5893      2.8104      3.0432      3.2713    
  3.4759      3.6382      3.7426      3.7786      3.7426      3.6383      3.4759      3.2714      3.0432      2.8103    
  2.2820      2.1945      2.1313      2.0913      2.0705      2.0637      2.0650      2.0693      2.0725      2.0725    
  2.0693      2.0651      2.0637      2.0705      2.0912      2.1313      2.1944      2.2820      2.3918      2.5178    
  2.6503      2.7776      2.8872      2.9674      3.0099      3.0099      2.9675      2.8872      2.7776      2.6503    
  2.5177      2.3918      2.1838      2.1945      2.2251      2.2706      2.3242      2.3774      2.4222      2.4521    
  2.4625      2.4521      2.4222      2.3774      2.3242      2.2707      2.2251      2.1944      2.1837      2.1944    
  2.2251      2.2707      2.3242      2.3774      2.4222      2.4521      2.4625      2.4521      2.4222      2.3774    
  2.3242      2.2706      2.2251      2.1945      2.2820      2.3918      2.5177      2.6503      2.7776      2.8872    
  2.9675      3.0099      3.0099      2.9674      2.8872      2.7776      2.6503      2.5178      2.3918      2.2820    
  2.1944      2.1313      2.0912      2.0705      2.0637      2.0651      2.0693      2.0725      2.0725      2.0693    
  2.0650      2.0637      2.0705      2.0913      2.1313      2.1945      2.5891      2.8103      3.0432      3.2714    
  3.4759      3.6383      3.7426      3.7786      3.7426      3.6382      3.4759      3.2713      3.0432      2.8104    
  2.5893      2.3918      2.2251      2.0912      1.9890      1.9147      1.8637      1.8313      1.8137      1.8081    
  1.8137      1.8313      1.8637      1.9147      1.9890      2.0913      2.2251      2.3918      3.1415      3.4972    
  3.8561      4.1917      4.4757      4.6818      4.7902      4.7902      4.6818      4.4757      4.1917      3.8560    
  3.4972      3.1415      2.8104      2.5178      2.2707      2.0705      1.9147      1.7987      1.7174      1.6663    
  1.6417      1.6417      1.6663      1.7174      1.7987      1.9147      2.0705      2.2706      2.5177      2.8103    
  3.9972      4.5174      5.0229      5.4733      5.8292      6.0573      6.1359      6.0574      5.8292      5.4734    
  5.0229      4.5174      3.9971      3.4972      3.0432      2.6503      2.3242      2.0637      1.8637      1.7174    
  1.6185      1.5614      1.5428      1.5614      1.6185      1.7174      1.8637      2.0637      2.3242      2.6503    
  3.0432      3.4972      5.2258      5.9375      6.5992      7.1552      7.5562      7.7662      7.7662      7.5563    
  7.1552      6.5993      5.9376      5.2258      4.5174      3.8561      3.2713      2.7776      2.3774      2.0651    
  1.8313      1.6663      1.5614      1.5106      1.5106      1.5614      1.6663      1.8313      2.0650      2.3774    
  2.7776      3.2714      3.8561      4.5174      6.8834      7.7927      8.5922      9.2150      9.6095      9.7445    
  9.6095      9.2149      8.5922      7.7928      6.8835      5.9376      5.0229      4.1917      3.4759      2.8872    
  2.4222      2.0693      1.8137      1.6417      1.5428      1.5106      1.5428      1.6417      1.8137      2.0693    
  2.4222      2.8872      3.4759      4.1918      5.0229      5.9375      8.9706      10.040      10.916      11.530    
  11.842      11.842      11.530      10.916      10.040      8.9706      7.7928      6.5993      5.4734      4.4757    
  3.6382      2.9674      2.4521      2.0725      1.8081      1.6417      1.5614      1.5614      1.6417      1.8081    
  2.0725      2.4521      2.9675      3.6383      4.4757      5.4733      6.5992      7.7927      11.383      12.480    
  13.238      13.659      13.790      13.659      13.238      12.480      11.382      10.040      8.5922      7.1552    
  5.8293      4.6818      3.7426      3.0099      2.4625      2.0725      1.8137      1.6663      1.6185      1.6663    
  1.8137      2.0725      2.4625      3.0099      3.7426      4.6818      5.8292      7.1552      8.5922      10.040    
  13.664      14.368      14.675      14.761      14.761      14.675      14.368      13.664      12.480      10.916    
  9.2149      7.5563      6.0574      4.7902      3.7786      3.0099      2.4521      2.0693      1.8313      1.7174    
  1.7174      1.8313      2.0693      2.4521      3.0099      3.7786      4.7902      6.0573      7.5563      9.2150    
  10.916      12.481      14.787      14.660      14.346      14.193      14.346      14.660      14.787      14.368    
  13.238      11.530      9.6095      7.7662      6.1359      4.7902      3.7426      2.9675      2.4222      2.0650    
  1.8637      1.7987      1.8637      2.0650      2.4222      2.9675      3.7426      4.7902      6.1359      7.7663    
  9.6095      11.530      13.238      14.368      13.809      12.667      11.882      11.882      12.667      13.809    
  14.660      14.675      13.659      11.842      9.7445      7.7662      6.0573      4.6818      3.6383      2.8872    
  2.3774      2.0637      1.9147      1.9147      2.0637      2.3774      2.8872      3.6383      4.6818      6.0573    
  7.7663      9.7446      11.842      13.659      14.675      14.660      10.389      8.4605      7.7089      8.4604    
  10.389      12.667      14.346      14.761      13.790      11.842      9.6095      7.5562      5.8292      4.4757    
  3.4759      2.7776      2.3242      2.0705      1.9890      2.0705      2.3242      2.7776      3.4759      4.4757    
  5.8292      7.5563      9.6096      11.842      13.790      14.761      14.346      12.668      5.0881      3.0045    
  3.0045      5.0882      8.4604      11.882      14.193      14.761      13.659      11.530      9.2150      7.1552    
  5.4733      4.1917      3.2714      2.6503      2.2706      2.0913      2.0913      2.2706      2.6503      3.2714    
  4.1917      5.4733      7.1552      9.2150      11.530      13.659      14.761      14.193      11.882      8.4604    
 -.69439     -2.0950     -.69419      3.0045      7.7089      11.882      14.346      14.675      13.238      10.916    
  8.5922      6.5992      5.0229      3.8561      3.0432      2.5177      2.2251      2.1314      2.2251      2.5177    
  3.0432      3.8561      5.0229      6.5992      8.5922      10.916      13.238      14.675      14.346      11.882    
  7.7087      3.0042     -5.1726     -5.1725     -2.0950      3.0045      8.4605      12.667      14.660      14.368    
  12.480      10.040      7.7927      5.9375      4.5174      3.4972      2.8103      2.3918      2.1945      2.1945    
  2.3918      2.8103      3.4972      4.5174      5.9375      7.7927      10.040      12.481      14.368      14.660    
  12.668      8.4604      3.0042     -2.0952     -5.1726     -2.0952      3.0042      8.4604      12.668      14.660    
  14.368      12.481      10.040      7.7927      5.9375      4.5174      3.4972      2.8103      2.3918      2.1945    
  2.1945      2.3918      2.8103      3.4972      4.5174      5.9375      7.7927      10.040      12.480      14.368    
  14.660      12.667      8.4605      3.0045     -2.0950     -5.1725     -2.0952      1.8526      6.9011      11.433    
  14.199      14.731      13.390      11.076      8.7220      6.6976      5.0942      3.9070      3.0797      2.5452    
  2.2477      2.1525      2.2477      2.5452      3.0797      3.9070      5.0942      6.6976      8.7220      11.076    
  13.390      14.731      14.199      11.433      6.9013      1.8530     -2.0949     -3.5869      3.0042      6.9011    
  10.937      13.816      14.804      13.930      11.857      9.4931      7.3710      5.6323      4.3055      3.3526    
  2.7099      2.3174      2.1322      2.1322      2.3174      2.7099      3.3526      4.3055      5.6323      7.3710    
  9.4931      11.857      13.930      14.803      13.816      10.937      6.9013      3.0045     0.61810     0.61800    
  8.4604      11.433      13.816      14.798      14.168      12.331      10.043      7.8996      6.0863      4.6613    
  3.6082      2.8732      2.3965      2.1303      2.0448      2.1303      2.3965      2.8732      3.6082      4.6613    
  6.0863      7.8996      10.043      12.331      14.168      14.798      13.816      11.433      8.4604      6.0222    
  5.0832      6.0222      12.668      14.199      14.804      14.168      12.487      10.328      8.2366      6.4150    
  4.9429      3.8248      3.0207      2.4760      2.1414      1.9828      1.9828      2.1414      2.4760      3.0207    
  3.8248      4.9429      6.4150      8.2366      10.328      12.487      14.168      14.804      14.199      12.667    
  10.927      9.7896      9.7896      10.927      14.660      14.731      13.930      12.331      10.328      8.3523    
  6.5876      5.1236      3.9822      3.1383      2.5461      2.1592      1.9416      1.8714      1.9416      2.1592    
  2.5461      3.1383      3.9822      5.1236      6.5876      8.3523      10.328      12.331      13.930      14.731    
  14.660      14.009      13.294      12.991      13.294      14.009      14.368      13.390      11.857      10.043    
  8.2366      6.5876      5.1859      4.0650      3.2141      2.5983      2.1773      1.9163      1.7916      1.7916    
  1.9163      2.1773      2.5983      3.2141      4.0650      5.1859      6.5876      8.2366      10.043      11.857    
  13.390      14.368      14.757      14.752      14.644      14.644      14.751      14.757      12.481      11.076    
  9.4931      7.8996      6.4150      5.1236      4.0650      3.2402      2.6262      2.1904      1.9023      1.7388    
  1.6858      1.7388      1.9023      2.1904      2.6262      3.2402      4.0650      5.1237      6.4151      7.8996    
  9.4930      11.076      12.480      13.520      14.146      14.440      14.521      14.440      14.146      13.520    
  10.040      8.7220      7.3710      6.0863      4.9429      3.9822      3.2141      2.6262      2.1952      1.8963    
  1.7088      1.6186      1.6186      1.7088      1.8963      2.1952      2.6262      3.2141      3.9822      4.9429    
  6.0864      7.3711      8.7220      10.040      11.220      12.152      12.768      13.066      13.066      12.768    
  12.152      11.220      7.7927      6.6976      5.6323      4.6613      3.8248      3.1383      2.5983      2.1904    
  1.8963      1.6992      1.5861      1.5493      1.5861      1.6992      1.8963      2.1904      2.5983      3.1383    
  3.8248      4.6613      5.6324      6.6977      7.7928      8.8368      9.7459      10.447      10.888      11.038    
  10.888      10.447      9.7460      8.8368      5.9375      5.0942      4.3055      3.6082      3.0207      2.5461    
  2.1773      1.9023      1.7088      1.5861      1.5267      1.5267      1.5861      1.7088      1.9023      2.1773    
  2.5461      3.0207      3.6082      4.3055      5.0942      5.9376      6.7818      7.5624      8.2145      8.6825    
  8.9266      8.9266      8.6825      8.2146      7.5623      6.7817      4.5174      3.9070      3.3526      2.8732    
  2.4760      2.1592      1.9163      1.7388      1.6186      1.5493      1.5267      1.5493      1.6186      1.7388    
  1.9163      2.1592      2.4760      2.8732      3.3525      3.9069      4.5174      5.1519      5.7671      6.3139    
  6.7446      7.0201      7.1148      7.0201      6.7446      6.3139      5.7670      5.1519      3.4972      3.0797    
  2.7099      2.3965      2.1414      1.9416      1.7916      1.6858      1.6186      1.5861      1.5861      1.6186    
  1.6858      1.7916      1.9416      2.1415      2.3966      2.7100      3.0797      3.4972      3.9445      4.3952    
  4.8161      5.1717      5.4295      5.5650      5.5650      5.4295      5.1717      4.8161      4.3953      3.9446    
  2.8103      2.5452      2.3174      2.1303      1.9828      1.8714      1.7916      1.7388      1.7088      1.6992    
  1.7088      1.7388      1.7916      1.8714      1.9827      2.1303      2.3175      2.5453      2.8104      3.1037    
  3.4102      3.7089      3.9759      4.1874      4.3232      4.3700      4.3232      4.1874      3.9759      3.7089    
  3.4102      3.1037      2.3918      2.2477      2.1322      2.0448      1.9828      1.9416      1.9163      1.9023    
  1.8963      1.8963      1.9023      1.9163      1.9416      1.9827      2.0447      2.1321      2.2477      2.3918    
  2.5608      2.7467      2.9372      3.1171      3.2702      3.3818      3.4406      3.4406      3.3819      3.2703    
  3.1171      2.9372      2.7466      2.5607      2.1945      2.1525      2.1322      2.1303      2.1414      2.1592    
  2.1773      2.1904      2.1952      2.1904      2.1773      2.1592      2.1415      2.1303      2.1321      2.1524    
  2.1944      2.2587      2.3420      2.4377      2.5368      2.6287      2.7031      2.7515      2.7683      2.7515    
  2.7031      2.6287      2.5367      2.4376      2.3419      2.2587      2.1945      2.2477      2.3174      2.3965    
  2.4760      2.5461      2.5983      2.6262      2.6262      2.5983      2.5461      2.4760      2.3966      2.3175    
  2.2477      2.1944      2.1619      2.1510      2.1591      2.1814      2.2110      2.2410      2.2650      2.2783    
  2.2783      2.2650      2.2410      2.2110      2.1813      2.1591      2.1510      2.1620      2.3918      2.5452    
  2.7099      2.8732      3.0207      3.1383      3.2141      3.2402      3.2141      3.1383      3.0207      2.8732    
  2.7099      2.5453      2.3918      2.2587      2.1510      2.0698      2.0131      1.9768      1.9558      1.9451    
  1.9405      1.9393      1.9405      1.9451      1.9558      1.9768      2.0131      2.0699      2.1510      2.2587    
  2.8103      3.0797      3.3526      3.6082      3.8248      3.9822      4.0650      4.0650      3.9822      3.8248    
  3.6082      3.3525      3.0797      2.8104      2.5608      2.3420      2.1591      2.0131      1.9014      1.8199    
  1.7641      1.7296      1.7132      1.7132      1.7296      1.7641      1.8200      1.9015      2.0131      2.1591    
  2.3419      2.5607      3.4972      3.9070      4.3055      4.6613      4.9429      5.1236      5.1859      5.1237    
  4.9429      4.6613      4.3055      3.9069      3.4972      3.1037      2.7467      2.4377      2.1814      1.9768    
  1.8199      1.7056      1.6284      1.5841      1.5696      1.5841      1.6284      1.7056      1.8200      1.9768    
  2.1813      2.4376      2.7466      3.1037      4.5174      5.0942      5.6323      6.0863      6.4150      6.5876    
  6.5876      6.4151      6.0864      5.6324      5.0942      4.5174      3.9445      3.4102      2.9372      2.5368    
  2.2110      1.9558      1.7641      1.6284      1.5421      1.5002      1.5002      1.5421      1.6284      1.7641    
  1.9558      2.2110      2.5367      2.9372      3.4102      3.9446      5.9375      6.6976      7.3710      7.8996    
  8.2366      8.3523      8.2366      7.8996      7.3711      6.6977      5.9376      5.1519      4.3952      3.7089    
  3.1171      2.6287      2.2410      1.9451      1.7296      1.5841      1.5002      1.4728      1.5002      1.5841    
  1.7296      1.9451      2.2410      2.6287      3.1171      3.7089      4.3953      5.1519      7.7927      8.7220    
  9.4931      10.043      10.328      10.328      10.043      9.4930      8.7220      7.7928      6.7818      5.7671    
  4.8161      3.9759      3.2702      2.7031      2.2650      1.9405      1.7132      1.5696      1.5002      1.5002    
  1.5696      1.7132      1.9405      2.2650      2.7031      3.2703      3.9759      4.8161      5.7670      6.7817    
  10.040      11.076      11.857      12.331      12.487      12.331      11.857      11.076      10.040      8.8368    
  7.5624      6.3139      5.1717      4.1874      3.3818      2.7515      2.2783      1.9393      1.7132      1.5841    
  1.5421      1.5841      1.7132      1.9393      2.2783      2.7515      3.3819      4.1874      5.1717      6.3139    
  7.5623      8.8368      12.480      13.390      13.930      14.168      14.168      13.930      13.390      12.480    
  11.220      9.7459      8.2145      6.7446      5.4295      4.3232      3.4406      2.7683      2.2783      1.9405    
  1.7296      1.6284      1.6284      1.7296      1.9405      2.2783      2.7683      3.4406      4.3232      5.4295    
  6.7446      8.2145      9.7460      11.220      14.368      14.731      14.804      14.798      14.804      14.731    
  14.368      13.520      12.152      10.447      8.6825      7.0201      5.5650      4.3700      3.4406      2.7515    
  2.2650      1.9451      1.7641      1.7056      1.7641      1.9451      2.2650      2.7515      3.4406      4.3700    
  5.5650      7.0201      8.6825      10.447      12.152      13.520      14.660      14.199      13.816      13.816    
  14.199      14.660      14.757      14.146      12.768      10.888      8.9266      7.1148      5.5650      4.3232    
  3.3819      2.7031      2.2410      1.9558      1.8200      1.8200      1.9558      2.2410      2.7031      3.3819    
  4.3232      5.5650      7.1148      8.9267      10.888      12.768      14.146      14.757      12.667      11.433    
  10.937      11.433      12.667      14.009      14.752      14.440      13.066      11.038      8.9266      7.0201    
  5.4295      4.1874      3.2703      2.6287      2.2110      1.9768      1.9015      1.9768      2.2110      2.6287    
  3.2703      4.1874      5.4295      7.0201      8.9267      11.038      13.066      14.440      14.751      14.009    
  8.4605      6.9014      6.9013      8.4604      10.927      13.294      14.644      14.521      13.066      10.888    
  8.6825      6.7446      5.1717      3.9759      3.1171      2.5367      2.1813      2.0131      2.0131      2.1813    
  2.5367      3.1171      3.9759      5.1717      6.7446      8.6825      10.888      13.066      14.521      14.644    
  13.294      10.927      3.0045      1.8530      3.0045      6.0222      9.7896      12.991      14.644      14.440    
  12.768      10.447      8.2146      6.3139      4.8161      3.7089      2.9372      2.4376      2.1591      2.0699    
  2.1591      2.4376      2.9372      3.7089      4.8161      6.3139      8.2145      10.447      12.768      14.440    
  14.644      12.991      9.7896      6.0222     -2.0950     -2.0949     0.61810      5.0832      9.7896      13.294    
  14.751      14.146      12.152      9.7460      7.5623      5.7670      4.3953      3.4102      2.7466      2.3419    
  2.1510      2.1510      2.3419      2.7466      3.4102      4.3953      5.7670      7.5623      9.7460      12.152    
  14.146      14.751      13.294      9.7896      5.0831     0.61800     -5.1725     -3.5869     0.61799      6.0222    
  10.927      14.009      14.757      13.520      11.220      8.8368      6.7817      5.1519      3.9446      3.1037    
  2.5607      2.2587      2.1620      2.2587      2.5607      3.1037      3.9446      5.1519      6.7817      8.8368    
  11.220      13.520      14.757      14.009      10.927      6.0222     0.61799     -3.5869     -.69439      3.0042    
  7.7087      11.882      14.346      14.675      13.238      10.916      8.5922      6.5992      5.0229      3.8561    
  3.0432      2.5177      2.2251      2.1314      2.2251      2.5177      3.0432      3.8561      5.0229      6.5992    
  8.5922      10.916      13.238      14.675      14.346      11.882      7.7089      3.0045     -.69419     -2.0950    
  3.0042      6.9011      10.937      13.816      14.804      13.930      11.857      9.4931      7.3710      5.6323    
  4.3055      3.3526      2.7099      2.3174      2.1322      2.1322      2.3174      2.7099      3.3526      4.3055    
  5.6323      7.3710      9.4931      11.857      13.930      14.803      13.816      10.937      6.9013      3.0045    
 0.61810     0.61800      7.7087      10.937      13.583      14.778      14.282      12.493      10.191      8.0177    
  6.1750      4.7255      3.6539      2.9062      2.4215      2.1508      2.0640      2.1508      2.4215      2.9062    
  3.6539      4.7255      6.1750      8.0178      10.191      12.493      14.282      14.778      13.583      10.937    
  7.7087      5.0831      4.0753      5.0831      11.882      13.816      14.778      14.384      12.806      10.632    
  8.4830      6.6033      5.0805      3.9232      3.0910      2.5277      2.1822      2.0184      2.0184      2.1822    
  2.5277      3.0910      3.9232      5.0805      6.6033      8.4830      10.632      12.806      14.384      14.778    
  13.816      11.882      9.7894      8.4474      8.4475      9.7896      14.346      14.804      14.282      12.806    
  10.782      8.7262      6.8776      5.3382      4.1364      3.2481      2.6255      2.2194      1.9913      1.9178    
  1.9913      2.2194      2.6255      3.2481      4.1364      5.3382      6.8775      8.7262      10.782      12.806    
  14.282      14.804      14.346      13.294      12.276      11.860      12.276      13.294      14.675      13.930    
  12.493      10.632      8.7262      6.9720      5.4737      4.2734      3.3624      2.7043      2.2552      1.9775    
  1.8450      1.8450      1.9775      2.2552      2.7043      3.3624      4.2734      5.4737      6.9719      8.7261    
  10.632      12.493      13.930      14.675      14.751      14.451      14.165      14.165      14.451      14.751    
  13.238      11.857      10.191      8.4830      6.8776      5.4737      4.3206      3.4226      2.7554      2.2833    
  1.9720      1.7956      1.7386      1.7956      1.9720      2.2833      2.7554      3.4226      4.3206      5.4737    
  6.8776      8.4830      10.191      11.857      13.238      14.146      14.589      14.729      14.749      14.729    
  14.589      14.146      10.916      9.4931      8.0177      6.6033      5.3382      4.2734      3.4226      2.7731    
  2.2986      1.9706      1.7654      1.6669      1.6669      1.7654      1.9706      2.2986      2.7731      3.4226    
  4.2734      5.3383      6.6033      8.0177      9.4930      10.916      12.152      13.065      13.625      13.878    
  13.878      13.625      13.065      12.152      8.5922      7.3710      6.1750      5.0805      4.1364      3.3624    
  2.7554      2.2986      1.9704      1.7512      1.6257      1.5849      1.6257      1.7512      1.9704      2.2986    
  2.7554      3.3624      4.1364      5.0806      6.1751      7.3711      8.5922      9.7459      10.740      11.496    
  11.959      12.113      11.959      11.496      10.740      9.7460      6.5992      5.6323      4.7255      3.9232    
  3.2481      2.7043      2.2833      1.9706      1.7512      1.6123      1.5452      1.5452      1.6123      1.7512    
  1.9706      2.2833      2.7043      3.2481      3.9231      4.7255      5.6324      6.5993      7.5624      8.4474    
  9.1818      9.7055      9.9774      9.9775      9.7055      9.1819      8.4474      7.5623      5.0229      4.3055    
  3.6539      3.0910      2.6255      2.2552      1.9720      1.7654      1.6257      1.5452      1.5189      1.5452    
  1.6257      1.7654      1.9720      2.2553      2.6255      3.0910      3.6538      4.3055      5.0229      5.7671    
  6.4866      7.1236      7.6235      7.9422      8.0516      7.9422      7.6235      7.1236      6.4865      5.7670    
  3.8561      3.3526      2.9062      2.5277      2.2194      1.9775      1.7956      1.6669      1.5849      1.5452    
  1.5452      1.5849      1.6668      1.7956      1.9775      2.2194      2.5278      2.9062      3.3525      3.8561    
  4.3952      4.9378      5.4435      5.8700      6.1787      6.3407      6.3406      6.1786      5.8699      5.4435    
  4.9378      4.3953      3.0432      2.7099      2.4215      2.1822      1.9912      1.8450      1.7386      1.6669    
  1.6257      1.6123      1.6257      1.6668      1.7385      1.8450      1.9912      2.1822      2.4215      2.7100    