unknown system                          
   5.43000000000000     
     0.500000    0.500000    0.000000
     0.000000    0.500000    0.500000
     0.500000    0.000000    0.500000
   Si
     1
Direct
  0.000000  0.000000  0.000000
 
   32   32   32
 -.68580117913E+01 -.51725985368E+01 -.69439180968E+00 0.50880850890E+01 0.10388947098E+02
 0.13808813028E+02 0.14787188626E+02 0.13663926286E+02 0.11382568372E+02 0.89706030333E+01
 0.68834472302E+01 0.52258017576E+01 0.39972351507E+01 0.31415442601E+01 0.25891494578E+01
 0.22820519665E+01 0.21837850884E+01 0.22820519137E+01 0.25891493555E+01 0.31415441135E+01
 0.39972349692E+01 0.52258015656E+01 0.68834470795E+01 0.89706030063E+01 0.11382568564E+02
 0.13663926764E+02 0.14787189366E+02 0.13808813887E+02 0.10388947857E+02 0.50880855760E+01
 -.69439161104E+00 -.51725985022E+01 -.51725975225E+01 -.20952193589E+01 0.30042365175E+01
 0.84603776030E+01 0.12667501404E+02 0.14660274165E+02 0.14367794287E+02 0.12480511126E+02
 0.10040164555E+02 0.77927340900E+01 0.59375368606E+01 0.45174301976E+01 0.34972352732E+01
 0.28103080858E+01 0.23917612193E+01 0.21945261396E+01 0.21945268681E+01 0.23917622479E+01
 0.28103076440E+01 0.34972334083E+01 0.45174288870E+01 0.59375388382E+01 0.77927402560E+01
 0.10040167260E+02 0.12480489655E+02 0.14367729659E+02 0.14660183935E+02 0.12667456623E+02
 0.84604592653E+01 0.30044504671E+01 -.20949825266E+01 -.51724939734E+01 -.69438743943E+00
 0.30042397327E+01 0.77087225903E+01 0.11881861920E+02 0.14345646827E+02 0.14674947193E+02
 0.13238064349E+02 0.10916119211E+02 0.85922047669E+01 0.65991858260E+01 0.50228517135E+01
 0.38561398815E+01 0.30431848111E+01 0.25176667266E+01 0.22250710776E+01 0.21313532829E+01
 0.22250706380E+01 0.25176666721E+01 0.30431852611E+01 0.38561394777E+01 0.50228505110E+01
 0.65991887118E+01 0.85922154458E+01 0.10916124628E+02 0.13238032538E+02 0.14674860562E+02
 0.14345547745E+02 0.11881847654E+02 0.77088630278E+01 0.30044865549E+01 -.69419250443E+00
 -.20949793364E+01 0.50880947155E+01 0.84603850207E+01 0.11881865286E+02 0.14192934531E+02
 0.14760811048E+02 0.13658519566E+02 0.11530147773E+02 0.92149577458E+01 0.71551819905E+01
 0.54733213219E+01 0.41917491038E+01 0.32713547598E+01 0.26502614348E+01 0.22706448947E+01
 0.20912840828E+01 0.20912828735E+01 0.22706432354E+01 0.26502621797E+01 0.32713566398E+01
 0.41917475210E+01 0.54733160313E+01 0.71551815022E+01 0.92149701507E+01 0.11530165071E+02
 0.13658517934E+02 0.14760776254E+02 0.14192887378E+02 0.11881850878E+02 0.84604269559E+01
 0.50881626048E+01 0.30044921510E+01 0.30044591863E+01 0.10388961010E+02 0.12667510859E+02
 0.14345650859E+02 0.14760811494E+02 0.13790065181E+02 0.11842038514E+02 0.96095510203E+01
 0.75562529317E+01 0.58291867050E+01 0.44756613738E+01 0.34759379559E+01 0.27776388858E+01
 0.23241589741E+01 0.20705022011E+01 0.19890232590E+01 0.20705019664E+01 0.23241585323E+01
 0.27776386204E+01 0.34759373812E+01 0.44756576680E+01 0.58291772526E+01 0.75562414255E+01
 0.96095490688E+01 0.11842056610E+02 0.13790099463E+02 0.14760840920E+02 0.14345651198E+02
 0.12667474851E+02 0.10388906896E+02 0.84604344727E+01 0.77088757178E+01 0.84604739845E+01
 0.13808826560E+02 0.14660281100E+02 0.14674948304E+02 0.13658517874E+02 0.11842037079E+02
 0.97445620910E+01 0.77662532631E+01 0.60573175346E+01 0.46817571194E+01 0.36382509390E+01
 0.28871827654E+01 0.23773802254E+01 0.20636807446E+01 0.19146873904E+01 0.19146884415E+01
 0.20636818399E+01 0.23773790119E+01 0.28871815192E+01 0.36382530598E+01 0.46817583761E+01
 0.60573058584E+01 0.77662223658E+01 0.97445250465E+01 0.11842021338E+02 0.13658542199E+02
 0.14675004065E+02 0.14660338473E+02 0.13808860436E+02 0.12667482933E+02 0.11881865527E+02
 0.11881865646E+02 0.12667473885E+02 0.14787196412E+02 0.14367795398E+02 0.13238061304E+02
 0.11530143950E+02 0.96095486420E+01 0.77662525769E+01 0.61358938231E+01 0.47901612450E+01
 0.37426052908E+01 0.29674588566E+01 0.24222393018E+01 0.20650375806E+01 0.18636693254E+01
 0.17986906623E+01 0.18636699986E+01 0.20650377317E+01 0.24222389198E+01 0.29674611279E+01
 0.37426140214E+01 0.47901731756E+01 0.61358935963E+01 0.77662207721E+01 0.96094819357E+01
 0.11530069969E+02 0.13238029262E+02 0.14367843578E+02 0.14787320413E+02 0.14660345450E+02
 0.14345664851E+02 0.14192905088E+02 0.14345565504E+02 0.14660197647E+02 0.13663926547E+02
 0.12480507199E+02 0.10916114143E+02 0.92149539934E+01 0.75562513140E+01 0.60573174201E+01
 0.47901615374E+01 0.37786037083E+01 0.30098889645E+01 0.24520686453E+01 0.20692958964E+01
 0.18313111667E+01 0.17174456456E+01 0.17174454115E+01 0.18313110098E+01 0.20692956447E+01
 0.24520667657E+01 0.30098879415E+01 0.37786138122E+01 0.47901907695E+01 0.60573525209E+01
 0.75562548594E+01 0.92148941026E+01 0.10916005912E+02 0.12480419772E+02 0.13663934122E+02
 0.14367848309E+02 0.14675014204E+02 0.14760854912E+02 0.14760790842E+02 0.14674872061E+02
 0.14367735473E+02 0.11382564050E+02 0.10040159496E+02 0.85922010456E+01 0.71551804492E+01
 0.58291869171E+01 0.46817580656E+01 0.37426061153E+01 0.30098893257E+01 0.24625161175E+01
 0.20724877362E+01 0.18136657928E+01 0.16662938935E+01 0.16184798563E+01 0.16662939907E+01
 0.18136656794E+01 0.20724846867E+01 0.24625063287E+01 0.30098758801E+01 0.37426055280E+01
 0.46817907382E+01 0.58292513379E+01 0.71552377702E+01 0.85921987227E+01 0.10040082132E+02
 0.11382457745E+02 0.12480422082E+02 0.13238034937E+02 0.13658550683E+02 0.13790108639E+02
 0.13658525055E+02 0.13238035540E+02 0.12480488170E+02 0.89705988601E+01 0.77927315027E+01
 0.65991853055E+01 0.54733223866E+01 0.44756630828E+01 0.36382524712E+01 0.29674598148E+01
 0.24520690354E+01 0.20724877899E+01 0.18080945325E+01 0.16416829279E+01 0.15614330814E+01
 0.15614330806E+01 0.16416835533E+01 0.18080962755E+01 0.20724870725E+01 0.24520566253E+01
 0.29674300776E+01 0.36382194537E+01 0.44756610241E+01 0.54733768162E+01 0.65992784679E+01
 0.77928044675E+01 0.89705973910E+01 0.10040082618E+02 0.10916007782E+02 0.11530073280E+02
 0.11842025040E+02 0.11842059041E+02 0.11530164934E+02 0.10916121796E+02 0.10040162883E+02
 0.68834461298E+01 0.59375377077E+01 0.50228538303E+01 0.41917515350E+01 0.34759399462E+01
 0.28871839852E+01 0.24222397982E+01 0.20692959138E+01 0.18136656111E+01 0.16416827721E+01
 0.15428216987E+01 0.15105936714E+01 0.15428210795E+01 0.16416849830E+01 0.18136746884E+01
 0.20693085093E+01 0.24222393543E+01 0.28871509752E+01 0.34758765421E+01 0.41916946023E+01
 0.50228525732E+01 0.59376087703E+01 0.68835498176E+01 0.77928039903E+01 0.85921982749E+01
 0.92148939480E+01 0.96094817464E+01 0.97445240575E+01 0.96095466787E+01 0.92149665062E+01
 0.85922115261E+01 0.77927373682E+01 0.52258036208E+01 0.45174330292E+01 0.38561426868E+01
 0.32713568052E+01 0.27776399113E+01 0.23773803795E+01 0.20650372063E+01 0.18313106004E+01
 0.16662933660E+01 0.15614327119E+01 0.15105934983E+01 0.15105923531E+01 0.15614297677E+01
 0.16662930000E+01 0.18313225542E+01 0.20650665492E+01 0.23774122944E+01 0.27776408757E+01
 0.32713024369E+01 0.38560499306E+01 0.45173587333E+01 0.52258004194E+01 0.59376080402E+01
 0.65992771667E+01 0.71552361208E+01 0.75562528818E+01 0.77662182574E+01 0.77662191748E+01
 0.75562378595E+01 0.71551783763E+01 0.65991869937E+01 0.59375390937E+01 0.39972380120E+01
 0.34972378460E+01 0.30431863779E+01 0.26502617724E+01 0.23241583232E+01 0.20636795800E+01
 0.18636680949E+01 0.17174446183E+01 0.16184791160E+01 0.15614326065E+01 0.15428208223E+01
 0.15614296732E+01 0.16184691850E+01 0.17174305540E+01 0.18636671016E+01 0.20637119511E+01
 0.23242217541E+01 0.26503184937E+01 0.30431865129E+01 0.34971650386E+01 0.39971317487E+01
 0.45173581256E+01 0.50228513342E+01 0.54733750745E+01 0.58292492196E+01 0.60573500660E+01
 0.61358908674E+01 0.60573031513E+01 0.58291751678E+01 0.54733152546E+01 0.50228514152E+01
 0.45174312469E+01 0.31415459756E+01 0.28103086685E+01 0.25176659819E+01 0.22706431216E+01
 0.20704999873E+01 0.19146853092E+01 0.17986890529E+01 0.17174443368E+01 0.16662933413E+01
 0.16416831843E+01 0.16416847901E+01 0.16662929197E+01 0.17174305360E+01 0.17986573709E+01
 0.19146520750E+01 0.20704991783E+01 0.22706978882E+01 0.25177577714E+01 0.28103806478E+01
 0.31415468541E+01 0.34971646529E+01 0.38560490865E+01 0.41916933665E+01 0.44756595321E+01
 0.46817891095E+01 0.47901891114E+01 0.47901716796E+01 0.46817573858E+01 0.44756575885E+01
 0.41917485772E+01 0.38561414856E+01 0.34972357510E+01 0.25891487344E+01 0.23917592297E+01
 0.22250681607E+01 0.20912808764E+01 0.19890204065E+01 0.19146863386E+01 0.18636687087E+01
 0.18313103563E+01 0.18136654111E+01 0.18080961922E+01 0.18136746774E+01 0.18313225648E+01
 0.18636671105E+01 0.19146520744E+01 0.19889559840E+01 0.20912233968E+01 0.22250670485E+01
 0.23918310544E+01 0.25892542728E+01 0.28103804472E+01 0.30431860484E+01 0.32713017459E+01
 0.34758757403E+01 0.36382186712E+01 0.37426048681E+01 0.37786133695E+01 0.37426139223E+01
 0.36382534470E+01 0.34759383073E+01 0.32713579303E+01 0.30431864686E+01 0.28103081752E+01
 0.22820488554E+01 0.21945223627E+01 0.21313494844E+01 0.20912796706E+01 0.20704997241E+01
 0.20636805927E+01 0.20650372637E+01 0.20692956455E+01 0.20724848840E+01 0.20724872912E+01
 0.20693086665E+01 0.20650666244E+01 0.20637119593E+01 0.20704991531E+01 0.20912233750E+01
 0.21312560596E+01 0.21944492391E+01 0.22820475427E+01 0.23918309749E+01 0.25177575630E+01
 0.26503181739E+01 0.27776405288E+01 0.28871507131E+01 0.29674299917E+01 0.30098760185E+01
 0.30098883119E+01 0.29674616985E+01 0.28871821860E+01 0.27776391567E+01 0.26502622278E+01
 0.25176658348E+01 0.23917602701E+01 0.21837809850E+01 0.21945230884E+01 0.22250677118E+01
 0.22706414025E+01 0.23241577189E+01 0.23773789409E+01 0.24222392619E+01 0.24520672466E+01
 0.24625067669E+01 0.24520569252E+01 0.24222394884E+01 0.23774122888E+01 0.23242216712E+01
 0.22706977997E+01 0.22250670028E+01 0.21944492382E+01 0.21836736308E+01 0.21944492377E+01
 0.22250669957E+01 0.22706977786E+01 0.23242216332E+01 0.23774122387E+01 0.24222394364E+01
 0.24520568811E+01 0.24625067357E+01 0.24520672266E+01 0.24222392481E+01 0.23773789287E+01
 0.23241577067E+01 0.22706413913E+01 0.22250677035E+01 0.21945230841E+01 0.22820488034E+01
 0.23917602256E+01 0.25176658000E+01 0.26502622033E+01 0.27776391423E+01 0.28871821821E+01
 0.29674617078E+01 0.30098883389E+01 0.30098760667E+01 0.29674300599E+01 0.28871507938E+01
 0.27776406113E+01 0.26503182496E+01 0.25177576297E+01 0.23918310363E+01 0.22820476037E+01
 0.21944493003E+01 0.21312561153E+01 0.20912234159E+01 0.20704991720E+01 0.20637119557E+01
 0.20650666048E+01 0.20693086406E+01 0.20724872660E+01 0.20724848611E+01 0.20692956213E+01
 0.20650372332E+01 0.20636805530E+01 0.20704996754E+01 0.20912796158E+01 0.21313494270E+01
 0.21945223063E+01 0.25891486340E+01 0.28103080874E+01 0.30431863977E+01 0.32713578790E+01
 0.34759382766E+01 0.36382534378E+01 0.37426139368E+01 0.37786134106E+01 0.37426049370E+01
 0.36382187645E+01 0.34758758499E+01 0.32713018626E+01 0.30431861658E+01 0.28103805642E+01
 0.25892543911E+01 0.23918311739E+01 0.22250671643E+01 0.20912234995E+01 0.19889560641E+01
 0.19146521266E+01 0.18636671364E+01 0.18313225706E+01 0.18136746700E+01 0.18080961747E+01
 0.18136653825E+01 0.18313103130E+01 0.18636686477E+01 0.19146862598E+01 0.19890203128E+01
 0.20912807724E+01 0.22250680521E+01 0.23917591222E+01 0.31415458319E+01 0.34972356270E+01
 0.38561413885E+01 0.41917485110E+01 0.44756575540E+01 0.46817573817E+01 0.47901717055E+01
 0.47901891679E+01 0.46817891968E+01 0.44756596473E+01 0.41916935036E+01 0.38560492386E+01
 0.34971648146E+01 0.31415470222E+01 0.28103808192E+01 0.25177579405E+01 0.22706980460E+01
 0.20704993150E+01 0.19146521831E+01 0.17986574475E+01 0.17174305826E+01 0.16662929399E+01
 0.16416847866E+01 0.16416831575E+01 0.16662932895E+01 0.17174442587E+01 0.17986889491E+01
 0.19146851831E+01 0.20704998441E+01 0.22706429677E+01 0.25176658238E+01 0.28103085135E+01
 0.39972378348E+01 0.45174311015E+01 0.50228513106E+01 0.54733151925E+01 0.58291751437E+01
 0.60573031582E+01 0.61358909014E+01 0.60573501279E+01 0.58292493127E+01 0.54733752010E+01
 0.50228514924E+01 0.45173583101E+01 0.39971319521E+01 0.34971652518E+01 0.30431867261E+01
 0.26503186967E+01 0.23242219371E+01 0.20637121067E+01 0.18636672247E+01 0.17174306426E+01
 0.16184692383E+01 0.15614296909E+01 0.15428208037E+01 0.15614325513E+01 0.16184790249E+01
 0.17174444940E+01 0.18636679420E+01 0.20636794045E+01 0.23241581316E+01 0.26502615712E+01
 0.30431861743E+01 0.34972376496E+01 0.52258034349E+01 0.59375389591E+01 0.65991869141E+01
 0.71551783426E+01 0.75562378547E+01 0.77662191840E+01 0.77662182763E+01 0.75562529184E+01
 0.71552361898E+01 0.65992772809E+01 0.59376082036E+01 0.52258006256E+01 0.45173589676E+01
 0.38560501749E+01 0.32713026743E+01 0.27776410938E+01 0.23774124855E+01 0.20650667088E+01
 0.18313226787E+01 0.16662930858E+01 0.15614298105E+01 0.15105923494E+01 0.15105934468E+01
 0.15614326144E+01 0.16662932272E+01 0.18313104272E+01 0.20650370056E+01 0.23773801580E+01
 0.27776396749E+01 0.32713565610E+01 0.38561424456E+01 0.45174328066E+01 0.68834459877E+01
 0.77927372994E+01 0.85922115151E+01 0.92149665200E+01 0.96095466823E+01 0.97445240310E+01
 0.96094816956E+01 0.92148939015E+01 0.85921982700E+01 0.77928040559E+01 0.68835499620E+01
 0.59376089801E+01 0.50228528211E+01 0.41916948590E+01 0.34758767849E+01 0.28871511917E+01
 0.24222395397E+01 0.20693086609E+01 0.18136748019E+01 0.16416850516E+01 0.15428210959E+01
 0.15105936316E+01 0.15428216036E+01 0.16416826277E+01 0.18136654260E+01 0.20692956965E+01
 0.24222395556E+01 0.28871837228E+01 0.34759396711E+01 0.41917512596E+01 0.50228535752E+01
 0.59375374984E+01 0.89705988449E+01 0.10040162950E+02 0.10916121890E+02 0.11530164988E+02
 0.11842059004E+02 0.11842024900E+02 0.11530073073E+02 0.10916007575E+02 0.10040082481E+02
 0.89705973701E+01 0.77928045683E+01 0.65992786624E+01 0.54733770601E+01 0.44756612762E+01
 0.36382196877E+01 0.29674302820E+01 0.24520567970E+01 0.20724872083E+01 0.18080963683E+01
 0.16416835935E+01 0.15614330605E+01 0.15614329994E+01 0.16416827890E+01 0.18080943464E+01
 0.20724875665E+01 0.24520687821E+01 0.29674595367E+01 0.36382521756E+01 0.44756627848E+01
 0.54733221134E+01 0.65991850930E+01 0.77927313831E+01 0.11382564258E+02 0.12480488428E+02
 0.13238035740E+02 0.13658525096E+02 0.13790108469E+02 0.13658550325E+02 0.13238034482E+02
 0.12480421650E+02 0.11382457439E+02 0.10040082005E+02 0.85921987678E+01 0.71552379382E+01
 0.58292515663E+01 0.46817909761E+01 0.37426057467E+01 0.30098760688E+01 0.24625064835E+01
 0.20724848017E+01 0.18136657447E+01 0.16662939960E+01 0.16184797965E+01 0.16662937714E+01
 0.18136656174E+01 0.20724875181E+01 0.24625158647E+01 0.30098890432E+01 0.37426058103E+01
 0.46817577557E+01 0.58291866371E+01 0.71551802488E+01 0.85922009738E+01 0.10040159576E+02
 0.13663927044E+02 0.14367735924E+02 0.14674872305E+02 0.14760790769E+02 0.14760854504E+02
 0.14675013548E+02 0.14367847561E+02 0.13663933452E+02 0.12480419303E+02 0.10916005691E+02
 0.92148940996E+01 0.75562550021E+01 0.60573527315E+01 0.47901909911E+01 0.37786140153E+01
 0.30098881142E+01 0.24520669015E+01 0.20692957347E+01 0.18313110429E+01 0.17174453797E+01
 0.17174455485E+01 0.18313110114E+01 0.20692956934E+01 0.24520684031E+01 0.30098886883E+01
 0.37786034046E+01 0.47901612248E+01 0.60573171397E+01 0.75562511299E+01 0.92149539764E+01
 0.10916114338E+02 0.12480507590E+02 0.14787197172E+02 0.14660198201E+02 0.14345565674E+02
 0.14192904799E+02 0.14345664153E+02 0.14660344500E+02 0.14787319420E+02 0.14367842736E+02
 0.13238028691E+02 0.11530069696E+02 0.96094819075E+01 0.77662208989E+01 0.61358937925E+01
 0.47901733829E+01 0.37426142097E+01 0.29674612833E+01 0.24222390327E+01 0.20650377917E+01
 0.18636699964E+01 0.17986905942E+01 0.18636691957E+01 0.20650373990E+01 0.24222390772E+01
 0.29674585944E+01 0.37426049969E+01 0.47901609372E+01 0.61358935448E+01 0.77662524031E+01
 0.96095486646E+01 0.11530144241E+02 0.13238061871E+02 0.14367796150E+02 0.13808827437E+02
 0.12667474381E+02 0.11881865632E+02 0.11881865000E+02 0.12667482010E+02 0.13808859311E+02
 0.14660337368E+02 0.14675003165E+02 0.13658541609E+02 0.11842021063E+02 0.97445250185E+01
 0.77662224878E+01 0.60573060445E+01 0.46817585700E+01 0.36382532313E+01 0.28871816526E+01
 0.23773790962E+01 0.20636818658E+01 0.19146884033E+01 0.19146872892E+01 0.20636805879E+01
 0.23773800223E+01 0.28871825222E+01 0.36382506610E+01 0.46817568221E+01 0.60573172595E+01
 0.77662530883E+01 0.97445621230E+01 0.11842037417E+02 0.13658518553E+02 0.14674949253E+02
 0.14660282135E+02 0.10388961781E+02 0.84604742802E+01 0.77088755045E+01 0.84604338125E+01
 0.10388905918E+02 0.12667473733E+02 0.14345650132E+02 0.14760840072E+02 0.13790098921E+02
 0.11842056371E+02 0.96095490584E+01 0.75562415501E+01 0.58291774311E+01 0.44756578473E+01
 0.34759375320E+01 0.27776387270E+01 0.23241585848E+01 0.20705019579E+01 0.19890231881E+01
 0.20705020727E+01 0.23241587963E+01 0.27776386657E+01 0.34759376988E+01 0.44756610922E+01
 0.58291864350E+01 0.75562527468E+01 0.96095510304E+01 0.11842038834E+02 0.13790065876E+02
 0.14760812521E+02 0.14345652047E+02 0.12667511958E+02 0.50880952090E+01 0.30044592601E+01
 0.30044918494E+01 0.50881619876E+01 0.84604260980E+01 0.11881849899E+02 0.14192886438E+02
 0.14760775509E+02 0.13658517470E+02 0.11530164883E+02 0.92149701673E+01 0.71551816343E+01
 0.54733162037E+01 0.41917476846E+01 0.32713567681E+01 0.26502622594E+01 0.22706432588E+01
 0.20912828370E+01 0.20912839881E+01 0.22706447482E+01 0.26502612437E+01 0.32713545296E+01
 0.41917488443E+01 0.54733210618E+01 0.71551817933E+01 0.92149577137E+01 0.11530148026E+02
 0.13658520188E+02 0.14760812027E+02 0.14192935718E+02 0.11881866442E+02 0.84603859136E+01
 -.69438723904E+00 -.20949793787E+01 -.69419274808E+00 0.30044860916E+01 0.77088623374E+01
 0.11881846816E+02 0.14345546921E+02 0.14674859915E+02 0.13238032155E+02 0.10916124498E+02
 0.85922154973E+01 0.65991888574E+01 0.50228506808E+01 0.38561396284E+01 0.30431853712E+01
 0.25176667317E+01 0.22250706422E+01 0.21313532302E+01 0.22250709712E+01 0.25176665729E+01
 0.30431846158E+01 0.38561396523E+01 0.50228514712E+01 0.65991856209E+01 0.85922046871E+01
 0.10916119370E+02 0.13238064842E+02 0.14674948033E+02 0.14345647900E+02 0.11881863002E+02
 0.77087234529E+01 0.30042402553E+01 -.51725974881E+01 -.51724940100E+01 -.20949826768E+01
 0.30044500942E+01 0.84604586285E+01 0.12667455823E+02 0.14660183166E+02 0.14367729090E+02
 0.12480489357E+02 0.10040167201E+02 0.77927403527E+01 0.59375390046E+01 0.45174290601E+01
 0.34972335531E+01 0.28103077453E+01 0.23917622993E+01 0.21945268659E+01 0.21945260833E+01
 0.23917611126E+01 0.28103079339E+01 0.34972350824E+01 0.45174299822E+01 0.59375366570E+01
 0.77927339685E+01 0.10040164616E+02 0.12480511467E+02 0.14367794950E+02 0.14660275074E+02
 0.12667502365E+02 0.84603783859E+01 0.30042369882E+01 -.20952191703E+01 -.51725979566E+01
 -.20952202252E+01 0.30042352745E+01 0.84603761823E+01 0.12667500093E+02 0.14660273205E+02
 0.14367793758E+02 0.12480510937E+02 0.10040164533E+02 0.77927340893E+01 0.59375368170E+01
 0.45174301172E+01 0.34972351911E+01 0.28103080292E+01 0.23917611931E+01 0.21945261318E+01
 0.21945268643E+01 0.23917622404E+01 0.28103076310E+01 0.34972333875E+01 0.45174288541E+01
 0.59375387981E+01 0.77927402426E+01 0.10040167349E+02 0.12480489944E+02 0.14367730214E+02
 0.14660184729E+02 0.12667457523E+02 0.84604600917E+01 0.30044510726E+01 -.20949822213E+01
 -.51724940124E+01 -.20952184519E+01 0.18526334679E+01 0.69011167039E+01 0.11432912873E+02
 0.14199000553E+02 0.14731269260E+02 0.13389638145E+02 0.11076040265E+02 0.87220281706E+01
 0.66976021936E+01 0.50942405788E+01 0.39069580191E+01 0.30797433724E+01 0.25452128477E+01
 0.22477298691E+01 0.21524739753E+01 0.22477294969E+01 0.25452128352E+01 0.30797433980E+01
 0.39069565445E+01 0.50942390575E+01 0.66976078096E+01 0.87220432546E+01 0.11076042491E+02
 0.13389583333E+02 0.14731140577E+02 0.14198866601E+02 0.11432911600E+02 0.69013381225E+01
 0.18529995369E+01 -.20949348982E+01 -.35868846158E+01 0.30042410088E+01 0.69011202731E+01
 0.10937436720E+02 0.13816275891E+02 0.14803596821E+02 0.13930292719E+02 0.11857435707E+02
 0.94930980914E+01 0.73709921911E+01 0.56323142613E+01 0.43055369332E+01 0.33525580164E+01
 0.27098877276E+01 0.23174446429E+01 0.21321676759E+01 0.21321664164E+01 0.23174429810E+01
 0.27098885370E+01 0.33525595859E+01 0.43055351127E+01 0.56323120670E+01 0.73710016303E+01
 0.94931218783E+01 0.11857446186E+02 0.13930246145E+02 0.14803488876E+02 0.13816180537E+02
 0.10937461515E+02 0.69012972131E+01 0.30044652141E+01 0.61809945080E+00 0.61799725944E+00
 0.84603865151E+01 0.11432919603E+02 0.13816278282E+02 0.14797532602E+02 0.14168335195E+02
 0.12330630032E+02 0.10042868326E+02 0.78995758211E+01 0.60863008632E+01 0.46613327851E+01
 0.36082294613E+01 0.28732065663E+01 0.23965391712E+01 0.21302799860E+01 0.20448257548E+01
 0.21302795578E+01 0.23965390224E+01 0.28732071162E+01 0.36082289887E+01 0.46613285790E+01
 0.60862956239E+01 0.78995809403E+01 0.10042893097E+02 0.12330664095E+02 0.14168348864E+02
 0.14797504051E+02 0.13816219780E+02 0.11432868216E+02 0.84603662505E+01 0.60222222125E+01
 0.50832091656E+01 0.60222212934E+01 0.12667512267E+02 0.14199007106E+02 0.14803598363E+02
 0.14168334571E+02 0.12487378593E+02 0.10328354206E+02 0.82366079629E+01 0.64150417150E+01
 0.49428735253E+01 0.38248161285E+01 0.30207430831E+01 0.24759605124E+01 0.21414163358E+01
 0.19827694585E+01 0.19827703962E+01 0.21414174049E+01 0.24759596973E+01 0.30207416005E+01
 0.38248148519E+01 0.49428682530E+01 0.64150285803E+01 0.82365952933E+01 0.10328362262E+02
 0.12487419232E+02 0.14168389828E+02 0.14803625204E+02 0.14198970880E+02 0.12667420219E+02
 0.10926613291E+02 0.97895829525E+01 0.97896241536E+01 0.10926710214E+02 0.14660282132E+02
 0.14731271691E+02 0.13930290929E+02 0.12330627359E+02 0.10328352827E+02 0.83523319244E+01
 0.65876403587E+01 0.51236133447E+01 0.39821744829E+01 0.31383092294E+01 0.25461116855E+01
 0.21591792714E+01 0.19415554663E+01 0.18714248732E+01 0.19415557418E+01 0.21591788318E+01
 0.25461111017E+01 0.31383110600E+01 0.39821786756E+01 0.51236124553E+01 0.65876236103E+01
 0.83522987042E+01 0.10328321511E+02 0.12330624309E+02 0.13930325285E+02 0.14731322557E+02
 0.14660316257E+02 0.14009316186E+02 0.13293692850E+02 0.12990929728E+02 0.13293702599E+02
 0.14009312360E+02 0.14367795936E+02 0.13389635356E+02 0.11857431132E+02 0.10042864743E+02
 0.82366063831E+01 0.65876401481E+01 0.51859167395E+01 0.40649825678E+01 0.32140730971E+01
 0.25983345557E+01 0.21772530717E+01 0.19162572427E+01 0.17916471816E+01 0.17916467011E+01
 0.19162564833E+01 0.21772529416E+01 0.25983357011E+01 0.32140780518E+01 0.40649948022E+01
 0.51859323754E+01 0.65876418501E+01 0.82365738664E+01 0.10042798358E+02 0.11857363829E+02
 0.13389614383E+02 0.14367846289E+02 0.14756964385E+02 0.14751512828E+02 0.14643926071E+02
 0.14643885635E+02 0.14751414214E+02 0.14756862659E+02 0.12480507326E+02 0.11076034906E+02
 0.94930936062E+01 0.78995735341E+01 0.64150413860E+01 0.51236138950E+01 0.40649830298E+01
 0.32402352165E+01 0.26261667401E+01 0.21903986293E+01 0.19023263210E+01 0.17387691185E+01
 0.16857848983E+01 0.17387697686E+01 0.19023266401E+01 0.21903963528E+01 0.26261614610E+01
 0.32402339224E+01 0.40649989039E+01 0.51236522028E+01 0.64150832106E+01 0.78995799940E+01
 0.94930382244E+01 0.11075937793E+02 0.12480430808E+02 0.13519514004E+02 0.14145629687E+02
 0.14440277439E+02 0.14520733146E+02 0.14440212687E+02 0.14145564931E+02 0.13519516151E+02
 0.10040159404E+02 0.87220241445E+01 0.73709903592E+01 0.60863010636E+01 0.49428748031E+01
 0.39821758336E+01 0.32140739574E+01 0.26261670482E+01 0.21951801292E+01 0.18963000752E+01
 0.17088295646E+01 0.16186174788E+01 0.16186180513E+01 0.17088306947E+01 0.18962995489E+01
 0.21951737412E+01 0.26261516953E+01 0.32140558252E+01 0.39821751417E+01 0.49429130761E+01
 0.60863740041E+01 0.73710557691E+01 0.87220296405E+01 0.10040090271E+02 0.11219579665E+02
 0.12152061267E+02 0.12768158255E+02 0.13066459222E+02 0.13066468439E+02 0.12768198352E+02
 0.12152145495E+02 0.11219684291E+02 0.77927313662E+01 0.66976016328E+01 0.56323155099E+01
 0.46613349162E+01 0.38248182114E+01 0.31383107119E+01 0.25983353249E+01 0.21903988638E+01
 0.18963000616E+01 0.16991650945E+01 0.15861196602E+01 0.15493100792E+01 0.15861188218E+01
 0.16991664409E+01 0.18963045871E+01 0.21903992000E+01 0.25983176779E+01 0.31382706390E+01
 0.38247770285E+01 0.46613324226E+01 0.56323752104E+01 0.66976998993E+01 0.77928065610E+01
 0.88368104352E+01 0.97459215720E+01 0.10447352343E+02 0.10888348611E+02 0.11038447104E+02
 0.10888427040E+02 0.10447465057E+02 0.97460026782E+01 0.88368116920E+01 0.59375376193E+01
 0.50942429058E+01 0.43055397907E+01 0.36082319624E+01 0.30207447585E+01 0.25461124983E+01
 0.21772532462E+01 0.19023261537E+01 0.17088293102E+01 0.15861194920E+01 0.15266858084E+01
 0.15266846484E+01 0.15861183637E+01 0.17088342607E+01 0.19023414388E+01 0.21772715025E+01
 0.25461117867E+01 0.30207043550E+01 0.36081587519E+01 0.43054767805E+01 0.50942409133E+01
 0.59376090972E+01 0.67817573325E+01 0.75623825320E+01 0.82145404533E+01 0.86824872488E+01
 0.89266029817E+01 0.89266303017E+01 0.86825377475E+01 0.82145510947E+01 0.75623216022E+01
 0.67816570714E+01 0.45174330001E+01 0.39069611204E+01 0.33525604567E+01 0.28732079242E+01
 0.24759608474E+01 0.21591789277E+01 0.19162566063E+01 0.17387684665E+01 0.16186169537E+01
 0.15493097348E+01 0.15266844922E+01 0.15493076679E+01 0.16186123059E+01 0.17387677200E+01
 0.19162733321E+01 0.21592179204E+01 0.24760009591E+01 0.28732092849E+01 0.33524998488E+01
 0.39068631445E+01 0.45173590413E+01 0.51518696615E+01 0.57671052957E+01 0.63139319800E+01
 0.67446474081E+01 0.70200754106E+01 0.71148009503E+01 0.70200532777E+01 0.67445914195E+01
 0.63138500752E+01 0.57670409529E+01 0.51518715538E+01 0.34972378456E+01 0.30797451602E+01
 0.27098882562E+01 0.23965385650E+01 0.21414150593E+01 0.19415540367E+01 0.17916459480E+01
 0.16857839835E+01 0.16186174285E+01 0.15861184255E+01 0.15861181460E+01 0.16186122265E+01
 0.16857679198E+01 0.17916257124E+01 0.19415529765E+01 0.21414551675E+01 0.23966120637E+01
 0.27099502464E+01 0.30797450070E+01 0.34971651550E+01 0.39445242758E+01 0.43952451272E+01
 0.48161359524E+01 0.51717196352E+01 0.54295280361E+01 0.55649964891E+01 0.55649719892E+01
 0.54294695768E+01 0.51716672630E+01 0.48161346942E+01 0.43953116166E+01 0.39446255822E+01
 0.28103086645E+01 0.25452121724E+01 0.23174428263E+01 0.21302775774E+01 0.19827670914E+01
 0.18714229860E+01 0.17916454235E+01 0.17387689944E+01 0.17088302411E+01 0.16991661704E+01
 0.17088341087E+01 0.17387676557E+01 0.17916257001E+01 0.18713819796E+01 0.19827265968E+01
 0.21302764222E+01 0.23175028009E+01 0.25453084039E+01 0.28103808404E+01 0.31037471614E+01
 0.34101605535E+01 0.37088683929E+01 0.39758912894E+01 0.41873772460E+01 0.43232079381E+01
 0.43700310757E+01 0.43231930248E+01 0.41873782870E+01 0.39759367389E+01 0.37089485477E+01
 0.34102256187E+01 0.31037463846E+01 0.23917592095E+01 0.22477268899E+01 0.21321642837E+01
 0.20448226275E+01 0.19827680185E+01 0.19415542556E+01 0.19162557329E+01 0.19023263409E+01
 0.18962994517E+01 0.18963045531E+01 0.19023414228E+01 0.19162733288E+01 0.19415529814E+01
 0.19827266009E+01 0.20447480832E+01 0.21321009262E+01 0.22477257010E+01 0.23918311251E+01
 0.25608162917E+01 0.27466635825E+01 0.29371573045E+01 0.31170838337E+01 0.32702448509E+01
 0.33818340668E+01 0.34406383593E+01 0.34406461080E+01 0.33818623519E+01 0.32702944043E+01
 0.31171297547E+01 0.29371574144E+01 0.27465977634E+01 0.25607155036E+01 0.21945223330E+01
 0.21524700694E+01 0.21321630400E+01 0.21302771393E+01 0.21414160393E+01 0.21591783226E+01
 0.21772529533E+01 0.21903965693E+01 0.21951739577E+01 0.21903993325E+01 0.21772715496E+01
 0.21592179156E+01 0.21414551472E+01 0.21302764108E+01 0.21321009298E+01 0.21523721728E+01
 0.21944493048E+01 0.22586914288E+01 0.23419593263E+01 0.24377175367E+01 0.25367939929E+01
 0.26286788631E+01 0.27030930675E+01 0.27515001048E+01 0.27682932113E+01 0.27515191552E+01
 0.27031155371E+01 0.26286772539E+01 0.25367473689E+01 0.24376377725E+01 0.23418949514E+01
 0.22586926625E+01 0.21945230640E+01 0.22477265177E+01 0.23174411160E+01 0.23965382299E+01
 0.24759596896E+01 0.25461115076E+01 0.25983362031E+01 0.26261618579E+01 0.26261519014E+01
 0.25983176946E+01 0.25461116713E+01 0.24760007956E+01 0.23966119322E+01 0.23175027484E+01
 0.22477257234E+01 0.21944493511E+01 0.21619193671E+01 0.21509682817E+01 0.21591435756E+01
 0.21813785409E+01 0.22110253313E+01 0.22410293652E+01 0.22650408015E+01 0.22783137828E+01
 0.22783168129E+01 0.22650397503E+01 0.22410052925E+01 0.22109756096E+01 0.21813318763E+01
 0.21591441090E+01 0.21510355912E+01 0.21620218069E+01 0.23917602192E+01 0.25452120270E+01
 0.27098887134E+01 0.28732078344E+01 0.30207424159E+01 0.31383116739E+01 0.32140783410E+01
 0.32402338862E+01 0.32140555226E+01 0.31382701607E+01 0.30207038197E+01 0.28732088245E+01
 0.27099499656E+01 0.25453083352E+01 0.23918312154E+01 0.22586915729E+01 0.21509683790E+01
 0.20697857542E+01 0.20130966864E+01 0.19767829361E+01 0.19557834548E+01 0.19450840493E+01
 0.19405085930E+01 0.19393023433E+01 0.19405008457E+01 0.19450651114E+01 0.19557615053E+01
 0.19767836693E+01 0.20131428812E+01 0.20698665725E+01 0.21510348099E+01 0.22586926174E+01
 0.28103081072E+01 0.30797447222E+01 0.33525611166E+01 0.36082301439E+01 0.38248153216E+01
 0.39821784527E+01 0.40649940622E+01 0.40649978540E+01 0.39821739482E+01 0.38247758349E+01
 0.36081577155E+01 0.33524991232E+01 0.30797446744E+01 0.28103808601E+01 0.25608165203E+01
 0.23419595961E+01 0.21591437720E+01 0.20130967749E+01 0.19014000456E+01 0.18199414231E+01
 0.17640966609E+01 0.17296083388E+01 0.17132371119E+01 0.17132332845E+01 0.17296008255E+01
 0.17640979096E+01 0.18199668299E+01 0.19014503470E+01 0.20131438776E+01 0.21591442942E+01