   1   1   0   0
  0.4002575E+02  0.3839590E-09  0.3839590E-09  0.3839590E-09  0.5000000E-15
  1.000000000000000E-004
  CAR 
 unknown system                          
     18.89729076     -9.58706642  301      1.24672625      1.00000000
     -9.587  0.0000E+00  0.0000E+00
     -9.492  0.0000E+00  0.0000E+00
     -9.397  0.0000E+00  0.0000E+00
     -9.302  0.0000E+00  0.0000E+00
     -9.207  0.0000E+00  0.0000E+00
     -9.112  0.0000E+00  0.0000E+00
     -9.017  0.0000E+00  0.0000E+00
     -8.922  0.0000E+00  0.0000E+00
     -8.827  0.0000E+00  0.0000E+00
     -8.733  0.0000E+00  0.0000E+00
     -8.638  0.0000E+00  0.0000E+00
     -8.543  0.0000E+00  0.0000E+00
     -8.448  0.0000E+00  0.0000E+00
     -8.353  0.0000E+00  0.0000E+00
     -8.258  0.9752E-01  0.9259E-02
     -8.163  0.0000E+00  0.9259E-02
     -8.068  0.0000E+00  0.9259E-02
     -7.973  0.2550E-05  0.9260E-02
     -7.878  0.7802E+00  0.8333E-01
     -7.783  0.5851E+00  0.1389E+00
     -7.688  0.0000E+00  0.1389E+00
     -7.593  0.0000E+00  0.1389E+00
     -7.498  0.0000E+00  0.1389E+00
     -7.403  0.1280E-01  0.1401E+00
     -7.308  0.1157E+01  0.2500E+00
     -7.213  0.0000E+00  0.2500E+00
     -7.118  0.7995E-10  0.2500E+00
     -7.023  0.2350E+01  0.4731E+00
     -6.929  0.7711E+00  0.5463E+00
     -6.834  0.0000E+00  0.5463E+00
     -6.739  0.0000E+00  0.5463E+00
     -6.644  0.0000E+00  0.5463E+00
     -6.549  0.5715E+00  0.6006E+00
     -6.454  0.4855E-06  0.6019E+00
     -6.359  0.2340E+01  0.8241E+00
     -6.264  0.2607E+01  0.1072E+01
     -6.169  0.2641E+00  0.1108E+01
     -6.074  0.0000E+00  0.1306E+01
     -5.979  0.0000E+00  0.1306E+01
     -5.884  0.0000E+00  0.1306E+01
     -5.789  0.2299E+01  0.1524E+01
     -5.694  0.3510E+01  0.1861E+01
     -5.599  0.1624E-15  0.1861E+01
     -5.504  0.3999E+00  0.1899E+01
     -5.409  0.0000E+00  0.2000E+01
     -5.314  0.0000E+00  0.2000E+01
     -5.219  0.0000E+00  0.2000E+01
     -5.125  0.0000E+00  0.2000E+01
     -5.030  0.0000E+00  0.2000E+01
     -4.935  0.0000E+00  0.2000E+01
     -4.840  0.0000E+00  0.2000E+01
     -4.745  0.0000E+00  0.2000E+01
     -4.650  0.0000E+00  0.2000E+01
     -4.555  0.0000E+00  0.2000E+01
     -4.460  0.0000E+00  0.2000E+01
     -4.365  0.0000E+00  0.2000E+01
     -4.270  0.0000E+00  0.2000E+01
     -4.175  0.0000E+00  0.2000E+01
     -4.080  0.0000E+00  0.2000E+01
     -3.985  0.0000E+00  0.2000E+01
     -3.890  0.0000E+00  0.2000E+01
     -3.795  0.0000E+00  0.2000E+01
     -3.700  0.0000E+00  0.2000E+01
     -3.605  0.0000E+00  0.2000E+01
     -3.510  0.0000E+00  0.2000E+01
     -3.415  0.0000E+00  0.2000E+01
     -3.321  0.0000E+00  0.2000E+01
     -3.226  0.0000E+00  0.2000E+01
     -3.131  0.0000E+00  0.2000E+01
     -3.036  0.0000E+00  0.2000E+01
     -2.941  0.0000E+00  0.2000E+01
     -2.846  0.0000E+00  0.2000E+01
     -2.751  0.0000E+00  0.2000E+01
     -2.656  0.0000E+00  0.2000E+01
     -2.561  0.0000E+00  0.2000E+01
     -2.466  0.0000E+00  0.2000E+01
     -2.371  0.0000E+00  0.2000E+01
     -2.276  0.0000E+00  0.2000E+01
     -2.181  0.0000E+00  0.2000E+01
     -2.086  0.0000E+00  0.2000E+01
     -1.991  0.0000E+00  0.2000E+01
     -1.896  0.0000E+00  0.2000E+01
     -1.801  0.0000E+00  0.2000E+01
     -1.706  0.0000E+00  0.2000E+01
     -1.611  0.0000E+00  0.2000E+01
     -1.516  0.3897E+00  0.2037E+01
     -1.422  0.0000E+00  0.2037E+01
     -1.327  0.0000E+00  0.2037E+01
     -1.232  0.0000E+00  0.2037E+01
     -1.137  0.0000E+00  0.2037E+01
     -1.042  0.2078E-06  0.2037E+01
     -0.947  0.2630E+01  0.2287E+01
     -0.852  0.0000E+00  0.2287E+01
     -0.757  0.0000E+00  0.2287E+01
     -0.662  0.0000E+00  0.2287E+01
     -0.567  0.0000E+00  0.2287E+01
     -0.472  0.2349E+01  0.2510E+01
     -0.377  0.4806E+01  0.2966E+01
     -0.282  0.0000E+00  0.3065E+01
     -0.187  0.0000E+00  0.3065E+01
     -0.092  0.3791E-10  0.3065E+01
      0.003  0.7802E+00  0.3139E+01
      0.098  0.1170E+01  0.3250E+01
      0.193  0.2350E+01  0.3473E+01
      0.288  0.1161E+01  0.3583E+01
      0.382  0.0000E+00  0.3583E+01
      0.477  0.0000E+00  0.3583E+01
      0.572  0.5753E+00  0.3638E+01
      0.667  0.0000E+00  0.3639E+01
      0.762  0.0000E+00  0.3639E+01
      0.857  0.0000E+00  0.3639E+01
      0.952  0.1896E+01  0.3819E+01
      1.047  0.0000E+00  0.3861E+01
      1.142  0.0000E+00  0.3861E+01
      1.237  0.3392E+00  0.3893E+01
      1.332  0.0000E+00  0.4083E+01
      1.427  0.0000E+00  0.4083E+01
      1.522  0.0000E+00  0.4083E+01
      1.617  0.1016E+01  0.4180E+01
      1.712  0.0000E+00  0.4194E+01
      1.807  0.0000E+00  0.4194E+01
      1.902  0.1429E-14  0.4194E+01
      1.997  0.1433E+01  0.4330E+01
      2.092  0.2133E+00  0.4548E+01
      2.186  0.1413E-09  0.4750E+01
      2.281  0.1170E+01  0.4861E+01
      2.376  0.0000E+00  0.4861E+01
      2.471  0.0000E+00  0.4861E+01
      2.566  0.0000E+00  0.4861E+01
      2.661  0.0000E+00  0.4861E+01
      2.756  0.2332E+01  0.5083E+01
      2.851  0.0000E+00  0.5083E+01
      2.946  0.4294E-04  0.5083E+01
      3.041  0.5005E+01  0.5559E+01
      3.136  0.0000E+00  0.5583E+01
      3.231  0.4194E-02  0.5584E+01
      3.326  0.3116E+01  0.5880E+01
      3.421  0.2337E+01  0.6101E+01
      3.516  0.2423E+01  0.6332E+01
      3.611  0.0000E+00  0.6380E+01
      3.706  0.1167E+01  0.6490E+01
      3.801  0.1220E+01  0.6607E+01
      3.896  0.0000E+00  0.6713E+01
      3.990  0.4058E+01  0.7098E+01
      4.085  0.0000E+00  0.7157E+01
      4.180  0.0000E+00  0.7157E+01
      4.275  0.0000E+00  0.7157E+01
      4.370  0.1426E-04  0.7157E+01
      4.465  0.3594E+01  0.7499E+01
      4.560  0.7505E-13  0.7565E+01
      4.655  0.1560E+01  0.7713E+01
      4.750  0.0000E+00  0.7713E+01
      4.845  0.0000E+00  0.7713E+01
      4.940  0.1157E+01  0.7823E+01
      5.035  0.1549E+01  0.7972E+01
      5.130  0.1700E-11  0.7972E+01
      5.225  0.2926E+00  0.8000E+01
      5.320  0.0000E+00  0.8000E+01
      5.415  0.0000E+00  0.8000E+01
      5.510  0.0000E+00  0.8000E+01
      5.605  0.0000E+00  0.8000E+01
      5.700  0.0000E+00  0.8000E+01
      5.794  0.0000E+00  0.8000E+01
      5.889  0.0000E+00  0.8000E+01
      5.984  0.0000E+00  0.8000E+01
      6.079  0.0000E+00  0.8000E+01
      6.174  0.0000E+00  0.8000E+01
      6.269  0.0000E+00  0.8000E+01
      6.364  0.0000E+00  0.8000E+01
      6.459  0.0000E+00  0.8000E+01
      6.554  0.0000E+00  0.8000E+01
      6.649  0.0000E+00  0.8000E+01
      6.744  0.2072E-09  0.8000E+01
      6.839  0.2926E+00  0.8028E+01
      6.934  0.0000E+00  0.8028E+01
      7.029  0.0000E+00  0.8028E+01
      7.124  0.0000E+00  0.8028E+01
      7.219  0.0000E+00  0.8028E+01
      7.314  0.0000E+00  0.8028E+01
      7.409  0.1568E+00  0.8043E+01
      7.504  0.1021E+01  0.8153E+01
      7.598  0.0000E+00  0.8278E+01
      7.693  0.0000E+00  0.8278E+01
      7.788  0.0000E+00  0.8278E+01
      7.883  0.5098E+00  0.8326E+01
      7.978  0.5850E+00  0.8389E+01
      8.073  0.1032E-05  0.8389E+01
      8.168  0.1170E+01  0.8500E+01
      8.263  0.0000E+00  0.8500E+01
      8.358  0.0000E+00  0.8500E+01
      8.453  0.0000E+00  0.8500E+01
      8.548  0.0000E+00  0.8500E+01
      8.643  0.1145E+01  0.8609E+01
      8.738  0.3897E+00  0.8648E+01
      8.833  0.1834E-01  0.8650E+01
      8.928  0.2322E+01  0.8870E+01
      9.023  0.7802E+00  0.8944E+01
      9.118  0.4676E+01  0.9388E+01
      9.213  0.0000E+00  0.9389E+01
      9.308  0.3028E+00  0.9418E+01
      9.403  0.2340E+01  0.9833E+01
      9.497  0.2354E+01  0.1006E+02
      9.592  0.1170E+01  0.1022E+02
      9.687  0.0000E+00  0.1022E+02
      9.782  0.0000E+00  0.1022E+02
      9.877  0.7764E+00  0.1030E+02
      9.972  0.1246E+01  0.1041E+02
     10.067  0.0000E+00  0.1053E+02
     10.162  0.0000E+00  0.1053E+02
     10.257  0.2340E+01  0.1075E+02
     10.352  0.0000E+00  0.1075E+02
     10.447  0.0000E+00  0.1075E+02
     10.542  0.1229E-05  0.1075E+02
     10.637  0.7439E+01  0.1146E+02
     10.732  0.1120E+01  0.1176E+02
     10.827  0.0000E+00  0.1177E+02
     10.922  0.0000E+00  0.1177E+02
     11.017  0.1545E+01  0.1192E+02
     11.112  0.2926E+00  0.1194E+02
     11.207  0.0000E+00  0.1194E+02
     11.301  0.0000E+00  0.1194E+02
     11.396  0.0000E+00  0.1194E+02
     11.491  0.1598E+01  0.1210E+02
     11.586  0.2340E+01  0.1254E+02
     11.681  0.1429E-13  0.1254E+02
     11.776  0.3423E+01  0.1286E+02
     11.871  0.1950E+01  0.1306E+02
     11.966  0.0000E+00  0.1306E+02
     12.061  0.2209E+01  0.1327E+02
     12.156  0.1170E+01  0.1339E+02
     12.251  0.0000E+00  0.1339E+02
     12.346  0.1258E-01  0.1339E+02
     12.441  0.3498E+01  0.1372E+02
     12.536  0.3513E-07  0.1372E+02
     12.631  0.2340E+01  0.1394E+02
     12.726  0.0000E+00  0.1394E+02
     12.821  0.0000E+00  0.1394E+02
     12.916  0.0000E+00  0.1394E+02
     13.011  0.0000E+00  0.1394E+02
     13.105  0.6535E-05  0.1394E+02
     13.200  0.3511E+01  0.1428E+02
     13.295  0.6071E+00  0.1434E+02
     13.390  0.2730E+01  0.1465E+02
     13.485  0.1969E-02  0.1465E+02
     13.580  0.3523E+01  0.1498E+02
     13.675  0.3917E-13  0.1506E+02
     13.770  0.1170E+01  0.1517E+02
     13.865  0.0000E+00  0.1517E+02
     13.960  0.0000E+00  0.1517E+02
     14.055  0.0000E+00  0.1517E+02
     14.150  0.0000E+00  0.1517E+02
     14.245  0.0000E+00  0.1517E+02
     14.340  0.0000E+00  0.1517E+02
     14.435  0.1352E-04  0.1517E+02
     14.530  0.4681E+01  0.1561E+02
     14.625  0.2340E+01  0.1583E+02
     14.720  0.0000E+00  0.1583E+02
     14.815  0.0000E+00  0.1583E+02
     14.909  0.0000E+00  0.1583E+02
     15.004  0.8245E+00  0.1591E+02
     15.099  0.0000E+00  0.1594E+02
     15.194  0.0000E+00  0.1594E+02
     15.289  0.0000E+00  0.1594E+02
     15.384  0.0000E+00  0.1594E+02
     15.479  0.0000E+00  0.1594E+02
     15.574  0.0000E+00  0.1594E+02
     15.669  0.0000E+00  0.1594E+02
     15.764  0.0000E+00  0.1594E+02
     15.859  0.0000E+00  0.1594E+02
     15.954  0.0000E+00  0.1594E+02
     16.049  0.0000E+00  0.1594E+02
     16.144  0.0000E+00  0.1594E+02
     16.239  0.0000E+00  0.1594E+02
     16.334  0.0000E+00  0.1594E+02
     16.429  0.0000E+00  0.1594E+02
     16.524  0.0000E+00  0.1594E+02
     16.619  0.0000E+00  0.1594E+02
     16.713  0.0000E+00  0.1594E+02
     16.808  0.1127E-10  0.1594E+02
     16.903  0.2926E+00  0.1597E+02
     16.998  0.0000E+00  0.1597E+02
     17.093  0.0000E+00  0.1597E+02
     17.188  0.0000E+00  0.1597E+02
     17.283  0.0000E+00  0.1597E+02
     17.378  0.0000E+00  0.1597E+02
     17.473  0.0000E+00  0.1597E+02
     17.568  0.1530E-06  0.1597E+02
     17.663  0.2926E+00  0.1600E+02
     17.758  0.0000E+00  0.1600E+02
     17.853  0.0000E+00  0.1600E+02
     17.948  0.0000E+00  0.1600E+02
     18.043  0.0000E+00  0.1600E+02
     18.138  0.0000E+00  0.1600E+02
     18.233  0.0000E+00  0.1600E+02
     18.328  0.0000E+00  0.1600E+02
     18.423  0.0000E+00  0.1600E+02
     18.517  0.0000E+00  0.1600E+02
     18.612  0.0000E+00  0.1600E+02
     18.707  0.0000E+00  0.1600E+02
     18.802  0.0000E+00  0.1600E+02
     18.897  0.0000E+00  0.1600E+02
