    1    1    1    1
  0.4002575E+02  0.3839590E-09  0.3839590E-09  0.3839590E-09  0.5000000E-15
  1.000000000000000E-004
  CAR 
 unknown system                          
      4     16      8
 
  0.0000000E+00  0.0000000E+00  0.0000000E+00  0.4629630E-02
      1         -8.292323   1.000000
      2          5.177826   0.000000
      3          5.177828   0.000000
      4          5.177828   0.000000
      5          9.919537   0.000000
      6         11.065381   0.000000
      7         11.065388   0.000000
      8         11.065388   0.000000
 
  0.1666667E+00 -0.2078186E-17 -0.2078186E-17  0.3703704E-01
      1         -7.941075   1.000000
      2          3.248962   0.000000
      3          4.957132   0.000000
      4          4.957134   0.000000
      5          9.858922   0.000000
      6         11.482543   0.000000
      7         11.482565   0.000000
      8         11.812095   0.000000
 
  0.3333333E+00 -0.3087111E-16 -0.3115538E-17  0.3703704E-01
      1         -7.007436   1.000000
      2         -0.046522   1.000000
      3          4.612815   0.000000
      4          4.612817   0.000000
      5          8.971552   0.000000
      6         11.000063   0.000000
      7         11.000098   0.000000
      8         13.595092   0.000000
 
  0.5000000E+00 -0.2352975E-16  0.3198140E-16  0.1851852E-01
      1         -6.288113   1.000000
      2         -1.538631   1.000000
      3          4.473991   0.000000
      4          4.473993   0.000000
      5          8.664984   0.000000
      6         10.593205   0.000000
      7         10.593236   0.000000
      8         13.366982   0.000000
 
  0.1666667E+00  0.1666667E+00  0.3163886E-17  0.2777778E-01
      1         -7.823572   1.000000
      2          3.523334   0.000000
      3          4.417201   0.000000
      4          4.417202   0.000000
      5          9.511533   0.000000
      6         10.600531   0.000000
      7         12.362146   0.000000
      8         12.362150   0.000000
 
  0.3333333E+00  0.1666667E+00  0.3420887E-17  0.1111111E+00
      1         -7.072288   1.000000
      2          0.945939   1.000000
      3          3.800204   0.000000
      4          3.981623   0.000000
      5          9.077482   0.000000
      6         10.227621   0.000000
      7         12.049813   0.000000
      8         12.574967   0.000000
 
  0.5000000E+00  0.1666667E+00  0.1572356E-16  0.1111111E+00
      1         -6.160377   1.000000
      2         -1.004839   1.000000
      3          3.032386   0.000000
      4          3.983472   0.000000
      5          8.849905   0.000000
      6         10.576401   0.000000
      7         11.763620   0.000000
      8         13.353199   0.000000
 
 -0.3333333E+00  0.1666667E+00  0.2352975E-16  0.1111111E+00
      1         -6.417993   1.000000
      2         -0.497996   1.000000
      3          2.737043   0.000000
      4          4.401199   0.000000
      5          9.468266   0.000000
      6         10.609827   0.000000
      7         11.500955   0.000000
      8         13.507474   0.000000
 
 -0.1666667E+00  0.1666667E+00  0.4156372E-17  0.5555556E-01
      1         -7.387055   1.000000
      2          1.957587   0.000000
      3          3.401508   0.000000
      4          4.925618   0.000000
      5         10.617500   0.000000
      6         10.719654   0.000000
      7         11.828655   0.000000
      8         12.092537   0.000000
 
  0.3333333E+00  0.3333333E+00  0.2207906E-16  0.2777778E-01
      1         -6.562816   1.000000
      2          0.557315   1.000000
      3          3.366414   0.000000
      4          3.366415   0.000000
      5          7.875331   0.000000
      6          7.952526   0.000000
      7         15.000624   0.000000
      8         15.000629   0.000000
 
  0.5000000E+00  0.3333333E+00  0.2121915E-16  0.1111111E+00
      1         -5.803999   1.000000
      2         -0.422381   1.000000
      3          2.005164   0.000000
      4          3.259713   0.000000
      5          7.504680   0.000000
      6          9.097372   0.000000
      7         14.465754   0.000000
      8         14.502204   0.000000
 
 -0.3333333E+00  0.3333333E+00  0.6231076E-17  0.5555556E-01
      1         -5.719799   1.000000
      2          0.038904   1.000000
      3          0.209596   1.000000
      4          3.685989   0.000000
      5          8.107025   0.000000
      6         11.735168   0.000000
      7         13.136536   0.000000
      8         13.295034   0.000000
 
  0.5000000E+00  0.5000000E+00  0.2524295E-16  0.1388889E-01
      1         -5.542624   1.000000
      2         -0.962805   1.000000
      3          2.972895   0.000000
      4          2.972896   0.000000
      5          6.786771   0.000000
      6          7.407965   0.000000
      7         16.854445   0.000000
      8         17.602547   0.000000
 
  0.5000000E+00  0.3333333E+00  0.1666667E+00  0.1111111E+00
      1         -6.275333   1.000000
      2          0.130927   1.000000
      3          2.100951   0.000000
      4          3.489145   0.000000
      5          9.353552   0.000000
      6          9.972353   0.000000
      7         11.556379   0.000000
      8         14.573308   0.000000
 
 -0.3333333E+00  0.3333333E+00  0.1666667E+00  0.1111111E+00
      1         -5.719969   1.000000
      2         -0.453159   1.000000
      3          1.244473   0.625000
      4          3.010968   0.000000
      5          9.315542   0.000000
      6         10.646020   0.000000
      7         12.377116   0.000000
      8         13.159638   0.000000
 
 -0.3333333E+00  0.5000000E+00  0.1666667E+00  0.5555556E-01
      1         -5.494901   1.000000
      2         -0.368612   1.000000
      3          1.608880   0.000000
      4          2.231244   0.000000
      5          8.628624   0.000000
      6          9.555204   0.000000
      7         13.535732   0.000000
      8         13.728147   0.000000
