 vasp.6.3.0 20Jan22 (build Feb 01 2022 16:52:37) complex                        
  
 executed on           TETRA_NSC1 date 2022.02.23  16:18:10
 running    4 mpi-ranks, with    1 threads/rank
 distrk:  each k-point on    4 cores,    1 groups
 distr:  one band on NCORE=   1 cores,    4 groups


--------------------------------------------------------------------------------------------------------


 INCAR:
   LHFCALC = .TRUE.
   GGA = B3
   AEXX = 0.2
   AGGAX = 0.72
   AGGAC = 0.81
   ALDAC = 0.19
   ALGO = D
   TIME = 0.4
   ISMEAR = 0
   SIGMA = 0.01
   GGA = PE

 POTCAR:    PAW_PBE Si 05Jan2001                  
 POTCAR:    PAW_PBE Si 05Jan2001                  
   VRHFIN =Si: s2p2                                                                                 
   LEXCH  = PE                                                                                      
   EATOM  =   103.0669 eV,    7.5752 Ry                                                             
                                                                                                    
   TITEL  = PAW_PBE Si 05Jan2001                                                                    
   LULTRA =        F    use ultrasoft PP ?                                                          
   IUNSCR =        1    unscreen: 0-lin 1-nonlin 2-no                                               
   RPACOR =    1.500    partial core radius                                                         
   POMASS =   28.085; ZVAL   =    4.000    mass and valenz                                          
   RCORE  =    1.900    outmost cutoff radius                                                       
   RWIGS  =    2.480; RWIGS  =    1.312    wigner-seitz radius (au A)                               
   ENMAX  =  245.345; ENMIN  =  184.009 eV                                                          
   ICORE  =        2    local potential                                                             
   LCOR   =        T    correct aug charges                                                         
   LPAW   =        T    paw PP                                                                      
   EAUG   =  322.069                                                                                
   DEXC   =    0.000                                                                                
   RMAX   =    1.950    core radius for proj-oper                                                   
   RAUG   =    1.300    factor for augmentation sphere                                              
   RDEP   =    1.993    radius for radial grids                                                     
   RDEPT  =    1.837    core radius for aug-charge                                                  
                                                                                                    
   Atomic configuration                                                                             
    6 entries                                                                                       
     n  l   j            E        occ.                                                              
     1  0  0.50     -1785.8828   2.0000                                                             
     2  0  0.50      -139.4969   2.0000                                                             
     2  1  1.50       -95.5546   6.0000                                                             
     3  0  0.50       -10.8127   2.0000                                                             
     3  1  0.50        -4.0811   2.0000                                                             
     3  2  1.50        -4.0817   0.0000                                                             
   Description                                                                                      
     l       E           TYP  RCUT    TYP  RCUT                                                     
     0    -10.8127223     23  1.900                                                                 
     0     -7.6451159     23  1.900                                                                 
     1     -4.0811372     23  1.900                                                                 
     1      2.4879257     23  1.900                                                                 
     2     -4.0817478      7  1.900                                                                 
  local pseudopotential read in
  partial core-charges read in
  partial kinetic energy density read in
  atomic valenz-charges read in
  non local Contribution for L=           0  read in
    real space projection operators read in
  non local Contribution for L=           0  read in
    real space projection operators read in
  non local Contribution for L=           1  read in
    real space projection operators read in
  non local Contribution for L=           1  read in
    real space projection operators read in
    PAW grid and wavefunctions read in
 
   number of l-projection  operators is LMAX  =           4
   number of lm-projection operators is LMMAX =           8
 
 -----------------------------------------------------------------------------
|                                                                             |
|               ----> ADVICE to this user running VASP <----                  |
|                                                                             |
|     You enforced a specific xc type in the INCAR file but a different       |
|     type was found in the POTCAR file.                                      |
|     I HOPE YOU KNOW WHAT YOU ARE DOING!                                     |
|                                                                             |
 -----------------------------------------------------------------------------

  PAW_PBE Si 05Jan2001                  :
 energy of atom  1       EATOM= -103.0669
 kinetic energy error for atom=    0.0056 (will be added to EATOM!!)
 
 
 POSCAR: System: Si
  positions in cartesian coordinates
  velocities in direct lattice
  No initial velocities read in
 exchange correlation table for  LEXCH =       11
   RHO(1)=    0.500       N(1)  =     2000
   RHO(2)=  100.500       N(2)  =     4000
 


--------------------------------------------------------------------------------------------------------


 ion  position               nearest neighbor table
   1  0.000  0.000  0.000-
 
  LATTYP: Found a face centered cubic cell.
 ALAT       =     5.4300000000
  
  Lattice vectors:
  
 A1 = (   2.7150000000,   2.7150000000,   0.0000000000)
 A2 = (   0.0000000000,   2.7150000000,   2.7150000000)
 A3 = (   2.7150000000,   0.0000000000,   2.7150000000)


Analysis of symmetry for initial positions (statically):
=====================================================================
 Subroutine PRICEL returns:
 Original cell was already a primitive cell.
 

 Routine SETGRP: Setting up the symmetry group for a 
 face centered cubic supercell.


 Subroutine GETGRP returns: Found 48 space group operations
 (whereof 48 operations were pure point group operations)
 out of a pool of 48 trial point group operations.


The static configuration has the point symmetry O_h .


Analysis of symmetry for dynamics (positions and initial velocities):
=====================================================================
 Subroutine PRICEL returns:
 Original cell was already a primitive cell.
 

 Routine SETGRP: Setting up the symmetry group for a 
 face centered cubic supercell.


 Subroutine GETGRP returns: Found 48 space group operations
 (whereof 48 operations were pure point group operations)
 out of a pool of 48 trial point group operations.


The dynamic configuration has the point symmetry O_h .


 Subroutine INISYM returns: Found 48 space group operations
 (whereof 48 operations are pure point group operations),
 and found     1 'primitive' translations


----------------------------------------------------------------------------------------

                                     Primitive cell                                     

  volume of cell :      40.0258

  direct lattice vectors                    reciprocal lattice vectors
     2.715000000  2.715000000  0.000000000     0.184162063  0.184162063 -0.184162063
     0.000000000  2.715000000  2.715000000    -0.184162063  0.184162063  0.184162063
     2.715000000  0.000000000  2.715000000     0.184162063 -0.184162063  0.184162063

  length of vectors
     3.839589822  3.839589822  3.839589822     0.318978049  0.318978049  0.318978049

  position of ions in fractional coordinates (direct lattice)
     0.000000000  0.000000000  0.000000000

  ion indices of the primitive-cell ions
   primitive index   ion index
                 1           1

----------------------------------------------------------------------------------------

 
 
 KPOINTS: k-points                                

Automatic generation of k-mesh.
 Grid dimensions read from file:
 generate k-points for:    6    6    6

 Generating k-lattice:

  Cartesian coordinates                     Fractional coordinates (reciprocal lattice)
     0.030693677  0.030693677 -0.030693677     0.166666667  0.000000000  0.000000000
    -0.030693677  0.030693677  0.030693677     0.000000000  0.166666667 -0.000000000
     0.030693677 -0.030693677  0.030693677    -0.000000000 -0.000000000  0.166666667

  Length of vectors
     0.053163008  0.053163008  0.053163008

  Shift w.r.t. Gamma in fractional coordinates (k-lattice)
     0.000000000  0.000000000  0.000000000

 
 Subroutine IBZKPT returns following result:
 ===========================================
 
 Found     16 irreducible k-points:
 
 Following reciprocal coordinates:
            Coordinates               Weight
  0.000000  0.000000  0.000000      1.000000
  0.166667 -0.000000 -0.000000      8.000000
  0.333333 -0.000000 -0.000000      8.000000
  0.500000 -0.000000  0.000000      4.000000
  0.166667  0.166667  0.000000      6.000000
  0.333333  0.166667  0.000000     24.000000
  0.500000  0.166667  0.000000     24.000000
 -0.333333  0.166667  0.000000     24.000000
 -0.166667  0.166667  0.000000     12.000000
  0.333333  0.333333  0.000000      6.000000
  0.500000  0.333333  0.000000     24.000000
 -0.333333  0.333333  0.000000     12.000000
  0.500000  0.500000  0.000000      3.000000
  0.500000  0.333333  0.166667     24.000000
 -0.333333  0.333333  0.166667     24.000000
 -0.333333  0.500000  0.166667     12.000000
 
 Following cartesian coordinates:
            Coordinates               Weight
  0.000000  0.000000  0.000000      1.000000
  0.166667  0.166667 -0.166667      8.000000
  0.333333  0.333333 -0.333333      8.000000
  0.500000  0.500000 -0.500000      4.000000
  0.000000  0.333333 -0.000000      6.000000
  0.166667  0.500000 -0.166667     24.000000
  0.333333  0.666667 -0.333333     24.000000
 -0.500000 -0.166667  0.500000     24.000000
 -0.333333 -0.000000  0.333333     12.000000
  0.000000  0.666667  0.000000      6.000000
  0.166667  0.833333 -0.166667     24.000000
 -0.666667 -0.000000  0.666667     12.000000
  0.000000  1.000000  0.000000      3.000000
  0.333333  0.666667 -0.000000     24.000000
 -0.500000 -0.166667  0.833333     24.000000
 -0.666667 -0.000000  1.000000     12.000000
 
 
 Subroutine IBZKPT_HF returns following result:
 ==============================================
 
 Found    216 k-points in 1st BZ
 the following    216 k-points will be used (e.g. in the exchange kernel)
 Following reciprocal coordinates:   # in IRBZ
  0.000000  0.000000  0.000000    0.00462963   1 t-inv F
  0.166667 -0.000000 -0.000000    0.00462963   2 t-inv F
  0.333333 -0.000000 -0.000000    0.00462963   3 t-inv F
  0.500000 -0.000000  0.000000    0.00462963   4 t-inv F
  0.166667  0.166667  0.000000    0.00462963   5 t-inv F
  0.333333  0.166667  0.000000    0.00462963   6 t-inv F
  0.500000  0.166667  0.000000    0.00462963   7 t-inv F
 -0.333333  0.166667  0.000000    0.00462963   8 t-inv F
 -0.166667  0.166667  0.000000    0.00462963   9 t-inv F
  0.333333  0.333333  0.000000    0.00462963  10 t-inv F
  0.500000  0.333333  0.000000    0.00462963  11 t-inv F
 -0.333333  0.333333  0.000000    0.00462963  12 t-inv F
  0.500000  0.500000  0.000000    0.00462963  13 t-inv F
  0.500000  0.333333  0.166667    0.00462963  14 t-inv F
 -0.333333  0.333333  0.166667    0.00462963  15 t-inv F
 -0.333333  0.500000  0.166667    0.00462963  16 t-inv F
 -0.166667  0.000000  0.000000    0.00462963   2 t-inv F
 -0.000000  0.166667 -0.000000    0.00462963   2 t-inv F
  0.000000 -0.166667  0.000000    0.00462963   2 t-inv F
 -0.000000 -0.000000  0.166667    0.00462963   2 t-inv F
  0.000000  0.000000 -0.166667    0.00462963   2 t-inv F
  0.166667  0.166667  0.166667    0.00462963   2 t-inv F
 -0.166667 -0.166667 -0.166667    0.00462963   2 t-inv F
 -0.333333  0.000000  0.000000    0.00462963   3 t-inv F
 -0.000000  0.333333 -0.000000    0.00462963   3 t-inv F
  0.000000 -0.333333  0.000000    0.00462963   3 t-inv F
 -0.000000 -0.000000  0.333333    0.00462963   3 t-inv F
  0.000000  0.000000 -0.333333    0.00462963   3 t-inv F
  0.333333  0.333333  0.333333    0.00462963   3 t-inv F
 -0.333333 -0.333333 -0.333333    0.00462963   3 t-inv F
  0.000000  0.500000 -0.000000    0.00462963   4 t-inv F
 -0.000000  0.000000  0.500000    0.00462963   4 t-inv F
  0.500000  0.500000  0.500000    0.00462963   4 t-inv F
 -0.166667 -0.166667 -0.000000    0.00462963   5 t-inv F
  0.000000  0.166667  0.166667    0.00462963   5 t-inv F
 -0.000000 -0.166667 -0.166667    0.00462963   5 t-inv F
  0.166667  0.000000  0.166667    0.00462963   5 t-inv F
 -0.166667 -0.000000 -0.166667    0.00462963   5 t-inv F
 -0.333333 -0.166667 -0.000000    0.00462963   6 t-inv F
  0.000000  0.333333  0.166667    0.00462963   6 t-inv F
 -0.000000 -0.333333 -0.166667    0.00462963   6 t-inv F
  0.166667  0.000000  0.333333    0.00462963   6 t-inv F
 -0.166667 -0.000000 -0.333333    0.00462963   6 t-inv F
  0.166667  0.166667 -0.166667    0.00462963   6 t-inv F
 -0.166667 -0.166667  0.166667    0.00462963   6 t-inv F
  0.333333  0.166667  0.333333    0.00462963   6 t-inv F
 -0.333333 -0.166667 -0.333333    0.00462963   6 t-inv F
  0.166667  0.333333 -0.000000    0.00462963   6 t-inv F
 -0.166667 -0.333333  0.000000    0.00462963   6 t-inv F
  0.166667 -0.166667 -0.166667    0.00462963   6 t-inv F
 -0.166667  0.166667  0.166667    0.00462963   6 t-inv F
  0.333333  0.333333  0.166667    0.00462963   6 t-inv F
 -0.333333 -0.333333 -0.166667    0.00462963   6 t-inv F
 -0.000000  0.166667  0.333333    0.00462963   6 t-inv F
  0.000000 -0.166667 -0.333333    0.00462963   6 t-inv F
 -0.166667  0.166667 -0.166667    0.00462963   6 t-inv F
  0.166667 -0.166667  0.166667    0.00462963   6 t-inv F
  0.166667  0.333333  0.333333    0.00462963   6 t-inv F
 -0.166667 -0.333333 -0.333333    0.00462963   6 t-inv F
  0.333333 -0.000000  0.166667    0.00462963   6 t-inv F
 -0.333333  0.000000 -0.166667    0.00462963   6 t-inv F
 -0.500000 -0.166667 -0.000000    0.00462963   7 t-inv F
  0.000000  0.500000  0.166667    0.00462963   7 t-inv F
 -0.000000 -0.500000 -0.166667    0.00462963   7 t-inv F
  0.166667  0.000000  0.500000    0.00462963   7 t-inv F
 -0.166667 -0.000000 -0.500000    0.00462963   7 t-inv F
  0.166667  0.166667 -0.333333    0.00462963   7 t-inv F
 -0.166667 -0.166667  0.333333    0.00462963   7 t-inv F
  0.500000  0.333333  0.500000    0.00462963   7 t-inv F
 -0.500000 -0.333333 -0.500000    0.00462963   7 t-inv F
  0.166667  0.500000 -0.000000    0.00462963   7 t-inv F
 -0.166667 -0.500000  0.000000    0.00462963   7 t-inv F
  0.333333 -0.166667 -0.166667    0.00462963   7 t-inv F
 -0.333333  0.166667  0.166667    0.00462963   7 t-inv F
  0.500000  0.500000  0.333333    0.00462963   7 t-inv F
 -0.500000 -0.500000 -0.333333    0.00462963   7 t-inv F
 -0.000000  0.166667  0.500000    0.00462963   7 t-inv F
  0.000000 -0.166667 -0.500000    0.00462963   7 t-inv F
 -0.166667  0.333333 -0.166667    0.00462963   7 t-inv F
  0.166667 -0.333333  0.166667    0.00462963   7 t-inv F
  0.333333  0.500000  0.500000    0.00462963   7 t-inv F
 -0.333333 -0.500000 -0.500000    0.00462963   7 t-inv F
  0.500000 -0.000000  0.166667    0.00462963   7 t-inv F
 -0.500000  0.000000 -0.166667    0.00462963   7 t-inv F
  0.333333 -0.166667 -0.000000    0.00462963   8 t-inv F
  0.000000 -0.333333  0.166667    0.00462963   8 t-inv F
 -0.000000  0.333333 -0.166667    0.00462963   8 t-inv F
  0.166667  0.000000 -0.333333    0.00462963   8 t-inv F
 -0.166667 -0.000000  0.333333    0.00462963   8 t-inv F
  0.166667  0.166667  0.500000    0.00462963   8 t-inv F
 -0.166667 -0.166667 -0.500000    0.00462963   8 t-inv F
 -0.333333 -0.500000 -0.333333    0.00462963   8 t-inv F
  0.333333  0.500000  0.333333    0.00462963   8 t-inv F
  0.166667 -0.333333 -0.000000    0.00462963   8 t-inv F
 -0.166667  0.333333  0.000000    0.00462963   8 t-inv F
 -0.500000 -0.166667 -0.166667    0.00462963   8 t-inv F
  0.500000  0.166667  0.166667    0.00462963   8 t-inv F
 -0.333333 -0.333333 -0.500000    0.00462963   8 t-inv F
  0.333333  0.333333  0.500000    0.00462963   8 t-inv F
 -0.000000  0.166667 -0.333333    0.00462963   8 t-inv F
  0.000000 -0.166667  0.333333    0.00462963   8 t-inv F
 -0.166667 -0.500000 -0.166667    0.00462963   8 t-inv F
  0.166667  0.500000  0.166667    0.00462963   8 t-inv F
 -0.500000 -0.333333 -0.333333    0.00462963   8 t-inv F
  0.500000  0.333333  0.333333    0.00462963   8 t-inv F
 -0.333333 -0.000000  0.166667    0.00462963   8 t-inv F
  0.333333  0.000000 -0.166667    0.00462963   8 t-inv F
  0.166667 -0.166667 -0.000000    0.00462963   9 t-inv F
  0.000000 -0.166667  0.166667    0.00462963   9 t-inv F
 -0.000000  0.166667 -0.166667    0.00462963   9 t-inv F
  0.166667  0.000000 -0.166667    0.00462963   9 t-inv F
 -0.166667 -0.000000  0.166667    0.00462963   9 t-inv F
  0.166667  0.166667  0.333333    0.00462963   9 t-inv F
 -0.166667 -0.166667 -0.333333    0.00462963   9 t-inv F
 -0.166667 -0.333333 -0.166667    0.00462963   9 t-inv F
  0.166667  0.333333  0.166667    0.00462963   9 t-inv F
 -0.333333 -0.166667 -0.166667    0.00462963   9 t-inv F
  0.333333  0.166667  0.166667    0.00462963   9 t-inv F
 -0.333333 -0.333333 -0.000000    0.00462963  10 t-inv F
  0.000000  0.333333  0.333333    0.00462963  10 t-inv F
 -0.000000 -0.333333 -0.333333    0.00462963  10 t-inv F
  0.333333  0.000000  0.333333    0.00462963  10 t-inv F
 -0.333333 -0.000000 -0.333333    0.00462963  10 t-inv F
 -0.500000 -0.333333 -0.000000    0.00462963  11 t-inv F
  0.000000  0.500000  0.333333    0.00462963  11 t-inv F
 -0.000000 -0.500000 -0.333333    0.00462963  11 t-inv F
  0.333333  0.000000  0.500000    0.00462963  11 t-inv F
 -0.333333 -0.000000 -0.500000    0.00462963  11 t-inv F
  0.333333  0.333333 -0.166667    0.00462963  11 t-inv F
 -0.333333 -0.333333  0.166667    0.00462963  11 t-inv F
  0.500000  0.166667  0.500000    0.00462963  11 t-inv F
 -0.500000 -0.166667 -0.500000    0.00462963  11 t-inv F
  0.333333  0.500000 -0.000000    0.00462963  11 t-inv F
 -0.333333 -0.500000  0.000000    0.00462963  11 t-inv F
  0.166667 -0.333333 -0.333333    0.00462963  11 t-inv F
 -0.166667  0.333333  0.333333    0.00462963  11 t-inv F
  0.500000  0.500000  0.166667    0.00462963  11 t-inv F
 -0.500000 -0.500000 -0.166667    0.00462963  11 t-inv F
 -0.000000  0.333333  0.500000    0.00462963  11 t-inv F
  0.000000 -0.333333 -0.500000    0.00462963  11 t-inv F
 -0.333333  0.166667 -0.333333    0.00462963  11 t-inv F
  0.333333 -0.166667  0.333333    0.00462963  11 t-inv F
  0.166667  0.500000  0.500000    0.00462963  11 t-inv F
 -0.166667 -0.500000 -0.500000    0.00462963  11 t-inv F
  0.500000 -0.000000  0.333333    0.00462963  11 t-inv F
 -0.500000  0.000000 -0.333333    0.00462963  11 t-inv F
  0.333333 -0.333333 -0.000000    0.00462963  12 t-inv F
  0.000000 -0.333333  0.333333    0.00462963  12 t-inv F
 -0.000000  0.333333 -0.333333    0.00462963  12 t-inv F
  0.333333  0.000000 -0.333333    0.00462963  12 t-inv F
 -0.333333 -0.000000  0.333333    0.00462963  12 t-inv F
  0.333333  0.333333  0.666667    0.00462963  12 t-inv F
 -0.333333 -0.333333 -0.666667    0.00462963  12 t-inv F
 -0.333333 -0.666667 -0.333333    0.00462963  12 t-inv F
  0.333333  0.666667  0.333333    0.00462963  12 t-inv F
 -0.666667 -0.333333 -0.333333    0.00462963  12 t-inv F
  0.666667  0.333333  0.333333    0.00462963  12 t-inv F
  0.000000  0.500000  0.500000    0.00462963  13 t-inv F
  0.500000  0.000000  0.500000    0.00462963  13 t-inv F
 -0.500000 -0.333333 -0.166667    0.00462963  14 t-inv F
  0.166667  0.500000  0.333333    0.00462963  14 t-inv F
 -0.166667 -0.500000 -0.333333    0.00462963  14 t-inv F
  0.333333  0.166667  0.500000    0.00462963  14 t-inv F
 -0.333333 -0.166667 -0.500000    0.00462963  14 t-inv F
  0.333333  0.166667 -0.166667    0.00462963  14 t-inv F
 -0.333333 -0.166667  0.166667    0.00462963  14 t-inv F
  0.500000  0.166667  0.333333    0.00462963  14 t-inv F
 -0.500000 -0.166667 -0.333333    0.00462963  14 t-inv F
  0.166667 -0.333333 -0.166667    0.00462963  14 t-inv F
 -0.166667  0.333333  0.166667    0.00462963  14 t-inv F
  0.166667  0.333333 -0.166667    0.00462963  14 t-inv F
 -0.166667 -0.333333  0.166667    0.00462963  14 t-inv F
  0.166667 -0.166667 -0.333333    0.00462963  14 t-inv F
 -0.166667  0.166667  0.333333    0.00462963  14 t-inv F
  0.333333  0.500000  0.166667    0.00462963  14 t-inv F
 -0.333333 -0.500000 -0.166667    0.00462963  14 t-inv F
 -0.166667  0.166667 -0.333333    0.00462963  14 t-inv F
  0.166667 -0.166667  0.333333    0.00462963  14 t-inv F
 -0.333333  0.166667 -0.166667    0.00462963  14 t-inv F
  0.333333 -0.166667  0.166667    0.00462963  14 t-inv F
  0.166667  0.333333  0.500000    0.00462963  14 t-inv F
 -0.166667 -0.333333 -0.500000    0.00462963  14 t-inv F
  0.333333 -0.333333 -0.166667    0.00462963  15 t-inv F
  0.166667 -0.333333  0.333333    0.00462963  15 t-inv F
 -0.166667  0.333333 -0.333333    0.00462963  15 t-inv F
  0.333333  0.166667 -0.333333    0.00462963  15 t-inv F
 -0.333333 -0.166667  0.333333    0.00462963  15 t-inv F
 -0.333333 -0.666667 -0.500000    0.00462963  15 t-inv F
  0.333333  0.666667  0.500000    0.00462963  15 t-inv F
  0.166667  0.500000 -0.166667    0.00462963  15 t-inv F
 -0.166667 -0.500000  0.166667    0.00462963  15 t-inv F
 -0.666667 -0.166667 -0.333333    0.00462963  15 t-inv F
  0.666667  0.166667  0.333333    0.00462963  15 t-inv F
  0.500000  0.666667  0.333333    0.00462963  15 t-inv F
 -0.500000 -0.666667 -0.333333    0.00462963  15 t-inv F
 -0.166667  0.166667  0.500000    0.00462963  15 t-inv F
  0.166667 -0.166667 -0.500000    0.00462963  15 t-inv F
 -0.333333 -0.666667 -0.166667    0.00462963  15 t-inv F
  0.333333  0.666667  0.166667    0.00462963  15 t-inv F
  0.333333  0.500000  0.666667    0.00462963  15 t-inv F
 -0.333333 -0.500000 -0.666667    0.00462963  15 t-inv F
  0.500000 -0.166667  0.166667    0.00462963  15 t-inv F
 -0.500000  0.166667 -0.166667    0.00462963  15 t-inv F
 -0.166667 -0.333333 -0.666667    0.00462963  15 t-inv F
  0.166667  0.333333  0.666667    0.00462963  15 t-inv F
  0.333333 -0.500000 -0.166667    0.00462963  16 t-inv F
  0.166667 -0.333333  0.500000    0.00462963  16 t-inv F
 -0.166667  0.333333 -0.500000    0.00462963  16 t-inv F
  0.500000  0.166667 -0.333333    0.00462963  16 t-inv F
 -0.500000 -0.166667  0.333333    0.00462963  16 t-inv F
  0.500000  0.333333  0.833333    0.00462963  16 t-inv F
 -0.500000 -0.333333 -0.833333    0.00462963  16 t-inv F
 -0.333333 -0.833333 -0.500000    0.00462963  16 t-inv F
  0.333333  0.833333  0.500000    0.00462963  16 t-inv F
  0.166667  0.500000 -0.333333    0.00462963  16 t-inv F
 -0.166667 -0.500000  0.333333    0.00462963  16 t-inv F


--------------------------------------------------------------------------------------------------------




 Dimension of arrays:
   k-points           NKPTS =     16   k-points in BZ     NKDIM =    216   number of bands    NBANDS=      8
   number of dos      NEDOS =    301   number of ions     NIONS =      1
   non local maximal  LDIM  =      4   non local SUM 2l+1 LMDIM =      8
   total plane-waves  NPLWV =   4096
   max r-space proj   IRMAX =      1   max aug-charges    IRDMAX=   3621
   dimension x,y,z NGX =    16 NGY =   16 NGZ =   16
   dimension x,y,z NGXF=    32 NGYF=   32 NGZF=   32
   support grid    NGXF=    32 NGYF=   32 NGZF=   32
   ions per type =               1
   NGX,Y,Z   is equivalent  to a cutoff of   6.93,  6.93,  6.93 a.u.
   NGXF,Y,Z  is equivalent  to a cutoff of  13.86, 13.86, 13.86 a.u.

 SYSTEM =  unknown system                          
 POSCAR =  System: Si                              

 Startparameter for this run:
   NWRITE =      2    write-flag & timer
   PREC   = normal    normal or accurate (medium, high low for compatibility)
   ISTART =      1    job   : 0-new  1-cont  2-samecut
   ICHARG =      0    charge: 1-file 2-atom 10-const
   ISPIN  =      1    spin polarized calculation?
   LNONCOLLINEAR =      F non collinear calculations
   LSORBIT =      F    spin-orbit coupling
   INIWAV =      1    electr: 0-lowe 1-rand  2-diag
   LASPH  =      F    aspherical Exc in radial PAW
 Electronic Relaxation 1
   ENCUT  =  245.3 eV  18.03 Ry    4.25 a.u.   4.90  4.90  4.90*2*pi/ulx,y,z
   ENINI  =  245.3     initial cutoff
   ENAUG  =  322.1 eV  augmentation charge cutoff
   NELM   =     60;   NELMIN=  2; NELMDL=  0     # of ELM steps 
   EDIFF  = 0.1E-03   stopping-criterion for ELM
   LREAL  =      F    real-space projection
   NLSPLINE    = F    spline interpolate recip. space projectors
   LCOMPAT=      F    compatible to vasp.4.4
   GGA_COMPAT  = T    GGA compatible to vasp.4.4-vasp.4.6
   LMAXPAW     = -100 max onsite density
   LMAXMIX     =    2 max onsite mixed and CHGCAR
   VOSKOWN=      0    Vosko Wilk Nusair interpolation
   ROPT   =    0.00000
 Ionic relaxation
   EDIFFG = 0.1E-02   stopping-criterion for IOM
   NSW    =      0    number of steps for IOM
   NBLOCK =      1;   KBLOCK =      1    inner block; outer block 
   IBRION =     -1    ionic relax: 0-MD 1-quasi-New 2-CG
   NFREE  =      0    steps in history (QN), initial steepest desc. (CG)
   ISIF   =      0    stress and relaxation
   IWAVPR =     10    prediction:  0-non 1-charg 2-wave 3-comb
   ISYM   =      3    0-nonsym 1-usesym 2-fastsym
   LCORR  =      T    Harris-Foulkes like correction to forces

   POTIM  = 0.5000    time-step for ionic-motion
   TEIN   =    0.0    initial temperature
   TEBEG  =    0.0;   TEEND  =   0.0 temperature during run
   SMASS  =  -3.00    Nose mass-parameter (am)
   estimated Nose-frequenzy (Omega)   =  0.10E-29 period in steps = 0.13E+47 mass=  -0.337E-27a.u.
   SCALEE = 1.0000    scale energy and forces
   NPACO  =    256;   APACO  = 10.0  distance and # of slots for P.C.
   PSTRESS=    0.0 pullay stress

  Mass of Ions in am
   POMASS =  28.09
  Ionic Valenz
   ZVAL   =   4.00
  Atomic Wigner-Seitz radii
   RWIGS  =  -1.00
  virtual crystal weights 
   VCA    =   1.00
   NELECT =       4.0000    total number of electrons
   NUPDOWN=      -1.0000    fix difference up-down

 DOS related values:
   EMIN   =  10.00;   EMAX   =-10.00  energy-range for DOS
   EFERMI =   0.00
   ISMEAR =     0;   SIGMA  =   0.01  broadening in eV -4-tet -1-fermi 0-gaus

 Electronic relaxation 2 (details)
   IALGO  =     53    algorithm
   LDIAG  =      T    sub-space diagonalisation (order eigenvalues)
   LSUBROT=      F    optimize rotation matrix (better conditioning)
   TURBO    =      0    0=normal 1=particle mesh
   IRESTART =      0    0=no restart 2=restart with 2 vectors
   NREBOOT  =      0    no. of reboots
   NMIN     =      0    reboot dimension
   EREF     =   0.00    reference energy to select bands
   IMIX   =      4    mixing-type and parameters
     AMIX     =   0.40;   BMIX     =  1.00
     AMIX_MAG =   1.60;   BMIX_MAG =  1.00
     AMIN     =   0.10
     WC   =   100.;   INIMIX=   1;  MIXPRE=   1;  MAXMIX= -45

 Intra band minimization:
   WEIMIN = 0.0000     energy-eigenvalue tresh-hold
   EBREAK =  0.31E-05  absolut break condition
   DEPER  =   0.30     relativ break condition  

   TIME   =   0.40     timestep for ELM

  volume/ion in A,a.u.               =      40.03       270.11
  Fermi-wavevector in a.u.,A,eV,Ry     =   0.759711  1.435645  7.852746  0.577161
  Thomas-Fermi vector in A             =   1.858566
 
 Write flags
   LWAVE        =      T    write WAVECAR
   LDOWNSAMPLE  =      F    k-point downsampling of WAVECAR
   LCHARG       =      T    write CHGCAR
   LVTOT        =      F    write LOCPOT, total local potential
   LVHAR        =      F    write LOCPOT, Hartree potential only
   LELF         =      F    write electronic localiz. function (ELF)
   LORBIT       =      0    0 simple, 1 ext, 2 COOP (PROOUT), +10 PAW based schemes


 Dipole corrections
   LMONO  =      F    monopole corrections only (constant potential shift)
   LDIPOL =      F    correct potential (dipole corrections)
   IDIPOL =      0    1-x, 2-y, 3-z, 4-all directions 
   EPSILON=  1.0000000 bulk dielectric constant

 Exchange correlation treatment:
   GGA     =    B3    GGA type
   LEXCH   =    11    internal setting for exchange type
   LIBXC   =     F    Libxc                    
   VOSKOWN =     0    Vosko Wilk Nusair interpolation
   EXXOEP  =     0    0=HF, 1=EXX-LHF (local Hartree Fock) 2=EXX OEP
   LHFCALC =     T    Hartree Fock is set to
   LSYMGRAD=     F    symmetrize gradient (conserves proper symmetry)
   PRECFOCK=normal    Normal, Fast or Accurate (Low or Medium for compatibility)
   LRHFCALC=     F    long range Hartree Fock
   LRSCOR  =     F    long range correlation only (use DFT for short range part)
   LTHOMAS =     F    Thomas Fermi screening in HF
   LMODELHF=     F    short range full HF, long range fraction AEXX
   LFOCKACE=     T    use Adeptively-Compressed-Exchange operator
   ENCUT4O =  -1.0   cutoff for four orbital integrals eV
   LMAXFOCK=     4    L truncation for augmentation on plane wave grid
   LMAXFOCKAE=  -1    L truncation for all-electron charge restoration on plane wave grid
   NMAXFOCKAE=   1    number of basis functions for all-electron charge restoration
   LFOCKAEDFT=     F  apply the AE augmentation even for DFT
   NKREDX  =     1    reduce k-point grid by
   NKREDY  =     1    reduce k-point grid by
   NKREDZ  =     1    reduce k-point grid by
   SHIFTRED=     F    shift reduced grid of Gamma
   HFKIDENT=     F    idential grid for each k-point
   ODDONLY =     F    use only odd q-grid points
   EVENONLY=     F    use only even q-grid points
   HFALPHA =   -1.0000 decay constant for conv. correction
   MCALPHA =    0.0000 extent of test-charge in conv. correction in multipole expansion
   AEXX    =    0.2000 exact exchange contribution
   HFSCREEN=    0.0000 screening length (either q_TF or 0.3 A-1)
   HFSCREENC=   0.0000 screening length for correlation (either q_TF or 0.3 A-1)
   HFRCUT  =    0.0000 spherical cutoff for potential kernel
   ALDAX   =    0.8000 LDA exchange part
   AGGAX   =    0.7200 GGA exchange part
   ALDAC   =    0.1900 LDA correlation
   AGGAC   =    0.8100 GGA correlation
   ENCUTFOCK=  -1.0 apply spherical cutoff to Coloumb kernel
   NBANDSGWLOW=     1    first orbital included in HF term
   NBLOCK_FOCK=    64    blocking factor in FOCK_ACC

 Linear response parameters
   LEPSILON=     F    determine dielectric tensor
   LRPA    =     F    only Hartree local field effects (RPA)
   LNABLA  =     F    use nabla operator in PAW spheres
   LVEL    =     F    velocity operator in full k-point grid
   CSHIFT  =0.1000    complex shift for real part using Kramers Kronig
   OMEGAMAX=  -1.0    maximum frequency
   DEG_THRESHOLD= 0.2000000E-02 threshold for treating states as degnerate
   RTIME   =   -0.100 relaxation time in fs
  (WPLASMAI=    0.000 imaginary part of plasma frequency in eV, 0.658/RTIME)
   DFIELD  = 0.0000000 0.0000000 0.0000000 field for delta impulse in time
 
  Optional k-point grid parameters
   LKPOINTS_OPT  =     F    use optional k-point grid
   KPOINTS_OPT_MODE=     1    mode for optional k-point grid
 
 Orbital magnetization related:
   ORBITALMAG=     F  switch on orbital magnetization
   LCHIMAG   =     F  perturbation theory with respect to B field
   DQ        =  0.001000  dq finite difference perturbation B field
   LLRAUG    =     F  two centre corrections for induced B field



--------------------------------------------------------------------------------------------------------


 Static calculation
 charge density and potential will be updated during run
 non-spin polarized calculation
 Conjugate gradient for all bands (Freysoldt, et al. PRB 79, 241103 (2009))
 perform sub-space diagonalisation
    before iterative eigenvector-optimisation
 modified Broyden-mixing scheme, WC =      100.0
 initial mixing is a Kerker type mixing with AMIX =  0.4000 and BMIX =      1.0000
 Hartree-type preconditioning will be used
 using additional bands            6
 reciprocal scheme for non local part
 use partial core corrections
 no Harris-corrections to forces 
 use gradient corrections 
 use of overlap-Matrix (Vanderbilt PP)
 Gauss-broadening in eV      SIGMA  =   0.01


--------------------------------------------------------------------------------------------------------


  energy-cutoff  :      245.34
  volume of cell :       40.03
      direct lattice vectors                 reciprocal lattice vectors
     2.715000000  2.715000000  0.000000000     0.184162063  0.184162063 -0.184162063
     0.000000000  2.715000000  2.715000000    -0.184162063  0.184162063  0.184162063
     2.715000000  0.000000000  2.715000000     0.184162063 -0.184162063  0.184162063

  length of vectors
     3.839589822  3.839589822  3.839589822     0.318978049  0.318978049  0.318978049


 
 old parameters found on file WAVECAR:
  energy-cutoff  :      245.34
  volume of cell :       40.03
      direct lattice vectors                 reciprocal lattice vectors
     2.715000000  2.715000000  0.000000000     0.184162063  0.184162063 -0.184162063
     0.000000000  2.715000000  2.715000000    -0.184162063  0.184162063  0.184162063
     2.715000000  0.000000000  2.715000000     0.184162063 -0.184162063  0.184162063

  length of vectors

 
 k-points in units of 2pi/SCALE and weight: k-points                                
   0.00000000  0.00000000  0.00000000       0.005
   0.16666667  0.16666667 -0.16666667       0.037
   0.33333333  0.33333333 -0.33333333       0.037
   0.50000000  0.50000000 -0.50000000       0.019
   0.00000000  0.33333333 -0.00000000       0.028
   0.16666667  0.50000000 -0.16666667       0.111
   0.33333333  0.66666667 -0.33333333       0.111
  -0.50000000 -0.16666667  0.50000000       0.111
  -0.33333333 -0.00000000  0.33333333       0.056
   0.00000000  0.66666667  0.00000000       0.028
   0.16666667  0.83333333 -0.16666667       0.111
  -0.66666667 -0.00000000  0.66666667       0.056
   0.00000000  1.00000000  0.00000000       0.014
   0.33333333  0.66666667 -0.00000000       0.111
  -0.50000000 -0.16666667  0.83333333       0.111
  -0.66666667 -0.00000000  1.00000000       0.056
 
 k-points in reciprocal lattice and weights: k-points                                
   0.00000000  0.00000000  0.00000000       0.005
   0.16666667 -0.00000000 -0.00000000       0.037
   0.33333333 -0.00000000 -0.00000000       0.037
   0.50000000 -0.00000000  0.00000000       0.019
   0.16666667  0.16666667  0.00000000       0.028
   0.33333333  0.16666667  0.00000000       0.111
   0.50000000  0.16666667  0.00000000       0.111
  -0.33333333  0.16666667  0.00000000       0.111
  -0.16666667  0.16666667  0.00000000       0.056
   0.33333333  0.33333333  0.00000000       0.028
   0.50000000  0.33333333  0.00000000       0.111
  -0.33333333  0.33333333  0.00000000       0.056
   0.50000000  0.50000000  0.00000000       0.014
   0.50000000  0.33333333  0.16666667       0.111
  -0.33333333  0.33333333  0.16666667       0.111
  -0.33333333  0.50000000  0.16666667       0.056
 
 position of ions in fractional coordinates (direct lattice) 
   0.00000000  0.00000000  0.00000000
 
 position of ions in cartesian coordinates  (Angst):
   0.00000000  0.00000000  0.00000000
 


--------------------------------------------------------------------------------------------------------


 k-point   1 :   0.0000 0.0000 0.0000  plane waves:     339
 k-point   2 :   0.1667-0.0000-0.0000  plane waves:     344
 k-point   3 :   0.3333-0.0000-0.0000  plane waves:     347
 k-point   4 :   0.5000-0.0000 0.0000  plane waves:     344
 k-point   5 :   0.1667 0.1667 0.0000  plane waves:     343
 k-point   6 :   0.3333 0.1667 0.0000  plane waves:     343
 k-point   7 :   0.5000 0.1667 0.0000  plane waves:     355
 k-point   8 :  -0.3333 0.1667 0.0000  plane waves:     352
 k-point   9 :  -0.1667 0.1667 0.0000  plane waves:     341
 k-point  10 :   0.3333 0.3333 0.0000  plane waves:     343
 k-point  11 :   0.5000 0.3333 0.0000  plane waves:     352
 k-point  12 :  -0.3333 0.3333 0.0000  plane waves:     353
 k-point  13 :   0.5000 0.5000 0.0000  plane waves:     342
 k-point  14 :   0.5000 0.3333 0.1667  plane waves:     343
 k-point  15 :  -0.3333 0.3333 0.1667  plane waves:     354
 k-point  16 :  -0.3333 0.5000 0.1667  plane waves:     352

 maximum and minimum number of plane-waves per node :       355      339

 maximum number of plane-waves:       355
 maximum index in each direction: 
   IXMAX=    5   IYMAX=    4   IZMAX=    4
   IXMIN=   -5   IYMIN=   -5   IZMIN=   -5


 serial   3D FFT for wavefunctions
 parallel 3D FFT for charge:
    minimum data exchange during FFTs selected (reduces bandwidth)

 
 Radii for the augmentation spheres in the non-local exchange
 for species   1 augmentation radius   1.237 (default was   0.989)
       energy cutoff for augmentation    981.4
 Maximum index for augmentation-charges in exchange          791
  SETUP_FOCK is finished

 total amount of memory used by VASP MPI-rank0    31889. kBytes
=======================================================================

   base      :      30000. kBytes
   nonl-proj :        370. kBytes
   fftplans  :        302. kBytes
   grid      :        577. kBytes
   one-center:          3. kBytes
   HF        :          4. kBytes
   nonlr-proj:         75. kBytes
   wavefun   :        558. kBytes
 
     INWAV:  cpu time      0.0029: real time      0.0030
 Broyden mixing: mesh for mixing (old mesh)
   NGX =  9   NGY =  9   NGZ =  9
  (NGX  = 32   NGY  = 32   NGZ  = 32)
  gives a total of    729 points

 charge density for first step will be calculated from the start-wavefunctions


--------------------------------------------------------------------------------------------------------


 Maximum index for augmentation-charges          847 (set IRDMAX)


--------------------------------------------------------------------------------------------------------


 initial charge from wavefunction
    FEWALD:  cpu time      0.0002: real time      0.0002


--------------------------------------- Iteration      1(   1)  ---------------------------------------


    POTLOK:  cpu time      0.0191: real time      0.0193
    SETDIJ:  cpu time      0.0031: real time      0.0031
    TRIAL :  cpu time      2.1917: real time      2.2239
    CORREC:  cpu time      0.0002: real time      0.0002
    CHARGE:  cpu time      0.0065: real time      0.0065
    --------------------------------------------
      LOOP:  cpu time      2.2209: real time      2.2536

 eigenvalue-minimisations  :     0
 total energy-change (2. order) :-0.3304437E+01  (-0.5614270E-02)
 number of electron       3.9999996 magnetization 
 augmentation part       -0.2766673 magnetization 

 Free energy of the ion-electron system (eV)
  ---------------------------------------------------
  alpha Z        PSCENC =         0.84103682
  Ewald energy   TEWEN  =       -97.26856434
  -Hartree energ DENC   =        -5.77476972
  -exchange      EXHF   =         4.48880665
  -V(xc)+E(xc)   XCENC  =        -9.28474045
  PAW double counting   =        97.83131317      -83.46710113
  entropy T*S    EENTRO =        -0.00059585
  eigenvalues    EBANDS =       -13.07568940
  atomic energy  EATOM  =       102.40586734
  ---------------------------------------------------
  free energy    TOTEN  =        -3.30443692 eV

  energy without entropy =       -3.30384107  energy(sigma->0) =       -3.30413900
  exchange ACFDT corr.  =        -0.01212354  see jH, gK, PRB 81, 115126


--------------------------------------------------------------------------------------------------------




--------------------------------------- Iteration      1(   2)  ---------------------------------------


    POTLOK:  cpu time      0.0189: real time      0.0227
    SETDIJ:  cpu time      0.0031: real time      0.0031
    TRIAL :  cpu time      2.1791: real time      2.1950
    CORREC:  cpu time      0.0002: real time      0.0002
    CHARGE:  cpu time      0.0065: real time      0.0065
    --------------------------------------------
      LOOP:  cpu time      2.2082: real time      2.2279

 eigenvalue-minimisations  :     0
 total energy-change (2. order) :-0.4443580E-02  (-0.3291252E-02)
 number of electron       3.9999996 magnetization 
 augmentation part       -0.2777570 magnetization 

 Free energy of the ion-electron system (eV)
  ---------------------------------------------------
  alpha Z        PSCENC =         0.84103682
  Ewald energy   TEWEN  =       -97.26856434
  -Hartree energ DENC   =        -5.83869795
  -exchange      EXHF   =         4.49442812
  -V(xc)+E(xc)   XCENC  =        -9.28037403
  PAW double counting   =       101.19239655      -86.83234816
  entropy T*S    EENTRO =        -0.00059585
  eigenvalues    EBANDS =       -13.02202900
  atomic energy  EATOM  =       102.40586734
  ---------------------------------------------------
  free energy    TOTEN  =        -3.30888050 eV

  energy without entropy =       -3.30828465  energy(sigma->0) =       -3.30858258
  exchange ACFDT corr.  =        -0.01212508  see jH, gK, PRB 81, 115126


--------------------------------------------------------------------------------------------------------




--------------------------------------- Iteration      1(   3)  ---------------------------------------


    POTLOK:  cpu time      0.0183: real time      0.0184
    SETDIJ:  cpu time      0.0031: real time      0.0031
    TRIAL :  cpu time      2.1838: real time      2.1946
    CORREC:  cpu time      0.0002: real time      0.0002
    CHARGE:  cpu time      0.0062: real time      0.0063
    --------------------------------------------
      LOOP:  cpu time      2.2121: real time      2.2230

 eigenvalue-minimisations  :     0
 total energy-change (2. order) :-0.2396578E-02  (-0.1309116E-02)
 number of electron       3.9999996 magnetization 
 augmentation part       -0.2781356 magnetization 

 Free energy of the ion-electron system (eV)
  ---------------------------------------------------
  alpha Z        PSCENC =         0.84103682
  Ewald energy   TEWEN  =       -97.26856434
  -Hartree energ DENC   =        -5.89309357
  -exchange      EXHF   =         4.49930862
  -V(xc)+E(xc)   XCENC  =        -9.27649825
  PAW double counting   =       105.25752259      -90.90101763
  entropy T*S    EENTRO =        -0.00059585
  eigenvalues    EBANDS =       -12.97524280
  atomic energy  EATOM  =       102.40586734
  ---------------------------------------------------
  free energy    TOTEN  =        -3.31127708 eV

  energy without entropy =       -3.31068123  energy(sigma->0) =       -3.31097915
  exchange ACFDT corr.  =        -0.01212656  see jH, gK, PRB 81, 115126


--------------------------------------------------------------------------------------------------------




--------------------------------------- Iteration      1(   4)  ---------------------------------------


    POTLOK:  cpu time      0.0187: real time      0.0187
    SETDIJ:  cpu time      0.0030: real time      0.0030
    TRIAL :  cpu time      2.1821: real time      2.1942
    CORREC:  cpu time      0.0002: real time      0.0002
    CHARGE:  cpu time      0.0066: real time      0.0066
    --------------------------------------------
      LOOP:  cpu time      2.2110: real time      2.2231

 eigenvalue-minimisations  :     0
 total energy-change (2. order) :-0.9603642E-03  (-0.5829954E-03)
 number of electron       3.9999996 magnetization 
 augmentation part       -0.2780179 magnetization 

 Free energy of the ion-electron system (eV)
  ---------------------------------------------------
  alpha Z        PSCENC =         0.84103682
  Ewald energy   TEWEN  =       -97.26856434
  -Hartree energ DENC   =        -5.92051589
  -exchange      EXHF   =         4.50194047
  -V(xc)+E(xc)   XCENC  =        -9.27430414
  PAW double counting   =       109.24731242      -94.89259705
  entropy T*S    EENTRO =        -0.00059585
  eigenvalues    EBANDS =       -12.95181722
  atomic energy  EATOM  =       102.40586734
  ---------------------------------------------------
  free energy    TOTEN  =        -3.31223744 eV

  energy without entropy =       -3.31164159  energy(sigma->0) =       -3.31193952
  exchange ACFDT corr.  =        -0.01212752  see jH, gK, PRB 81, 115126


--------------------------------------------------------------------------------------------------------




--------------------------------------- Iteration      1(   5)  ---------------------------------------


    POTLOK:  cpu time      0.0188: real time      0.0198
    SETDIJ:  cpu time      0.0030: real time      0.0030
    TRIAL :  cpu time      2.1967: real time      2.2171
    CORREC:  cpu time      0.0002: real time      0.0002
    CHARGE:  cpu time      0.0063: real time      0.0064
    --------------------------------------------
      LOOP:  cpu time      2.2255: real time      2.2469

 eigenvalue-minimisations  :     0
 total energy-change (2. order) :-0.4426251E-03  (-0.2705545E-03)
 number of electron       3.9999996 magnetization 
 augmentation part       -0.2777854 magnetization 

 Free energy of the ion-electron system (eV)
  ---------------------------------------------------
  alpha Z        PSCENC =         0.84103682
  Ewald energy   TEWEN  =       -97.26856434
  -Hartree energ DENC   =        -5.92791099
  -exchange      EXHF   =         4.50287137
  -V(xc)+E(xc)   XCENC  =        -9.27335526
  PAW double counting   =       112.64841768      -98.29415105
  entropy T*S    EENTRO =        -0.00059585
  eigenvalues    EBANDS =       -12.94629578
  atomic energy  EATOM  =       102.40586734
  ---------------------------------------------------
  free energy    TOTEN  =        -3.31268007 eV

  energy without entropy =       -3.31208422  energy(sigma->0) =       -3.31238214
  exchange ACFDT corr.  =        -0.01212804  see jH, gK, PRB 81, 115126


--------------------------------------------------------------------------------------------------------




--------------------------------------- Iteration      1(   6)  ---------------------------------------


    POTLOK:  cpu time      0.0182: real time      0.0182
    SETDIJ:  cpu time      0.0030: real time      0.0030
    TRIAL :  cpu time      2.1888: real time      2.1991
    CORREC:  cpu time      0.0002: real time      0.0002
    CHARGE:  cpu time      0.0065: real time      0.0065
    --------------------------------------------
      LOOP:  cpu time      2.2171: real time      2.2274

 eigenvalue-minimisations  :     0
 total energy-change (2. order) :-0.2050630E-03  (-0.1200770E-03)
 number of electron       3.9999996 magnetization 
 augmentation part       -0.2776751 magnetization 

 Free energy of the ion-electron system (eV)
  ---------------------------------------------------
  alpha Z        PSCENC =         0.84103682
  Ewald energy   TEWEN  =       -97.26856434
  -Hartree energ DENC   =        -5.92892095
  -exchange      EXHF   =         4.50320966
  -V(xc)+E(xc)   XCENC  =        -9.27279529
  PAW double counting   =       115.08898964     -100.73469605
  entropy T*S    EENTRO =        -0.00059585
  eigenvalues    EBANDS =       -12.94641611
  atomic energy  EATOM  =       102.40586734
  ---------------------------------------------------
  free energy    TOTEN  =        -3.31288513 eV

  energy without entropy =       -3.31228928  energy(sigma->0) =       -3.31258721
  exchange ACFDT corr.  =        -0.01212836  see jH, gK, PRB 81, 115126


--------------------------------------------------------------------------------------------------------




--------------------------------------- Iteration      1(   7)  ---------------------------------------


    POTLOK:  cpu time      0.0183: real time      0.0184
    SETDIJ:  cpu time      0.0031: real time      0.0031
    TRIAL :  cpu time      2.1888: real time      2.2012
    CORREC:  cpu time      0.0002: real time      0.0002
    EDDIAG:  cpu time      2.1770: real time      2.1896
    CHARGE:  cpu time      0.0063: real time      0.0063
    --------------------------------------------
      LOOP:  cpu time      4.3941: real time      4.4192

 eigenvalue-minimisations  :     0
 total energy-change (2. order) :-0.9313392E-04  (-0.5390712E-04)
 number of electron       3.9999996 magnetization 
 augmentation part       -0.2776927 magnetization 

 Free energy of the ion-electron system (eV)
  ---------------------------------------------------
  alpha Z        PSCENC =         0.84103682
  Ewald energy   TEWEN  =       -97.26856434
  -Hartree energ DENC   =        -5.93176375
  -exchange      EXHF   =         4.50412725
  -V(xc)+E(xc)   XCENC  =        -9.27217446
  PAW double counting   =       116.45054625     -102.09630684
  entropy T*S    EENTRO =        -0.00059585
  eigenvalues    EBANDS =       -12.94464803
  atomic energy  EATOM  =       102.40586734
  ---------------------------------------------------
  free energy    TOTEN  =        -3.31297826 eV

  energy without entropy =       -3.31238242  energy(sigma->0) =       -3.31268034
  exchange ACFDT corr.  =        -0.01212866  see jH, gK, PRB 81, 115126


--------------------------------------------------------------------------------------------------------


  average scaling for gradient   1.3000


 average (electrostatic) potential at core
  the test charge radii are     0.9892
  (the norm of the test charge is              1.0000)
       1 -86.2319
 
 
 
 E-fermi :   1.2240     XC(G=0):  -5.8376     alpha+bet : -5.9923

 Fermi energy:         1.2240165316

 k-point     1 :       0.0000    0.0000    0.0000
  band No.  band energies     occupation 
      1      -8.2923      2.00000
      2       5.1778      0.00000
      3       5.1778      0.00000
      4       5.1778      0.00000
      5       9.9195      0.00000
      6      11.0654      0.00000
      7      11.0654      0.00000
      8      11.0654      0.00000

 k-point     2 :       0.1667   -0.0000   -0.0000
  band No.  band energies     occupation 
      1      -7.9411      2.00000
      2       3.2490      0.00000
      3       4.9571      0.00000
      4       4.9571      0.00000
      5       9.8589      0.00000
      6      11.4825      0.00000
      7      11.4826      0.00000
      8      11.8121      0.00000

 k-point     3 :       0.3333   -0.0000   -0.0000
  band No.  band energies     occupation 
      1      -7.0074      2.00000
      2      -0.0465      2.00000
      3       4.6128      0.00000
      4       4.6128      0.00000
      5       8.9716      0.00000
      6      11.0001      0.00000
      7      11.0001      0.00000
      8      13.5951      0.00000

 k-point     4 :       0.5000   -0.0000    0.0000
  band No.  band energies     occupation 
      1      -6.2881      2.00000
      2      -1.5386      2.00000
      3       4.4740      0.00000
      4       4.4740      0.00000
      5       8.6650      0.00000
      6      10.5932      0.00000
      7      10.5932      0.00000
      8      13.3670      0.00000

 k-point     5 :       0.1667    0.1667    0.0000
  band No.  band energies     occupation 
      1      -7.8236      2.00000
      2       3.5233      0.00000
      3       4.4172      0.00000
      4       4.4172      0.00000
      5       9.5115      0.00000
      6      10.6005      0.00000
      7      12.3621      0.00000
      8      12.3621      0.00000

 k-point     6 :       0.3333    0.1667    0.0000
  band No.  band energies     occupation 
      1      -7.0723      2.00000
      2       0.9459      2.00000
      3       3.8002      0.00000
      4       3.9816      0.00000
      5       9.0775      0.00000
      6      10.2276      0.00000
      7      12.0498      0.00000
      8      12.5750      0.00000

 k-point     7 :       0.5000    0.1667    0.0000
  band No.  band energies     occupation 
      1      -6.1604      2.00000
      2      -1.0048      2.00000
      3       3.0324      0.00000
      4       3.9835      0.00000
      5       8.8499      0.00000
      6      10.5764      0.00000
      7      11.7636      0.00000
      8      13.3532      0.00000

 k-point     8 :      -0.3333    0.1667    0.0000
  band No.  band energies     occupation 
      1      -6.4180      2.00000
      2      -0.4980      2.00000
      3       2.7370      0.00000
      4       4.4012      0.00000
      5       9.4683      0.00000
      6      10.6098      0.00000
      7      11.5010      0.00000
      8      13.5075      0.00000

 k-point     9 :      -0.1667    0.1667    0.0000
  band No.  band energies     occupation 
      1      -7.3871      2.00000
      2       1.9576      0.00000
      3       3.4015      0.00000
      4       4.9256      0.00000
      5      10.6175      0.00000
      6      10.7197      0.00000
      7      11.8287      0.00000
      8      12.0925      0.00000

 k-point    10 :       0.3333    0.3333    0.0000
  band No.  band energies     occupation 
      1      -6.5628      2.00000
      2       0.5573      2.00000
      3       3.3664      0.00000
      4       3.3664      0.00000
      5       7.8753      0.00000
      6       7.9525      0.00000
      7      15.0006      0.00000
      8      15.0006      0.00000

 k-point    11 :       0.5000    0.3333    0.0000
  band No.  band energies     occupation 
      1      -5.8040      2.00000
      2      -0.4224      2.00000
      3       2.0052      0.00000
      4       3.2597      0.00000
      5       7.5047      0.00000
      6       9.0974      0.00000
      7      14.4658      0.00000
      8      14.5022      0.00000

 k-point    12 :      -0.3333    0.3333    0.0000
  band No.  band energies     occupation 
      1      -5.7198      2.00000
      2       0.0389      2.00000
      3       0.2096      2.00000
      4       3.6860      0.00000
      5       8.1070      0.00000
      6      11.7352      0.00000
      7      13.1365      0.00000
      8      13.2950      0.00000

 k-point    13 :       0.5000    0.5000    0.0000
  band No.  band energies     occupation 
      1      -5.5426      2.00000
      2      -0.9628      2.00000
      3       2.9729      0.00000
      4       2.9729      0.00000
      5       6.7868      0.00000
      6       7.4080      0.00000
      7      16.8544      0.00000
      8      17.6025      0.00000

 k-point    14 :       0.5000    0.3333    0.1667
  band No.  band energies     occupation 
      1      -6.2753      2.00000
      2       0.1309      2.00000
      3       2.1010      0.00000
      4       3.4891      0.00000
      5       9.3536      0.00000
      6       9.9724      0.00000
      7      11.5564      0.00000
      8      14.5733      0.00000

 k-point    15 :      -0.3333    0.3333    0.1667
  band No.  band energies     occupation 
      1      -5.7200      2.00000
      2      -0.4532      2.00000
      3       1.2445      1.25000
      4       3.0110      0.00000
      5       9.3155      0.00000
      6      10.6460      0.00000
      7      12.3771      0.00000
      8      13.1596      0.00000

 k-point    16 :      -0.3333    0.5000    0.1667
  band No.  band energies     occupation 
      1      -5.4949      2.00000
      2      -0.3686      2.00000
      3       1.6089      0.00000
      4       2.2312      0.00000
      5       8.6286      0.00000
      6       9.5552      0.00000
      7      13.5357      0.00000
      8      13.7281      0.00000


--------------------------------------------------------------------------------------------------------


 soft charge-density along one line, spin component           1
         0         1         2         3         4         5         6         7         8         9
 total charge-density along one line
 
 pseudopotential strength for first ion, spin component:           1
 18.484  25.794  -0.000   0.000  -0.000  -0.000   0.000  -0.000
 25.794  36.001  -0.000   0.000  -0.000  -0.000   0.000  -0.000
 -0.000  -0.000   4.106  -0.000  -0.000   7.659  -0.000  -0.000
  0.000   0.000  -0.000   4.106  -0.000  -0.000   7.659  -0.000
 -0.000  -0.000  -0.000  -0.000   4.106  -0.000  -0.000   7.659
 -0.000  -0.000   7.659  -0.000  -0.000  14.294  -0.000  -0.000
  0.000   0.000  -0.000   7.659  -0.000  -0.000  14.294  -0.000
 -0.000  -0.000  -0.000  -0.000   7.659  -0.000  -0.000  14.294
 total augmentation occupancy for first ion, spin component:           1
  2.756  -0.427  -0.000  -0.000  -0.000   0.000   0.000   0.000
 -0.427   0.273   0.000   0.000   0.000  -0.000  -0.000  -0.000
 -0.000   0.000   0.976   0.000  -0.000  -0.132  -0.000   0.000
 -0.000   0.000   0.000   0.976  -0.000  -0.000  -0.132   0.000
 -0.000   0.000  -0.000  -0.000   0.976   0.000   0.000  -0.132
  0.000  -0.000  -0.132  -0.000   0.000   0.019   0.000  -0.000
  0.000  -0.000  -0.000  -0.132   0.000   0.000   0.019  -0.000
  0.000  -0.000   0.000   0.000  -0.132  -0.000  -0.000   0.019


------------------------ aborting loop because EDIFF is reached ----------------------------------------


    FORLOC:  cpu time      0.0002: real time      0.0002
    FORHF :  cpu time      1.1878: real time      1.1951
    FORNL :  cpu time      0.0011: real time      0.0011
    FORCOR:  cpu time      0.0211: real time      0.0211
    OFIELD:  cpu time      0.0001: real time      0.0001

 VOLUME and BASIS-vectors are now :
 -----------------------------------------------------------------------------
  energy-cutoff  :      245.34
  volume of cell :       40.03
      direct lattice vectors                 reciprocal lattice vectors
     2.715000000  2.715000000  0.000000000     0.184162063  0.184162063 -0.184162063
     0.000000000  2.715000000  2.715000000    -0.184162063  0.184162063  0.184162063
     2.715000000  0.000000000  2.715000000     0.184162063 -0.184162063  0.184162063

  length of vectors
     3.839589822  3.839589822  3.839589822     0.318978049  0.318978049  0.318978049


 FORCES acting on ions:
    Electron-Ion                     Ewald-Force                    Non-Local-Force
 -----------------------------------------------------------------------------------------------
   -.522E-06 -.525E-06 -.564E-06   -.213E-15 0.818E-16 0.736E-16   -.484E-23 0.634E-22 0.580E-22
 -----------------------------------------------------------------------------------------------
   -.727E-06 -.732E-06 -.742E-06   -.213E-15 0.818E-16 0.736E-16   -.484E-23 0.634E-22 0.580E-22
 
 
 POSITION                                       TOTAL-FORCE (eV/Angst)
 -----------------------------------------------------------------------------------
      0.00000      0.00000      0.00000         0.000000      0.000000     -0.000000
 -----------------------------------------------------------------------------------
    total drift:                               -0.000001     -0.000001     -0.000001


--------------------------------------------------------------------------------------------------------



  FREE ENERGIE OF THE ION-ELECTRON SYSTEM (eV)
  ---------------------------------------------------
  free  energy   TOTEN  =        -3.31297826 eV

  energy  without entropy=       -3.31238242  energy(sigma->0) =       -3.31268034
 


--------------------------------------------------------------------------------------------------------


    POTLOK:  cpu time      0.0224: real time      0.0225


--------------------------------------------------------------------------------------------------------


 writing wavefunctions
     LOOP+:  cpu time     18.9667: real time     19.1231
    4ORBIT:  cpu time      0.0000: real time      0.0000

 total amount of memory used by VASP MPI-rank0    33070. kBytes
=======================================================================

   base      :      30000. kBytes
   nonl-proj :        370. kBytes
   fftplans  :        302. kBytes
   grid      :        577. kBytes
   one-center:          3. kBytes
   HF        :          4. kBytes
   nonlr-proj:        114. kBytes
   wavefun   :        558. kBytes
   fock_wrk  :       1142. kBytes
 
  
  
 General timing and accounting informations for this job:
 ========================================================
  
                  Total CPU time used (sec):       19.197
                            User time (sec):       19.040
                          System time (sec):        0.158
                         Elapsed time (sec):       19.454
  
                   Maximum memory used (kb):       56068.
                   Average memory used (kb):          N/A
  
                          Minor page faults:        17436
                          Major page faults:            0
                 Voluntary context switches:          215
