<?xml version="1.0" encoding="ISO-8859-1"?>
<modeling>
 <generator>
  <i name="program" type="string">vasp </i>
  <i name="version" type="string">6.3.0  </i>
  <i name="subversion" type="string">20Jan22 (build Feb 01 2022 16:52:37) complex                          parallel </i>
  <i name="platform" type="string">TETRA_NSC1 </i>
  <i name="date" type="string">2022 02 23 </i>
  <i name="time" type="string">16:18:10 </i>
 </generator>
 <incar>
  <i type="string" name="ALGO">D</i>
  <i name="TIME">      0.40000000</i>
  <i type="int" name="ISMEAR">     0</i>
  <i name="SIGMA">      0.01000000</i>
  <i type="logical" name="LHFCALC"> T  </i>
  <i type="string" name="GGA">B3</i>
  <i name="AEXX">      0.20000000</i>
  <i name="AGGAX">      0.72000000</i>
  <i name="AGGAC">      0.81000000</i>
  <i name="ALDAC">      0.19000000</i>
 </incar>
 <primitive_cell>
  <structure name="primitive_cell" >
   <crystal>
    <varray name="basis" >
     <v>       2.71500000       2.71500000       0.00000000 </v>
     <v>       0.00000000       2.71500000       2.71500000 </v>
     <v>       2.71500000       0.00000000       2.71500000 </v>
    </varray>
    <i name="volume">     40.02575175 </i>
    <varray name="rec_basis" >
     <v>       0.18416206       0.18416206      -0.18416206 </v>
     <v>      -0.18416206       0.18416206       0.18416206 </v>
     <v>       0.18416206      -0.18416206       0.18416206 </v>
    </varray>
   </crystal>
   <varray name="positions" >
    <v>       0.00000000       0.00000000       0.00000000 </v>
   </varray>
  </structure>
  <varray name="primitive_index" >
   <v type="int" >        1 </v>
  </varray>
 </primitive_cell>
 <kpoints>
  <generation param="Gamma">
   <v type="int" name="divisions">       6        6        6 </v>
   <v name="usershift">      0.00000000       0.00000000       0.00000000 </v>
   <v name="genvec1">      0.16666667       0.00000000       0.00000000 </v>
   <v name="genvec2">      0.00000000       0.16666667      -0.00000000 </v>
   <v name="genvec3">     -0.00000000      -0.00000000       0.16666667 </v>
   <v name="shift">      0.00000000       0.00000000       0.00000000 </v>
  </generation>
  <varray name="kpointlist" >
   <v>       0.00000000       0.00000000       0.00000000 </v>
   <v>       0.16666667      -0.00000000      -0.00000000 </v>
   <v>       0.33333333      -0.00000000      -0.00000000 </v>
   <v>       0.50000000      -0.00000000       0.00000000 </v>
   <v>       0.16666667       0.16666667       0.00000000 </v>
   <v>       0.33333333       0.16666667       0.00000000 </v>
   <v>       0.50000000       0.16666667       0.00000000 </v>
   <v>      -0.33333333       0.16666667       0.00000000 </v>
   <v>      -0.16666667       0.16666667       0.00000000 </v>
   <v>       0.33333333       0.33333333       0.00000000 </v>
   <v>       0.50000000       0.33333333       0.00000000 </v>
   <v>      -0.33333333       0.33333333       0.00000000 </v>
   <v>       0.50000000       0.50000000       0.00000000 </v>
   <v>       0.50000000       0.33333333       0.16666667 </v>
   <v>      -0.33333333       0.33333333       0.16666667 </v>
   <v>      -0.33333333       0.50000000       0.16666667 </v>
  </varray>
  <varray name="weights" >
   <v>       0.00462963 </v>
   <v>       0.03703704 </v>
   <v>       0.03703704 </v>
   <v>       0.01851852 </v>
   <v>       0.02777778 </v>
   <v>       0.11111111 </v>
   <v>       0.11111111 </v>
   <v>       0.11111111 </v>
   <v>       0.05555556 </v>
   <v>       0.02777778 </v>
   <v>       0.11111111 </v>
   <v>       0.05555556 </v>
   <v>       0.01388889 </v>
   <v>       0.11111111 </v>
   <v>       0.11111111 </v>
   <v>       0.05555556 </v>
  </varray>
 </kpoints>
 <parameters>
  <separator name="general" >
   <i type="string" name="SYSTEM">unknown system</i>
   <i type="logical" name="LCOMPAT"> F  </i>
  </separator>
  <separator name="electronic" >
   <i type="string" name="PREC">normal</i>
   <i name="ENMAX">    245.34500000</i>
   <i name="ENAUG">    322.06900000</i>
   <i name="EDIFF">      0.00010000</i>
   <i type="int" name="IALGO">    53</i>
   <i type="int" name="IWAVPR">    10</i>
   <i type="int" name="NBANDS">     8</i>
   <i type="int" name="NBANDSLOW">    -1</i>
   <i type="int" name="NBANDSHIGH">    -1</i>
   <i name="NELECT">      4.00000000</i>
   <i type="int" name="TURBO">     0</i>
   <i type="int" name="IRESTART">     0</i>
   <i type="int" name="NREBOOT">     0</i>
   <i type="int" name="NMIN">     0</i>
   <i name="EREF">      0.00000000</i>
   <separator name="electronic smearing" >
    <i type="int" name="ISMEAR">     0</i>
    <i name="SIGMA">      0.01000000</i>
    <i name="KSPACING">      0.50000000</i>
    <i type="logical" name="KGAMMA"> T  </i>
    <i type="logical" name="KBLOWUP"> T  </i>
   </separator>
   <separator name="electronic projectors" >
    <i type="logical" name="LREAL"> F  </i>
    <v name="ROPT">      0.00000000</v>
    <i type="int" name="LMAXPAW">  -100</i>
    <i type="int" name="LMAXMIX">     2</i>
    <i type="logical" name="NLSPLINE"> F  </i>
   </separator>
   <separator name="electronic startup" >
    <i type="int" name="ISTART">     1</i>
    <i type="int" name="ICHARG">     0</i>
    <i type="int" name="INIWAV">     1</i>
   </separator>
   <separator name="electronic spin" >
    <i type="int" name="ISPIN">     1</i>
    <i type="logical" name="LNONCOLLINEAR"> F  </i>
    <v name="MAGMOM">      1.00000000</v>
    <i name="NUPDOWN">     -1.00000000</i>
    <i type="logical" name="LSORBIT"> F  </i>
    <v name="SAXIS">      0.00000000      0.00000000      1.00000000</v>
    <i type="logical" name="LSPIRAL"> F  </i>
    <v name="QSPIRAL">      0.00000000      0.00000000      0.00000000</v>
    <i type="logical" name="LZEROZ"> F  </i>
   </separator>
   <separator name="electronic exchange-correlation" >
    <i type="logical" name="LASPH"> F  </i>
    <i type="logical" name="LMETAGGA"> F  </i>
   </separator>
   <separator name="electronic convergence" >
    <i type="int" name="NELM">    60</i>
    <i type="int" name="NELMDL">     0</i>
    <i type="int" name="NELMIN">     2</i>
    <i name="ENINI">    245.34500000</i>
    <separator name="electronic convergence detail" >
     <i type="logical" name="LDIAG"> T  </i>
     <i type="logical" name="LSUBROT"> F  </i>
     <i name="WEIMIN">      0.00000000</i>
     <i name="EBREAK">      0.00000313</i>
     <i name="DEPER">      0.30000000</i>
     <i type="int" name="NRMM">     4</i>
     <i name="TIME">      0.40000000</i>
    </separator>
   </separator>
   <separator name="electronic mixer" >
    <i name="AMIX">      0.40000000</i>
    <i name="BMIX">      1.00000000</i>
    <i name="AMIN">      0.10000000</i>
    <i name="AMIX_MAG">      1.60000000</i>
    <i name="BMIX_MAG">      1.00000000</i>
    <separator name="electronic mixer details" >
     <i type="int" name="IMIX">     4</i>
     <i type="logical" name="MIXFIRST"> F  </i>
     <i type="int" name="MAXMIX">   -45</i>
     <i name="WC">    100.00000000</i>
     <i type="int" name="INIMIX">     1</i>
     <i type="int" name="MIXPRE">     1</i>
     <i type="int" name="MREMOVE">     5</i>
    </separator>
   </separator>
   <separator name="electronic dipolcorrection" >
    <i type="logical" name="LDIPOL"> F  </i>
    <i type="logical" name="LMONO"> F  </i>
    <i type="int" name="IDIPOL">     0</i>
    <i name="EPSILON">      1.00000000</i>
    <v name="DIPOL">   -100.00000000   -100.00000000   -100.00000000</v>
    <i name="EFIELD">      0.00000000</i>
   </separator>
  </separator>
  <separator name="grids" >
   <i type="int" name="NGX">    16</i>
   <i type="int" name="NGY">    16</i>
   <i type="int" name="NGZ">    16</i>
   <i type="int" name="NGXF">    32</i>
   <i type="int" name="NGYF">    32</i>
   <i type="int" name="NGZF">    32</i>
   <i type="logical" name="ADDGRID"> F  </i>
  </separator>
  <separator name="ionic" >
   <i type="int" name="NSW">     0</i>
   <i type="int" name="IBRION">    -1</i>
   <i type="int" name="MDALGO">     0</i>
   <i type="int" name="ISIF">     0</i>
   <i name="PSTRESS">      0.00000000</i>
   <i name="EDIFFG">      0.00100000</i>
   <i type="int" name="NFREE">     0</i>
   <i name="POTIM">      0.50000000</i>
   <i name="SMASS">     -3.00000000</i>
   <i name="SCALEE">      1.00000000</i>
  </separator>
  <separator name="ionic md" >
   <i name="TEBEG">      0.00010000</i>
   <i name="TEEND">      0.00010000</i>
   <i type="int" name="NBLOCK">     1</i>
   <i type="int" name="KBLOCK">     1</i>
   <i type="int" name="NPACO">   256</i>
   <i name="APACO">     10.00000000</i>
  </separator>
  <separator name="symmetry" >
   <i type="int" name="ISYM">     3</i>
   <i name="SYMPREC">      0.00001000</i>
  </separator>
  <separator name="dos" >
   <i type="int" name="LORBIT">     0</i>
   <v name="RWIGS">     -1.00000000</v>
   <i type="int" name="NEDOS">   301</i>
   <i name="EMIN">     10.00000000</i>
   <i name="EMAX">    -10.00000000</i>
   <i name="EFERMI">      0.00000000</i>
  </separator>
  <separator name="writing" >
   <i type="int" name="NWRITE">     2</i>
   <i type="logical" name="LWAVE"> T  </i>
   <i type="logical" name="LDOWNSAMPLE"> F  </i>
   <i type="logical" name="LCHARG"> T  </i>
   <i type="logical" name="LPARD"> F  </i>
   <i type="logical" name="LVTOT"> F  </i>
   <i type="logical" name="LVHAR"> F  </i>
   <i type="logical" name="LELF"> F  </i>
   <i type="logical" name="LOPTICS"> F  </i>
   <v name="STM">      0.00000000      0.00000000      0.00000000      0.00000000      0.00000000      0.00000000      0.00000000</v>
  </separator>
  <separator name="performance" >
   <i type="int" name="NPAR">     4</i>
   <i type="int" name="NSIM">     4</i>
   <i type="int" name="NBLK">    -1</i>
   <i type="logical" name="LPLANE"> T  </i>
   <i type="logical" name="LSCALAPACK"> T  </i>
   <i type="logical" name="LSCAAWARE"> F  </i>
   <i type="logical" name="LSCALU"> F  </i>
   <i type="logical" name="LASYNC"> F  </i>
   <i type="logical" name="LORBITALREAL"> F  </i>
  </separator>
  <separator name="miscellaneous" >
   <i type="int" name="IDIOT">     3</i>
   <i type="int" name="PHON_NSTRUCT">    -1</i>
   <i type="logical" name="LMUSIC"> F  </i>
   <v name="POMASS">     28.08500000</v>
   <v name="DARWINR">      0.00000000</v>
   <v name="DARWINV">      1.00000000</v>
   <i type="logical" name="LCORR"> T  </i>
  </separator>
  <i type="logical" name="GGA_COMPAT"> T  </i>
  <i type="logical" name="LBERRY"> F  </i>
  <i type="int" name="ICORELEVEL">     0</i>
  <i type="logical" name="LDAU"> F  </i>
  <i type="int" name="I_CONSTRAINED_M">     0</i>
  <separator name="electronic exchange-correlation" >
   <i type="string" name="GGA">B3</i>
   <i type="int" name="VOSKOWN">     0</i>
   <i type="logical" name="LHFCALC"> T  </i>
   <i type="string" name="PRECFOCK">normal</i>
   <i type="logical" name="LSYMGRAD"> F  </i>
   <i type="logical" name="LHFONE"> F  </i>
   <i type="logical" name="LRHFCALC"> F  </i>
   <i type="logical" name="LTHOMAS"> F  </i>
   <i type="logical" name="LMODELHF"> F  </i>
   <i type="logical" name="LFOCKACE"> T  </i>
   <i name="ENCUT4O">     -1.00000000</i>
   <i type="int" name="EXXOEP">     0</i>
   <i type="int" name="FOURORBIT">     0</i>
   <i name="AEXX">      0.20000000</i>
   <i name="HFALPHA">     -1.00000000</i>
   <i name="MCALPHA">      0.00000000</i>
   <i name="ALDAX">      0.80000000</i>
   <i name="AGGAX">      0.72000000</i>
   <i name="ALDAC">      0.19000000</i>
   <i name="AGGAC">      0.81000000</i>
   <i type="int" name="NKREDX">     1</i>
   <i type="int" name="NKREDY">     1</i>
   <i type="int" name="NKREDZ">     1</i>
   <i type="logical" name="SHIFTRED"> F  </i>
   <i type="logical" name="ODDONLY"> F  </i>
   <i type="logical" name="EVENONLY"> F  </i>
   <i type="int" name="LMAXFOCK">     4</i>
   <i type="int" name="NMAXFOCKAE">     1</i>
   <i type="logical" name="LFOCKAEDFT"> F  </i>
   <i name="HFSCREEN">      0.00000000</i>
   <i name="HFSCREENC">      0.00000000</i>
   <i type="int" name="NBANDSGWLOW">     1</i>
  </separator>
  <separator name="vdW DFT" >
   <i type="logical" name="LUSE_VDW"> F  </i>
   <i name="Zab_VDW">     -0.84910000</i>
   <i name="PARAM1">      0.12340000</i>
   <i name="PARAM2">      1.00000000</i>
   <i name="PARAM3">      0.00000000</i>
  </separator>
  <separator name="model GW" >
   <i type="int" name="MODEL_GW">     0</i>
   <i name="MODEL_EPS0">     24.01545105</i>
   <i name="MODEL_ALPHA">      1.00000000</i>
  </separator>
  <separator name="linear response parameters" >
   <i type="logical" name="LEPSILON"> F  </i>
   <i type="logical" name="LRPA"> F  </i>
   <i type="logical" name="LNABLA"> F  </i>
   <i type="logical" name="LVEL"> F  </i>
   <i name="CSHIFT">      0.10000000</i>
   <i name="OMEGAMAX">     -1.00000000</i>
   <i name="DEG_THRESHOLD">      0.00200000</i>
   <i name="RTIME">     -0.10000000</i>
   <i name="WPLASMAI">      0.00000000</i>
   <v name="DFIELD">      0.00000000      0.00000000      0.00000000</v>
   <v name="WPLASMA">      0.00000000      0.00000000      0.00000000      0.00000000      0.00000000      0.00000000      0.00000000      0.00000000      0.00000000</v>
  </separator>
  <separator name="orbital magnetization" >
   <i type="logical" name="NUCIND"> F  </i>
   <v name="MAGPOS">      0.00000000      0.00000000      0.00000000</v>
   <i type="logical" name="LNICSALL"> T  </i>
   <i type="logical" name="ORBITALMAG"> F  </i>
   <i type="logical" name="LMAGBLOCH"> F  </i>
   <i type="logical" name="LCHIMAG"> F  </i>
   <i type="logical" name="LGAUGE"> T  </i>
   <i type="int" name="MAGATOM">     0</i>
   <v name="MAGDIPOL">      0.00000000      0.00000000      0.00000000</v>
   <v name="AVECCONST">      0.00000000      0.00000000      0.00000000</v>
  </separator>
  <separator name="response functions" >
   <i type="logical" name="LFINITE_TEMPERATURE"> F  </i>
   <i type="logical" name="LADDER"> F  </i>
   <i type="logical" name="LRPAFORCE"> F  </i>
   <i type="logical" name="LFXC"> F  </i>
   <i type="logical" name="LHARTREE"> T  </i>
   <i type="int" name="IBSE">     0</i>
   <v type="int" name="KPOINT">    -1     0     0     0</v>
   <i type="logical" name="LTCTC"> F  </i>
   <i type="logical" name="LTCTE"> F  </i>
   <i type="logical" name="LTETE"> F  </i>
   <i type="logical" name="LTRIPLET"> F  </i>
   <i type="logical" name="LFXCEPS"> F  </i>
   <i type="logical" name="LFXHEG"> F  </i>
   <i type="int" name="NATURALO">     2</i>
   <i type="logical" name="LHOLEGF"> F  </i>
   <i type="logical" name="L2ORDER"> F  </i>
   <i type="logical" name="LDMP1"> F  </i>
   <i type="logical" name="LMP2LT"> F  </i>
   <i type="logical" name="LSMP2LT"> F  </i>
   <i type="logical" name="LGWLF"> F  </i>
   <i name="ENCUTGW">     -2.00000000</i>
   <i name="ENCUTGWSOFT">     -2.00000000</i>
   <i name="ENCUTLF">     -1.00000000</i>
   <i type="logical" name="LESF_SPLINES"> F  </i>
   <i type="int" name="LMAXMP2">    -1</i>
   <i name="SCISSOR">      0.00000000</i>
   <i type="int" name="NOMEGA">     0</i>
   <i type="int" name="NOMEGAR">     0</i>
   <i type="int" name="NBANDSGW">    -1</i>
   <i type="int" name="NBANDSO">    -1</i>
   <i type="int" name="NBANDSV">    -1</i>
   <i type="int" name="NELMGW">     1</i>
   <i type="int" name="NELMHF">     1</i>
   <i type="int" name="DIM">     3</i>
   <i type="int" name="IESPILON">     4</i>
   <i type="int" name="ANTIRES">     0</i>
   <i name="OMEGAMAX">    -30.00000000</i>
   <i name="OMEGAMIN">    -30.00000000</i>
   <i name="OMEGATL">   -200.00000000</i>
   <i type="int" name="OMEGAGRID">     0</i>
   <i name="CSHIFT">     -0.10000000</i>
   <i type="logical" name="LSELFENERGY"> F  </i>
   <i type="logical" name="LSPECTRAL"> F  </i>
   <i type="logical" name="LSPECTRALGW"> F  </i>
   <i type="logical" name="LSINGLES"> F  </i>
   <i type="logical" name="LFERMIGW"> F  </i>
   <i type="logical" name="ODDONLYGW"> F  </i>
   <i type="logical" name="EVENONLYGW"> F  </i>
   <i type="int" name="NKREDLFX">     1</i>
   <i type="int" name="NKREDLFY">     1</i>
   <i type="int" name="NKREDLFZ">     1</i>
   <i type="int" name="MAXMEM">  2800</i>
   <i type="int" name="TELESCOPE">     0</i>
   <i type="int" name="NTAUPAR">    -1</i>
   <i type="int" name="NOMEGAPAR">    -1</i>
   <i name="DAMP_NEWTON">      0.80000001</i>
   <i name="LAMBDA">      1.00000000</i>
  </separator>
  <separator name="External order field" >
   <i name="OFIELD_KAPPA">      0.00000000</i>
   <v name="OFIELD_K">      0.00000000      0.00000000      0.00000000</v>
   <i name="OFIELD_Q6_NEAR">      0.00000000</i>
   <i name="OFIELD_Q6_FAR">      0.00000000</i>
   <i name="OFIELD_A">      0.00000000</i>
  </separator>
  <separator name="optional k-points parameters" >
   <i type="int" name="KPOINTS_OPT_MODE">     1</i>
   <i type="logical" name="LKPOINTS_OPT"> F  </i>
  </separator>
 </parameters>
 <atominfo>
  <atoms>       1 </atoms>
  <types>       1 </types>
  <array name="atoms" >
   <dimension dim="1">ion</dimension>
   <field type="string">element</field>
   <field type="int">atomtype</field>
   <set>
    <rc><c>Si</c><c>   1</c></rc>
   </set>
  </array>
  <array name="atomtypes" >
   <dimension dim="1">type</dimension>
   <field type="int">atomspertype</field>
   <field type="string">element</field>
   <field>mass</field>
   <field>valence</field>
   <field type="string">pseudopotential</field>
   <set>
    <rc><c>   1</c><c>Si</c><c>     28.08500000</c><c>      4.00000000</c><c>  PAW_PBE Si 05Jan2001                  </c></rc>
   </set>
  </array>
 </atominfo>
 <structure name="initialpos" >
  <crystal>
   <varray name="basis" >
    <v>       2.71500000       2.71500000       0.00000000 </v>
    <v>       0.00000000       2.71500000       2.71500000 </v>
    <v>       2.71500000       0.00000000       2.71500000 </v>
   </varray>
   <i name="volume">     40.02575175 </i>
   <varray name="rec_basis" >
    <v>       0.18416206       0.18416206      -0.18416206 </v>
    <v>      -0.18416206       0.18416206       0.18416206 </v>
    <v>       0.18416206      -0.18416206       0.18416206 </v>
   </varray>
  </crystal>
  <varray name="positions" >
   <v>       0.00000000       0.00000000       0.00000000 </v>
  </varray>
 </structure>
 <calculation>
  <scstep>
   <time name="total">    2.22    2.25</time>
   <energy>
    <i name="alphaZ">      0.84103682 </i>
    <i name="ewald">    -97.26856434 </i>
    <i name="hartreedc">     -5.77476972 </i>
    <i name="XCdc">     -9.28474045 </i>
    <i name="pawpsdc">     97.83131317 </i>
    <i name="pawaedc">    -83.46710113 </i>
    <i name="eentropy">     -0.00059585 </i>
    <i name="bandstr">    -13.07568940 </i>
    <i name="atom">    102.40586734 </i>
    <i name="e_fr_energy">     -3.30443692 </i>
    <i name="e_wo_entrp">     -3.30384107 </i>
    <i name="e_0_energy">     -3.30413900 </i>
   </energy>
  </scstep>
  <scstep>
   <time name="total">    2.21    2.23</time>
   <energy>
    <i name="e_fr_energy">     -3.30888050 </i>
    <i name="e_wo_entrp">     -3.30828465 </i>
    <i name="e_0_energy">     -3.30858258 </i>
   </energy>
  </scstep>
  <scstep>
   <time name="total">    2.21    2.22</time>
   <energy>
    <i name="e_fr_energy">     -3.31127708 </i>
    <i name="e_wo_entrp">     -3.31068123 </i>
    <i name="e_0_energy">     -3.31097915 </i>
   </energy>
  </scstep>
  <scstep>
   <time name="total">    2.21    2.22</time>
   <energy>
    <i name="e_fr_energy">     -3.31223744 </i>
    <i name="e_wo_entrp">     -3.31164159 </i>
    <i name="e_0_energy">     -3.31193952 </i>
   </energy>
  </scstep>
  <scstep>
   <time name="total">    2.23    2.25</time>
   <energy>
    <i name="e_fr_energy">     -3.31268007 </i>
    <i name="e_wo_entrp">     -3.31208422 </i>
    <i name="e_0_energy">     -3.31238214 </i>
   </energy>
  </scstep>
  <scstep>
   <time name="total">    2.22    2.23</time>
   <energy>
    <i name="e_fr_energy">     -3.31288513 </i>
    <i name="e_wo_entrp">     -3.31228928 </i>
    <i name="e_0_energy">     -3.31258721 </i>
   </energy>
  </scstep>
  <scstep>
   <time name="total">    4.39    4.42</time>
   <energy>
    <i name="alphaZ">      0.84103682 </i>
    <i name="ewald">    -97.26856434 </i>
    <i name="hartreedc">     -5.93176375 </i>
    <i name="XCdc">     -9.27217446 </i>
    <i name="pawpsdc">    116.45054625 </i>
    <i name="pawaedc">   -102.09630684 </i>
    <i name="eentropy">     -0.00059585 </i>
    <i name="bandstr">    -12.94464803 </i>
    <i name="atom">    102.40586734 </i>
    <i name="e_fr_energy">     -3.31297826 </i>
    <i name="e_wo_entrp">     -3.31238242 </i>
    <i name="e_0_energy">     -3.31268034 </i>
   </energy>
  </scstep>
  <structure>
   <crystal>
    <varray name="basis" >
     <v>       2.71500000       2.71500000       0.00000000 </v>
     <v>       0.00000000       2.71500000       2.71500000 </v>
     <v>       2.71500000       0.00000000       2.71500000 </v>
    </varray>
    <i name="volume">     40.02575175 </i>
    <varray name="rec_basis" >
     <v>       0.18416206       0.18416206      -0.18416206 </v>
     <v>      -0.18416206       0.18416206       0.18416206 </v>
     <v>       0.18416206      -0.18416206       0.18416206 </v>
    </varray>
   </crystal>
   <varray name="positions" >
    <v>       0.00000000       0.00000000       0.00000000 </v>
   </varray>
  </structure>
  <varray name="forces" >
   <v>       0.00000000       0.00000000      -0.00000000 </v>
  </varray>
  <energy>
   <i name="e_fr_energy">     -3.31297826 </i>
   <i name="e_wo_entrp">     -3.31238242 </i>
   <i name="e_0_energy">     -3.31268034 </i>
  </energy>
  <time name="totalsc">   18.97   19.12</time>
  <eigenvalues>
   <array>
    <dimension dim="1">band</dimension>
    <dimension dim="2">kpoint</dimension>
    <dimension dim="3">spin</dimension>
    <field>eigene</field>
    <field>occ</field>
    <set>
     <set comment="spin 1">
      <set comment="kpoint 1">
       <r>   -8.2923    1.0000 </r>
       <r>    5.1778    0.0000 </r>
       <r>    5.1778    0.0000 </r>
       <r>    5.1778    0.0000 </r>
       <r>    9.9195    0.0000 </r>
       <r>   11.0654    0.0000 </r>
       <r>   11.0654    0.0000 </r>
       <r>   11.0654    0.0000 </r>
      </set>
      <set comment="kpoint 2">
       <r>   -7.9411    1.0000 </r>
       <r>    3.2490    0.0000 </r>
       <r>    4.9571    0.0000 </r>
       <r>    4.9571    0.0000 </r>
       <r>    9.8589    0.0000 </r>
       <r>   11.4825    0.0000 </r>
       <r>   11.4826    0.0000 </r>
       <r>   11.8121    0.0000 </r>
      </set>
      <set comment="kpoint 3">
       <r>   -7.0074    1.0000 </r>
       <r>   -0.0465    1.0000 </r>
       <r>    4.6128    0.0000 </r>
       <r>    4.6128    0.0000 </r>
       <r>    8.9716    0.0000 </r>
       <r>   11.0001    0.0000 </r>
       <r>   11.0001    0.0000 </r>
       <r>   13.5951    0.0000 </r>
      </set>
      <set comment="kpoint 4">
       <r>   -6.2881    1.0000 </r>
       <r>   -1.5386    1.0000 </r>
       <r>    4.4740    0.0000 </r>
       <r>    4.4740    0.0000 </r>
       <r>    8.6650    0.0000 </r>
       <r>   10.5932    0.0000 </r>
       <r>   10.5932    0.0000 </r>
       <r>   13.3670    0.0000 </r>
      </set>
      <set comment="kpoint 5">
       <r>   -7.8236    1.0000 </r>
       <r>    3.5233    0.0000 </r>
       <r>    4.4172    0.0000 </r>
       <r>    4.4172    0.0000 </r>
       <r>    9.5115    0.0000 </r>
       <r>   10.6005    0.0000 </r>
       <r>   12.3621    0.0000 </r>
       <r>   12.3621    0.0000 </r>
      </set>
      <set comment="kpoint 6">
       <r>   -7.0723    1.0000 </r>
       <r>    0.9459    1.0000 </r>
       <r>    3.8002    0.0000 </r>
       <r>    3.9816    0.0000 </r>
       <r>    9.0775    0.0000 </r>
       <r>   10.2276    0.0000 </r>
       <r>   12.0498    0.0000 </r>
       <r>   12.5750    0.0000 </r>
      </set>
      <set comment="kpoint 7">
       <r>   -6.1604    1.0000 </r>
       <r>   -1.0048    1.0000 </r>
       <r>    3.0324    0.0000 </r>
       <r>    3.9835    0.0000 </r>
       <r>    8.8499    0.0000 </r>
       <r>   10.5764    0.0000 </r>
       <r>   11.7636    0.0000 </r>
       <r>   13.3532    0.0000 </r>
      </set>
      <set comment="kpoint 8">
       <r>   -6.4180    1.0000 </r>
       <r>   -0.4980    1.0000 </r>
       <r>    2.7370    0.0000 </r>
       <r>    4.4012    0.0000 </r>
       <r>    9.4683    0.0000 </r>
       <r>   10.6098    0.0000 </r>
       <r>   11.5010    0.0000 </r>
       <r>   13.5075    0.0000 </r>
      </set>
      <set comment="kpoint 9">
       <r>   -7.3871    1.0000 </r>
       <r>    1.9576    0.0000 </r>
       <r>    3.4015    0.0000 </r>
       <r>    4.9256    0.0000 </r>
       <r>   10.6175    0.0000 </r>
       <r>   10.7197    0.0000 </r>
       <r>   11.8287    0.0000 </r>
       <r>   12.0925    0.0000 </r>
      </set>
      <set comment="kpoint 10">
       <r>   -6.5628    1.0000 </r>
       <r>    0.5573    1.0000 </r>
       <r>    3.3664    0.0000 </r>
       <r>    3.3664    0.0000 </r>
       <r>    7.8753    0.0000 </r>
       <r>    7.9525    0.0000 </r>
       <r>   15.0006    0.0000 </r>
       <r>   15.0006    0.0000 </r>
      </set>
      <set comment="kpoint 11">
       <r>   -5.8040    1.0000 </r>
       <r>   -0.4224    1.0000 </r>
       <r>    2.0052    0.0000 </r>
       <r>    3.2597    0.0000 </r>
       <r>    7.5047    0.0000 </r>
       <r>    9.0974    0.0000 </r>
       <r>   14.4658    0.0000 </r>
       <r>   14.5022    0.0000 </r>
      </set>
      <set comment="kpoint 12">
       <r>   -5.7198    1.0000 </r>
       <r>    0.0389    1.0000 </r>
       <r>    0.2096    1.0000 </r>
       <r>    3.6860    0.0000 </r>
       <r>    8.1070    0.0000 </r>
       <r>   11.7352    0.0000 </r>
       <r>   13.1365    0.0000 </r>
       <r>   13.2950    0.0000 </r>
      </set>
      <set comment="kpoint 13">
       <r>   -5.5426    1.0000 </r>
       <r>   -0.9628    1.0000 </r>
       <r>    2.9729    0.0000 </r>
       <r>    2.9729    0.0000 </r>
       <r>    6.7868    0.0000 </r>
       <r>    7.4080    0.0000 </r>
       <r>   16.8544    0.0000 </r>
       <r>   17.6025    0.0000 </r>
      </set>
      <set comment="kpoint 14">
       <r>   -6.2753    1.0000 </r>
       <r>    0.1309    1.0000 </r>
       <r>    2.1010    0.0000 </r>
       <r>    3.4891    0.0000 </r>
       <r>    9.3536    0.0000 </r>
       <r>    9.9724    0.0000 </r>
       <r>   11.5564    0.0000 </r>
       <r>   14.5733    0.0000 </r>
      </set>
      <set comment="kpoint 15">
       <r>   -5.7200    1.0000 </r>
       <r>   -0.4532    1.0000 </r>
       <r>    1.2445    0.6250 </r>
       <r>    3.0110    0.0000 </r>
       <r>    9.3155    0.0000 </r>
       <r>   10.6460    0.0000 </r>
       <r>   12.3771    0.0000 </r>
       <r>   13.1596    0.0000 </r>
      </set>
      <set comment="kpoint 16">
       <r>   -5.4949    1.0000 </r>
       <r>   -0.3686    1.0000 </r>
       <r>    1.6089    0.0000 </r>
       <r>    2.2312    0.0000 </r>
       <r>    8.6286    0.0000 </r>
       <r>    9.5552    0.0000 </r>
       <r>   13.5357    0.0000 </r>
       <r>   13.7281    0.0000 </r>
      </set>
     </set>
    </set>
   </array>
  </eigenvalues>
  <separator name="orbital magnetization" >
   <v name="MAGDIPOLOUT">      0.00000000      0.00000000      0.00000000</v>
  </separator>
  <dos>
   <i name="efermi">      1.24672625 </i>
   <total>
    <array>
     <dimension dim="1">gridpoints</dimension>
     <dimension dim="2">spin</dimension>
     <field>energy</field>
     <field>total</field>
     <field>integrated</field>
     <set>
      <set comment="spin 1">
       <r>    -9.5871     0.0000     0.0000 </r>
       <r>    -9.4921     0.0000     0.0000 </r>
       <r>    -9.3972     0.0000     0.0000 </r>
       <r>    -9.3022     0.0000     0.0000 </r>
       <r>    -9.2073     0.0000     0.0000 </r>
       <r>    -9.1123     0.0000     0.0000 </r>
       <r>    -9.0174     0.0000     0.0000 </r>
       <r>    -8.9224     0.0000     0.0000 </r>
       <r>    -8.8275     0.0000     0.0000 </r>
       <r>    -8.7325     0.0000     0.0000 </r>
       <r>    -8.6376     0.0000     0.0000 </r>
       <r>    -8.5426     0.0000     0.0000 </r>
       <r>    -8.4477     0.0000     0.0000 </r>
       <r>    -8.3527     0.0000     0.0000 </r>
       <r>    -8.2578     0.0975     0.0093 </r>
       <r>    -8.1628     0.0000     0.0093 </r>
       <r>    -8.0679     0.0000     0.0093 </r>
       <r>    -7.9730     0.0000     0.0093 </r>
       <r>    -7.8780     0.7802     0.0833 </r>
       <r>    -7.7831     0.5851     0.1389 </r>
       <r>    -7.6881     0.0000     0.1389 </r>
       <r>    -7.5932     0.0000     0.1389 </r>
       <r>    -7.4982     0.0000     0.1389 </r>
       <r>    -7.4033     0.0128     0.1401 </r>
       <r>    -7.3083     1.1574     0.2500 </r>
       <r>    -7.2134     0.0000     0.2500 </r>
       <r>    -7.1184     0.0000     0.2500 </r>
       <r>    -7.0235     2.3496     0.4731 </r>
       <r>    -6.9285     0.7711     0.5463 </r>
       <r>    -6.8336     0.0000     0.5463 </r>
       <r>    -6.7386     0.0000     0.5463 </r>
       <r>    -6.6437     0.0000     0.5463 </r>
       <r>    -6.5487     0.5715     0.6006 </r>
       <r>    -6.4538     0.0000     0.6019 </r>
       <r>    -6.3588     2.3405     0.8241 </r>
       <r>    -6.2639     2.6068     1.0716 </r>
       <r>    -6.1689     0.2641     1.1084 </r>
       <r>    -6.0740     0.0000     1.3056 </r>
       <r>    -5.9790     0.0000     1.3056 </r>
       <r>    -5.8841     0.0000     1.3056 </r>
       <r>    -5.7892     2.2986     1.5238 </r>
       <r>    -5.6942     3.5102     1.8611 </r>
       <r>    -5.5993     0.0000     1.8611 </r>
       <r>    -5.5043     0.3999     1.8991 </r>
       <r>    -5.4094     0.0000     2.0000 </r>
       <r>    -5.3144     0.0000     2.0000 </r>
       <r>    -5.2195     0.0000     2.0000 </r>
       <r>    -5.1245     0.0000     2.0000 </r>
       <r>    -5.0296     0.0000     2.0000 </r>
       <r>    -4.9346     0.0000     2.0000 </r>
       <r>    -4.8397     0.0000     2.0000 </r>
       <r>    -4.7447     0.0000     2.0000 </r>
       <r>    -4.6498     0.0000     2.0000 </r>
       <r>    -4.5548     0.0000     2.0000 </r>
       <r>    -4.4599     0.0000     2.0000 </r>
       <r>    -4.3649     0.0000     2.0000 </r>
       <r>    -4.2700     0.0000     2.0000 </r>
       <r>    -4.1750     0.0000     2.0000 </r>
       <r>    -4.0801     0.0000     2.0000 </r>
       <r>    -3.9851     0.0000     2.0000 </r>
       <r>    -3.8902     0.0000     2.0000 </r>
       <r>    -3.7952     0.0000     2.0000 </r>
       <r>    -3.7003     0.0000     2.0000 </r>
       <r>    -3.6054     0.0000     2.0000 </r>
       <r>    -3.5104     0.0000     2.0000 </r>
       <r>    -3.4155     0.0000     2.0000 </r>
       <r>    -3.3205     0.0000     2.0000 </r>
       <r>    -3.2256     0.0000     2.0000 </r>
       <r>    -3.1306     0.0000     2.0000 </r>
       <r>    -3.0357     0.0000     2.0000 </r>
       <r>    -2.9407     0.0000     2.0000 </r>
       <r>    -2.8458     0.0000     2.0000 </r>
       <r>    -2.7508     0.0000     2.0000 </r>
       <r>    -2.6559     0.0000     2.0000 </r>
       <r>    -2.5609     0.0000     2.0000 </r>
       <r>    -2.4660     0.0000     2.0000 </r>
       <r>    -2.3710     0.0000     2.0000 </r>
       <r>    -2.2761     0.0000     2.0000 </r>
       <r>    -2.1811     0.0000     2.0000 </r>
       <r>    -2.0862     0.0000     2.0000 </r>
       <r>    -1.9912     0.0000     2.0000 </r>
       <r>    -1.8963     0.0000     2.0000 </r>
       <r>    -1.8013     0.0000     2.0000 </r>
       <r>    -1.7064     0.0000     2.0000 </r>
       <r>    -1.6114     0.0000     2.0000 </r>
       <r>    -1.5165     0.3897     2.0370 </r>
       <r>    -1.4216     0.0000     2.0370 </r>
       <r>    -1.3266     0.0000     2.0370 </r>
       <r>    -1.2317     0.0000     2.0370 </r>
       <r>    -1.1367     0.0000     2.0370 </r>
       <r>    -1.0418     0.0000     2.0370 </r>
       <r>    -0.9468     2.6296     2.2867 </r>
       <r>    -0.8519     0.0000     2.2870 </r>
       <r>    -0.7569     0.0000     2.2870 </r>
       <r>    -0.6620     0.0000     2.2870 </r>
       <r>    -0.5670     0.0000     2.2870 </r>
       <r>    -0.4721     2.3489     2.5101 </r>
       <r>    -0.3771     4.8060     2.9664 </r>
       <r>    -0.2822     0.0000     3.0648 </r>
       <r>    -0.1872     0.0000     3.0648 </r>
       <r>    -0.0923     0.0000     3.0648 </r>
       <r>     0.0027     0.7802     3.1389 </r>
       <r>     0.0976     1.1702     3.2500 </r>
       <r>     0.1926     2.3498     3.4731 </r>
       <r>     0.2875     1.1609     3.5833 </r>
       <r>     0.3825     0.0000     3.5833 </r>
       <r>     0.4774     0.0000     3.5833 </r>
       <r>     0.5724     0.5753     3.6380 </r>
       <r>     0.6673     0.0000     3.6389 </r>
       <r>     0.7623     0.0000     3.6389 </r>
       <r>     0.8572     0.0000     3.6389 </r>
       <r>     0.9521     1.8957     3.8189 </r>
       <r>     1.0471     0.0000     3.8611 </r>
       <r>     1.1420     0.0000     3.8611 </r>
       <r>     1.2370     0.3392     3.8933 </r>
       <r>     1.3319     0.0000     4.0833 </r>
       <r>     1.4269     0.0000     4.0833 </r>
       <r>     1.5218     0.0000     4.0833 </r>
       <r>     1.6168     1.0159     4.1798 </r>
       <r>     1.7117     0.0000     4.1944 </r>
       <r>     1.8067     0.0000     4.1944 </r>
       <r>     1.9016     0.0000     4.1944 </r>
       <r>     1.9966     1.4327     4.3305 </r>
       <r>     2.0915     0.2133     4.5480 </r>
       <r>     2.1865     0.0000     4.7500 </r>
       <r>     2.2814     1.1702     4.8611 </r>
       <r>     2.3764     0.0000     4.8611 </r>
       <r>     2.4713     0.0000     4.8611 </r>
       <r>     2.5663     0.0000     4.8611 </r>
       <r>     2.6612     0.0000     4.8611 </r>
       <r>     2.7562     2.3324     5.0826 </r>
       <r>     2.8511     0.0000     5.0833 </r>
       <r>     2.9461     0.0000     5.0833 </r>
       <r>     3.0410     5.0048     5.5585 </r>
       <r>     3.1359     0.0000     5.5833 </r>
       <r>     3.2309     0.0042     5.5837 </r>
       <r>     3.3258     3.1164     5.8796 </r>
       <r>     3.4208     2.3367     6.1015 </r>
       <r>     3.5157     2.4230     6.3319 </r>
       <r>     3.6107     0.0000     6.3796 </r>
       <r>     3.7056     1.1670     6.4904 </r>
       <r>     3.8006     1.2200     6.6066 </r>
       <r>     3.8955     0.0000     6.7130 </r>
       <r>     3.9905     4.0580     7.0983 </r>
       <r>     4.0854     0.0000     7.1574 </r>
       <r>     4.1804     0.0000     7.1574 </r>
       <r>     4.2753     0.0000     7.1574 </r>
       <r>     4.3703     0.0000     7.1574 </r>
       <r>     4.4652     3.5944     7.4987 </r>
       <r>     4.5602     0.0000     7.5648 </r>
       <r>     4.6551     1.5603     7.7130 </r>
       <r>     4.7501     0.0000     7.7130 </r>
       <r>     4.8450     0.0000     7.7130 </r>
       <r>     4.9400     1.1571     7.8228 </r>
       <r>     5.0349     1.5485     7.9722 </r>
       <r>     5.1299     0.0000     7.9722 </r>
       <r>     5.2248     0.2926     8.0000 </r>
       <r>     5.3197     0.0000     8.0000 </r>
       <r>     5.4147     0.0000     8.0000 </r>
       <r>     5.5096     0.0000     8.0000 </r>
       <r>     5.6046     0.0000     8.0000 </r>
       <r>     5.6995     0.0000     8.0000 </r>
       <r>     5.7945     0.0000     8.0000 </r>
       <r>     5.8894     0.0000     8.0000 </r>
       <r>     5.9844     0.0000     8.0000 </r>
       <r>     6.0793     0.0000     8.0000 </r>
       <r>     6.1743     0.0000     8.0000 </r>
       <r>     6.2692     0.0000     8.0000 </r>
       <r>     6.3642     0.0000     8.0000 </r>
       <r>     6.4591     0.0000     8.0000 </r>
       <r>     6.5541     0.0000     8.0000 </r>
       <r>     6.6490     0.0000     8.0000 </r>
       <r>     6.7440     0.0000     8.0000 </r>
       <r>     6.8389     0.2926     8.0278 </r>
       <r>     6.9339     0.0000     8.0278 </r>
       <r>     7.0288     0.0000     8.0278 </r>
       <r>     7.1238     0.0000     8.0278 </r>
       <r>     7.2187     0.0000     8.0278 </r>
       <r>     7.3137     0.0000     8.0278 </r>
       <r>     7.4086     0.1568     8.0427 </r>
       <r>     7.5035     1.0214     8.1525 </r>
       <r>     7.5985     0.0000     8.2778 </r>
       <r>     7.6934     0.0000     8.2778 </r>
       <r>     7.7884     0.0000     8.2778 </r>
       <r>     7.8833     0.5098     8.3262 </r>
       <r>     7.9783     0.5850     8.3889 </r>
       <r>     8.0732     0.0000     8.3889 </r>
       <r>     8.1682     1.1702     8.5000 </r>
       <r>     8.2631     0.0000     8.5000 </r>
       <r>     8.3581     0.0000     8.5000 </r>
       <r>     8.4530     0.0000     8.5000 </r>
       <r>     8.5480     0.0000     8.5000 </r>
       <r>     8.6429     1.1453     8.6087 </r>
       <r>     8.7379     0.3897     8.6481 </r>
       <r>     8.8328     0.0183     8.6499 </r>
       <r>     8.9278     2.3221     8.8704 </r>
       <r>     9.0227     0.7802     8.9444 </r>
       <r>     9.1177     4.6761     9.3884 </r>
       <r>     9.2126     0.0000     9.3889 </r>
       <r>     9.3076     0.3028     9.4176 </r>
       <r>     9.4025     2.3405     9.8333 </r>
       <r>     9.4975     2.3540    10.0568 </r>
       <r>     9.5924     1.1702    10.2222 </r>
       <r>     9.6873     0.0000    10.2222 </r>
       <r>     9.7823     0.0000    10.2222 </r>
       <r>     9.8772     0.7764    10.2959 </r>
       <r>     9.9722     1.2465    10.4146 </r>
       <r>    10.0671     0.0000    10.5278 </r>
       <r>    10.1621     0.0000    10.5278 </r>
       <r>    10.2570     2.3404    10.7500 </r>
       <r>    10.3520     0.0000    10.7500 </r>
       <r>    10.4469     0.0000    10.7500 </r>
       <r>    10.5419     0.0000    10.7500 </r>
       <r>    10.6368     7.4392    11.4563 </r>
       <r>    10.7318     1.1196    11.7637 </r>
       <r>    10.8267     0.0000    11.7685 </r>
       <r>    10.9217     0.0000    11.7685 </r>
       <r>    11.0166     1.5452    11.9152 </r>
       <r>    11.1116     0.2926    11.9444 </r>
       <r>    11.2065     0.0000    11.9444 </r>
       <r>    11.3015     0.0000    11.9444 </r>
       <r>    11.3964     0.0000    11.9444 </r>
       <r>    11.4914     1.5985    12.0962 </r>
       <r>    11.5863     2.3404    12.5370 </r>
       <r>    11.6813     0.0000    12.5370 </r>
       <r>    11.7762     3.4227    12.8620 </r>
       <r>    11.8711     1.9504    13.0556 </r>
       <r>    11.9661     0.0000    13.0556 </r>
       <r>    12.0610     2.2092    13.2653 </r>
       <r>    12.1560     1.1702    13.3889 </r>
       <r>    12.2509     0.0000    13.3889 </r>
       <r>    12.3459     0.0126    13.3901 </r>
       <r>    12.4408     3.4981    13.7222 </r>
       <r>    12.5358     0.0000    13.7222 </r>
       <r>    12.6307     2.3405    13.9444 </r>
       <r>    12.7257     0.0000    13.9444 </r>
       <r>    12.8206     0.0000    13.9444 </r>
       <r>    12.9156     0.0000    13.9444 </r>
       <r>    13.0105     0.0000    13.9444 </r>
       <r>    13.1055     0.0000    13.9444 </r>
       <r>    13.2004     3.5107    14.2778 </r>
       <r>    13.2954     0.6071    14.3354 </r>
       <r>    13.3903     2.7304    14.6481 </r>
       <r>    13.4853     0.0020    14.6483 </r>
       <r>    13.5802     3.5225    14.9828 </r>
       <r>    13.6752     0.0000    15.0556 </r>
       <r>    13.7701     1.1702    15.1667 </r>
       <r>    13.8651     0.0000    15.1667 </r>
       <r>    13.9600     0.0000    15.1667 </r>
       <r>    14.0550     0.0000    15.1667 </r>
       <r>    14.1499     0.0000    15.1667 </r>
       <r>    14.2448     0.0000    15.1667 </r>
       <r>    14.3398     0.0000    15.1667 </r>
       <r>    14.4347     0.0000    15.1667 </r>
       <r>    14.5297     4.6808    15.6111 </r>
       <r>    14.6246     2.3405    15.8333 </r>
       <r>    14.7196     0.0000    15.8333 </r>
       <r>    14.8145     0.0000    15.8333 </r>
       <r>    14.9095     0.0000    15.8333 </r>
       <r>    15.0044     0.8245    15.9116 </r>
       <r>    15.0994     0.0000    15.9444 </r>
       <r>    15.1943     0.0000    15.9444 </r>
       <r>    15.2893     0.0000    15.9444 </r>
       <r>    15.3842     0.0000    15.9444 </r>
       <r>    15.4792     0.0000    15.9444 </r>
       <r>    15.5741     0.0000    15.9444 </r>
       <r>    15.6691     0.0000    15.9444 </r>
       <r>    15.7640     0.0000    15.9444 </r>
       <r>    15.8590     0.0000    15.9444 </r>
       <r>    15.9539     0.0000    15.9444 </r>
       <r>    16.0489     0.0000    15.9444 </r>
       <r>    16.1438     0.0000    15.9444 </r>
       <r>    16.2388     0.0000    15.9444 </r>
       <r>    16.3337     0.0000    15.9444 </r>
       <r>    16.4286     0.0000    15.9444 </r>
       <r>    16.5236     0.0000    15.9444 </r>
       <r>    16.6185     0.0000    15.9444 </r>
       <r>    16.7135     0.0000    15.9444 </r>
       <r>    16.8084     0.0000    15.9444 </r>
       <r>    16.9034     0.2926    15.9722 </r>
       <r>    16.9983     0.0000    15.9722 </r>
       <r>    17.0933     0.0000    15.9722 </r>
       <r>    17.1882     0.0000    15.9722 </r>
       <r>    17.2832     0.0000    15.9722 </r>
       <r>    17.3781     0.0000    15.9722 </r>
       <r>    17.4731     0.0000    15.9722 </r>
       <r>    17.5680     0.0000    15.9722 </r>
       <r>    17.6630     0.2926    16.0000 </r>
       <r>    17.7579     0.0000    16.0000 </r>
       <r>    17.8529     0.0000    16.0000 </r>
       <r>    17.9478     0.0000    16.0000 </r>
       <r>    18.0428     0.0000    16.0000 </r>
       <r>    18.1377     0.0000    16.0000 </r>
       <r>    18.2327     0.0000    16.0000 </r>
       <r>    18.3276     0.0000    16.0000 </r>
       <r>    18.4226     0.0000    16.0000 </r>
       <r>    18.5175     0.0000    16.0000 </r>
       <r>    18.6124     0.0000    16.0000 </r>
       <r>    18.7074     0.0000    16.0000 </r>
       <r>    18.8023     0.0000    16.0000 </r>
       <r>    18.8973     0.0000    16.0000 </r>
      </set>
     </set>
    </array>
   </total>
  </dos>
 </calculation>
 <structure name="finalpos" >
  <crystal>
   <varray name="basis" >
    <v>       2.71500000       2.71500000       0.00000000 </v>
    <v>       0.00000000       2.71500000       2.71500000 </v>
    <v>       2.71500000       0.00000000       2.71500000 </v>
   </varray>
   <i name="volume">     40.02575175 </i>
   <varray name="rec_basis" >
    <v>       0.18416206       0.18416206      -0.18416206 </v>
    <v>      -0.18416206       0.18416206       0.18416206 </v>
    <v>       0.18416206      -0.18416206       0.18416206 </v>
   </varray>
  </crystal>
  <varray name="positions" >
   <v>       0.00000000       0.00000000       0.00000000 </v>
  </varray>
 </structure>
</modeling>
