diamond Si                              
   5.50000000000000     
     0.000000    0.500000    0.500000
     0.500000    0.000000    0.500000
     0.500000    0.500000    0.000000
   Si
     2
Direct
  0.875000  0.875000  0.875000
  0.125000  0.125000  0.125000
 
   32   32   32
 0.22794188248E+02 0.22741971253E+02 0.22534246134E+02 0.22033944089E+02 0.21028934306E+02
 0.19502440155E+02 0.17772220966E+02 0.16384242446E+02 0.15851780048E+02 0.16384239188E+02
 0.17772211264E+02 0.19502431694E+02 0.21028947159E+02 0.22033991141E+02 0.22534319244E+02
 0.22742052806E+02 0.22794269810E+02 0.22742052806E+02 0.22534319244E+02 0.22033991141E+02
 0.21028947159E+02 0.19502431694E+02 0.17772211264E+02 0.16384239188E+02 0.15851780048E+02
 0.16384242446E+02 0.17772220966E+02 0.19502440155E+02 0.21028934306E+02 0.22033944089E+02
 0.22534246134E+02 0.22741971253E+02 0.22741971253E+02 0.23036972012E+02 0.22981243720E+02
 0.22214201160E+02 0.20568771375E+02 0.18307954836E+02 0.16094094874E+02 0.14719115210E+02
 0.14719108762E+02 0.16094082484E+02 0.18307951812E+02 0.20568791629E+02 0.22214252615E+02
 0.22981324822E+02 0.23037067607E+02 0.22742057260E+02 0.22292386456E+02 0.21757514002E+02
 0.21110456493E+02 0.20281812038E+02 0.19201464796E+02 0.17935440511E+02 0.16762489776E+02
 0.16048305392E+02 0.16048314571E+02 0.16762511836E+02 0.17935462794E+02 0.19201476607E+02
 0.20281810948E+02 0.21110443061E+02 0.21757482813E+02 0.22292327804E+02 0.22534246134E+02
 0.22981243720E+02 0.22624721706E+02 0.21103834290E+02 0.18521291365E+02 0.15528167632E+02
 0.13118957618E+02 0.12194864949E+02 0.13118930127E+02 0.15528138260E+02 0.18521287438E+02
 0.21103868635E+02 0.22624794528E+02 0.22981342053E+02 0.22534338284E+02 0.21757530647E+02
 0.20868526974E+02 0.19946631218E+02 0.18989414905E+02 0.17977070815E+02 0.16935946257E+02
 0.15962728335E+02 0.15246711411E+02 0.14981050664E+02 0.15246700919E+02 0.15962715983E+02
 0.16935945959E+02 0.17977095007E+02 0.18989463124E+02 0.19946680003E+02 0.20868538424E+02
 0.21757482813E+02 0.22033944089E+02 0.22214201160E+02 0.21103834290E+02 0.18570521853E+02
 0.15105748664E+02 0.11744626901E+02 0.96703457037E+01 0.96703340075E+01 0.11744600417E+02
 0.15105726798E+02 0.18570524485E+02 0.21103874817E+02 0.22214277390E+02 0.22034028091E+02
 0.21110490930E+02 0.19946663910E+02 0.18741456923E+02 0.17574993193E+02 0.16463711462E+02
 0.15418344526E+02 0.14488948023E+02 0.13771768349E+02 0.13375928193E+02 0.13375898860E+02
 0.13771704595E+02 0.14488900011E+02 0.15418347653E+02 0.16463767937E+02 0.17575077094E+02
 0.18741526441E+02 0.19946680003E+02 0.21110443061E+02 0.21028934306E+02 0.20568771375E+02
 0.18521291365E+02 0.15105748664E+02 0.11205976420E+02 0.80973106105E+01 0.69105371835E+01
 0.80972973274E+01 0.11205966256E+02 0.15105757498E+02 0.18521323377E+02 0.20568820935E+02
 0.21028987124E+02 0.20281843970E+02 0.18989457365E+02 0.17575035592E+02 0.16201155638E+02
 0.14940484271E+02 0.13818203910E+02 0.12856460342E+02 0.12099163835E+02 0.11607735258E+02
 0.11436666578E+02 0.11607699088E+02 0.12099117348E+02 0.12856432474E+02 0.13818208973E+02
 0.14940520781E+02 0.16201208222E+02 0.17575077094E+02 0.18989463124E+02 0.20281810948E+02
 0.19502440155E+02 0.18307954836E+02 0.15528167632E+02 0.11744626901E+02 0.80973106105E+01
 0.58561739760E+01 0.58561772018E+01 0.80973214912E+01 0.11744649028E+02 0.15528205227E+02
 0.18308006310E+02 0.19502491206E+02 0.19201505343E+02 0.17977092567E+02 0.16463752019E+02
 0.14940518707E+02 0.13535738861E+02 0.12307635476E+02 0.11279155342E+02 0.10468565869E+02
 0.99021742075E+01 0.96092670696E+01 0.96092605089E+01 0.99021607151E+01 0.10468552471E+02
 0.11279137811E+02 0.12307610639E+02 0.13535719722E+02 0.14940520781E+02 0.16463767937E+02
 0.17977095007E+02 0.19201476607E+02 0.17772220966E+02 0.16094094874E+02 0.13118957618E+02
 0.96703457037E+01 0.69105371835E+01 0.58561772018E+01 0.69105770132E+01 0.96704064361E+01
 0.13119018047E+02 0.16094146457E+02 0.17772265431E+02 0.17935500717E+02 0.16935974156E+02
 0.15418368530E+02 0.13818233395E+02 0.12307645431E+02 0.10979112719E+02 0.98713407209E+01
 0.89968234522E+01 0.83622314162E+01 0.79759324041E+01 0.78460365656E+01 0.79759206362E+01
 0.83622137805E+01 0.89968010732E+01 0.98713092810E+01 0.10979074122E+02 0.12307610639E+02
 0.13818208973E+02 0.15418347653E+02 0.16935945959E+02 0.17935462794E+02 0.16384242446E+02
 0.14719115210E+02 0.12194864949E+02 0.96703340075E+01 0.80972973274E+01 0.80973214912E+01
 0.96704064361E+01 0.12194970523E+02 0.14719212820E+02 0.16384296358E+02 0.16762532013E+02
 0.15962744757E+02 0.14488956214E+02 0.12856490718E+02 0.11279170353E+02 0.98713258379E+01
 0.86891459904E+01 0.77495876762E+01 0.70513060882E+01 0.65888538693E+01 0.63584229039E+01
 0.63584297290E+01 0.65888579743E+01 0.70512852023E+01 0.77495505302E+01 0.86891187449E+01
 0.98713092810E+01 0.11279137811E+02 0.12856432474E+02 0.14488900011E+02 0.15962715983E+02
 0.16762511836E+02 0.15851780048E+02 0.14719108762E+02 0.13118930127E+02 0.11744600417E+02
 0.11205966256E+02 0.11744649028E+02 0.13119018047E+02 0.14719212820E+02 0.15851869505E+02
 0.16048371433E+02 0.15246733038E+02 0.13771733436E+02 0.12099153780E+02 0.10468589700E+02
 0.89968289600E+01 0.77495664153E+01 0.67496014854E+01 0.59934566449E+01 0.54673819292E+01
 0.51577340796E+01 0.50555443300E+01 0.51577599009E+01 0.54674121105E+01 0.59934718127E+01
 0.67495988029E+01 0.77495505302E+01 0.89968010732E+01 0.10468552471E+02 0.12099117348E+02
 0.13771704595E+02 0.15246700919E+02 0.16048314571E+02 0.16384239188E+02 0.16094082484E+02
 0.15528138260E+02 0.15105726798E+02 0.15105757498E+02 0.15528205227E+02 0.16094146457E+02
 0.16384296358E+02 0.16048371433E+02 0.14981112895E+02 0.13375923356E+02 0.11607685494E+02
 0.99021526280E+01 0.83622385318E+01 0.70513119296E+01 0.59934532756E+01 0.51838701854E+01
 0.46032894940E+01 0.42301642375E+01 0.40479237288E+01 0.40479276869E+01 0.42301900421E+01
 0.46033484880E+01 0.51839321925E+01 0.59934718127E+01 0.70512852023E+01 0.83622137805E+01
 0.99021607151E+01 0.11607699088E+02 0.13375898860E+02 0.14981050664E+02 0.16048305392E+02
 0.17772211264E+02 0.18307951812E+02 0.18521287438E+02 0.18570524485E+02 0.18521323377E+02
 0.18308006310E+02 0.17772265431E+02 0.16762532013E+02 0.15246733038E+02 0.13375923356E+02
 0.11436641360E+02 0.96092336630E+01 0.79759061384E+01 0.65888507637E+01 0.54673959879E+01
 0.46033158207E+01 0.39722154311E+01 0.35456440066E+01 0.32997532117E+01 0.32194845854E+01
 0.32997723721E+01 0.35456790225E+01 0.39722565005E+01 0.46033484880E+01 0.54674121105E+01
 0.65888579743E+01 0.79759206362E+01 0.96092605089E+01 0.11436666578E+02 0.13375928193E+02
 0.15246711411E+02 0.16762489776E+02 0.19502431694E+02 0.20568791629E+02 0.21103868635E+02
 0.21103874817E+02 0.20568820935E+02 0.19502491206E+02 0.17935500717E+02 0.15962744757E+02
 0.13771733436E+02 0.11607685494E+02 0.96092336630E+01 0.78460121949E+01 0.63583978923E+01
 0.51577323410E+01 0.42301882452E+01 0.35456914903E+01 0.30690787669E+01 0.27693841095E+01
 0.26249590825E+01 0.26249782669E+01 0.27694164991E+01 0.30690866427E+01 0.35456790225E+01
 0.42301900421E+01 0.51577599009E+01 0.63584297290E+01 0.78460365656E+01 0.96092670696E+01
 0.11607735258E+02 0.13771768349E+02 0.15962728335E+02 0.17935440511E+02 0.21028947159E+02
 0.22214252615E+02 0.22624794528E+02 0.22214277390E+02 0.21028987124E+02 0.19201505343E+02
 0.16935974156E+02 0.14488956214E+02 0.12099153780E+02 0.99021526280E+01 0.79759061384E+01
 0.63583978923E+01 0.50555274847E+01 0.40479255246E+01 0.32997840366E+01 0.27694319147E+01
 0.24188675997E+01 0.22196999534E+01 0.21551332890E+01 0.22196978042E+01 0.24188584748E+01
 0.27694164991E+01 0.32997723721E+01 0.40479276869E+01 0.50555443300E+01 0.63584229039E+01
 0.79759324041E+01 0.99021742075E+01 0.12099163835E+02 0.14488948023E+02 0.16935946257E+02
 0.19201464796E+02 0.22033991141E+02 0.22981324822E+02 0.22981342053E+02 0.22034028091E+02
 0.20281843970E+02 0.17977092567E+02 0.15418368530E+02 0.12856490718E+02 0.10468589700E+02
 0.83622385318E+01 0.65888507637E+01 0.51577323410E+01 0.40479255246E+01 0.32194887887E+01
 0.26249926982E+01 0.22197304784E+01 0.19685275719E+01 0.18484168134E+01 0.18483985663E+01
 0.19684881124E+01 0.22196978042E+01 0.26249782669E+01 0.32194845854E+01 0.40479237288E+01
 0.51577340796E+01 0.65888538693E+01 0.83622314162E+01 0.10468565869E+02 0.12856460342E+02
 0.15418344526E+02 0.17977070815E+02 0.20281812038E+02 0.22534319244E+02 0.23037067607E+02
 0.22534338284E+02 0.21110490930E+02 0.18989457365E+02 0.16463752019E+02 0.13818233395E+02
 0.11279170353E+02 0.89968289600E+01 0.70513119296E+01 0.54673959879E+01 0.42301882452E+01
 0.32997840366E+01 0.26249926982E+01 0.21551662264E+01 0.18484262961E+01 0.16754301484E+01
 0.16195268175E+01 0.16754138211E+01 0.18483985663E+01 0.21551332890E+01 0.26249590825E+01
 0.32997532117E+01 0.42301642375E+01 0.54673819292E+01 0.70513060882E+01 0.89968234522E+01
 0.11279155342E+02 0.13818203910E+02 0.16463711462E+02 0.18989414905E+02 0.21110456493E+02
 0.22742052806E+02 0.22742057260E+02 0.21757530647E+02 0.19946663910E+02 0.17575035592E+02
 0.14940518707E+02 0.12307645431E+02 0.98713258379E+01 0.77495664153E+01 0.59934532756E+01
 0.46033158207E+01 0.35456914903E+01 0.27694319147E+01 0.22197304784E+01 0.18484262961E+01
 0.16195241548E+01 0.15103758314E+01 0.15103785083E+01 0.16195268175E+01 0.18484168134E+01
 0.22196999534E+01 0.27693841095E+01 0.35456440066E+01 0.46032894940E+01 0.59934566449E+01
 0.77495876762E+01 0.98713407209E+01 0.12307635476E+02 0.14940484271E+02 0.17574993193E+02
 0.19946631218E+02 0.21757514002E+02 0.22794269810E+02 0.22292386456E+02 0.20868526974E+02
 0.18741456923E+02 0.16201155638E+02 0.13535738861E+02 0.10979112719E+02 0.86891459904E+01
 0.67496014854E+01 0.51838701854E+01 0.39722154311E+01 0.30690787669E+01 0.24188675997E+01
 0.19685275719E+01 0.16754301484E+01 0.15103758314E+01 0.14570713726E+01 0.15103758314E+01
 0.16754301484E+01 0.19685275719E+01 0.24188675997E+01 0.30690787669E+01 0.39722154311E+01
 0.51838701854E+01 0.67496014854E+01 0.86891459904E+01 0.10979112719E+02 0.13535738861E+02
 0.16201155638E+02 0.18741456923E+02 0.20868526974E+02 0.22292386456E+02 0.22742052806E+02
 0.21757514002E+02 0.19946631218E+02 0.17574993193E+02 0.14940484271E+02 0.12307635476E+02
 0.98713407209E+01 0.77495876762E+01 0.59934566449E+01 0.46032894940E+01 0.35456440066E+01
 0.27693841095E+01 0.22196999534E+01 0.18484168134E+01 0.16195268175E+01 0.15103785083E+01
 0.15103758314E+01 0.16195241548E+01 0.18484262961E+01 0.22197304784E+01 0.27694319147E+01
 0.35456914903E+01 0.46033158207E+01 0.59934532756E+01 0.77495664153E+01 0.98713258379E+01
 0.12307645431E+02 0.14940518707E+02 0.17575035592E+02 0.19946663910E+02 0.21757530647E+02
 0.22742057260E+02 0.22534319244E+02 0.21110456493E+02 0.18989414905E+02 0.16463711462E+02
 0.13818203910E+02 0.11279155342E+02 0.89968234522E+01 0.70513060882E+01 0.54673819292E+01
 0.42301642375E+01 0.32997532117E+01 0.26249590825E+01 0.21551332890E+01 0.18483985663E+01
 0.16754138211E+01 0.16195268175E+01 0.16754301484E+01 0.18484262961E+01 0.21551662264E+01
 0.26249926982E+01 0.32997840366E+01 0.42301882452E+01 0.54673959879E+01 0.70513119296E+01
 0.89968289600E+01 0.11279170353E+02 0.13818233395E+02 0.16463752019E+02 0.18989457365E+02
 0.21110490930E+02 0.22534338284E+02 0.23037067607E+02 0.22033991141E+02 0.20281812038E+02
 0.17977070815E+02 0.15418344526E+02 0.12856460342E+02 0.10468565869E+02 0.83622314162E+01
 0.65888538693E+01 0.51577340796E+01 0.40479237288E+01 0.32194845854E+01 0.26249782669E+01
 0.22196978042E+01 0.19684881124E+01 0.18483985663E+01 0.18484168134E+01 0.19685275719E+01
 0.22197304784E+01 0.26249926982E+01 0.32194887887E+01 0.40479255246E+01 0.51577323410E+01
 0.65888507637E+01 0.83622385318E+01 0.10468589700E+02 0.12856490718E+02 0.15418368530E+02
 0.17977092567E+02 0.20281843970E+02 0.22034028091E+02 0.22981342053E+02 0.22981324822E+02
 0.21028947159E+02 0.19201464796E+02 0.16935946257E+02 0.14488948023E+02 0.12099163835E+02
 0.99021742075E+01 0.79759324041E+01 0.63584229039E+01 0.50555443300E+01 0.40479276869E+01
 0.32997723721E+01 0.27694164991E+01 0.24188584748E+01 0.22196978042E+01 0.21551332890E+01
 0.22196999534E+01 0.24188675997E+01 0.27694319147E+01 0.32997840366E+01 0.40479255246E+01
 0.50555274847E+01 0.63583978923E+01 0.79759061384E+01 0.99021526280E+01 0.12099153780E+02
 0.14488956214E+02 0.16935974156E+02 0.19201505343E+02 0.21028987124E+02 0.22214277390E+02
 0.22624794528E+02 0.22214252615E+02 0.19502431694E+02 0.17935440511E+02 0.15962728335E+02
 0.13771768349E+02 0.11607735258E+02 0.96092670696E+01 0.78460365656E+01 0.63584297290E+01
 0.51577599009E+01 0.42301900421E+01 0.35456790225E+01 0.30690866427E+01 0.27694164991E+01
 0.26249782669E+01 0.26249590825E+01 0.27693841095E+01 0.30690787669E+01 0.35456914903E+01
 0.42301882452E+01 0.51577323410E+01 0.63583978923E+01 0.78460121949E+01 0.96092336630E+01
 0.11607685494E+02 0.13771733436E+02 0.15962744757E+02 0.17935500717E+02 0.19502491206E+02
 0.20568820935E+02 0.21103874817E+02 0.21103868635E+02 0.20568791629E+02 0.17772211264E+02
 0.16762489776E+02 0.15246711411E+02 0.13375928193E+02 0.11436666578E+02 0.96092605089E+01
 0.79759206362E+01 0.65888579743E+01 0.54674121105E+01 0.46033484880E+01 0.39722565005E+01
 0.35456790225E+01 0.32997723721E+01 0.32194845854E+01 0.32997532117E+01 0.35456440066E+01
 0.39722154311E+01 0.46033158207E+01 0.54673959879E+01 0.65888507637E+01 0.79759061384E+01
 0.96092336630E+01 0.11436641360E+02 0.13375923356E+02 0.15246733038E+02 0.16762532013E+02
 0.17772265431E+02 0.18308006310E+02 0.18521323377E+02 0.18570524485E+02 0.18521287438E+02
 0.18307951812E+02 0.16384239188E+02 0.16048305392E+02 0.14981050664E+02 0.13375898860E+02
 0.11607699088E+02 0.99021607151E+01 0.83622137805E+01 0.70512852023E+01 0.59934718127E+01
 0.51839321925E+01 0.46033484880E+01 0.42301900421E+01 0.40479276869E+01 0.40479237288E+01
 0.42301642375E+01 0.46032894940E+01 0.51838701854E+01 0.59934532756E+01 0.70513119296E+01
 0.83622385318E+01 0.99021526280E+01 0.11607685494E+02 0.13375923356E+02 0.14981112895E+02
 0.16048371433E+02 0.16384296358E+02 0.16094146457E+02 0.15528205227E+02 0.15105757498E+02
 0.15105726798E+02 0.15528138260E+02 0.16094082484E+02 0.15851780048E+02 0.16048314571E+02
 0.15246700919E+02 0.13771704595E+02 0.12099117348E+02 0.10468552471E+02 0.89968010732E+01
 0.77495505302E+01 0.67495988029E+01 0.59934718127E+01 0.54674121105E+01 0.51577599009E+01
 0.50555443300E+01 0.51577340796E+01 0.54673819292E+01 0.59934566449E+01 0.67496014854E+01
 0.77495664153E+01 0.89968289600E+01 0.10468589700E+02 0.12099153780E+02 0.13771733436E+02
 0.15246733038E+02 0.16048371433E+02 0.15851869505E+02 0.14719212820E+02 0.13119018047E+02
 0.11744649028E+02 0.11205966256E+02 0.11744600417E+02 0.13118930127E+02 0.14719108762E+02
 0.16384242446E+02 0.16762511836E+02 0.15962715983E+02 0.14488900011E+02 0.12856432474E+02
 0.11279137811E+02 0.98713092810E+01 0.86891187449E+01 0.77495505302E+01 0.70512852023E+01
 0.65888579743E+01 0.63584297290E+01 0.63584229039E+01 0.65888538693E+01 0.70513060882E+01
 0.77495876762E+01 0.86891459904E+01 0.98713258379E+01 0.11279170353E+02 0.12856490718E+02
 0.14488956214E+02 0.15962744757E+02 0.16762532013E+02 0.16384296358E+02 0.14719212820E+02
 0.12194970523E+02 0.96704064361E+01 0.80973214912E+01 0.80972973274E+01 0.96703340075E+01
 0.12194864949E+02 0.14719115210E+02 0.17772220966E+02 0.17935462794E+02 0.16935945959E+02
 0.15418347653E+02 0.13818208973E+02 0.12307610639E+02 0.10979074122E+02 0.98713092810E+01
 0.89968010732E+01 0.83622137805E+01 0.79759206362E+01 0.78460365656E+01 0.79759324041E+01
 0.83622314162E+01 0.89968234522E+01 0.98713407209E+01 0.10979112719E+02 0.12307645431E+02
 0.13818233395E+02 0.15418368530E+02 0.16935974156E+02 0.17935500717E+02 0.17772265431E+02
 0.16094146457E+02 0.13119018047E+02 0.96704064361E+01 0.69105770132E+01 0.58561772018E+01
 0.69105371835E+01 0.96703457037E+01 0.13118957618E+02 0.16094094874E+02 0.19502440155E+02
 0.19201476607E+02 0.17977095007E+02 0.16463767937E+02 0.14940520781E+02 0.13535719722E+02
 0.12307610639E+02 0.11279137811E+02 0.10468552471E+02 0.99021607151E+01 0.96092605089E+01
 0.96092670696E+01 0.99021742075E+01 0.10468565869E+02 0.11279155342E+02 0.12307635476E+02
 0.13535738861E+02 0.14940518707E+02 0.16463752019E+02 0.17977092567E+02 0.19201505343E+02
 0.19502491206E+02 0.18308006310E+02 0.15528205227E+02 0.11744649028E+02 0.80973214912E+01
 0.58561772018E+01 0.58561739760E+01 0.80973106105E+01 0.11744626901E+02 0.15528167632E+02
 0.18307954836E+02 0.21028934306E+02 0.20281810948E+02 0.18989463124E+02 0.17575077094E+02
 0.16201208222E+02 0.14940520781E+02 0.13818208973E+02 0.12856432474E+02 0.12099117348E+02
 0.11607699088E+02 0.11436666578E+02 0.11607735258E+02 0.12099163835E+02 0.12856460342E+02
 0.13818203910E+02 0.14940484271E+02 0.16201155638E+02 0.17575035592E+02 0.18989457365E+02
 0.20281843970E+02 0.21028987124E+02 0.20568820935E+02 0.18521323377E+02 0.15105757498E+02
 0.11205966256E+02 0.80972973274E+01 0.69105371835E+01 0.80973106105E+01 0.11205976420E+02
 0.15105748664E+02 0.18521291365E+02 0.20568771375E+02 0.22033944089E+02 0.21110443061E+02
 0.19946680003E+02 0.18741526441E+02 0.17575077094E+02 0.16463767937E+02 0.15418347653E+02
 0.14488900011E+02 0.13771704595E+02 0.13375898860E+02 0.13375928193E+02 0.13771768349E+02
 0.14488948023E+02 0.15418344526E+02 0.16463711462E+02 0.17574993193E+02 0.18741456923E+02
 0.19946663910E+02 0.21110490930E+02 0.22034028091E+02 0.22214277390E+02 0.21103874817E+02
 0.18570524485E+02 0.15105726798E+02 0.11744600417E+02 0.96703340075E+01 0.96703457037E+01
 0.11744626901E+02 0.15105748664E+02 0.18570521853E+02 0.21103834290E+02 0.22214201160E+02
 0.22534246134E+02 0.21757482813E+02 0.20868538424E+02 0.19946680003E+02 0.18989463124E+02
 0.17977095007E+02 0.16935945959E+02 0.15962715983E+02 0.15246700919E+02 0.14981050664E+02
 0.15246711411E+02 0.15962728335E+02 0.16935946257E+02 0.17977070815E+02 0.18989414905E+02
 0.19946631218E+02 0.20868526974E+02 0.21757530647E+02 0.22534338284E+02 0.22981342053E+02
 0.22624794528E+02 0.21103868635E+02 0.18521287438E+02 0.15528138260E+02 0.13118930127E+02
 0.12194864949E+02 0.13118957618E+02 0.15528167632E+02 0.18521291365E+02 0.21103834290E+02
 0.22624721706E+02 0.22981243720E+02 0.22741971253E+02 0.22292327804E+02 0.21757482813E+02
 0.21110443061E+02 0.20281810948E+02 0.19201476607E+02 0.17935462794E+02 0.16762511836E+02
 0.16048314571E+02 0.16048305392E+02 0.16762489776E+02 0.17935440511E+02 0.19201464796E+02
 0.20281812038E+02 0.21110456493E+02 0.21757514002E+02 0.22292386456E+02 0.22742057260E+02
 0.23037067607E+02 0.22981324822E+02 0.22214252615E+02 0.20568791629E+02 0.18307951812E+02
 0.16094082484E+02 0.14719108762E+02 0.14719115210E+02 0.16094094874E+02 0.18307954836E+02
 0.20568771375E+02 0.22214201160E+02 0.22981243720E+02 0.23036972012E+02 0.22741969705E+02
 0.23036969665E+02 0.22981241908E+02 0.22214199948E+02 0.20568769941E+02 0.18307953503E+02
 0.16094094663E+02 0.14719115818E+02 0.14719109052E+02 0.16094082564E+02 0.18307952584E+02
 0.20568792753E+02 0.22214252982E+02 0.22981324624E+02 0.23037067876E+02 0.22742057795E+02
 0.22292386259E+02 0.21757513333E+02 0.21110456419E+02 0.20281812386E+02 0.19201464619E+02
 0.17935440126E+02 0.16762490283E+02 0.16048306597E+02 0.16048315432E+02 0.16762512524E+02
 0.17935464231E+02 0.19201478403E+02 0.20281811867E+02 0.21110443109E+02 0.21757482840E+02
 0.22292327514E+02 0.23036969665E+02 0.23481231252E+02 0.23066590572E+02 0.21423130874E+02
 0.18667621688E+02 0.15490124158E+02 0.12938529366E+02 0.11960786503E+02 0.12938546588E+02
 0.15490158705E+02 0.18667667499E+02 0.21423182554E+02 0.23066656239E+02 0.23481320773E+02
 0.23037067946E+02 0.22240878786E+02 0.21329982388E+02 0.20385965829E+02 0.19404625691E+02
 0.18363526669E+02 0.17285540356E+02 0.16270506746E+02 0.15520936959E+02 0.15242410387E+02
 0.15520936677E+02 0.16270508075E+02 0.17285547794E+02 0.18363546286E+02 0.19404656633E+02
 0.20385988703E+02 0.21329965609E+02 0.22240809294E+02 0.22981241908E+02 0.23066590572E+02
 0.21709515719E+02 0.18787323117E+02 0.14859774463E+02 0.11078612041E+02 0.87531359207E+01
 0.87531415655E+01 0.11078629458E+02 0.14859801847E+02 0.18787357717E+02 0.21709563420E+02
 0.23066662211E+02 0.22981328663E+02 0.22037816249E+02 0.20819743957E+02 0.19557788207E+02
 0.18336105303E+02 0.17169266051E+02 0.16066169970E+02 0.15079784196E+02 0.14314174750E+02
 0.13888841789E+02 0.13888828337E+02 0.14314144903E+02 0.15079761762E+02 0.16066177310E+02
 0.17169311855E+02 0.18336173965E+02 0.19557839731E+02 0.20819739304E+02 0.22037752479E+02
 0.22214199948E+02 0.21423130874E+02 0.18787323117E+02 0.14597751135E+02 0.99025983056E+01
 0.61917039935E+01 0.47799570200E+01 0.61917345955E+01 0.99026298712E+01 0.14597762840E+02
 0.18787330799E+02 0.21423165441E+02 0.22214261642E+02 0.21558508674E+02 0.20204226118E+02
 0.18698630397E+02 0.17233136627E+02 0.15886004901E+02 0.14682109877E+02 0.13644237084E+02
 0.12821674196E+02 0.12285097614E+02 0.12097776617E+02 0.12285047040E+02 0.12821617071E+02
 0.13644216492E+02 0.14682137017E+02 0.15886067335E+02 0.17233211980E+02 0.18698685791E+02
 0.20204229578E+02 0.21558459880E+02 0.20568769941E+02 0.18667621688E+02 0.14859774463E+02
 0.99025983056E+01 0.52150347560E+01 0.23596144295E+01 0.23596504455E+01 0.52151096625E+01
 0.99026527904E+01 0.14859789466E+02 0.18667625822E+02 0.20568786049E+02 0.20609354395E+02
 0.19425239430E+02 0.17810467172E+02 0.16167943737E+02 0.14646628040E+02 0.13311893633E+02
 0.12188603647E+02 0.11297786280E+02 0.10671555123E+02 0.10346293116E+02 0.10346270557E+02
 0.10671510475E+02 0.11297758222E+02 0.12188602534E+02 0.13311906635E+02 0.14646652022E+02
 0.16167984396E+02 0.17810511327E+02 0.19425258649E+02 0.20609342900E+02 0.18307953503E+02
 0.15490124158E+02 0.11078612041E+02 0.61917039935E+01 0.23596144295E+01 0.90760118525E+00
 0.23596751417E+01 0.61917894630E+01 0.11078680923E+02 0.15490158366E+02 0.18307958502E+02
 0.19169296138E+02 0.18435680083E+02 0.16880176061E+02 0.15159292362E+02 0.13514624632E+02
 0.12058588807E+02 0.10838195417E+02 0.98694684224E+01 0.91624858657E+01 0.87300419320E+01
 0.85842370039E+01 0.87300469566E+01 0.91624880766E+01 0.98694570882E+01 0.10838167832E+02
 0.12058557870E+02 0.13514610346E+02 0.15159303171E+02 0.16880202053E+02 0.18435704934E+02
 0.19169309653E+02 0.16094094663E+02 0.12938529366E+02 0.87531359207E+01 0.47799570200E+01
 0.23596504455E+01 0.23596751417E+01 0.47800260417E+01 0.87532270603E+01 0.12938603468E+02
 0.16094123671E+02 0.17535573334E+02 0.17291142026E+02 0.15938665802E+02 0.14220277117E+02
 0.12514356759E+02 0.10970220649E+02 0.96626118581E+01 0.86168498380E+01 0.78353613083E+01
 0.73153433968E+01 0.70553742390E+01 0.70553919410E+01 0.73153710545E+01 0.78353576487E+01
 0.86168115975E+01 0.96625704594E+01 0.10970194604E+02 0.12514334309E+02 0.14220248483E+02
 0.15938645608E+02 0.17291143926E+02 0.17535578252E+02 0.14719115818E+02 0.11960786503E+02
 0.87531415655E+01 0.61917345955E+01 0.52151096625E+01 0.61917894630E+01 0.87532270603E+01
 0.11960870212E+02 0.14719176494E+02 0.16223920627E+02 0.16235688613E+02 0.15077936797E+02
 0.13395099728E+02 0.11666075010E+02 0.10066207748E+02 0.86902752063E+01 0.75767968601E+01
 0.67292801164E+01 0.61367098792E+01 0.57866825659E+01 0.56709426977E+01 0.57866961304E+01
 0.61367201356E+01 0.67292747198E+01 0.75767788736E+01 0.86902509689E+01 0.10066175736E+02
 0.11666033137E+02 0.13395055460E+02 0.15077900696E+02 0.16235659518E+02 0.16223883403E+02
 0.14719109052E+02 0.12938546588E+02 0.11078629458E+02 0.99026298712E+01 0.99026527904E+01
 0.11078680923E+02 0.12938603468E+02 0.14719176494E+02 0.15720533290E+02 0.15594064828E+02
 0.14452506359E+02 0.12764538839E+02 0.11005339620E+02 0.93605375691E+01 0.79289595788E+01
 0.67572963475E+01 0.58523836375E+01 0.51994943176E+01 0.47782124463E+01 0.45719657088E+01
 0.45719649153E+01 0.47782243143E+01 0.51995321046E+01 0.58524211266E+01 0.67572907679E+01
 0.79289110782E+01 0.93604947245E+01 0.11005334253E+02 0.12764541225E+02 0.14452466781E+02
 0.15593980462E+02 0.15720444860E+02 0.16094082564E+02 0.15490158705E+02 0.14859801847E+02
 0.14597762840E+02 0.14859789466E+02 0.15490158366E+02 0.16094123671E+02 0.16223920627E+02
 0.15594064828E+02 0.14221673642E+02 0.12419348040E+02 0.10580283900E+02 0.88718857272E+01
 0.73809456759E+01 0.61527874500E+01 0.51947362305E+01 0.44894414241E+01 0.40103706785E+01
 0.37334262597E+01 0.36429009923E+01 0.37334491861E+01 0.40104139028E+01 0.44894886622E+01
 0.51947607333E+01 0.61527782975E+01 0.73809260949E+01 0.88718901113E+01 0.10580312947E+02
 0.12419359739E+02 0.14221629217E+02 0.15593974879E+02 0.16223835497E+02 0.18307952584E+02
 0.18667667499E+02 0.18787357717E+02 0.18787330799E+02 0.18667625822E+02 0.18307958502E+02
 0.17535573334E+02 0.16235688613E+02 0.14452506359E+02 0.12419348040E+02 0.10433057179E+02
 0.86208372809E+01 0.70495614608E+01 0.57548894753E+01 0.47400020366E+01 0.39837859347E+01
 0.34540921223E+01 0.31198860829E+01 0.29585551091E+01 0.29585750950E+01 0.31199219255E+01
 0.34541091254E+01 0.39837901626E+01 0.47400233892E+01 0.57549285571E+01 0.70495901391E+01
 0.86208482536E+01 0.10433074387E+02 0.12419377116E+02 0.14452511823E+02 0.16235646093E+02
 0.17535519648E+02 0.20568792753E+02 0.21423182554E+02 0.21709563420E+02 0.21423165441E+02
 0.20568786049E+02 0.19169296138E+02 0.17291142026E+02 0.15077936797E+02 0.12764538839E+02
 0.10580283900E+02 0.86208372809E+01 0.69385820505E+01 0.55574848675E+01 0.44734959752E+01
 0.36602789436E+01 0.30800256628E+01 0.26950550385E+01 0.24759332146E+01 0.24048471640E+01
 0.24759357567E+01 0.26950512305E+01 0.30800186621E+01 0.36602861730E+01 0.44735243036E+01
 0.55575193957E+01 0.69386096093E+01 0.86208665707E+01 0.10580327173E+02 0.12764582734E+02
 0.15077953150E+02 0.17291127261E+02 0.19169279862E+02 0.22214252982E+02 0.23066656239E+02
 0.23066662211E+02 0.22214261642E+02 0.20609354395E+02 0.18435680083E+02 0.15938665802E+02
 0.13395099728E+02 0.11005339620E+02 0.88718857272E+01 0.70495614608E+01 0.55574848675E+01
 0.43857581943E+01 0.35027111796E+01 0.28650194163E+01 0.24287527606E+01 0.21578648368E+01
 0.20282539190E+01 0.20282390278E+01 0.21578361856E+01 0.24287361295E+01 0.28650180118E+01
 0.35027112293E+01 0.43857600054E+01 0.55575062495E+01 0.70496069009E+01 0.88719305828E+01
 0.11005357779E+02 0.13395094911E+02 0.15938660834E+02 0.18435683695E+02 0.20609354882E+02
 0.22981324624E+02 0.23481320773E+02 0.22981328663E+02 0.21558508674E+02 0.19425239430E+02
 0.16880176061E+02 0.14220277117E+02 0.11666075010E+02 0.93605375691E+01 0.73809456759E+01
 0.57548894753E+01 0.44734959752E+01 0.35027111796E+01 0.27949327680E+01 0.23006130420E+01
 0.19774113417E+01 0.17950383557E+01 0.17360975785E+01 0.17950192911E+01 0.19773811694E+01
 0.23005824846E+01 0.27949107693E+01 0.35027033535E+01 0.44735027427E+01 0.57549037222E+01
 0.73809551211E+01 0.93605335278E+01 0.11666059066E+02 0.14220258419E+02 0.16880161692E+02
 0.19425230007E+02 0.21558502063E+02 0.23037067876E+02 0.23037067946E+02 0.22037816249E+02
 0.20204226118E+02 0.17810467172E+02 0.15159292362E+02 0.12514356759E+02 0.10066207748E+02
 0.79289595788E+01 0.61527874500E+01 0.47400020366E+01 0.36602789436E+01 0.28650194163E+01
 0.23006130420E+01 0.19189513488E+01 0.16835650049E+01 0.15713120046E+01 0.15713106174E+01
 0.16835544094E+01 0.19189238041E+01 0.23005752962E+01 0.28649867483E+01 0.36602561867E+01
 0.47399816522E+01 0.61527666339E+01 0.79289470334E+01 0.10066207179E+02 0.12514354070E+02
 0.15159271466E+02 0.17810433089E+02 0.20204199798E+02 0.22037807780E+02 0.22742057795E+02
 0.22240878786E+02 0.20819743957E+02 0.18698630397E+02 0.16167943737E+02 0.13514624632E+02
 0.10970220649E+02 0.86902752063E+01 0.67572963475E+01 0.51947362305E+01 0.39837859347E+01
 0.30800256628E+01 0.24287527606E+01 0.19774113417E+01 0.16835650049E+01 0.15180572276E+01
 0.14646007171E+01 0.15180579770E+01 0.16835666315E+01 0.19774057664E+01 0.24287265032E+01
 0.30799774756E+01 0.39837357660E+01 0.51947089134E+01 0.67572975604E+01 0.86902881942E+01
 0.10970225577E+02 0.13514615004E+02 0.16167924598E+02 0.18698608369E+02 0.20819723964E+02
 0.22240866319E+02 0.22292386259E+02 0.21329982388E+02 0.19557788207E+02 0.17233136627E+02
 0.14646628040E+02 0.12058588807E+02 0.96626118581E+01 0.75767968601E+01 0.58523836375E+01
 0.44894414241E+01 0.34540921223E+01 0.26950550385E+01 0.21578648368E+01 0.17950383557E+01
 0.15713120046E+01 0.14646007171E+01 0.14646005637E+01 0.15713155976E+01 0.17950494356E+01
 0.21578764502E+01 0.26950563267E+01 0.34540830162E+01 0.44894317242E+01 0.58523781093E+01
 0.75767906234E+01 0.96626032466E+01 0.12058587258E+02 0.14646641278E+02 0.17233156199E+02
 0.19557797676E+02 0.21329978540E+02 0.22292382044E+02 0.21757513333E+02 0.20385965829E+02
 0.18336105303E+02 0.15886004901E+02 0.13311893633E+02 0.10838195417E+02 0.86168498380E+01
 0.67292801164E+01 0.51994943176E+01 0.40103706785E+01 0.31198860829E+01 0.24759332146E+01
 0.20282539190E+01 0.17360975785E+01 0.15713106174E+01 0.15180579770E+01 0.15713155976E+01
 0.17361076163E+01 0.20282745671E+01 0.24759718980E+01 0.31199375644E+01 0.40104116799E+01
 0.51995017566E+01 0.67292560994E+01 0.86168235092E+01 0.10838196757E+02 0.13311928338E+02
 0.15886055256E+02 0.18336149981E+02 0.20385994614E+02 0.21757526393E+02 0.22240865115E+02
 0.21110456419E+02 0.19404625691E+02 0.17169266051E+02 0.14682109877E+02 0.12188603647E+02
 0.98694684224E+01 0.78353613083E+01 0.61367098792E+01 0.47782124463E+01 0.37334262597E+01
 0.29585551091E+01 0.24048471640E+01 0.20282390278E+01 0.17950192911E+01 0.16835544094E+01
 0.16835666315E+01 0.17950494356E+01 0.20282745671E+01 0.24048811777E+01 0.29585876691E+01
 0.37334559189E+01 0.47782327473E+01 0.61367177224E+01 0.78353652353E+01 0.98694833670E+01
 0.12188637371E+02 0.14682157440E+02 0.17169316514E+02 0.19404669935E+02 0.21110487413E+02