   2   2   0   0
  0.2079688E+02  0.3889087E-09  0.3889087E-09  0.3889087E-09  0.5000000E-15
  1.000000000000000E-004
  CAR 
 diamond Si                              
     15.92889719     -7.30894616  301      5.79120187      1.00000000
     -7.309  0.0000E+00  0.0000E+00
     -7.231  0.0000E+00  0.0000E+00
     -7.154  0.0000E+00  0.0000E+00
     -7.077  0.0000E+00  0.0000E+00
     -6.999  0.0000E+00  0.0000E+00
     -6.922  0.0000E+00  0.0000E+00
     -6.844  0.1077E-17  0.8341E-19
     -6.767  0.3492E-14  0.2706E-15
     -6.689  0.6444E-11  0.4994E-12
     -6.612  0.3681E-08  0.2856E-09
     -6.534  0.6589E-06  0.5132E-07
     -6.457  0.3797E-04  0.2993E-05
     -6.379  0.7612E-03  0.6196E-04
     -6.302  0.6616E-02  0.5744E-03
     -6.225  0.3355E-01  0.3173E-02
     -6.147  0.9363E-01  0.1043E-01
     -6.070  0.1259E+00  0.2018E-01
     -5.992  0.1386E+00  0.3091E-01
     -5.915  0.2231E+00  0.4820E-01
     -5.837  0.2932E+00  0.7091E-01
     -5.760  0.2085E+00  0.8706E-01
     -5.682  0.1611E+00  0.9954E-01
     -5.605  0.3144E+00  0.1239E+00
     -5.527  0.4184E+00  0.1563E+00
     -5.450  0.3514E+00  0.1835E+00
     -5.372  0.3521E+00  0.2108E+00
     -5.295  0.3466E+00  0.2376E+00
     -5.218  0.2442E+00  0.2565E+00
     -5.140  0.3007E+00  0.2798E+00
     -5.063  0.5902E+00  0.3256E+00
     -4.985  0.6185E+00  0.3735E+00
     -4.908  0.4277E+00  0.4066E+00
     -4.830  0.4741E+00  0.4433E+00
     -4.753  0.4743E+00  0.4801E+00
     -4.675  0.3221E+00  0.5050E+00
     -4.598  0.3417E+00  0.5315E+00
     -4.520  0.6445E+00  0.5814E+00
     -4.443  0.8558E+00  0.6477E+00
     -4.365  0.8088E+00  0.7103E+00
     -4.288  0.6681E+00  0.7621E+00
     -4.211  0.5786E+00  0.8069E+00
     -4.133  0.5230E+00  0.8474E+00
     -4.056  0.4912E+00  0.8855E+00
     -3.978  0.6951E+00  0.9393E+00
     -3.901  0.1260E+01  0.1037E+01
     -3.823  0.1336E+01  0.1140E+01
     -3.746  0.7930E+00  0.1202E+01
     -3.668  0.7131E+00  0.1257E+01
     -3.591  0.7598E+00  0.1316E+01
     -3.513  0.4562E+00  0.1351E+01
     -3.436  0.5276E+00  0.1392E+01
     -3.359  0.9405E+00  0.1465E+01
     -3.281  0.1118E+01  0.1552E+01
     -3.204  0.7551E+00  0.1610E+01
     -3.126  0.3837E+00  0.1640E+01
     -3.049  0.4036E+00  0.1671E+01
     -2.971  0.4043E+00  0.1702E+01
     -2.894  0.5356E+00  0.1744E+01
     -2.816  0.8466E+00  0.1809E+01
     -2.739  0.6712E+00  0.1861E+01
     -2.661  0.3589E+00  0.1889E+01
     -2.584  0.2213E+00  0.1906E+01
     -2.506  0.1828E+00  0.1921E+01
     -2.429  0.2612E+00  0.1941E+01
     -2.352  0.3131E+00  0.1965E+01
     -2.274  0.2935E+00  0.1988E+01
     -2.197  0.2043E+00  0.2004E+01
     -2.119  0.1368E+00  0.2014E+01
     -2.042  0.1228E+00  0.2024E+01
     -1.964  0.1899E+00  0.2038E+01
     -1.887  0.1659E+00  0.2051E+01
     -1.809  0.1234E+00  0.2061E+01
     -1.732  0.2044E+00  0.2077E+01
     -1.654  0.2937E+00  0.2099E+01
     -1.577  0.5907E+00  0.2145E+01
     -1.499  0.8968E+00  0.2215E+01
     -1.422  0.7354E+00  0.2272E+01
     -1.345  0.4554E+00  0.2307E+01
     -1.267  0.7260E+00  0.2363E+01
     -1.190  0.1342E+01  0.2467E+01
     -1.112  0.1502E+01  0.2583E+01
     -1.035  0.1274E+01  0.2682E+01
     -0.957  0.9965E+00  0.2759E+01
     -0.880  0.9800E+00  0.2835E+01
     -0.802  0.9712E+00  0.2910E+01
     -0.725  0.5215E+00  0.2951E+01
     -0.647  0.2580E+00  0.2971E+01
     -0.570  0.6374E+00  0.3020E+01
     -0.493  0.9754E+00  0.3096E+01
     -0.415  0.6809E+00  0.3148E+01
     -0.338  0.3888E+00  0.3178E+01
     -0.260  0.2895E+00  0.3201E+01
     -0.183  0.4761E+00  0.3238E+01
     -0.105  0.6270E+00  0.3286E+01
     -0.028  0.3750E+00  0.3315E+01
      0.050  0.2331E+00  0.3333E+01
      0.127  0.3990E+00  0.3364E+01
      0.205  0.4904E+00  0.3402E+01
      0.282  0.4796E+00  0.3440E+01
      0.360  0.3595E+00  0.3467E+01
      0.437  0.2562E+00  0.3487E+01
      0.514  0.2101E+00  0.3503E+01
      0.592  0.2684E+00  0.3524E+01
      0.669  0.4418E+00  0.3558E+01
      0.747  0.4316E+00  0.3592E+01
      0.824  0.2024E+00  0.3608E+01
      0.902  0.3908E-01  0.3611E+01
      0.979  0.9779E-02  0.3611E+01
      1.057  0.9397E-01  0.3619E+01
      1.134  0.4251E+00  0.3652E+01
      1.212  0.7101E+00  0.3707E+01
      1.289  0.6085E+00  0.3754E+01
      1.367  0.6511E+00  0.3804E+01
      1.444  0.9660E+00  0.3879E+01
      1.521  0.1071E+01  0.3962E+01
      1.599  0.8493E+00  0.4028E+01
      1.676  0.8120E+00  0.4091E+01
      1.754  0.1301E+01  0.4191E+01
      1.831  0.1612E+01  0.4316E+01
      1.909  0.1352E+01  0.4421E+01
      1.986  0.9338E+00  0.4493E+01
      2.064  0.8179E+00  0.4557E+01
      2.141  0.8705E+00  0.4624E+01
      2.219  0.9977E+00  0.4701E+01
      2.296  0.1069E+01  0.4784E+01
      2.373  0.1208E+01  0.4878E+01
      2.451  0.1573E+01  0.5000E+01
      2.528  0.1511E+01  0.5117E+01
      2.606  0.1029E+01  0.5196E+01
      2.683  0.9395E+00  0.5269E+01
      2.761  0.1403E+01  0.5378E+01
      2.838  0.1908E+01  0.5526E+01
      2.916  0.2063E+01  0.5685E+01
      2.993  0.1641E+01  0.5812E+01
      3.071  0.9770E+00  0.5888E+01
      3.148  0.1055E+01  0.5970E+01
      3.226  0.1640E+01  0.6097E+01
      3.303  0.1836E+01  0.6239E+01
      3.380  0.1425E+01  0.6349E+01
      3.458  0.8789E+00  0.6417E+01
      3.535  0.9393E+00  0.6490E+01
      3.613  0.1552E+01  0.6610E+01
      3.690  0.1869E+01  0.6755E+01
      3.768  0.1647E+01  0.6883E+01
      3.845  0.1228E+01  0.6978E+01
      3.923  0.9609E+00  0.7052E+01
      4.000  0.1278E+01  0.7151E+01
      4.078  0.1458E+01  0.7264E+01
      4.155  0.9959E+00  0.7342E+01
      4.233  0.6498E+00  0.7392E+01
      4.310  0.8591E+00  0.7458E+01
      4.387  0.1265E+01  0.7556E+01
      4.465  0.1042E+01  0.7637E+01
      4.542  0.5908E+00  0.7683E+01
      4.620  0.6229E+00  0.7731E+01
      4.697  0.7903E+00  0.7792E+01
      4.775  0.6436E+00  0.7842E+01
      4.852  0.3545E+00  0.7870E+01
      4.930  0.2296E+00  0.7887E+01
      5.007  0.3433E+00  0.7914E+01
      5.085  0.3370E+00  0.7940E+01
      5.162  0.1566E+00  0.7952E+01
      5.239  0.1080E+00  0.7961E+01
      5.317  0.2120E+00  0.7977E+01
      5.394  0.1897E+00  0.7992E+01
      5.472  0.7600E-01  0.7998E+01
      5.549  0.2442E-01  0.8000E+01
      5.627  0.5585E-02  0.8000E+01
      5.704  0.5096E-03  0.8000E+01
      5.782  0.1553E-04  0.8000E+01
      5.859  0.6875E-05  0.8000E+01
      5.937  0.3717E-03  0.8000E+01
      6.014  0.6816E-02  0.8001E+01
      6.092  0.4270E-01  0.8004E+01
      6.169  0.9739E-01  0.8011E+01
      6.246  0.1206E+00  0.8021E+01
      6.324  0.2087E+00  0.8037E+01
      6.401  0.3111E+00  0.8061E+01
      6.479  0.3133E+00  0.8085E+01
      6.556  0.3534E+00  0.8113E+01
      6.634  0.3549E+00  0.8140E+01
      6.711  0.2664E+00  0.8161E+01
      6.789  0.3637E+00  0.8189E+01
      6.866  0.7436E+00  0.8247E+01
      6.944  0.8296E+00  0.8311E+01
      7.021  0.6293E+00  0.8360E+01
      7.099  0.7225E+00  0.8416E+01
      7.176  0.1089E+01  0.8500E+01
      7.253  0.1287E+01  0.8600E+01
      7.331  0.1125E+01  0.8687E+01
      7.408  0.1046E+01  0.8768E+01
      7.486  0.1318E+01  0.8870E+01
      7.563  0.1310E+01  0.8971E+01
      7.641  0.1285E+01  0.9071E+01
      7.718  0.1594E+01  0.9194E+01
      7.796  0.1791E+01  0.9333E+01
      7.873  0.1293E+01  0.9433E+01
      7.951  0.9947E+00  0.9510E+01
      8.028  0.1472E+01  0.9624E+01
      8.105  0.1787E+01  0.9763E+01
      8.183  0.1174E+01  0.9854E+01
      8.260  0.9092E+00  0.9924E+01
      8.338  0.1191E+01  0.1002E+02
      8.415  0.9994E+00  0.1009E+02
      8.493  0.8376E+00  0.1016E+02
      8.570  0.1142E+01  0.1025E+02
      8.648  0.1766E+01  0.1038E+02
      8.725  0.2360E+01  0.1057E+02
      8.803  0.2435E+01  0.1076E+02
      8.880  0.2122E+01  0.1092E+02
      8.958  0.1963E+01  0.1107E+02
      9.035  0.1673E+01  0.1120E+02
      9.112  0.1488E+01  0.1132E+02
      9.190  0.1981E+01  0.1147E+02
      9.267  0.2033E+01  0.1163E+02
      9.345  0.1239E+01  0.1172E+02
      9.422  0.8651E+00  0.1179E+02
      9.500  0.8898E+00  0.1186E+02
      9.577  0.8724E+00  0.1193E+02
      9.655  0.1226E+01  0.1202E+02
      9.732  0.1545E+01  0.1214E+02
      9.810  0.1169E+01  0.1223E+02
      9.887  0.6574E+00  0.1228E+02
      9.965  0.6353E+00  0.1233E+02
     10.042  0.1405E+01  0.1244E+02
     10.119  0.2506E+01  0.1264E+02
     10.197  0.2604E+01  0.1284E+02
     10.274  0.1836E+01  0.1298E+02
     10.352  0.1254E+01  0.1308E+02
     10.429  0.1247E+01  0.1317E+02
     10.507  0.1410E+01  0.1328E+02
     10.584  0.1118E+01  0.1337E+02
     10.662  0.8226E+00  0.1343E+02
     10.739  0.8647E+00  0.1350E+02
     10.817  0.7589E+00  0.1356E+02
     10.894  0.6834E+00  0.1361E+02
     10.971  0.8960E+00  0.1368E+02
     11.049  0.1064E+01  0.1376E+02
     11.126  0.1356E+01  0.1387E+02
     11.204  0.1416E+01  0.1398E+02
     11.281  0.9100E+00  0.1405E+02
     11.359  0.7196E+00  0.1410E+02
     11.436  0.8866E+00  0.1417E+02
     11.514  0.1017E+01  0.1425E+02
     11.591  0.1461E+01  0.1436E+02
     11.669  0.1647E+01  0.1449E+02
     11.746  0.1573E+01  0.1461E+02
     11.824  0.1270E+01  0.1471E+02
     11.901  0.7026E+00  0.1477E+02
     11.978  0.5302E+00  0.1481E+02
     12.056  0.7570E+00  0.1487E+02
     12.133  0.8467E+00  0.1493E+02
     12.211  0.7213E+00  0.1499E+02
     12.288  0.6851E+00  0.1504E+02
     12.366  0.5640E+00  0.1508E+02
     12.443  0.3481E+00  0.1511E+02
     12.521  0.5313E+00  0.1515E+02
     12.598  0.8863E+00  0.1522E+02
     12.676  0.8730E+00  0.1529E+02
     12.753  0.6319E+00  0.1534E+02
     12.831  0.4084E+00  0.1537E+02
     12.908  0.2394E+00  0.1539E+02
     12.985  0.4951E+00  0.1543E+02
     13.063  0.9589E+00  0.1550E+02
     13.140  0.1076E+01  0.1558E+02
     13.218  0.9088E+00  0.1565E+02
     13.295  0.6674E+00  0.1571E+02
     13.373  0.6072E+00  0.1575E+02
     13.450  0.9344E+00  0.1583E+02
     13.528  0.8054E+00  0.1589E+02
     13.605  0.2526E+00  0.1591E+02
     13.683  0.2714E-01  0.1591E+02
     13.760  0.9776E-03  0.1591E+02
     13.837  0.1159E-04  0.1591E+02
     13.915  0.4451E-07  0.1591E+02
     13.992  0.5465E-10  0.1591E+02
     14.070  0.3899E-11  0.1591E+02
     14.147  0.4020E-08  0.1591E+02
     14.225  0.1295E-05  0.1591E+02
     14.302  0.1310E-03  0.1591E+02
     14.380  0.4231E-02  0.1591E+02
     14.457  0.4458E-01  0.1591E+02
     14.535  0.1595E+00  0.1593E+02
     14.612  0.2209E+00  0.1594E+02
     14.690  0.1925E+00  0.1596E+02
     14.767  0.1854E+00  0.1597E+02
     14.844  0.1708E+00  0.1599E+02
     14.922  0.1261E+00  0.1600E+02
     14.999  0.5122E-01  0.1600E+02
     15.077  0.8165E-02  0.1600E+02
     15.154  0.4447E-03  0.1600E+02
     15.232  0.7867E-05  0.1600E+02
     15.309  0.4412E-07  0.1600E+02
     15.387  0.7731E-10  0.1600E+02
     15.464  0.4192E-13  0.1600E+02
     15.542  0.0000E+00  0.1600E+02
     15.619  0.0000E+00  0.1600E+02
     15.697  0.0000E+00  0.1600E+02
     15.774  0.0000E+00  0.1600E+02
     15.851  0.0000E+00  0.1600E+02
     15.929  0.0000E+00  0.1600E+02
