       N       E                     dE             d eps       ncg     rms          rms(c)
DAV:   1    -0.189343666469E+01   -0.18934E+01   -0.20040E+03   904   0.422E+02
DAV:   2    -0.108926039335E+02   -0.89992E+01   -0.87586E+01  1440   0.554E+01
DAV:   3    -0.109805531666E+02   -0.87949E-01   -0.87949E-01  1208   0.675E+00
DAV:   4    -0.109807517982E+02   -0.19863E-03   -0.19863E-03  1368   0.313E-01
DAV:   5    -0.109807519113E+02   -0.11307E-06   -0.11310E-06  1256   0.684E-03    0.519E+00
DAV:   6    -0.108723496529E+02    0.10840E+00   -0.69164E-02  1064   0.137E+00    0.317E+00
DAV:   7    -0.108218097854E+02    0.50540E-01   -0.13575E-01  1120   0.205E+00    0.163E-01
DAV:   8    -0.108228444695E+02   -0.10347E-02   -0.32972E-03   944   0.419E-01    0.706E-02
DAV:   9    -0.108230614389E+02   -0.21697E-03   -0.22028E-04  1312   0.111E-01    0.557E-02
DAV:  10    -0.108230846187E+02   -0.23180E-04   -0.25743E-05   560   0.381E-02
   1 F= -.10823085E+02 E0= -.10823085E+02  d E =-.431458E-08
