<?xml version="1.0" encoding="ISO-8859-1"?>
<modeling>
 <generator>
  <i name="program" type="string">vasp </i>
  <i name="version" type="string">6.3.0  </i>
  <i name="subversion" type="string">20Jan22 (build Feb 01 2022 16:52:37) complex                          parallel </i>
  <i name="platform" type="string">TETRA_NSC1 </i>
  <i name="date" type="string">2022 02 23 </i>
  <i name="time" type="string">07:07:33 </i>
 </generator>
 <incar>
  <i type="string" name="SYSTEM">diamond Si</i>
  <i type="int" name="ISTART">     0</i>
  <i type="int" name="ICHARG">     2</i>
  <i name="ENCUT">    240.00000000</i>
  <i type="int" name="ISMEAR">     0</i>
  <i name="SIGMA">      0.10000000</i>
 </incar>
 <primitive_cell>
  <structure name="primitive_cell" >
   <crystal>
    <varray name="basis" >
     <v>       0.00000000       2.75000000       2.75000000 </v>
     <v>       2.75000000       0.00000000       2.75000000 </v>
     <v>       2.75000000       2.75000000       0.00000000 </v>
    </varray>
    <i name="volume">     41.59375000 </i>
    <varray name="rec_basis" >
     <v>      -0.18181818       0.18181818       0.18181818 </v>
     <v>       0.18181818      -0.18181818       0.18181818 </v>
     <v>       0.18181818       0.18181818      -0.18181818 </v>
    </varray>
   </crystal>
   <varray name="positions" >
    <v>       0.87500000       0.87500000       0.87500000 </v>
    <v>       0.12500000       0.12500000       0.12500000 </v>
   </varray>
  </structure>
  <varray name="primitive_index" >
   <v type="int" >        1 </v>
   <v type="int" >        2 </v>
  </varray>
 </primitive_cell>
 <kpoints>
  <generation param="Monkhorst-Pack">
   <v type="int" name="divisions">      11       11       11 </v>
   <v name="usershift">      0.00000000       0.00000000       0.00000000 </v>
   <v name="genvec1">      0.09090909       0.00000000       0.00000000 </v>
   <v name="genvec2">      0.00000000       0.09090909       0.00000000 </v>
   <v name="genvec3">      0.00000000       0.00000000       0.09090909 </v>
   <v name="shift">      0.00000000       0.00000000       0.00000000 </v>
  </generation>
  <varray name="kpointlist" >
   <v>       0.00000000       0.00000000       0.00000000 </v>
   <v>       0.09090909       0.00000000       0.00000000 </v>
   <v>       0.18181818      -0.00000000       0.00000000 </v>
   <v>       0.27272727       0.00000000      -0.00000000 </v>
   <v>       0.36363636      -0.00000000       0.00000000 </v>
   <v>       0.45454545       0.00000000      -0.00000000 </v>
   <v>       0.09090909       0.09090909      -0.00000000 </v>
   <v>       0.18181818       0.09090909       0.00000000 </v>
   <v>       0.27272727       0.09090909       0.00000000 </v>
   <v>       0.36363636       0.09090909      -0.00000000 </v>
   <v>       0.45454545       0.09090909       0.00000000 </v>
   <v>      -0.45454545       0.09090909       0.00000000 </v>
   <v>      -0.36363636       0.09090909      -0.00000000 </v>
   <v>      -0.27272727       0.09090909      -0.00000000 </v>
   <v>      -0.18181818       0.09090909       0.00000000 </v>
   <v>      -0.09090909       0.09090909      -0.00000000 </v>
   <v>       0.18181818       0.18181818      -0.00000000 </v>
   <v>       0.27272727       0.18181818       0.00000000 </v>
   <v>       0.36363636       0.18181818       0.00000000 </v>
   <v>       0.45454545       0.18181818       0.00000000 </v>
   <v>      -0.45454545       0.18181818       0.00000000 </v>
   <v>      -0.36363636       0.18181818       0.00000000 </v>
   <v>      -0.27272727       0.18181818       0.00000000 </v>
   <v>      -0.18181818       0.18181818      -0.00000000 </v>
   <v>       0.27272727       0.27272727      -0.00000000 </v>
   <v>       0.36363636       0.27272727       0.00000000 </v>
   <v>       0.45454545       0.27272727      -0.00000000 </v>
   <v>      -0.45454545       0.27272727       0.00000000 </v>
   <v>      -0.36363636       0.27272727       0.00000000 </v>
   <v>      -0.27272727       0.27272727       0.00000000 </v>
   <v>       0.36363636       0.36363636      -0.00000000 </v>
   <v>       0.45454545       0.36363636      -0.00000000 </v>
   <v>      -0.45454545       0.36363636      -0.00000000 </v>
   <v>      -0.36363636       0.36363636      -0.00000000 </v>
   <v>       0.45454545       0.45454545      -0.00000000 </v>
   <v>      -0.45454545       0.45454545       0.00000000 </v>
   <v>       0.27272727       0.18181818       0.09090909 </v>
   <v>       0.36363636       0.18181818       0.09090909 </v>
   <v>       0.45454545       0.18181818       0.09090909 </v>
   <v>      -0.45454545       0.18181818       0.09090909 </v>
   <v>       0.36363636       0.27272727       0.09090909 </v>
   <v>       0.45454545       0.27272727       0.09090909 </v>
   <v>      -0.45454545       0.27272727       0.09090909 </v>
   <v>      -0.36363636       0.27272727       0.09090909 </v>
   <v>      -0.27272727       0.27272727       0.09090909 </v>
   <v>      -0.18181818       0.27272727       0.09090909 </v>
   <v>       0.45454545       0.36363636       0.09090909 </v>
   <v>      -0.45454545       0.36363636       0.09090909 </v>
   <v>      -0.36363636       0.36363636       0.09090909 </v>
   <v>      -0.27272727       0.36363636       0.09090909 </v>
   <v>      -0.45454545       0.45454545       0.09090909 </v>
   <v>      -0.36363636       0.45454545       0.09090909 </v>
   <v>      -0.45454545       0.36363636       0.18181818 </v>
   <v>      -0.36363636       0.36363636       0.18181818 </v>
   <v>      -0.36363636       0.45454545       0.18181818 </v>
   <v>      -0.27272727       0.45454545       0.18181818 </v>
  </varray>
  <varray name="weights" >
   <v>       0.00075131 </v>
   <v>       0.00601052 </v>
   <v>       0.00601052 </v>
   <v>       0.00601052 </v>
   <v>       0.00601052 </v>
   <v>       0.00601052 </v>
   <v>       0.00450789 </v>
   <v>       0.01803156 </v>
   <v>       0.01803156 </v>
   <v>       0.01803156 </v>
   <v>       0.01803156 </v>
   <v>       0.01803156 </v>
   <v>       0.01803156 </v>
   <v>       0.01803156 </v>
   <v>       0.01803156 </v>
   <v>       0.00901578 </v>
   <v>       0.00450789 </v>
   <v>       0.01803156 </v>
   <v>       0.01803156 </v>
   <v>       0.01803156 </v>
   <v>       0.01803156 </v>
   <v>       0.01803156 </v>
   <v>       0.01803156 </v>
   <v>       0.00901578 </v>
   <v>       0.00450789 </v>
   <v>       0.01803156 </v>
   <v>       0.01803156 </v>
   <v>       0.01803156 </v>
   <v>       0.01803156 </v>
   <v>       0.00901578 </v>
   <v>       0.00450789 </v>
   <v>       0.01803156 </v>
   <v>       0.01803156 </v>
   <v>       0.00901578 </v>
   <v>       0.00450789 </v>
   <v>       0.00901578 </v>
   <v>       0.01803156 </v>
   <v>       0.03606311 </v>
   <v>       0.03606311 </v>
   <v>       0.03606311 </v>
   <v>       0.01803156 </v>
   <v>       0.03606311 </v>
   <v>       0.03606311 </v>
   <v>       0.03606311 </v>
   <v>       0.03606311 </v>
   <v>       0.01803156 </v>
   <v>       0.01803156 </v>
   <v>       0.03606311 </v>
   <v>       0.03606311 </v>
   <v>       0.01803156 </v>
   <v>       0.01803156 </v>
   <v>       0.01803156 </v>
   <v>       0.01803156 </v>
   <v>       0.03606311 </v>
   <v>       0.01803156 </v>
   <v>       0.01803156 </v>
  </varray>
 </kpoints>
 <parameters>
  <separator name="general" >
   <i type="string" name="SYSTEM">diamond Si</i>
   <i type="logical" name="LCOMPAT"> F  </i>
  </separator>
  <separator name="electronic" >
   <i type="string" name="PREC">normal</i>
   <i name="ENMAX">    240.00000000</i>
   <i name="ENAUG">    322.06900000</i>
   <i name="EDIFF">      0.00010000</i>
   <i type="int" name="IALGO">    38</i>
   <i type="int" name="IWAVPR">    10</i>
   <i type="int" name="NBANDS">     8</i>
   <i type="int" name="NBANDSLOW">    -1</i>
   <i type="int" name="NBANDSHIGH">    -1</i>
   <i name="NELECT">      8.00000000</i>
   <i type="int" name="TURBO">     0</i>
   <i type="int" name="IRESTART">     0</i>
   <i type="int" name="NREBOOT">     0</i>
   <i type="int" name="NMIN">     0</i>
   <i name="EREF">      0.00000000</i>
   <separator name="electronic smearing" >
    <i type="int" name="ISMEAR">     0</i>
    <i name="SIGMA">      0.10000000</i>
    <i name="KSPACING">      0.50000000</i>
    <i type="logical" name="KGAMMA"> T  </i>
    <i type="logical" name="KBLOWUP"> T  </i>
   </separator>
   <separator name="electronic projectors" >
    <i type="logical" name="LREAL"> F  </i>
    <v name="ROPT">      0.00000000</v>
    <i type="int" name="LMAXPAW">  -100</i>
    <i type="int" name="LMAXMIX">     2</i>
    <i type="logical" name="NLSPLINE"> F  </i>
   </separator>
   <separator name="electronic startup" >
    <i type="int" name="ISTART">     0</i>
    <i type="int" name="ICHARG">     2</i>
    <i type="int" name="INIWAV">     1</i>
   </separator>
   <separator name="electronic spin" >
    <i type="int" name="ISPIN">     1</i>
    <i type="logical" name="LNONCOLLINEAR"> F  </i>
    <v name="MAGMOM">      1.00000000      1.00000000</v>
    <i name="NUPDOWN">     -1.00000000</i>
    <i type="logical" name="LSORBIT"> F  </i>
    <v name="SAXIS">      0.00000000      0.00000000      1.00000000</v>
    <i type="logical" name="LSPIRAL"> F  </i>
    <v name="QSPIRAL">      0.00000000      0.00000000      0.00000000</v>
    <i type="logical" name="LZEROZ"> F  </i>
   </separator>
   <separator name="electronic exchange-correlation" >
    <i type="logical" name="LASPH"> F  </i>
    <i type="logical" name="LMETAGGA"> F  </i>
   </separator>
   <separator name="electronic convergence" >
    <i type="int" name="NELM">    60</i>
    <i type="int" name="NELMDL">    -5</i>
    <i type="int" name="NELMIN">     2</i>
    <i name="ENINI">    240.00000000</i>
    <separator name="electronic convergence detail" >
     <i type="logical" name="LDIAG"> T  </i>
     <i type="logical" name="LSUBROT"> F  </i>
     <i name="WEIMIN">      0.00000000</i>
     <i name="EBREAK">      0.00000313</i>
     <i name="DEPER">      0.30000000</i>
     <i type="int" name="NRMM">     4</i>
     <i name="TIME">      0.40000000</i>
    </separator>
   </separator>
   <separator name="electronic mixer" >
    <i name="AMIX">      0.40000000</i>
    <i name="BMIX">      1.00000000</i>
    <i name="AMIN">      0.10000000</i>
    <i name="AMIX_MAG">      1.60000000</i>
    <i name="BMIX_MAG">      1.00000000</i>
    <separator name="electronic mixer details" >
     <i type="int" name="IMIX">     4</i>
     <i type="logical" name="MIXFIRST"> F  </i>
     <i type="int" name="MAXMIX">   -45</i>
     <i name="WC">    100.00000000</i>
     <i type="int" name="INIMIX">     1</i>
     <i type="int" name="MIXPRE">     1</i>
     <i type="int" name="MREMOVE">     5</i>
    </separator>
   </separator>
   <separator name="electronic dipolcorrection" >
    <i type="logical" name="LDIPOL"> F  </i>
    <i type="logical" name="LMONO"> F  </i>
    <i type="int" name="IDIPOL">     0</i>
    <i name="EPSILON">      1.00000000</i>
    <v name="DIPOL">   -100.00000000   -100.00000000   -100.00000000</v>
    <i name="EFIELD">      0.00000000</i>
   </separator>
  </separator>
  <separator name="grids" >
   <i type="int" name="NGX">    16</i>
   <i type="int" name="NGY">    16</i>
   <i type="int" name="NGZ">    16</i>
   <i type="int" name="NGXF">    32</i>
   <i type="int" name="NGYF">    32</i>
   <i type="int" name="NGZF">    32</i>
   <i type="logical" name="ADDGRID"> F  </i>
  </separator>
  <separator name="ionic" >
   <i type="int" name="NSW">     0</i>
   <i type="int" name="IBRION">    -1</i>
   <i type="int" name="MDALGO">     0</i>
   <i type="int" name="ISIF">     2</i>
   <i name="PSTRESS">      0.00000000</i>
   <i name="EDIFFG">      0.00100000</i>
   <i type="int" name="NFREE">     0</i>
   <i name="POTIM">      0.50000000</i>
   <i name="SMASS">     -3.00000000</i>
   <i name="SCALEE">      1.00000000</i>
  </separator>
  <separator name="ionic md" >
   <i name="TEBEG">      0.00010000</i>
   <i name="TEEND">      0.00010000</i>
   <i type="int" name="NBLOCK">     1</i>
   <i type="int" name="KBLOCK">     1</i>
   <i type="int" name="NPACO">   256</i>
   <i name="APACO">     10.00000000</i>
  </separator>
  <separator name="symmetry" >
   <i type="int" name="ISYM">     2</i>
   <i name="SYMPREC">      0.00001000</i>
  </separator>
  <separator name="dos" >
   <i type="int" name="LORBIT">     0</i>
   <v name="RWIGS">     -1.00000000</v>
   <i type="int" name="NEDOS">   301</i>
   <i name="EMIN">     10.00000000</i>
   <i name="EMAX">    -10.00000000</i>
   <i name="EFERMI">      0.00000000</i>
  </separator>
  <separator name="writing" >
   <i type="int" name="NWRITE">     2</i>
   <i type="logical" name="LWAVE"> T  </i>
   <i type="logical" name="LDOWNSAMPLE"> F  </i>
   <i type="logical" name="LCHARG"> T  </i>
   <i type="logical" name="LPARD"> F  </i>
   <i type="logical" name="LVTOT"> F  </i>
   <i type="logical" name="LVHAR"> F  </i>
   <i type="logical" name="LELF"> F  </i>
   <i type="logical" name="LOPTICS"> F  </i>
   <v name="STM">      0.00000000      0.00000000      0.00000000      0.00000000      0.00000000      0.00000000      0.00000000</v>
  </separator>
  <separator name="performance" >
   <i type="int" name="NPAR">     4</i>
   <i type="int" name="NSIM">     4</i>
   <i type="int" name="NBLK">    -1</i>
   <i type="logical" name="LPLANE"> T  </i>
   <i type="logical" name="LSCALAPACK"> T  </i>
   <i type="logical" name="LSCAAWARE"> F  </i>
   <i type="logical" name="LSCALU"> F  </i>
   <i type="logical" name="LASYNC"> F  </i>
   <i type="logical" name="LORBITALREAL"> F  </i>
  </separator>
  <separator name="miscellaneous" >
   <i type="int" name="IDIOT">     3</i>
   <i type="int" name="PHON_NSTRUCT">    -1</i>
   <i type="logical" name="LMUSIC"> F  </i>
   <v name="POMASS">     28.08500000</v>
   <v name="DARWINR">      0.00000000</v>
   <v name="DARWINV">      1.00000000</v>
   <i type="logical" name="LCORR"> T  </i>
  </separator>
  <i type="logical" name="GGA_COMPAT"> T  </i>
  <i type="logical" name="LBERRY"> F  </i>
  <i type="int" name="ICORELEVEL">     0</i>
  <i type="logical" name="LDAU"> F  </i>
  <i type="int" name="I_CONSTRAINED_M">     0</i>
  <separator name="electronic exchange-correlation" >
   <i type="string" name="GGA">--</i>
   <i type="int" name="VOSKOWN">     0</i>
   <i type="logical" name="LHFCALC"> F  </i>
   <i type="string" name="PRECFOCK"></i>
   <i type="logical" name="LSYMGRAD"> F  </i>
   <i type="logical" name="LHFONE"> F  </i>
   <i type="logical" name="LRHFCALC"> F  </i>
   <i type="logical" name="LTHOMAS"> F  </i>
   <i type="logical" name="LMODELHF"> F  </i>
   <i type="logical" name="LFOCKACE"> F  </i>
   <i name="ENCUT4O">     -1.00000000</i>
   <i type="int" name="EXXOEP">     0</i>
   <i type="int" name="FOURORBIT">     0</i>
   <i name="AEXX">      0.00000000</i>
   <i name="HFALPHA">      0.00000000</i>
   <i name="MCALPHA">      0.00000000</i>
   <i name="ALDAX">      1.00000000</i>
   <i name="AGGAX">      1.00000000</i>
   <i name="ALDAC">      1.00000000</i>
   <i name="AGGAC">      1.00000000</i>
   <i type="int" name="NKREDX">     1</i>
   <i type="int" name="NKREDY">     1</i>
   <i type="int" name="NKREDZ">     1</i>
   <i type="logical" name="SHIFTRED"> F  </i>
   <i type="logical" name="ODDONLY"> F  </i>
   <i type="logical" name="EVENONLY"> F  </i>
   <i type="int" name="LMAXFOCK">     0</i>
   <i type="int" name="NMAXFOCKAE">     0</i>
   <i type="logical" name="LFOCKAEDFT"> F  </i>
   <i name="HFSCREEN">      0.00000000</i>
   <i name="HFSCREENC">      0.00000000</i>
   <i type="int" name="NBANDSGWLOW">     0</i>
  </separator>
  <separator name="vdW DFT" >
   <i type="logical" name="LUSE_VDW"> F  </i>
   <i name="Zab_VDW">     -0.84910000</i>
   <i name="PARAM1">      0.12340000</i>
   <i name="PARAM2">      1.00000000</i>
   <i name="PARAM3">      0.00000000</i>
  </separator>
  <separator name="model GW" >
   <i type="int" name="MODEL_GW">     0</i>
   <i name="MODEL_EPS0">     12.47812500</i>
   <i name="MODEL_ALPHA">      1.00000000</i>
  </separator>
  <separator name="linear response parameters" >
   <i type="logical" name="LEPSILON"> F  </i>
   <i type="logical" name="LRPA"> F  </i>
   <i type="logical" name="LNABLA"> F  </i>
   <i type="logical" name="LVEL"> F  </i>
   <i name="CSHIFT">      0.10000000</i>
   <i name="OMEGAMAX">     -1.00000000</i>
   <i name="DEG_THRESHOLD">      0.00200000</i>
   <i name="RTIME">     -0.10000000</i>
   <i name="WPLASMAI">      0.00000000</i>
   <v name="DFIELD">      0.00000000      0.00000000      0.00000000</v>
   <v name="WPLASMA">      0.00000000      0.00000000      0.00000000      0.00000000      0.00000000      0.00000000      0.00000000      0.00000000      0.00000000</v>
  </separator>
  <separator name="orbital magnetization" >
   <i type="logical" name="NUCIND"> F  </i>
   <v name="MAGPOS">      0.00000000      0.00000000      0.00000000</v>
   <i type="logical" name="LNICSALL"> T  </i>
   <i type="logical" name="ORBITALMAG"> F  </i>
   <i type="logical" name="LMAGBLOCH"> F  </i>
   <i type="logical" name="LCHIMAG"> F  </i>
   <i type="logical" name="LGAUGE"> T  </i>
   <i type="int" name="MAGATOM">     0</i>
   <v name="MAGDIPOL">      0.00000000      0.00000000      0.00000000</v>
   <v name="AVECCONST">      0.00000000      0.00000000      0.00000000</v>
  </separator>
  <separator name="response functions" >
   <i type="logical" name="LFINITE_TEMPERATURE"> F  </i>
   <i type="logical" name="LADDER"> F  </i>
   <i type="logical" name="LRPAFORCE"> F  </i>
   <i type="logical" name="LFXC"> F  </i>
   <i type="logical" name="LHARTREE"> T  </i>
   <i type="int" name="IBSE">     0</i>
   <v type="int" name="KPOINT">    -1     0     0     0</v>
   <i type="logical" name="LTCTC"> F  </i>
   <i type="logical" name="LTCTE"> F  </i>
   <i type="logical" name="LTETE"> F  </i>
   <i type="logical" name="LTRIPLET"> F  </i>
   <i type="logical" name="LFXCEPS"> F  </i>
   <i type="logical" name="LFXHEG"> F  </i>
   <i type="int" name="NATURALO">     2</i>
   <i type="logical" name="LHOLEGF"> F  </i>
   <i type="logical" name="L2ORDER"> F  </i>
   <i type="logical" name="LDMP1"> F  </i>
   <i type="logical" name="LMP2LT"> F  </i>
   <i type="logical" name="LSMP2LT"> F  </i>
   <i type="logical" name="LGWLF"> F  </i>
   <i name="ENCUTGW">     -2.00000000</i>
   <i name="ENCUTGWSOFT">     -2.00000000</i>
   <i name="ENCUTLF">     -1.00000000</i>
   <i type="logical" name="LESF_SPLINES"> F  </i>
   <i type="int" name="LMAXMP2">    -1</i>
   <i name="SCISSOR">      0.00000000</i>
   <i type="int" name="NOMEGA">     0</i>
   <i type="int" name="NOMEGAR">     0</i>
   <i type="int" name="NBANDSGW">    -1</i>
   <i type="int" name="NBANDSO">    -1</i>
   <i type="int" name="NBANDSV">    -1</i>
   <i type="int" name="NELMGW">     1</i>
   <i type="int" name="NELMHF">     1</i>
   <i type="int" name="DIM">     3</i>
   <i type="int" name="IESPILON">     4</i>
   <i type="int" name="ANTIRES">     0</i>
   <i name="OMEGAMAX">    -30.00000000</i>
   <i name="OMEGAMIN">    -30.00000000</i>
   <i name="OMEGATL">   -200.00000000</i>
   <i type="int" name="OMEGAGRID">     0</i>
   <i name="CSHIFT">     -0.10000000</i>
   <i type="logical" name="LSELFENERGY"> F  </i>
   <i type="logical" name="LSPECTRAL"> F  </i>
   <i type="logical" name="LSPECTRALGW"> F  </i>
   <i type="logical" name="LSINGLES"> F  </i>
   <i type="logical" name="LFERMIGW"> F  </i>
   <i type="logical" name="ODDONLYGW"> F  </i>
   <i type="logical" name="EVENONLYGW"> F  </i>
   <i type="int" name="NKREDLFX">     1</i>
   <i type="int" name="NKREDLFY">     1</i>
   <i type="int" name="NKREDLFZ">     1</i>
   <i type="int" name="MAXMEM">  2800</i>
   <i type="int" name="TELESCOPE">     0</i>
   <i type="int" name="NTAUPAR">    -1</i>
   <i type="int" name="NOMEGAPAR">    -1</i>
   <i name="DAMP_NEWTON">      0.80000001</i>
   <i name="LAMBDA">      1.00000000</i>
  </separator>
  <separator name="External order field" >
   <i name="OFIELD_KAPPA">      0.00000000</i>
   <v name="OFIELD_K">      0.00000000      0.00000000      0.00000000</v>
   <i name="OFIELD_Q6_NEAR">      0.00000000</i>
   <i name="OFIELD_Q6_FAR">      0.00000000</i>
   <i name="OFIELD_A">      0.00000000</i>
  </separator>
  <separator name="optional k-points parameters" >
   <i type="int" name="KPOINTS_OPT_MODE">     1</i>
   <i type="logical" name="LKPOINTS_OPT"> F  </i>
  </separator>
 </parameters>
 <atominfo>
  <atoms>       2 </atoms>
  <types>       1 </types>
  <array name="atoms" >
   <dimension dim="1">ion</dimension>
   <field type="string">element</field>
   <field type="int">atomtype</field>
   <set>
    <rc><c>Si</c><c>   1</c></rc>
    <rc><c>Si</c><c>   1</c></rc>
   </set>
  </array>
  <array name="atomtypes" >
   <dimension dim="1">type</dimension>
   <field type="int">atomspertype</field>
   <field type="string">element</field>
   <field>mass</field>
   <field>valence</field>
   <field type="string">pseudopotential</field>
   <set>
    <rc><c>   2</c><c>Si</c><c>     28.08500000</c><c>      4.00000000</c><c>  PAW_PBE Si 05Jan2001                  </c></rc>
   </set>
  </array>
 </atominfo>
 <structure name="initialpos" >
  <crystal>
   <varray name="basis" >
    <v>       0.00000000       2.75000000       2.75000000 </v>
    <v>       2.75000000       0.00000000       2.75000000 </v>
    <v>       2.75000000       2.75000000       0.00000000 </v>
   </varray>
   <i name="volume">     41.59375000 </i>
   <varray name="rec_basis" >
    <v>      -0.18181818       0.18181818       0.18181818 </v>
    <v>       0.18181818      -0.18181818       0.18181818 </v>
    <v>       0.18181818       0.18181818      -0.18181818 </v>
   </varray>
  </crystal>
  <varray name="positions" >
   <v>       0.87500000       0.87500000       0.87500000 </v>
   <v>       0.12500000       0.12500000       0.12500000 </v>
  </varray>
 </structure>
 <calculation>
  <scstep>
   <time name="dav">    0.07    0.08</time>
   <time name="total">    0.08    0.08</time>
   <energy>
    <i name="alphaZ">      3.23732588 </i>
    <i name="ewald">   -225.65453461 </i>
    <i name="hartreedc">    -11.58535014 </i>
    <i name="XCdc">    -18.75116554 </i>
    <i name="pawpsdc">    176.24759923 </i>
    <i name="pawaedc">   -141.06103558 </i>
    <i name="eentropy">     -0.00074188 </i>
    <i name="bandstr">      9.55291282 </i>
    <i name="atom">    206.12155316 </i>
    <i name="e_fr_energy">     -1.89343666 </i>
    <i name="e_wo_entrp">     -1.89269479 </i>
    <i name="e_0_energy">     -1.89306573 </i>
   </energy>
  </scstep>
  <scstep>
   <time name="dav">    0.12    0.12</time>
   <time name="total">    0.12    0.12</time>
   <energy>
    <i name="e_fr_energy">    -10.89260393 </i>
    <i name="e_wo_entrp">    -10.89260393 </i>
    <i name="e_0_energy">    -10.89260393 </i>
   </energy>
  </scstep>
  <scstep>
   <time name="dav">    0.10    0.10</time>
   <time name="total">    0.10    0.10</time>
   <energy>
    <i name="e_fr_energy">    -10.98055317 </i>
    <i name="e_wo_entrp">    -10.98055317 </i>
    <i name="e_0_energy">    -10.98055317 </i>
   </energy>
  </scstep>
  <scstep>
   <time name="dav">    0.11    0.11</time>
   <time name="total">    0.11    0.11</time>
   <energy>
    <i name="e_fr_energy">    -10.98075180 </i>
    <i name="e_wo_entrp">    -10.98075180 </i>
    <i name="e_0_energy">    -10.98075180 </i>
   </energy>
  </scstep>
  <scstep>
   <time name="dav">    0.10    0.10</time>
   <time name="total">    0.10    0.10</time>
   <energy>
    <i name="e_fr_energy">    -10.98075191 </i>
    <i name="e_wo_entrp">    -10.98075191 </i>
    <i name="e_0_energy">    -10.98075191 </i>
   </energy>
  </scstep>
  <scstep>
   <time name="dav">    0.08    0.08</time>
   <time name="total">    0.09    0.09</time>
   <energy>
    <i name="e_fr_energy">    -10.87234965 </i>
    <i name="e_wo_entrp">    -10.87234965 </i>
    <i name="e_0_energy">    -10.87234965 </i>
   </energy>
  </scstep>
  <scstep>
   <time name="dav">    0.09    0.09</time>
   <time name="total">    0.09    0.10</time>
   <energy>
    <i name="e_fr_energy">    -10.82180979 </i>
    <i name="e_wo_entrp">    -10.82180977 </i>
    <i name="e_0_energy">    -10.82180978 </i>
   </energy>
  </scstep>
  <scstep>
   <time name="dav">    0.07    0.07</time>
   <time name="total">    0.08    0.08</time>
   <energy>
    <i name="e_fr_energy">    -10.82284447 </i>
    <i name="e_wo_entrp">    -10.82284446 </i>
    <i name="e_0_energy">    -10.82284447 </i>
   </energy>
  </scstep>
  <scstep>
   <time name="dav">    0.10    0.11</time>
   <time name="total">    0.11    0.11</time>
   <energy>
    <i name="e_fr_energy">    -10.82306144 </i>
    <i name="e_wo_entrp">    -10.82306143 </i>
    <i name="e_0_energy">    -10.82306144 </i>
   </energy>
  </scstep>
  <scstep>
   <time name="dav">    0.05    0.05</time>
   <time name="total">    0.05    0.05</time>
   <energy>
    <i name="alphaZ">      3.23732588 </i>
    <i name="ewald">   -225.65453461 </i>
    <i name="hartreedc">    -15.36738770 </i>
    <i name="XCdc">    -18.12795947 </i>
    <i name="pawpsdc">    964.60985645 </i>
    <i name="pawaedc">   -929.62217354 </i>
    <i name="eentropy">     -0.00000000 </i>
    <i name="bandstr">      3.98023521 </i>
    <i name="atom">    206.12155316 </i>
    <i name="e_fr_energy">    -10.82308462 </i>
    <i name="e_wo_entrp">    -10.82308461 </i>
    <i name="e_0_energy">    -10.82308462 </i>
   </energy>
  </scstep>
  <structure>
   <crystal>
    <varray name="basis" >
     <v>       0.00000000       2.75000000       2.75000000 </v>
     <v>       2.75000000       0.00000000       2.75000000 </v>
     <v>       2.75000000       2.75000000       0.00000000 </v>
    </varray>
    <i name="volume">     41.59375000 </i>
    <varray name="rec_basis" >
     <v>      -0.18181818       0.18181818       0.18181818 </v>
     <v>       0.18181818      -0.18181818       0.18181818 </v>
     <v>       0.18181818       0.18181818      -0.18181818 </v>
    </varray>
   </crystal>
   <varray name="positions" >
    <v>       0.87500000       0.87500000       0.87500000 </v>
    <v>       0.12500000       0.12500000       0.12500000 </v>
   </varray>
  </structure>
  <varray name="forces" >
   <v>      -0.00000000      -0.00000000      -0.00000000 </v>
   <v>       0.00000000       0.00000000       0.00000000 </v>
  </varray>
  <varray name="stress" >
   <v>     -16.40624409      -0.00000000      -0.00000000 </v>
   <v>       0.00000000     -16.40624409      -0.00000000 </v>
   <v>      -0.00000000      -0.00000000     -16.40624409 </v>
  </varray>
  <energy>
   <i name="e_fr_energy">    -10.82308462 </i>
   <i name="e_wo_entrp">    -10.82308461 </i>
   <i name="e_0_energy">    -10.82308462 </i>
  </energy>
  <time name="totalsc">    1.09    1.11</time>
  <eigenvalues>
   <array>
    <dimension dim="1">band</dimension>
    <dimension dim="2">kpoint</dimension>
    <dimension dim="3">spin</dimension>
    <field>eigene</field>
    <field>occ</field>
    <set>
     <set comment="spin 1">
      <set comment="kpoint 1">
       <r>   -6.2527    1.0000 </r>
       <r>    5.4595    1.0000 </r>
       <r>    5.4595    1.0000 </r>
       <r>    5.4595    1.0000 </r>
       <r>    8.0113    0.0000 </r>
       <r>    8.0113    0.0000 </r>
       <r>    8.0113    0.0000 </r>
       <r>    8.3878    0.0000 </r>
      </set>
      <set comment="kpoint 2">
       <r>   -6.1478    1.0000 </r>
       <r>    4.4715    1.0000 </r>
       <r>    5.2986    1.0000 </r>
       <r>    5.2986    1.0000 </r>
       <r>    7.9592    0.0000 </r>
       <r>    8.2500    0.0000 </r>
       <r>    8.2500    0.0000 </r>
       <r>    9.2591    0.0000 </r>
      </set>
      <set comment="kpoint 3">
       <r>   -5.8379    1.0000 </r>
       <r>    2.8220    1.0000 </r>
       <r>    4.9659    1.0000 </r>
       <r>    4.9659    1.0000 </r>
       <r>    7.6248    0.0000 </r>
       <r>    8.7136    0.0000 </r>
       <r>    8.7136    0.0000 </r>
       <r>   10.8654    0.0000 </r>
      </set>
      <set comment="kpoint 4">
       <r>   -5.3392    1.0000 </r>
       <r>    1.2036    1.0000 </r>
       <r>    4.6485    1.0000 </r>
       <r>    4.6485    1.0000 </r>
       <r>    7.2791    0.0000 </r>
       <r>    8.9744    0.0000 </r>
       <r>    8.9744    0.0000 </r>
       <r>   12.4439    0.0000 </r>
      </set>
      <set comment="kpoint 5">
       <r>   -4.7036    1.0000 </r>
       <r>   -0.2106    1.0000 </r>
       <r>    4.4206    1.0000 </r>
       <r>    4.4207    1.0000 </r>
       <r>    7.0195    0.0000 </r>
       <r>    8.9382    0.0000 </r>
       <r>    8.9382    0.0000 </r>
       <r>   13.2505    0.0000 </r>
      </set>
      <set comment="kpoint 6">
       <r>   -4.1214    1.0000 </r>
       <r>   -1.1883    1.0000 </r>
       <r>    4.3042    1.0000 </r>
       <r>    4.3042    1.0000 </r>
       <r>    6.8834    0.0000 </r>
       <r>    8.8436    0.0000 </r>
       <r>    8.8436    0.0000 </r>
       <r>   13.1576    0.0000 </r>
      </set>
      <set comment="kpoint 7">
       <r>   -6.1127    1.0000 </r>
       <r>    4.6228    1.0000 </r>
       <r>    4.9859    1.0000 </r>
       <r>    4.9859    1.0000 </r>
       <r>    7.7015    0.0000 </r>
       <r>    8.6590    0.0000 </r>
       <r>    8.6590    0.0000 </r>
       <r>    9.1603    0.0000 </r>
      </set>
      <set comment="kpoint 8">
       <r>   -5.8703    1.0000 </r>
       <r>    3.2969    1.0000 </r>
       <r>    4.5997    1.0000 </r>
       <r>    4.7634    1.0000 </r>
       <r>    7.7311    0.0000 </r>
       <r>    8.6381    0.0000 </r>
       <r>    9.2363    0.0000 </r>
       <r>   10.2333    0.0000 </r>
      </set>
      <set comment="kpoint 9">
       <r>   -5.4319    1.0000 </r>
       <r>    1.7182    1.0000 </r>
       <r>    4.2875    1.0000 </r>
       <r>    4.3968    1.0000 </r>
       <r>    7.8134    0.0000 </r>
       <r>    8.6682    0.0000 </r>
       <r>    9.5949    0.0000 </r>
       <r>   10.7806    0.0000 </r>
      </set>
      <set comment="kpoint 10">
       <r>   -4.8321    1.0000 </r>
       <r>    0.2534    1.0000 </r>
       <r>    4.0231    1.0000 </r>
       <r>    4.1029    1.0000 </r>
       <r>    7.6344    0.0000 </r>
       <r>    8.7552    0.0000 </r>
       <r>    9.5496    0.0000 </r>
       <r>   11.5406    0.0000 </r>
      </set>
      <set comment="kpoint 11">
       <r>   -4.1905    1.0000 </r>
       <r>   -0.8990    1.0000 </r>
       <r>    3.7332    1.0000 </r>
       <r>    4.0611    1.0000 </r>
       <r>    7.4861    0.0000 </r>
       <r>    8.7393    0.0000 </r>
       <r>    9.3332    0.0000 </r>
       <r>   12.7473    0.0000 </r>
      </set>
      <set comment="kpoint 12">
       <r>   -3.9350    1.0000 </r>
       <r>   -1.2828    1.0000 </r>
       <r>    3.5621    1.0000 </r>
       <r>    4.1569    1.0000 </r>
       <r>    7.4509    0.0000 </r>
       <r>    8.8033    0.0000 </r>
       <r>    9.1542    0.0000 </r>
       <r>   13.4423    0.0000 </r>
      </set>
      <set comment="kpoint 13">
       <r>   -4.3945    1.0000 </r>
       <r>   -0.5646    1.0000 </r>
       <r>    3.5310    1.0000 </r>
       <r>    4.3767    1.0000 </r>
       <r>    7.5469    0.0000 </r>
       <r>    8.9885    0.0000 </r>
       <r>    9.0708    0.0000 </r>
       <r>   13.1033    0.0000 </r>
      </set>
      <set comment="kpoint 14">
       <r>   -5.0474    1.0000 </r>
       <r>    0.7218    1.0000 </r>
       <r>    3.6542    1.0000 </r>
       <r>    4.6918    1.0000 </r>
       <r>    7.7590    0.0000 </r>
       <r>    8.9874    0.0000 </r>
       <r>    9.1822    0.0000 </r>
       <r>   12.0353    0.0000 </r>
      </set>
      <set comment="kpoint 15">
       <r>   -5.5997    1.0000 </r>
       <r>    2.2280    1.0000 </r>
       <r>    3.9499    1.0000 </r>
       <r>    5.0470    1.0000 </r>
       <r>    8.0525    0.0000 </r>
       <r>    8.6949    0.0000 </r>
       <r>    9.0339    0.0000 </r>
       <r>   11.1179    0.0000 </r>
      </set>
      <set comment="kpoint 16">
       <r>   -5.9744    1.0000 </r>
       <r>    3.6654    1.0000 </r>
       <r>    4.5048    1.0000 </r>
       <r>    5.3165    1.0000 </r>
       <r>    8.2802    0.0000 </r>
       <r>    8.3010    0.0000 </r>
       <r>    8.4569    0.0000 </r>
       <r>   10.1749    0.0000 </r>
      </set>
      <set comment="kpoint 17">
       <r>   -5.6958    1.0000 </r>
       <r>    3.1221    1.0000 </r>
       <r>    4.1788    1.0000 </r>
       <r>    4.1788    1.0000 </r>
       <r>    7.0733    0.0000 </r>
       <r>    9.4773    0.0000 </r>
       <r>    9.9719    0.0000 </r>
       <r>    9.9719    0.0000 </r>
      </set>
      <set comment="kpoint 18">
       <r>   -5.3211    1.0000 </r>
       <r>    1.9985    1.0000 </r>
       <r>    3.7644    1.0000 </r>
       <r>    3.8444    1.0000 </r>
       <r>    7.1247    0.0000 </r>
       <r>    9.1174    0.0000 </r>
       <r>   10.2592    0.0000 </r>
       <r>   10.5490    0.0000 </r>
      </set>
      <set comment="kpoint 19">
       <r>   -4.7694    1.0000 </r>
       <r>    0.6713    1.0000 </r>
       <r>    3.2418    1.0000 </r>
       <r>    3.6516    1.0000 </r>
       <r>    7.3579    0.0000 </r>
       <r>    9.4679    0.0000 </r>
       <r>   10.0639    0.0000 </r>
       <r>   10.6491    0.0000 </r>
      </set>
      <set comment="kpoint 20">
       <r>   -4.1152    1.0000 </r>
       <r>   -0.5230    1.0000 </r>
       <r>    2.7768    1.0000 </r>
       <r>    3.6180    1.0000 </r>
       <r>    7.3971    0.0000 </r>
       <r>    9.8077    0.0000 </r>
       <r>   10.4166    0.0000 </r>
       <r>   10.6861    0.0000 </r>
      </set>
      <set comment="kpoint 21">
       <r>   -3.6564    1.0000 </r>
       <r>   -1.2026    1.0000 </r>
       <r>    2.4517    1.0000 </r>
       <r>    3.7430    1.0000 </r>
       <r>    7.4860    0.0000 </r>
       <r>    9.6913    0.0000 </r>
       <r>   10.1347    0.0000 </r>
       <r>   12.2707    0.0000 </r>
      </set>
      <set comment="kpoint 22">
       <r>   -3.9275    1.0000 </r>
       <r>   -0.8090    1.0000 </r>
       <r>    2.3075    1.0000 </r>
       <r>    4.0116    1.0000 </r>
       <r>    7.7187    0.0000 </r>
       <r>    9.6942    0.0000 </r>
       <r>    9.9083    0.0000 </r>
       <r>   13.0432    0.0000 </r>
      </set>
      <set comment="kpoint 23">
       <r>   -4.5719    1.0000 </r>
       <r>    0.2661    1.0000 </r>
       <r>    2.3955    1.0000 </r>
       <r>    4.3862    1.0000 </r>
       <r>    8.0586    0.0000 </r>
       <r>    9.6516    0.0000 </r>
       <r>    9.7574    0.0000 </r>
       <r>   11.6623    0.0000 </r>
      </set>
      <set comment="kpoint 24">
       <r>   -5.1668    1.0000 </r>
       <r>    1.4213    1.0000 </r>
       <r>    2.8735    1.0000 </r>
       <r>    4.7870    1.0000 </r>
       <r>    8.3511    0.0000 </r>
       <r>    9.1634    0.0000 </r>
       <r>    9.4516    0.0000 </r>
       <r>   11.0000    0.0000 </r>
      </set>
      <set comment="kpoint 25">
       <r>   -5.0098    1.0000 </r>
       <r>    1.5301    1.0000 </r>
       <r>    3.4775    1.0000 </r>
       <r>    3.4775    1.0000 </r>
       <r>    6.5032    0.0000 </r>
       <r>    8.2868    0.0000 </r>
       <r>   11.5013    0.0000 </r>
       <r>   11.5014    0.0000 </r>
      </set>
      <set comment="kpoint 26">
       <r>   -4.5129    1.0000 </r>
       <r>    0.6018    1.0000 </r>
       <r>    2.9585    1.0000 </r>
       <r>    3.2517    1.0000 </r>
       <r>    6.6359    0.0000 </r>
       <r>    8.0067    0.0000 </r>
       <r>   11.7675    0.0000 </r>
       <r>   11.9714    0.0000 </r>
      </set>
      <set comment="kpoint 27">
       <r>   -3.8766    1.0000 </r>
       <r>   -0.3940    1.0000 </r>
       <r>    2.2561    1.0000 </r>
       <r>    3.1906    1.0000 </r>
       <r>    6.8402    0.0000 </r>
       <r>    8.7307    0.0000 </r>
       <r>   11.5943    0.0000 </r>
       <r>   11.8576    0.0000 </r>
      </set>
      <set comment="kpoint 28">
       <r>   -3.2894    1.0000 </r>
       <r>   -1.1634    1.0000 </r>
       <r>    1.7015    1.0000 </r>
       <r>    3.2981    1.0000 </r>
       <r>    6.9702    0.0000 </r>
       <r>   10.1814    0.0000 </r>
       <r>   11.4156    0.0000 </r>
       <r>   11.5414    0.0000 </r>
      </set>
      <set comment="kpoint 29">
       <r>   -3.3450    1.0000 </r>
       <r>   -1.0857    1.0000 </r>
       <r>    1.4289    1.0000 </r>
       <r>    3.5634    1.0000 </r>
       <r>    7.2468    0.0000 </r>
       <r>   11.1849    0.0000 </r>
       <r>   11.2075    0.0000 </r>
       <r>   12.0529    0.0000 </r>
      </set>
      <set comment="kpoint 30">
       <r>   -3.9540    1.0000 </r>
       <r>   -0.3524    1.0000 </r>
       <r>    1.5876    1.0000 </r>
       <r>    3.9526    1.0000 </r>
       <r>    7.6676    0.0000 </r>
       <r>   10.5832    0.0000 </r>
       <r>   10.9444    0.0000 </r>
       <r>   11.6863    0.0000 </r>
      </set>
      <set comment="kpoint 31">
       <r>   -4.0703    1.0000 </r>
       <r>   -0.0461    1.0000 </r>
       <r>    2.9837    1.0000 </r>
       <r>    2.9837    1.0000 </r>
       <r>    6.1634    0.0000 </r>
       <r>    7.1846    0.0000 </r>
       <r>   13.1236    0.0000 </r>
       <r>   13.1236    0.0000 </r>
      </set>
      <set comment="kpoint 32">
       <r>   -3.4689    1.0000 </r>
       <r>   -0.8383    1.0000 </r>
       <r>    2.4729    1.0000 </r>
       <r>    2.8812    1.0000 </r>
       <r>    6.3726    0.0000 </r>
       <r>    7.1879    0.0000 </r>
       <r>   13.4295    0.0000 </r>
       <r>   13.4626    0.0000 </r>
      </set>
      <set comment="kpoint 33">
       <r>   -2.8208    1.0000 </r>
       <r>   -1.5334    1.0000 </r>
       <r>    1.7286    1.0000 </r>
       <r>    2.9513    1.0000 </r>
       <r>    6.5423    0.0000 </r>
       <r>    8.3345    0.0000 </r>
       <r>   13.1879    0.0000 </r>
       <r>   13.2859    0.0000 </r>
      </set>
      <set comment="kpoint 34">
       <r>   -2.7659    1.0000 </r>
       <r>   -1.5587    1.0000 </r>
       <r>    1.2639    1.0000 </r>
       <r>    3.1879    1.0000 </r>
       <r>    6.8102    0.0000 </r>
       <r>   10.0233    0.0000 </r>
       <r>   12.5081    0.0000 </r>
       <r>   13.0461    0.0000 </r>
      </set>
      <set comment="kpoint 35">
       <r>   -2.9027    1.0000 </r>
       <r>   -1.5444    1.0000 </r>
       <r>    2.7320    1.0000 </r>
       <r>    2.7320    1.0000 </r>
       <r>    6.1344    0.0000 </r>
       <r>    6.4628    0.0000 </r>
       <r>   14.7664    0.0000 </r>
       <r>   14.7664    0.0000 </r>
      </set>
      <set comment="kpoint 36">
       <r>   -2.2804    1.0000 </r>
       <r>   -2.1681    1.0000 </r>
       <r>    2.3124    1.0000 </r>
       <r>    2.7561    1.0000 </r>
       <r>    6.3156    0.0000 </r>
       <r>    6.8780    0.0000 </r>
       <r>   14.6771    0.0000 </r>
       <r>   14.8726    0.0000 </r>
      </set>
      <set comment="kpoint 37">
       <r>   -5.5623    1.0000 </r>
       <r>    2.4410    1.0000 </r>
       <r>    3.6913    1.0000 </r>
       <r>    4.6541    1.0000 </r>
       <r>    7.7923    0.0000 </r>
       <r>    8.9419    0.0000 </r>
       <r>    9.7712    0.0000 </r>
       <r>   10.2149    0.0000 </r>
      </set>
      <set comment="kpoint 38">
       <r>   -5.0664    1.0000 </r>
       <r>    1.1592    1.0000 </r>
       <r>    3.1374    1.0000 </r>
       <r>    4.3462    1.0000 </r>
       <r>    8.0874    0.0000 </r>
       <r>    8.9299    0.0000 </r>
       <r>   10.1121    0.0000 </r>
       <r>   10.3376    0.0000 </r>
      </set>
      <set comment="kpoint 39">
       <r>   -4.4320    1.0000 </r>
       <r>   -0.1395    1.0000 </r>
       <r>    2.8779    1.0000 </r>
       <r>    4.0155    1.0000 </r>
       <r>    8.0941    0.0000 </r>
       <r>    8.7958    0.0000 </r>
       <r>   10.1998    0.0000 </r>
       <r>   11.1573    0.0000 </r>
      </set>
      <set comment="kpoint 40">
       <r>   -3.8449    1.0000 </r>
       <r>   -1.0832    1.0000 </r>
       <r>    2.7753    1.0000 </r>
       <r>    3.8137    1.0000 </r>
       <r>    8.0495    0.0000 </r>
       <r>    8.6293    0.0000 </r>
       <r>   10.1423    0.0000 </r>
       <r>   12.5798    0.0000 </r>
      </set>
      <set comment="kpoint 41">
       <r>   -4.8864    1.0000 </r>
       <r>    1.1650    1.0000 </r>
       <r>    2.9965    1.0000 </r>
       <r>    3.6842    1.0000 </r>
       <r>    7.2497    0.0000 </r>
       <r>    8.7636    0.0000 </r>
       <r>   10.3591    0.0000 </r>
       <r>   11.3876    0.0000 </r>
      </set>
      <set comment="kpoint 42">
       <r>   -4.2899    1.0000 </r>
       <r>    0.1177    1.0000 </r>
       <r>    2.4344    1.0000 </r>
       <r>    3.3846    1.0000 </r>
       <r>    7.6076    0.0000 </r>
       <r>    9.1712    0.0000 </r>
       <r>   10.0483    0.0000 </r>
       <r>   11.7785    0.0000 </r>
      </set>
      <set comment="kpoint 43">
       <r>   -3.6439    1.0000 </r>
       <r>   -0.8529    1.0000 </r>
       <r>    2.0552    1.0000 </r>
       <r>    3.2357    1.0000 </r>
       <r>    7.7397    0.0000 </r>
       <r>    9.6882    0.0000 </r>
       <r>   10.4819    0.0000 </r>
       <r>   11.7365    0.0000 </r>
      </set>
      <set comment="kpoint 44">
       <r>   -3.3909    1.0000 </r>
       <r>   -1.1854    1.0000 </r>
       <r>    1.8329    1.0000 </r>
       <r>    3.3215    1.0000 </r>
       <r>    7.9425    0.0000 </r>
       <r>    9.4259    0.0000 </r>
       <r>   11.6164    0.0000 </r>
       <r>   12.1537    0.0000 </r>
      </set>
      <set comment="kpoint 45">
       <r>   -3.8744    1.0000 </r>
       <r>   -0.5260    1.0000 </r>
       <r>    1.8294    1.0000 </r>
       <r>    3.6054    1.0000 </r>
       <r>    8.2849    0.0000 </r>
       <r>    9.2437    0.0000 </r>
       <r>   10.9261    0.0000 </r>
       <r>   11.5747    0.0000 </r>
      </set>
      <set comment="kpoint 46">
       <r>   -4.5248    1.0000 </r>
       <r>    0.4238    1.0000 </r>
       <r>    2.2011    1.0000 </r>
       <r>    4.0041    1.0000 </r>
       <r>    8.6910    0.0000 </r>
       <r>    8.8309    0.0000 </r>
       <r>   10.0857    0.0000 </r>
       <r>   11.1072    0.0000 </r>
      </set>
      <set comment="kpoint 47">
       <r>   -3.9656    1.0000 </r>
       <r>   -0.1789    1.0000 </r>
       <r>    2.5352    1.0000 </r>
       <r>    2.9145    1.0000 </r>
       <r>    6.9088    0.0000 </r>
       <r>    7.7667    0.0000 </r>
       <r>   11.7107    0.0000 </r>
       <r>   13.0952    0.0000 </r>
      </set>
      <set comment="kpoint 48">
       <r>   -3.3097    1.0000 </r>
       <r>   -0.9781    1.0000 </r>
       <r>    1.9182    1.0000 </r>
       <r>    2.7431    1.0000 </r>
       <r>    7.2531    0.0000 </r>
       <r>    8.5510    0.0000 </r>
       <r>   11.3692    0.0000 </r>
       <r>   13.4423    0.0000 </r>
      </set>
      <set comment="kpoint 49">
       <r>   -2.8628    1.0000 </r>
       <r>   -1.4567    1.0000 </r>
       <r>    1.4179    1.0000 </r>
       <r>    2.8545    1.0000 </r>
       <r>    7.4617    0.0000 </r>
       <r>   10.0953    0.0000 </r>
       <r>   11.0683    0.0000 </r>
       <r>   12.6371    0.0000 </r>
      </set>
      <set comment="kpoint 50">
       <r>   -3.2353    1.0000 </r>
       <r>   -1.0672    1.0000 </r>
       <r>    1.3176    1.0000 </r>
       <r>    3.1661    1.0000 </r>
       <r>    7.8192    0.0000 </r>
       <r>   10.4883    0.0000 </r>
       <r>   11.1900    0.0000 </r>
       <r>   12.0762    0.0000 </r>
      </set>
      <set comment="kpoint 51">
       <r>   -2.8336    1.0000 </r>
       <r>   -1.5443    1.0000 </r>
       <r>    2.3494    1.0000 </r>
       <r>    2.4683    1.0000 </r>
       <r>    6.8482    0.0000 </r>
       <r>    7.1208    0.0000 </r>
       <r>   13.2123    0.0000 </r>
       <r>   14.5459    0.0000 </r>
      </set>
      <set comment="kpoint 52">
       <r>   -2.3511    1.0000 </r>
       <r>   -1.9757    1.0000 </r>
       <r>    1.7210    1.0000 </r>
       <r>    2.5379    1.0000 </r>
       <r>    7.1255    0.0000 </r>
       <r>    8.3447    0.0000 </r>
       <r>   12.7719    0.0000 </r>
       <r>   12.9966    0.0000 </r>
      </set>
      <set comment="kpoint 53">
       <r>   -3.6686    1.0000 </r>
       <r>   -0.5592    1.0000 </r>
       <r>    1.8076    1.0000 </r>
       <r>    2.9402    1.0000 </r>
       <r>    8.5246    0.0000 </r>
       <r>    9.1949    0.0000 </r>
       <r>    9.6693    0.0000 </r>
       <r>   13.0033    0.0000 </r>
      </set>
      <set comment="kpoint 54">
       <r>   -3.0592    1.0000 </r>
       <r>   -1.2376    1.0000 </r>
       <r>    1.5363    1.0000 </r>
       <r>    2.6330    1.0000 </r>
       <r>    8.9074    0.0000 </r>
       <r>    9.2285    0.0000 </r>
       <r>   10.4743    0.0000 </r>
       <r>   12.3004    0.0000 </r>
      </set>
      <set comment="kpoint 55">
       <r>   -2.6585    1.0000 </r>
       <r>   -1.5898    1.0000 </r>
       <r>    1.7630    1.0000 </r>
       <r>    2.1342    1.0000 </r>
       <r>    8.4512    0.0000 </r>
       <r>    8.6645    0.0000 </r>
       <r>   10.9704    0.0000 </r>
       <r>   12.5321    0.0000 </r>
      </set>
      <set comment="kpoint 56">
       <r>   -2.4689    1.0000 </r>
       <r>   -1.7482    1.0000 </r>
       <r>    1.4969    1.0000 </r>
       <r>    2.1691    1.0000 </r>
       <r>    8.7988    0.0000 </r>
       <r>   10.0828    0.0000 </r>
       <r>   10.7206    0.0000 </r>
       <r>   10.7515    0.0000 </r>
      </set>
     </set>
    </set>
   </array>
  </eigenvalues>
  <separator name="orbital magnetization" >
   <v name="MAGDIPOLOUT">      0.00000000      0.00000000      0.00000000</v>
  </separator>
  <dos>
   <i name="efermi">      5.79120187 </i>
   <total>
    <array>
     <dimension dim="1">gridpoints</dimension>
     <dimension dim="2">spin</dimension>
     <field>energy</field>
     <field>total</field>
     <field>integrated</field>
     <set>
      <set comment="spin 1">
       <r>    -7.3089     0.0000     0.0000 </r>
       <r>    -7.2315     0.0000     0.0000 </r>
       <r>    -7.1540     0.0000     0.0000 </r>
       <r>    -7.0766     0.0000     0.0000 </r>
       <r>    -6.9991     0.0000     0.0000 </r>
       <r>    -6.9216     0.0000     0.0000 </r>
       <r>    -6.8442     0.0000     0.0000 </r>
       <r>    -6.7667     0.0000     0.0000 </r>
       <r>    -6.6893     0.0000     0.0000 </r>
       <r>    -6.6118     0.0000     0.0000 </r>
       <r>    -6.5344     0.0000     0.0000 </r>
       <r>    -6.4569     0.0000     0.0000 </r>
       <r>    -6.3794     0.0008     0.0001 </r>
       <r>    -6.3020     0.0066     0.0006 </r>
       <r>    -6.2245     0.0335     0.0032 </r>
       <r>    -6.1471     0.0936     0.0104 </r>
       <r>    -6.0696     0.1259     0.0202 </r>
       <r>    -5.9921     0.1386     0.0309 </r>
       <r>    -5.9147     0.2231     0.0482 </r>
       <r>    -5.8372     0.2932     0.0709 </r>
       <r>    -5.7598     0.2085     0.0871 </r>
       <r>    -5.6823     0.1611     0.0995 </r>
       <r>    -5.6048     0.3144     0.1239 </r>
       <r>    -5.5274     0.4184     0.1563 </r>
       <r>    -5.4499     0.3514     0.1835 </r>
       <r>    -5.3725     0.3521     0.2108 </r>
       <r>    -5.2950     0.3466     0.2376 </r>
       <r>    -5.2175     0.2442     0.2565 </r>
       <r>    -5.1401     0.3007     0.2798 </r>
       <r>    -5.0626     0.5902     0.3256 </r>
       <r>    -4.9852     0.6185     0.3735 </r>
       <r>    -4.9077     0.4277     0.4066 </r>
       <r>    -4.8302     0.4741     0.4433 </r>
       <r>    -4.7528     0.4743     0.4801 </r>
       <r>    -4.6753     0.3221     0.5050 </r>
       <r>    -4.5979     0.3417     0.5315 </r>
       <r>    -4.5204     0.6445     0.5814 </r>
       <r>    -4.4429     0.8558     0.6477 </r>
       <r>    -4.3655     0.8088     0.7103 </r>
       <r>    -4.2880     0.6681     0.7621 </r>
       <r>    -4.2106     0.5786     0.8069 </r>
       <r>    -4.1331     0.5230     0.8474 </r>
       <r>    -4.0556     0.4912     0.8855 </r>
       <r>    -3.9782     0.6951     0.9393 </r>
       <r>    -3.9007     1.2600     1.0369 </r>
       <r>    -3.8233     1.3361     1.1404 </r>
       <r>    -3.7458     0.7930     1.2018 </r>
       <r>    -3.6684     0.7131     1.2571 </r>
       <r>    -3.5909     0.7598     1.3159 </r>
       <r>    -3.5134     0.4562     1.3512 </r>
       <r>    -3.4360     0.5276     1.3921 </r>
       <r>    -3.3585     0.9405     1.4650 </r>
       <r>    -3.2811     1.1182     1.5516 </r>
       <r>    -3.2036     0.7551     1.6101 </r>
       <r>    -3.1261     0.3837     1.6398 </r>
       <r>    -3.0487     0.4036     1.6710 </r>
       <r>    -2.9712     0.4043     1.7024 </r>
       <r>    -2.8938     0.5356     1.7438 </r>
       <r>    -2.8163     0.8466     1.8094 </r>
       <r>    -2.7388     0.6712     1.8614 </r>
       <r>    -2.6614     0.3589     1.8892 </r>
       <r>    -2.5839     0.2213     1.9064 </r>
       <r>    -2.5065     0.1828     1.9205 </r>
       <r>    -2.4290     0.2612     1.9408 </r>
       <r>    -2.3515     0.3131     1.9650 </r>
       <r>    -2.2741     0.2935     1.9877 </r>
       <r>    -2.1966     0.2043     2.0036 </r>
       <r>    -2.1192     0.1368     2.0142 </r>
       <r>    -2.0417     0.1228     2.0237 </r>
       <r>    -1.9642     0.1899     2.0384 </r>
       <r>    -1.8868     0.1659     2.0512 </r>
       <r>    -1.8093     0.1234     2.0608 </r>
       <r>    -1.7319     0.2044     2.0766 </r>
       <r>    -1.6544     0.2937     2.0994 </r>
       <r>    -1.5769     0.5907     2.1451 </r>
       <r>    -1.4995     0.8968     2.2146 </r>
       <r>    -1.4220     0.7354     2.2716 </r>
       <r>    -1.3446     0.4554     2.3068 </r>
       <r>    -1.2671     0.7260     2.3631 </r>
       <r>    -1.1896     1.3419     2.4670 </r>
       <r>    -1.1122     1.5016     2.5833 </r>
       <r>    -1.0347     1.2739     2.6820 </r>
       <r>    -0.9573     0.9965     2.7592 </r>
       <r>    -0.8798     0.9800     2.8351 </r>
       <r>    -0.8024     0.9712     2.9103 </r>
       <r>    -0.7249     0.5215     2.9507 </r>
       <r>    -0.6474     0.2580     2.9707 </r>
       <r>    -0.5700     0.6374     3.0201 </r>
       <r>    -0.4925     0.9754     3.0956 </r>
       <r>    -0.4151     0.6809     3.1484 </r>
       <r>    -0.3376     0.3888     3.1785 </r>
       <r>    -0.2601     0.2895     3.2009 </r>
       <r>    -0.1827     0.4761     3.2378 </r>
       <r>    -0.1052     0.6270     3.2864 </r>
       <r>    -0.0278     0.3750     3.3154 </r>
       <r>     0.0497     0.2331     3.3335 </r>
       <r>     0.1272     0.3990     3.3644 </r>
       <r>     0.2046     0.4904     3.4024 </r>
       <r>     0.2821     0.4796     3.4395 </r>
       <r>     0.3595     0.3595     3.4674 </r>
       <r>     0.4370     0.2562     3.4872 </r>
       <r>     0.5145     0.2101     3.5035 </r>
       <r>     0.5919     0.2684     3.5243 </r>
       <r>     0.6694     0.4418     3.5585 </r>
       <r>     0.7468     0.4316     3.5919 </r>
       <r>     0.8243     0.2024     3.6076 </r>
       <r>     0.9018     0.0391     3.6106 </r>
       <r>     0.9792     0.0098     3.6114 </r>
       <r>     1.0567     0.0940     3.6187 </r>
       <r>     1.1341     0.4251     3.6516 </r>
       <r>     1.2116     0.7101     3.7066 </r>
       <r>     1.2891     0.6085     3.7537 </r>
       <r>     1.3665     0.6511     3.8042 </r>
       <r>     1.4440     0.9660     3.8790 </r>
       <r>     1.5214     1.0707     3.9619 </r>
       <r>     1.5989     0.8493     4.0277 </r>
       <r>     1.6764     0.8120     4.0906 </r>
       <r>     1.7538     1.3008     4.1914 </r>
       <r>     1.8313     1.6116     4.3162 </r>
       <r>     1.9087     1.3518     4.4209 </r>
       <r>     1.9862     0.9338     4.4932 </r>
       <r>     2.0637     0.8179     4.5566 </r>
       <r>     2.1411     0.8705     4.6240 </r>
       <r>     2.2186     0.9977     4.7013 </r>
       <r>     2.2960     1.0694     4.7841 </r>
       <r>     2.3735     1.2076     4.8777 </r>
       <r>     2.4509     1.5733     4.9995 </r>
       <r>     2.5284     1.5108     5.1166 </r>
       <r>     2.6059     1.0295     5.1963 </r>
       <r>     2.6833     0.9395     5.2691 </r>
       <r>     2.7608     1.4025     5.3777 </r>
       <r>     2.8382     1.9084     5.5256 </r>
       <r>     2.9157     2.0629     5.6853 </r>
       <r>     2.9932     1.6406     5.8124 </r>
       <r>     3.0706     0.9770     5.8881 </r>
       <r>     3.1481     1.0548     5.9698 </r>
       <r>     3.2255     1.6396     6.0968 </r>
       <r>     3.3030     1.8357     6.2390 </r>
       <r>     3.3805     1.4251     6.3494 </r>
       <r>     3.4579     0.8789     6.4175 </r>
       <r>     3.5354     0.9393     6.4902 </r>
       <r>     3.6128     1.5523     6.6105 </r>
       <r>     3.6903     1.8694     6.7553 </r>
       <r>     3.7678     1.6470     6.8829 </r>
       <r>     3.8452     1.2276     6.9779 </r>
       <r>     3.9227     0.9609     7.0524 </r>
       <r>     4.0001     1.2783     7.1514 </r>
       <r>     4.0776     1.4584     7.2644 </r>
       <r>     4.1551     0.9959     7.3415 </r>
       <r>     4.2325     0.6498     7.3918 </r>
       <r>     4.3100     0.8591     7.4584 </r>
       <r>     4.3874     1.2650     7.5564 </r>
       <r>     4.4649     1.0425     7.6371 </r>
       <r>     4.5424     0.5908     7.6829 </r>
       <r>     4.6198     0.6229     7.7311 </r>
       <r>     4.6973     0.7903     7.7923 </r>
       <r>     4.7747     0.6436     7.8422 </r>
       <r>     4.8522     0.3545     7.8697 </r>
       <r>     4.9297     0.2296     7.8874 </r>
       <r>     5.0071     0.3433     7.9140 </r>
       <r>     5.0846     0.3370     7.9401 </r>
       <r>     5.1620     0.1566     7.9523 </r>
       <r>     5.2395     0.1080     7.9606 </r>
       <r>     5.3169     0.2120     7.9771 </r>
       <r>     5.3944     0.1897     7.9917 </r>
       <r>     5.4719     0.0760     7.9976 </r>
       <r>     5.5493     0.0244     7.9995 </r>
       <r>     5.6268     0.0056     8.0000 </r>
       <r>     5.7042     0.0005     8.0000 </r>
       <r>     5.7817     0.0000     8.0000 </r>
       <r>     5.8592     0.0000     8.0000 </r>
       <r>     5.9366     0.0004     8.0000 </r>
       <r>     6.0141     0.0068     8.0006 </r>
       <r>     6.0915     0.0427     8.0039 </r>
       <r>     6.1690     0.0974     8.0114 </r>
       <r>     6.2465     0.1206     8.0208 </r>
       <r>     6.3239     0.2087     8.0369 </r>
       <r>     6.4014     0.3111     8.0610 </r>
       <r>     6.4788     0.3133     8.0853 </r>
       <r>     6.5563     0.3534     8.1127 </r>
       <r>     6.6338     0.3549     8.1401 </r>
       <r>     6.7112     0.2664     8.1608 </r>
       <r>     6.7887     0.3637     8.1890 </r>
       <r>     6.8661     0.7436     8.2465 </r>
       <r>     6.9436     0.8296     8.3108 </r>
       <r>     7.0211     0.6293     8.3596 </r>
       <r>     7.0985     0.7225     8.4155 </r>
       <r>     7.1760     1.0887     8.4999 </r>
       <r>     7.2534     1.2875     8.5996 </r>
       <r>     7.3309     1.1245     8.6867 </r>
       <r>     7.4084     1.0458     8.7677 </r>
       <r>     7.4858     1.3183     8.8698 </r>
       <r>     7.5633     1.3101     8.9713 </r>
       <r>     7.6407     1.2846     9.0708 </r>
       <r>     7.7182     1.5935     9.1942 </r>
       <r>     7.7957     1.7912     9.3330 </r>
       <r>     7.8731     1.2926     9.4331 </r>
       <r>     7.9506     0.9947     9.5101 </r>
       <r>     8.0280     1.4715     9.6241 </r>
       <r>     8.1055     1.7872     9.7626 </r>
       <r>     8.1829     1.1741     9.8535 </r>
       <r>     8.2604     0.9092     9.9239 </r>
       <r>     8.3379     1.1912    10.0162 </r>
       <r>     8.4153     0.9994    10.0936 </r>
       <r>     8.4928     0.8376    10.1585 </r>
       <r>     8.5702     1.1423    10.2470 </r>
       <r>     8.6477     1.7659    10.3838 </r>
       <r>     8.7252     2.3605    10.5666 </r>
       <r>     8.8026     2.4352    10.7552 </r>
       <r>     8.8801     2.1225    10.9196 </r>
       <r>     8.9575     1.9630    11.0717 </r>
       <r>     9.0350     1.6730    11.2013 </r>
       <r>     9.1125     1.4883    11.3166 </r>
       <r>     9.1899     1.9811    11.4700 </r>
       <r>     9.2674     2.0333    11.6275 </r>
       <r>     9.3448     1.2387    11.7235 </r>
       <r>     9.4223     0.8651    11.7905 </r>
       <r>     9.4998     0.8898    11.8594 </r>
       <r>     9.5772     0.8724    11.9270 </r>
       <r>     9.6547     1.2256    12.0219 </r>
       <r>     9.7321     1.5449    12.1416 </r>
       <r>     9.8096     1.1692    12.2321 </r>
       <r>     9.8871     0.6574    12.2830 </r>
       <r>     9.9645     0.6353    12.3323 </r>
       <r>    10.0420     1.4053    12.4411 </r>
       <r>    10.1194     2.5056    12.6352 </r>
       <r>    10.1969     2.6044    12.8369 </r>
       <r>    10.2744     1.8357    12.9791 </r>
       <r>    10.3518     1.2541    13.0763 </r>
       <r>    10.4293     1.2468    13.1728 </r>
       <r>    10.5067     1.4105    13.2821 </r>
       <r>    10.5842     1.1184    13.3687 </r>
       <r>    10.6617     0.8226    13.4324 </r>
       <r>    10.7391     0.8647    13.4994 </r>
       <r>    10.8166     0.7589    13.5582 </r>
       <r>    10.8940     0.6834    13.6111 </r>
       <r>    10.9715     0.8960    13.6805 </r>
       <r>    11.0490     1.0637    13.7629 </r>
       <r>    11.1264     1.3563    13.8680 </r>
       <r>    11.2039     1.4164    13.9777 </r>
       <r>    11.2813     0.9100    14.0482 </r>
       <r>    11.3588     0.7196    14.1039 </r>
       <r>    11.4362     0.8866    14.1726 </r>
       <r>    11.5137     1.0167    14.2514 </r>
       <r>    11.5912     1.4612    14.3646 </r>
       <r>    11.6686     1.6470    14.4921 </r>
       <r>    11.7461     1.5730    14.6140 </r>
       <r>    11.8235     1.2704    14.7124 </r>
       <r>    11.9010     0.7026    14.7668 </r>
       <r>    11.9785     0.5302    14.8079 </r>
       <r>    12.0559     0.7570    14.8665 </r>
       <r>    12.1334     0.8467    14.9321 </r>
       <r>    12.2108     0.7213    14.9880 </r>
       <r>    12.2883     0.6851    15.0410 </r>
       <r>    12.3658     0.5640    15.0847 </r>
       <r>    12.4432     0.3481    15.1117 </r>
       <r>    12.5207     0.5313    15.1528 </r>
       <r>    12.5981     0.8863    15.2215 </r>
       <r>    12.6756     0.8730    15.2891 </r>
       <r>    12.7531     0.6319    15.3381 </r>
       <r>    12.8305     0.4084    15.3697 </r>
       <r>    12.9080     0.2394    15.3882 </r>
       <r>    12.9854     0.4951    15.4266 </r>
       <r>    13.0629     0.9589    15.5009 </r>
       <r>    13.1404     1.0758    15.5842 </r>
       <r>    13.2178     0.9088    15.6546 </r>
       <r>    13.2953     0.6674    15.7063 </r>
       <r>    13.3727     0.6072    15.7533 </r>
       <r>    13.4502     0.9344    15.8257 </r>
       <r>    13.5277     0.8054    15.8881 </r>
       <r>    13.6051     0.2526    15.9077 </r>
       <r>    13.6826     0.0271    15.9098 </r>
       <r>    13.7600     0.0010    15.9098 </r>
       <r>    13.8375     0.0000    15.9098 </r>
       <r>    13.9150     0.0000    15.9098 </r>
       <r>    13.9924     0.0000    15.9098 </r>
       <r>    14.0699     0.0000    15.9098 </r>
       <r>    14.1473     0.0000    15.9098 </r>
       <r>    14.2248     0.0000    15.9098 </r>
       <r>    14.3022     0.0001    15.9099 </r>
       <r>    14.3797     0.0042    15.9102 </r>
       <r>    14.4572     0.0446    15.9136 </r>
       <r>    14.5346     0.1595    15.9260 </r>
       <r>    14.6121     0.2209    15.9431 </r>
       <r>    14.6895     0.1925    15.9580 </r>
       <r>    14.7670     0.1854    15.9724 </r>
       <r>    14.8445     0.1708    15.9856 </r>
       <r>    14.9219     0.1261    15.9954 </r>
       <r>    14.9994     0.0512    15.9993 </r>
       <r>    15.0768     0.0082    16.0000 </r>
       <r>    15.1543     0.0004    16.0000 </r>
       <r>    15.2318     0.0000    16.0000 </r>
       <r>    15.3092     0.0000    16.0000 </r>
       <r>    15.3867     0.0000    16.0000 </r>
       <r>    15.4641     0.0000    16.0000 </r>
       <r>    15.5416     0.0000    16.0000 </r>
       <r>    15.6191     0.0000    16.0000 </r>
       <r>    15.6965     0.0000    16.0000 </r>
       <r>    15.7740     0.0000    16.0000 </r>
       <r>    15.8514     0.0000    16.0000 </r>
       <r>    15.9289     0.0000    16.0000 </r>
      </set>
     </set>
    </array>
   </total>
  </dos>
 </calculation>
 <structure name="finalpos" >
  <crystal>
   <varray name="basis" >
    <v>       0.00000000       2.75000000       2.75000000 </v>
    <v>       2.75000000       0.00000000       2.75000000 </v>
    <v>       2.75000000       2.75000000       0.00000000 </v>
   </varray>
   <i name="volume">     41.59375000 </i>
   <varray name="rec_basis" >
    <v>      -0.18181818       0.18181818       0.18181818 </v>
    <v>       0.18181818      -0.18181818       0.18181818 </v>
    <v>       0.18181818       0.18181818      -0.18181818 </v>
   </varray>
  </crystal>
  <varray name="positions" >
   <v>       0.87500000       0.87500000       0.87500000 </v>
   <v>       0.12500000       0.12500000       0.12500000 </v>
  </varray>
 </structure>
</modeling>
