fcc Ni                                  
   3.50000000000000     
     0.500000    0.500000    0.000000
     0.000000    0.500000    0.500000
     0.500000    0.000000    0.500000
   Ni
     1
Direct
  0.000000  0.000000  0.000000
 
   20   20   20
  148.31      138.96      114.08      81.512      50.052      26.052      11.829      5.8802      4.2986      3.6261    
  3.4042      3.6261      4.2986      5.8802      11.829      26.052      50.052      81.512      114.08      138.96    
  138.96      121.88      93.351      61.834      34.906      16.785      7.6997      4.7486      3.8610      3.4232    
  3.4240      3.8622      4.7484      7.6985      16.786      34.908      61.835      93.350      121.87      138.96    
  114.08      93.351      66.291      40.340      20.861      9.6932      5.2980      4.0911      3.4773      3.2779    
  3.4774      4.0912      5.2980      9.6933      20.861      40.340      66.291      93.351      114.08      121.87    
  81.512      61.834      40.340      22.440      11.007      5.8168      4.2702      3.5469      3.1941      3.1936    
  3.5462      4.2702      5.8175      11.007      22.439      40.339      61.835      81.515      93.351      93.350    
  50.052      34.906      20.861      11.007      6.0345      4.3686      3.6043      3.1567      3.0173      3.1569    
  3.6042      4.3682      6.0344      11.007      20.861      34.906      50.052      61.835      66.291      61.835    
  26.052      16.785      9.6932      5.8168      4.3686      3.6271      3.1458      2.9267      2.9270      3.1462    
  3.6269      4.3684      5.8174      9.6941      16.785      26.050      34.906      40.339      40.340      34.908    
  11.829      7.6997      5.2980      4.2702      3.6043      3.1458      2.9000      2.8254      2.9001      3.1459    
  3.6043      4.2702      5.2980      7.6993      11.828      16.785      20.861      22.439      20.861      16.786    
  5.8802      4.7486      4.0911      3.5469      3.1567      2.9267      2.8254      2.8255      2.9269      3.1566    
  3.5463      4.0906      4.7485      5.8807      7.6993      9.6941      11.007      11.007      9.6933      7.6985    
  4.2986      3.8610      3.4773      3.1941      3.0173      2.9270      2.9001      2.9269      3.0172      3.1940    
  3.4774      3.8613      4.2989      4.7485      5.2980      5.8174      6.0344      5.8175      5.2980      4.7484    
  3.6261      3.4232      3.2779      3.1936      3.1569      3.1462      3.1459      3.1566      3.1940      3.2788    
  3.4238      3.6257      3.8613      4.0906      4.2702      4.3684      4.3682      4.2702      4.0912      3.8622    
  3.4042      3.4240      3.4774      3.5462      3.6042      3.6269      3.6043      3.5463      3.4774      3.4238    
  3.4038      3.4238      3.4774      3.5463      3.6043      3.6269      3.6042      3.5462      3.4774      3.4240    
  3.6261      3.8622      4.0912      4.2702      4.3682      4.3684      4.2702      4.0906      3.8613      3.6257    
  3.4238      3.2788      3.1940      3.1566      3.1459      3.1462      3.1569      3.1936      3.2779      3.4232    
  4.2986      4.7484      5.2980      5.8175      6.0344      5.8174      5.2980      4.7485      4.2989      3.8613    
  3.4774      3.1940      3.0172      2.9269      2.9001      2.9270      3.0173      3.1941      3.4773      3.8610    
  5.8802      7.6985      9.6933      11.007      11.007      9.6941      7.6993      5.8807      4.7485      4.0906    
  3.5463      3.1566      2.9269      2.8255      2.8254      2.9267      3.1567      3.5469      4.0911      4.7486    
  11.829      16.786      20.861      22.439      20.861      16.785      11.828      7.6993      5.2980      4.2702    
  3.6043      3.1459      2.9001      2.8254      2.9000      3.1458      3.6043      4.2702      5.2980      7.6997    
  26.052      34.908      40.340      40.339      34.906      26.050      16.785      9.6941      5.8174      4.3684    
  3.6269      3.1462      2.9270      2.9267      3.1458      3.6271      4.3686      5.8168      9.6932      16.785    
  50.052      61.835      66.291      61.835      50.052      34.906      20.861      11.007      6.0344      4.3682    
  3.6042      3.1569      3.0173      3.1567      3.6043      4.3686      6.0345      11.007      20.861      34.906    
  81.512      93.350      93.351      81.515      61.835      40.339      22.439      11.007      5.8175      4.2702    
  3.5462      3.1936      3.1941      3.5469      4.2702      5.8168      11.007      22.440      40.340      61.834    
  114.08      121.87      114.08      93.351      66.291      40.340      20.861      9.6933      5.2980      4.0912    
  3.4774      3.2779      3.4773      4.0911      5.2980      9.6932      20.861      40.340      66.291      93.351    
  138.96      138.96      121.87      93.350      61.835      34.908      16.786      7.6985      4.7484      3.8622    
  3.4240      3.4232      3.8610      4.7486      7.6997      16.785      34.906      61.834      93.351      121.88    
  138.96      121.88      93.351      61.834      34.906      16.785      7.6998      4.7488      3.8610      3.4231    
  3.4241      3.8623      4.7484      7.6984      16.786      34.908      61.835      93.350      121.87      138.96    
  121.88      99.692      70.798      43.131      22.328      10.296      5.4671      4.1636      3.5324      3.3262    
  3.5327      4.1632      5.4664      10.297      22.330      43.132      70.796      99.688      121.87      130.23    
  93.351      70.798      46.238      25.752      12.501      6.2917      4.4152      3.6557      3.2785      3.2781    
  3.6548      4.4147      6.2925      12.503      25.752      46.236      70.796      93.351      106.96      106.96    
  61.834      43.131      25.752      13.367      6.8594      4.5953      3.7612      3.2675      3.1121      3.2680    
  3.7614      4.5949      6.8588      13.367      25.751      43.131      61.835      76.427      81.960      76.426    
  34.906      22.328      12.501      6.8594      4.6678      3.8242      3.2747      3.0201      3.0208      3.2756    
  3.8237      4.6664      6.8588      12.502      22.329      34.906      46.867      54.210      54.210      46.867    
  16.785      10.296      6.2917      4.5953      3.8242      3.2810      2.9832      2.8923      2.9830      3.2805    
  3.8238      4.5956      6.2925      10.297      16.785      24.343      30.487      32.858      30.488      24.344    
  7.6998      5.4671      4.4152      3.7612      3.2747      2.9832      2.8543      2.8542      2.9830      3.2747    
  3.7615      4.4151      5.4663      7.6990      11.101      14.673      16.975      16.975      14.672      11.101    
  4.7488      4.1636      3.6557      3.2675      3.0201      2.8923      2.8542      2.8929      3.0207      3.2674    
  3.6548      4.1625      4.7485      5.6678      6.9602      8.1487      8.6330      8.1475      6.9587      5.6670    
  3.8610      3.5324      3.2785      3.1121      3.0208      2.9830      2.9830      3.0207      3.1120      3.2785    
  3.5325      3.8612      4.2203      4.5562      4.8806      5.1080      5.1080      4.8806      4.5560      4.2200    
  3.4231      3.3262      3.2781      3.2680      3.2756      3.2805      3.2747      3.2674      3.2785      3.3273    
  3.4238      3.5641      3.7285      3.8843      3.9960      4.0365      3.9962      3.8850      3.7293      3.5644    
  3.4241      3.5327      3.6548      3.7614      3.8237      3.8238      3.7615      3.6548      3.5325      3.4238    
  3.3493      3.3173      3.3227      3.3479      3.3691      3.3690      3.3477      3.3226      3.3174      3.3496    
  3.8623      4.1632      4.4147      4.5949      4.6664      4.5956      4.4151      4.1625      3.8612      3.5641    
  3.3173      3.1438      3.0418      2.9941      2.9812      2.9941      3.0414      3.1430      3.3168      3.5646    
  4.7484      5.4664      6.2925      6.8588      6.8588      6.2925      5.4663      4.7485      4.2203      3.7285    
  3.3227      3.0418      2.8788      2.8074      2.8074      2.8790      3.0419      3.3226      3.7282      4.2200    
  7.6984      10.297      12.503      13.367      12.502      10.297      7.6990      5.6678      4.5562      3.8843    
  3.3479      2.9941      2.8074      2.7505      2.8070      2.9943      3.3487      3.8850      4.5558      5.6668    
  16.786      22.330      25.752      25.751      22.329      16.785      11.101      6.9602      4.8806      3.9960    
  3.3691      2.9812      2.8074      2.8070      2.9806      3.3692      3.9964      4.8806      6.9597      11.101    
  34.908      43.132      46.236      43.131      34.906      24.343      14.673      8.1487      5.1080      4.0365    
  3.3690      2.9941      2.8790      2.9943      3.3692      4.0361      5.1071      8.1478      14.673      24.344    
  61.835      70.796      70.796      61.835      46.867      30.487      16.975      8.6330      5.1080      3.9962    
  3.3477      3.0414      3.0419      3.3487      3.9964      5.1071      8.6320      16.975      30.487      46.868    
  93.350      99.688      93.351      76.427      54.210      32.858      16.975      8.1475      4.8806      3.8850    
  3.3226      3.1430      3.3226      3.8850      4.8806      8.1478      16.975      32.858      54.209      76.426    
  121.87      121.87      106.96      81.960      54.210      30.488      14.672      6.9587      4.5560      3.7293    
  3.3174      3.3168      3.7282      4.5558      6.9597      14.673      30.487      54.209      81.959      106.96    
  138.96      130.23      106.96      76.426      46.867      24.344      11.101      5.6670      4.2200      3.5644    
  3.3496      3.5646      4.2200      5.6668      11.101      24.344      46.868      76.426      106.96      130.23    
  114.08      93.351      66.291      40.340      20.861      9.6932      5.2983      4.0914      3.4772      3.2777    
  3.4775      4.0914      5.2979      9.6932      20.861      40.340      66.291      93.351      114.08      121.87    
  93.351      70.797      46.238      25.752      12.501      6.2918      4.4154      3.6558      3.2784      3.2780    
  3.6549      4.4148      6.2925      12.503      25.752      46.236      70.796      93.350      106.96      106.96    
  66.291      46.238      27.606      14.277      7.1890      4.6810      3.8165      3.3072      3.1457      3.3075    
  3.8165      4.6807      7.1890      14.277      27.606      46.237      66.291      81.959      87.907      81.959    
  40.340      25.752      14.277      7.5515      4.8546      3.9289      3.3454      3.0718      3.0726      3.3466    
  3.9292      4.8538      7.5506      14.276      25.752      40.341      54.210      62.736      62.735      54.209    
  20.861      12.501      7.1890      4.8546      3.9698      3.3733      3.0407      2.9388      3.0409      3.3733    
  3.9695      4.8545      7.1892      12.502      20.861      30.488      38.290      41.301      38.290      30.487    
  9.6932      6.2918      4.6810      3.9289      3.3733      3.0336      2.8824      2.8821      3.0328      3.3727    
  3.9292      4.6819      6.2926      9.6932      14.672      19.794      23.071      23.071      19.795      14.673    
  5.2983      4.4154      3.8165      3.3454      3.0407      2.8824      2.8350      2.8825      3.0408      3.3455    
  3.8165      4.4152      5.2981      6.9596      9.2230      11.241      12.053      11.241      9.2232      6.9598    
  4.0914      3.6558      3.3072      3.0718      2.9388      2.8821      2.8825      2.9398      3.0725      3.3069    
  3.6548      4.0905      4.5561      5.1406      5.8348      6.3283      6.3278      5.8338      5.1398      4.5561    
  3.4772      3.2784      3.1457      3.0726      3.0409      3.0328      3.0408      3.0725      3.1457      3.2785    
  3.4774      3.7284      3.9951      4.2290      4.3901      4.4514      4.3902      4.2290      3.9950      3.7281    
  3.2777      3.2780      3.3075      3.3466      3.3733      3.3727      3.3455      3.3069      3.2785      3.2788    
  3.3174      3.3917      3.4863      3.5746      3.6283      3.6287      3.5755      3.4871      3.3918      3.3166    
  3.4775      3.6549      3.8165      3.9292      3.9695      3.9292      3.8165      3.6548      3.4774      3.3174    
  3.1978      3.1269      3.0980      3.0936      3.0948      3.0935      3.0979      3.1269      3.1979      3.3175    
  4.0914      4.4148      4.6807      4.8538      4.8545      4.6819      4.4152      4.0905      3.7284      3.3917    
  3.1269      2.9494      2.8494      2.8069      2.8068      2.8490      2.9487      3.1264      3.3922      3.7296    
  5.2979      6.2925      7.1890      7.5506      7.1892      6.2926      5.2981      4.5561      3.9951      3.4863    
  3.0980      2.8494      2.7194      2.6799      2.7194      2.8495      3.0981      3.4862      3.9950      4.5559    
  9.6932      12.503      14.277      14.276      12.502      9.6932      6.9596      5.1406      4.2290      3.5746    
  3.0936      2.8069      2.6799      2.6797      2.8068      3.0942      3.5756      4.2290      5.1395      6.9584    
  20.861      25.752      27.606      25.752      20.861      14.672      9.2230      5.8348      4.3901      3.6283    
  3.0948      2.8068      2.7194      2.8068      3.0948      3.6283      4.3901      5.8349      9.2232      14.672    
  40.340      46.236      46.237      40.341      30.488      19.794      11.241      6.3283      4.4514      3.6287    
  3.0935      2.8490      2.8495      3.0942      3.6283      4.4501      6.3277      11.242      19.796      30.488    
  66.291      70.796      66.291      54.210      38.290      23.071      12.053      6.3278      4.3902      3.5755    
  3.0979      2.9487      3.0981      3.5756      4.3901      6.3277      12.053      23.070      38.290      54.210    
  93.351      93.350      81.959      62.736      41.301      23.071      11.241      5.8338      4.2290      3.4871    
  3.1269      3.1264      3.4862      4.2290      5.8349      11.242      23.070      41.299      62.735      81.960    
  114.08      106.96      87.907      62.735      38.290      19.795      9.2232      5.1398      3.9950      3.3918    
  3.1979      3.3922      3.9950      5.1395      9.2232      19.796      38.290      62.735      87.907      106.96    
  121.87      106.96      81.959      54.209      30.487      14.673      6.9598      4.5561      3.7281      3.3166    
  3.3175      3.7296      4.5559      6.9584      14.672      30.488      54.210      81.960      106.96      121.87    
  81.511      61.833      40.340      22.441      11.007      5.8168      4.2705      3.5471      3.1939      3.1935    
  3.5464      4.2704      5.8173      11.007      22.439      40.339      61.835      81.515      93.351      93.349    
  61.833      43.131      25.752      13.367      6.8594      4.5954      3.7614      3.2676      3.1119      3.2680    
  3.7616      4.5950      6.8586      13.367      25.752      43.131      61.835      76.427      81.960      76.425    
  40.340      25.752      14.277      7.5517      4.8546      3.9289      3.3454      3.0718      3.0725      3.3466    
  3.9293      4.8538      7.5505      14.276      25.752      40.341      54.210      62.735      62.735      54.209    
  22.441      13.367      7.5517      4.9585      4.0192      3.4057      3.0615      2.9557      3.0616      3.4063    
  4.0202      4.9588      7.5506      13.366      22.440      32.860      41.301      44.558      41.299      32.858    
  11.007      6.8594      4.8546      4.0192      3.4279      3.0626      2.8998      2.8994      3.0621      3.4282    
  4.0201      4.8550      6.8588      11.006      16.975      23.072      26.961      26.960      23.070      16.975    
  5.8168      4.5954      3.9289      3.4057      3.0626      2.8837      2.8300      2.8834      3.0621      3.4054    
  3.9291      4.5961      5.8176      8.1476      11.241      13.959      15.046      13.960      11.242      8.1475    
  4.2705      3.7614      3.3454      3.0615      2.8998      2.8300      2.8300      2.8998      3.0616      3.3455    
  3.7614      4.2705      4.8807      5.8343      6.9742      7.7712      7.7716      6.9751      5.8349      4.8808    
  3.5471      3.2676      3.0718      2.9557      2.8994      2.8834      2.8998      2.9565      3.0725      3.2676    
  3.5463      3.8843      4.2290      4.5386      4.8041      4.9156      4.8037      4.5383      4.2293      3.8852    
  3.1939      3.1119      3.0725      3.0616      3.0621      3.0621      3.0616      3.0725      3.1119      3.1941    
  3.3227      3.4863      3.6572      3.7990      3.8794      3.8796      3.7994      3.6573      3.4861      3.3224    
  3.1935      3.2680      3.3466      3.4063      3.4282      3.4054      3.3455      3.2676      3.1941      3.1438    
  3.1269      3.1424      3.1776      3.2124      3.2270      3.2131      3.1784      3.1424      3.1261      3.1427    
  3.5464      3.7616      3.9293      4.0202      4.0201      3.9291      3.7614      3.5463      3.3227      3.1269    
  2.9809      2.8892      2.8424      2.8250      2.8249      2.8422      2.8891      2.9809      3.1270      3.3228    
  4.2704      4.5950      4.8538      4.9588      4.8550      4.5961      4.2705      3.8843      3.4863      3.1424    
  2.8892      2.7296      2.6465      2.6212      2.6460      2.7289      2.8888      3.1428      3.4874      3.8853    
  5.8173      6.8586      7.5505      7.5506      6.8588      5.8176      4.8807      4.2290      3.6572      3.1776    
  2.8424      2.6465      2.5598      2.5598      2.6464      2.8425      3.1778      3.6573      4.2289      4.8804    
  11.007      13.367      14.276      13.366      11.006      8.1476      5.8343      4.5386      3.7990      3.2124    
  2.8250      2.6212      2.5598      2.6215      2.8254      3.2129      3.7991      4.5380      5.8334      8.1472    
  22.439      25.752      25.752      22.440      16.975      11.241      6.9742      4.8041      3.8794      3.2270    
  2.8249      2.6460      2.6464      2.8254      3.2269      3.8789      4.8042      6.9751      11.241      16.975    
  40.339      43.131      40.341      32.860      23.072      13.959      7.7712      4.9156      3.8796      3.2131    
  2.8422      2.7289      2.8425      3.2129      3.8789      4.9157      7.7725      13.960      23.071      32.858    
  61.835      61.835      54.210      41.301      26.961      15.046      7.7716      4.8037      3.7994      3.1784    
  2.8891      2.8888      3.1778      3.7991      4.8042      7.7725      15.047      26.960      41.300      54.210    
  81.515      76.427      62.735      44.558      26.960      13.960      6.9751      4.5383      3.6573      3.1424    
  2.9809      3.1428      3.6573      4.5380      6.9751      13.960      26.960      44.557      62.735      76.427    
  93.351      81.960      62.735      41.299      23.070      11.242      5.8349      4.2293      3.4861      3.1261    
  3.1270      3.4874      4.2289      5.8334      11.241      23.071      41.300      62.735      81.959      93.351    
  93.349      76.425      54.209      32.858      16.975      8.1475      4.8808      3.8852      3.3224      3.1427    
  3.3228      3.8853      4.8804      8.1472      16.975      32.858      54.210      76.427      93.351      99.688    
  50.052      34.906      20.861      11.007      6.0342      4.3684      3.6045      3.1568      3.0170      3.1567    
  3.6044      4.3684      6.0342      11.007      20.862      34.906      50.052      61.835      66.291      61.835    
  34.906      22.328      12.502      6.8595      4.6676      3.8241      3.2748      3.0201      3.0206      3.2756    
  3.8240      4.6664      6.8585      12.502      22.329      34.906      46.867      54.210      54.210      46.867    
  20.861      12.502      7.1893      4.8546      3.9695      3.3732      3.0407      2.9387      3.0407      3.3733    
  3.9696      4.8544      7.1890      12.502      20.861      30.487      38.290      41.301      38.290      30.488    
  11.007      6.8595      4.8546      4.0190      3.4277      3.0625      2.8998      2.8994      3.0621      3.4283    
  4.0202      4.8549      6.8587      11.006      16.975      23.072      26.961      26.961      23.071      16.975    
  6.0342      4.6676      3.9695      3.4277      3.0709      2.8853      2.8298      2.8852      3.0710      3.4279    
  3.9695      4.6675      6.0345      8.6323      12.053      15.047      16.242      15.047      12.053      8.6316    
  4.3684      3.8241      3.3732      3.0625      2.8853      2.8091      2.8091      2.8852      3.0621      3.3725    
  3.8238      4.3691      5.1079      6.3277      7.7716      8.7721      8.7726      7.7721      6.3272      5.1067    
  3.6045      3.2748      3.0407      2.8998      2.8298      2.8091      2.8296      2.8997      3.0408      3.2748    
  3.6042      3.9963      4.3900      4.8041      5.1951      5.3621      5.1953      4.8041      4.3901      3.9966    
  3.1568      3.0201      2.9387      2.8994      2.8852      2.8852      2.8997      2.9395      3.0207      3.1566    
  3.3479      3.5749      3.7992      3.9767      4.0735      4.0732      3.9762      3.7993      3.5758      3.3489    
  3.0170      3.0206      3.0407      3.0621      3.0710      3.0621      3.0408      3.0207      3.0172      3.0418    
  3.0980      3.1778      3.2619      3.3260      3.3500      3.3261      3.2620      3.1778      3.0979      3.0416    
  3.1567      3.2756      3.3733      3.4283      3.4279      3.3725      3.2748      3.1566      3.0418      2.9494    
  2.8891      2.8604      2.8539      2.8558      2.8560      2.8544      2.8606      2.8885      2.9484      3.0411    
  3.6044      3.8240      3.9696      4.0202      3.9695      3.8238      3.6042      3.3479      3.0980      2.8891    
  2.7375      2.6424      2.5933      2.5784      2.5931      2.6423      2.7375      2.8891      3.0980      3.3479    
  4.3684      4.6664      4.8544      4.8549      4.6675      4.3691      3.9963      3.5749      3.1778      2.8604    
  2.6424      2.5144      2.4570      2.4567      2.5138      2.6421      2.8608      3.1787      3.5757      3.9964    
  6.0342      6.8585      7.1890      6.8587      6.0345      5.1079      4.3900      3.7992      3.2619      2.8539    
  2.5933      2.4570      2.4156      2.4570      2.5932      2.8539      3.2620      3.7993      4.3900      5.1077    
  11.007      12.502      12.502      11.006      8.6323      6.3277      4.8041      3.9767      3.3260      2.8558    
  2.5784      2.4567      2.4570      2.5790      2.8561      3.3257      3.9761      4.8034      6.3275      8.6328    
  20.862      22.329      20.861      16.975      12.053      7.7716      5.1951      4.0735      3.3500      2.8560    
  2.5931      2.5138      2.5932      2.8561      3.3499      4.0736      5.1953      7.7716      12.053      16.975    
  34.906      34.906      30.487      23.072      15.047      8.7721      5.3621      4.0732      3.3261      2.8544    
  2.6423      2.6421      2.8539      3.3257      4.0736      5.3630      8.7728      15.047      23.071      30.487    
  50.052      46.867      38.290      26.961      16.242      8.7726      5.1953      3.9762      3.2620      2.8606    
  2.7375      2.8608      3.2620      3.9761      5.1953      8.7728      16.242      26.961      38.290      46.867    
  61.835      54.210      41.301      26.961      15.047      7.7721      4.8041      3.7993      3.1778      2.8885    
  2.8891      3.1787      3.7993      4.8034      7.7716      15.047      26.961      41.301      54.210      61.835    
  66.291      54.210      38.290      23.071      12.053      6.3272      4.3901      3.5758      3.0979      2.9484    
  3.0980      3.5757      4.3900      6.3275      12.053      23.071      38.290      54.210      66.291      70.797    
  61.835      46.867      30.488      16.975      8.6316      5.1067      3.9966      3.3489      3.0416      3.0411    
  3.3479      3.9964      5.1077      8.6328      16.975      30.487      46.867      61.835      70.797      70.796    
  26.051      16.785      9.6932      5.8168      4.3682      3.6271      3.1462      2.9268      2.9267      3.1461    
  3.6272      4.3684      5.8171      9.6940      16.786      26.050      34.906      40.339      40.340      34.908    
  16.785      10.296      6.2919      4.5953      3.8239      3.2810      2.9834      2.8922      2.9828      3.2806    
  3.8240      4.5956      6.2923      10.297      16.785      24.343      30.487      32.858      30.488      24.344    
  9.6932      6.2919      4.6811      3.9287      3.3730      3.0336      2.8825      2.8820      3.0326      3.3728    
  3.9293      4.6818      6.2924      9.6932      14.672      19.794      23.071      23.072      19.796      14.673    
  5.8168      4.5953      3.9287      3.4053      3.0623      2.8838      2.8301      2.8833      3.0621      3.4055    
  3.9292      4.5960      5.8175      8.1476      11.241      13.959      15.047      13.960      11.242      8.1476    
  4.3682      3.8239      3.3730      3.0623      2.8853      2.8092      2.8092      2.8852      3.0621      3.3725    
  3.8238      4.3690      5.1079      6.3278      7.7717      8.7722      8.7727      7.7724      6.3273      5.1066    
  3.6271      3.2810      3.0336      2.8838      2.8092      2.7874      2.8092      2.8834      3.0328      3.2800    
  3.6269      4.0369      4.4511      4.9159      5.3626      5.5537      5.3629      4.9155      4.4498      4.0359    
  3.1462      2.9834      2.8825      2.8301      2.8092      2.8092      2.8300      2.8824      2.9830      3.1456    
  3.3691      3.6285      3.8792      4.0737      4.1793      4.1794      4.0736      3.8790      3.6284      3.3694    
  2.9268      2.8922      2.8820      2.8833      2.8852      2.8834      2.8824      2.8927      2.9269      2.9939    
  3.0936      3.2126      3.3261      3.4070      3.4360      3.4066      3.3259      3.2131      3.0944      2.9944    
  2.9267      2.9828      3.0326      3.0621      3.0621      3.0328      2.9830      2.9269      2.8789      2.8493    
  2.8424      2.8539      2.8730      2.8868      2.8867      2.8729      2.8539      2.8424      2.8493      2.8787    
  3.1461      3.2806      3.3728      3.4055      3.3725      3.2800      3.1456      2.9939      2.8493      2.7295    
  2.6424      2.5877      2.5596      2.5514      2.5599      2.5878      2.6420      2.7287      2.8487      2.9939    
  3.6272      3.8240      3.9293      3.9292      3.8238      3.6269      3.3691      3.0936      2.8424      2.6424    
  2.5019      2.4163      2.3767      2.3766      2.4162      2.5018      2.6423      2.8423      3.0936      3.3693    
  4.3684      4.5956      4.6818      4.5960      4.3690      4.0369      3.6285      3.2126      2.8539      2.5877    
  2.4163      2.3243      2.2956      2.3240      2.4160      2.5878      2.8545      3.2133      3.6289      4.0366    
  5.8171      6.2923      6.2924      5.8175      5.1079      4.4511      3.8792      3.3261      2.8730      2.5596    
  2.3767      2.2956      2.2957      2.3768      2.5596      2.8729      3.3261      3.8795      4.4512      5.1077    
  9.6940      10.297      9.6932      8.1476      6.3278      4.9159      4.0737      3.4070      2.8868      2.5514    
  2.3766      2.3240      2.3768      2.5516      2.8867      3.4065      4.0731      4.9155      6.3280      8.1485    
  16.786      16.785      14.672      11.241      7.7717      5.3626      4.1793      3.4360      2.8867      2.5599    
  2.4162      2.4160      2.5596      2.8867      3.4362      4.1794      5.3622      7.7713      11.241      14.673    
  26.050      24.343      19.794      13.959      8.7722      5.5537      4.1794      3.4066      2.8729      2.5878    
  2.5018      2.5878      2.8729      3.4065      4.1794      5.5538      8.7724      13.959      19.795      24.343    
  34.906      30.487      23.071      15.047      8.7727      5.3629      4.0736      3.3259      2.8539      2.6420    
  2.6423      2.8545      3.3261      4.0731      5.3622      8.7724      15.047      23.072      30.488      34.906    
  40.339      32.858      23.072      13.960      7.7724      4.9155      3.8790      3.2131      2.8424      2.7287    
  2.8423      3.2133      3.8795      4.9155      7.7713      13.959      23.072      32.860      40.341      43.131    
  40.340      30.488      19.796      11.242      6.3273      4.4498      3.6284      3.0944      2.8493      2.8487    
  3.0936      3.6289      4.4512      6.3280      11.241      19.795      30.488      40.341      46.237      46.237    
  34.908      24.344      14.673      8.1476      5.1066      4.0359      3.3694      2.9944      2.8787      2.9939    
  3.3693      4.0366      5.1077      8.1485      14.673      24.343      34.906      43.131      46.237      43.133    
  11.828      7.6993      5.2981      4.2702      3.6042      3.1460      2.9003      2.8255      2.8999      3.1459    
  3.6046      4.2703      5.2978      7.6994      11.829      16.786      20.861      22.439      20.861      16.785    
  7.6993      5.4671      4.4155      3.7613      3.2746      2.9834      2.8546      2.8541      2.9827      3.2749    
  3.7617      4.4151      5.4661      7.6992      11.102      14.673      16.975      16.975      14.672      11.101    
  5.2981      4.4155      3.8166      3.3452      3.0405      2.8826      2.8351      2.8824      3.0407      3.3456    