fcc Ni                                  
   3.50000000000000     
     0.500000    0.500000    0.000000
     0.000000    0.500000    0.500000
     0.500000    0.000000    0.500000
   Ni
     1
Direct
  0.000000  0.000000  0.000000
 
   20   20   20
 0.14831048646E+03 0.13896156179E+03 0.11408022148E+03 0.81511834614E+02 0.50052200751E+02
 0.26051743951E+02 0.11828841803E+02 0.58802337334E+01 0.42986121702E+01 0.36260963453E+01
 0.34042004169E+01 0.36260963453E+01 0.42986121702E+01 0.58802337334E+01 0.11828841803E+02
 0.26051743951E+02 0.50052200751E+02 0.81511834614E+02 0.11408022148E+03 0.13896156179E+03
 0.13896156179E+03 0.12187844989E+03 0.93351417298E+02 0.61833561910E+02 0.34905899145E+02
 0.16785476652E+02 0.76996681806E+01 0.47486321373E+01 0.38609796142E+01 0.34232087725E+01
 0.34240224405E+01 0.38621655043E+01 0.47483848234E+01 0.76985125754E+01 0.16785603393E+02
 0.34907760336E+02 0.61834709928E+02 0.93349543342E+02 0.12187469999E+03 0.13895963547E+03
 0.11408022148E+03 0.93351417298E+02 0.66291144136E+02 0.40340079743E+02 0.20861078930E+02
 0.96931789023E+01 0.52980430930E+01 0.40911484338E+01 0.34772586399E+01 0.32778572020E+01
 0.34773548170E+01 0.40911606434E+01 0.52980124857E+01 0.96932865300E+01 0.20861198430E+02
 0.40339923556E+02 0.66290817112E+02 0.93351294583E+02 0.11408031499E+03 0.12187469999E+03
 0.81511834614E+02 0.61833561910E+02 0.40340079743E+02 0.22440247130E+02 0.11006683322E+02
 0.58168457303E+01 0.42701846558E+01 0.35468810978E+01 0.31940838257E+01 0.31936388494E+01
 0.35461536761E+01 0.42701864646E+01 0.58174932427E+01 0.11006657957E+02 0.22438934127E+02
 0.40339098148E+02 0.61835033831E+02 0.81515114992E+02 0.93351294583E+02 0.93349543342E+02
 0.50052200751E+02 0.34905899145E+02 0.20861078930E+02 0.11006683322E+02 0.60344664295E+01
 0.43685656927E+01 0.36042769299E+01 0.31567339624E+01 0.30172913851E+01 0.31568702998E+01
 0.36041525883E+01 0.43682417010E+01 0.60344378546E+01 0.11006983105E+02 0.20861258229E+02
 0.34905901355E+02 0.50052390220E+02 0.61835033831E+02 0.66290817112E+02 0.61834709928E+02
 0.26051743951E+02 0.16785476652E+02 0.96931789023E+01 0.58168457303E+01 0.43685656927E+01
 0.36270917269E+01 0.31458458072E+01 0.29266976668E+01 0.29269768076E+01 0.31461721312E+01
 0.36269017999E+01 0.43683737917E+01 0.58174106665E+01 0.96940522513E+01 0.16785385448E+02
 0.26050265551E+02 0.34905901355E+02 0.40339098148E+02 0.40339923556E+02 0.34907760336E+02
 0.11828841803E+02 0.76996681806E+01 0.52980430930E+01 0.42701846558E+01 0.36042769299E+01
 0.31458458072E+01 0.28999511708E+01 0.28253656198E+01 0.29000683107E+01 0.31459073562E+01
 0.36042810179E+01 0.42702314611E+01 0.52979817265E+01 0.76992844244E+01 0.11828336125E+02
 0.16785385448E+02 0.20861258229E+02 0.22438934127E+02 0.20861198430E+02 0.16785603393E+02
 0.58802337334E+01 0.47486321373E+01 0.40911484338E+01 0.35468810978E+01 0.31567339624E+01
 0.29266976668E+01 0.28253656198E+01 0.28255391240E+01 0.29269236133E+01 0.31565536489E+01
 0.35463038885E+01 0.40906212191E+01 0.47485417549E+01 0.58806573886E+01 0.76992844244E+01
 0.96940522513E+01 0.11006983105E+02 0.11006657957E+02 0.96932865300E+01 0.76985125754E+01
 0.42986121702E+01 0.38609796142E+01 0.34772586399E+01 0.31940838257E+01 0.30172913851E+01
 0.29269768076E+01 0.29000683107E+01 0.29269236133E+01 0.30171821168E+01 0.31940065545E+01
 0.34773573989E+01 0.38612742727E+01 0.42989336954E+01 0.47485417549E+01 0.52979817265E+01
 0.58174106665E+01 0.60344378546E+01 0.58174932427E+01 0.52980124857E+01 0.47483848234E+01
 0.36260963453E+01 0.34232087725E+01 0.32778572020E+01 0.31936388494E+01 0.31568702998E+01
 0.31461721312E+01 0.31459073562E+01 0.31565536489E+01 0.31940065545E+01 0.32787954886E+01
 0.34237891926E+01 0.36257191582E+01 0.38612742727E+01 0.40906212191E+01 0.42702314611E+01
 0.43683737917E+01 0.43682417010E+01 0.42701864646E+01 0.40911606434E+01 0.38621655043E+01
 0.34042004169E+01 0.34240224405E+01 0.34773548170E+01 0.35461536761E+01 0.36041525883E+01
 0.36269017999E+01 0.36042810179E+01 0.35463038885E+01 0.34773573989E+01 0.34237891926E+01
 0.34038499341E+01 0.34237891926E+01 0.34773573989E+01 0.35463038885E+01 0.36042810179E+01
 0.36269017999E+01 0.36041525883E+01 0.35461536761E+01 0.34773548170E+01 0.34240224405E+01
 0.36260963453E+01 0.38621655043E+01 0.40911606434E+01 0.42701864646E+01 0.43682417010E+01
 0.43683737917E+01 0.42702314611E+01 0.40906212191E+01 0.38612742727E+01 0.36257191582E+01
 0.34237891926E+01 0.32787954886E+01 0.31940065545E+01 0.31565536489E+01 0.31459073562E+01
 0.31461721312E+01 0.31568702998E+01 0.31936388494E+01 0.32778572020E+01 0.34232087725E+01
 0.42986121702E+01 0.47483848234E+01 0.52980124857E+01 0.58174932427E+01 0.60344378546E+01
 0.58174106665E+01 0.52979817265E+01 0.47485417549E+01 0.42989336954E+01 0.38612742727E+01
 0.34773573989E+01 0.31940065545E+01 0.30171821168E+01 0.29269236133E+01 0.29000683107E+01
 0.29269768076E+01 0.30172913851E+01 0.31940838257E+01 0.34772586399E+01 0.38609796142E+01
 0.58802337334E+01 0.76985125754E+01 0.96932865300E+01 0.11006657957E+02 0.11006983105E+02
 0.96940522513E+01 0.76992844244E+01 0.58806573886E+01 0.47485417549E+01 0.40906212191E+01
 0.35463038885E+01 0.31565536489E+01 0.29269236133E+01 0.28255391240E+01 0.28253656198E+01
 0.29266976668E+01 0.31567339624E+01 0.35468810978E+01 0.40911484338E+01 0.47486321373E+01
 0.11828841803E+02 0.16785603393E+02 0.20861198430E+02 0.22438934127E+02 0.20861258229E+02
 0.16785385448E+02 0.11828336125E+02 0.76992844244E+01 0.52979817265E+01 0.42702314611E+01
 0.36042810179E+01 0.31459073562E+01 0.29000683107E+01 0.28253656198E+01 0.28999511708E+01
 0.31458458072E+01 0.36042769299E+01 0.42701846558E+01 0.52980430930E+01 0.76996681806E+01
 0.26051743951E+02 0.34907760336E+02 0.40339923556E+02 0.40339098148E+02 0.34905901355E+02
 0.26050265551E+02 0.16785385448E+02 0.96940522513E+01 0.58174106665E+01 0.43683737917E+01
 0.36269017999E+01 0.31461721312E+01 0.29269768076E+01 0.29266976668E+01 0.31458458072E+01
 0.36270917269E+01 0.43685656927E+01 0.58168457303E+01 0.96931789023E+01 0.16785476652E+02
 0.50052200751E+02 0.61834709928E+02 0.66290817112E+02 0.61835033831E+02 0.50052390220E+02
 0.34905901355E+02 0.20861258229E+02 0.11006983105E+02 0.60344378546E+01 0.43682417010E+01
 0.36041525883E+01 0.31568702998E+01 0.30172913851E+01 0.31567339624E+01 0.36042769299E+01
 0.43685656927E+01 0.60344664295E+01 0.11006683322E+02 0.20861078930E+02 0.34905899145E+02
 0.81511834614E+02 0.93349543342E+02 0.93351294583E+02 0.81515114992E+02 0.61835033831E+02
 0.40339098148E+02 0.22438934127E+02 0.11006657957E+02 0.58174932427E+01 0.42701864646E+01
 0.35461536761E+01 0.31936388494E+01 0.31940838257E+01 0.35468810978E+01 0.42701846558E+01
 0.58168457303E+01 0.11006683322E+02 0.22440247130E+02 0.40340079743E+02 0.61833561910E+02
 0.11408022148E+03 0.12187469999E+03 0.11408031499E+03 0.93351294583E+02 0.66290817112E+02
 0.40339923556E+02 0.20861198430E+02 0.96932865300E+01 0.52980124857E+01 0.40911606434E+01
 0.34773548170E+01 0.32778572020E+01 0.34772586399E+01 0.40911484338E+01 0.52980430930E+01
 0.96931789023E+01 0.20861078930E+02 0.40340079743E+02 0.66291144136E+02 0.93351417298E+02
 0.13896156179E+03 0.13895963547E+03 0.12187469999E+03 0.93349543342E+02 0.61834709928E+02
 0.34907760336E+02 0.16785603393E+02 0.76985125754E+01 0.47483848234E+01 0.38621655043E+01
 0.34240224405E+01 0.34232087725E+01 0.38609796142E+01 0.47486321373E+01 0.76996681806E+01
 0.16785476652E+02 0.34905899145E+02 0.61833561910E+02 0.93351417298E+02 0.12187844989E+03
 0.13896132221E+03 0.12187806388E+03 0.93351203527E+02 0.61833522086E+02 0.34905826441E+02
 0.16785404068E+02 0.76997638304E+01 0.47487920963E+01 0.38609773828E+01 0.34231229918E+01
 0.34240803300E+01 0.38622975842E+01 0.47483729005E+01 0.76984405401E+01 0.16785716928E+02
 0.34908009066E+02 0.61834861227E+02 0.93349610302E+02 0.12187482182E+03 0.13895968398E+03
 0.12187806388E+03 0.99692329116E+02 0.70797567717E+02 0.43130684556E+02 0.22327677174E+02
 0.10296306546E+02 0.54670622632E+01 0.41635949770E+01 0.35324144360E+01 0.33262057749E+01
 0.35326728706E+01 0.41631747440E+01 0.54663500062E+01 0.10297057689E+02 0.22330112621E+02
 0.43132290149E+02 0.70795886446E+02 0.99688033515E+02 0.12187447382E+03 0.13023184632E+03
 0.93351203527E+02 0.70797567717E+02 0.46237511586E+02 0.25751729485E+02 0.12501307263E+02
 0.62917136120E+01 0.44151949599E+01 0.36557006875E+01 0.32784931335E+01 0.32780607549E+01
 0.36547616939E+01 0.44147388575E+01 0.62925310086E+01 0.12502723683E+02 0.25752050860E+02
 0.46236239803E+02 0.70796084481E+02 0.93350691939E+02 0.10696389071E+03 0.10696386268E+03
 0.61833522086E+02 0.43130684556E+02 0.25751729485E+02 0.13367124700E+02 0.68593725773E+01
 0.45953224897E+01 0.37611990069E+01 0.32675454140E+01 0.31120646858E+01 0.32680392443E+01
 0.37613887111E+01 0.45949087644E+01 0.68587909668E+01 0.13366628139E+02 0.25751391985E+02
 0.43131080818E+02 0.61835034332E+02 0.76427128922E+02 0.81959742684E+02 0.76425561399E+02
 0.34905826441E+02 0.22327677174E+02 0.12501307263E+02 0.68593725773E+01 0.46678289517E+01
 0.38241845926E+01 0.32746598437E+01 0.30201328672E+01 0.30208317097E+01 0.32756030807E+01
 0.38237489913E+01 0.46664411785E+01 0.68587859318E+01 0.12502082399E+02 0.22328751690E+02
 0.34906229060E+02 0.46867247809E+02 0.54209777793E+02 0.54209922779E+02 0.46867410687E+02
 0.16785404068E+02 0.10296306546E+02 0.62917136120E+01 0.45953224897E+01 0.38241845926E+01
 0.32809571526E+01 0.29831627428E+01 0.28922652779E+01 0.29830137725E+01 0.32805153113E+01
 0.38237988683E+01 0.45955965405E+01 0.62924954519E+01 0.10296679288E+02 0.16784859686E+02
 0.24342940962E+02 0.30486855377E+02 0.32857807539E+02 0.30487542105E+02 0.24343934754E+02
 0.76997638304E+01 0.54670622632E+01 0.44151949599E+01 0.37611990069E+01 0.32746598437E+01
 0.29831627428E+01 0.28543168750E+01 0.28541740464E+01 0.29829557434E+01 0.32747450596E+01
 0.37614902675E+01 0.44151101435E+01 0.54663109248E+01 0.76990046049E+01 0.11101335909E+02
 0.14673046719E+02 0.16975284954E+02 0.16974706196E+02 0.14672058704E+02 0.11101161229E+02
 0.47487920963E+01 0.41635949770E+01 0.36557006875E+01 0.32675454140E+01 0.30201328672E+01
 0.28922652779E+01 0.28541740464E+01 0.28928746552E+01 0.30207075575E+01 0.32674145176E+01
 0.36547955383E+01 0.41625462585E+01 0.47484599384E+01 0.56678046778E+01 0.69602099949E+01
 0.81486506484E+01 0.86330454573E+01 0.81474513083E+01 0.69586892283E+01 0.56670004037E+01
 0.38609773828E+01 0.35324144360E+01 0.32784931335E+01 0.31120646858E+01 0.30208317097E+01
 0.29830137725E+01 0.29829557434E+01 0.30207075575E+01 0.31119707957E+01 0.32784954479E+01
 0.35325362288E+01 0.38612036477E+01 0.42202941119E+01 0.45561689881E+01 0.48806296220E+01
 0.51079868472E+01 0.51079844468E+01 0.48805735314E+01 0.45559957730E+01 0.42200400335E+01
 0.34231229918E+01 0.33262057749E+01 0.32780607549E+01 0.32680392443E+01 0.32756030807E+01
 0.32805153113E+01 0.32747450596E+01 0.32674145176E+01 0.32784954479E+01 0.33272974908E+01
 0.34238002174E+01 0.35640960478E+01 0.37284722223E+01 0.38843468485E+01 0.39959531006E+01
 0.40364756860E+01 0.39962379316E+01 0.38850058810E+01 0.37292602228E+01 0.35643542276E+01
 0.34240803300E+01 0.35326728706E+01 0.36547616939E+01 0.37613887111E+01 0.38237489913E+01
 0.38237988683E+01 0.37614902675E+01 0.36547955383E+01 0.35325362288E+01 0.34238002174E+01
 0.33493056954E+01 0.33173371682E+01 0.33227106457E+01 0.33478648857E+01 0.33691082531E+01
 0.33690487919E+01 0.33477340026E+01 0.33226324890E+01 0.33174315911E+01 0.33495681590E+01
 0.38622975842E+01 0.41631747440E+01 0.44147388575E+01 0.45949087644E+01 0.46664411785E+01
 0.45955965405E+01 0.44151101435E+01 0.41625462585E+01 0.38612036477E+01 0.35640960478E+01
 0.33173371682E+01 0.31437735121E+01 0.30417868813E+01 0.29941276785E+01 0.29811536462E+01
 0.29941000334E+01 0.30413574332E+01 0.31429517931E+01 0.33168385067E+01 0.35645690158E+01
 0.47483729005E+01 0.54663500062E+01 0.62925310086E+01 0.68587909668E+01 0.68587859318E+01
 0.62924954519E+01 0.54663109248E+01 0.47484599384E+01 0.42202941119E+01 0.37284722223E+01
 0.33227106457E+01 0.30417868813E+01 0.28788242172E+01 0.28073629090E+01 0.28074252033E+01
 0.28789708104E+01 0.30418847824E+01 0.33226079848E+01 0.37281837399E+01 0.42200262950E+01
 0.76984405401E+01 0.10297057689E+02 0.12502723683E+02 0.13366628139E+02 0.12502082399E+02
 0.10296679288E+02 0.76990046049E+01 0.56678046778E+01 0.45561689881E+01 0.38843468485E+01
 0.33478648857E+01 0.29941276785E+01 0.28073629090E+01 0.27504925512E+01 0.28070452564E+01
 0.29942605289E+01 0.33486695412E+01 0.38849585844E+01 0.45557661500E+01 0.56667635398E+01
 0.16785716928E+02 0.22330112621E+02 0.25752050860E+02 0.25751391985E+02 0.22328751690E+02
 0.16784859686E+02 0.11101335909E+02 0.69602099949E+01 0.48806296220E+01 0.39959531006E+01
 0.33691082531E+01 0.29811536462E+01 0.28074252033E+01 0.28070452564E+01 0.29805823104E+01
 0.33691525300E+01 0.39964057528E+01 0.48806475132E+01 0.69596915115E+01 0.11101171706E+02
 0.34908009066E+02 0.43132290149E+02 0.46236239803E+02 0.43131080818E+02 0.34906229060E+02
 0.24342940962E+02 0.14673046719E+02 0.81486506484E+01 0.51079868472E+01 0.40364756860E+01
 0.33690487919E+01 0.29941000334E+01 0.28789708104E+01 0.29942605289E+01 0.33691525300E+01
 0.40361307336E+01 0.51070798881E+01 0.81477900320E+01 0.14673146918E+02 0.24344246699E+02
 0.61834861227E+02 0.70795886446E+02 0.70796084481E+02 0.61835034332E+02 0.46867247809E+02
 0.30486855377E+02 0.16975284954E+02 0.86330454573E+01 0.51079844468E+01 0.39962379316E+01
 0.33477340026E+01 0.30413574332E+01 0.30418847824E+01 0.33486695412E+01 0.39964057528E+01
 0.51070798881E+01 0.86319927033E+01 0.16975087810E+02 0.30487400280E+02 0.46867626223E+02
 0.93349610302E+02 0.99688033515E+02 0.93350691939E+02 0.76427128922E+02 0.54209777793E+02
 0.32857807539E+02 0.16974706196E+02 0.81474513083E+01 0.48805735314E+01 0.38850058810E+01
 0.33226324890E+01 0.31429517931E+01 0.33226079848E+01 0.38849585844E+01 0.48806475132E+01
 0.81477900320E+01 0.16975087810E+02 0.32857669687E+02 0.54208790383E+02 0.76425661596E+02
 0.12187482182E+03 0.12187447382E+03 0.10696389071E+03 0.81959742684E+02 0.54209922779E+02
 0.30487542105E+02 0.14672058704E+02 0.69586892283E+01 0.45559957730E+01 0.37292602228E+01
 0.33174315911E+01 0.33168385067E+01 0.37281837399E+01 0.45557661500E+01 0.69596915115E+01
 0.14673146918E+02 0.30487400280E+02 0.54208790383E+02 0.81959045630E+02 0.10696419252E+03
 0.13895968398E+03 0.13023184632E+03 0.10696386268E+03 0.76425561399E+02 0.46867410687E+02
 0.24343934754E+02 0.11101161229E+02 0.56670004037E+01 0.42200400335E+01 0.35643542276E+01
 0.33495681590E+01 0.35645690158E+01 0.42200262950E+01 0.56667635398E+01 0.11101171706E+02
 0.24344246699E+02 0.46867626223E+02 0.76425661596E+02 0.10696419252E+03 0.13023227671E+03
 0.11407969316E+03 0.93350906524E+02 0.66291099605E+02 0.40340274247E+02 0.20861100965E+02
 0.96931765107E+01 0.52982969914E+01 0.40914035843E+01 0.34771899473E+01 0.32777285907E+01
 0.34775200021E+01 0.40913795308E+01 0.52979495863E+01 0.96932056019E+01 0.20861463113E+02
 0.40340278003E+02 0.66290851675E+02 0.93351155830E+02 0.11408027907E+03 0.12187453846E+03
 0.93350906524E+02 0.70797432925E+02 0.46237672136E+02 0.25751957567E+02 0.12501396917E+02
 0.62917801304E+01 0.44153529511E+01 0.36557989183E+01 0.32784306693E+01 0.32780223895E+01
 0.36548755275E+01 0.44148339780E+01 0.62924876595E+01 0.12502721038E+02 0.25752208156E+02
 0.46236350912E+02 0.70795969719E+02 0.93350484247E+02 0.10696372896E+03 0.10696364711E+03
 0.66291099605E+02 0.46237672136E+02 0.27605985259E+02 0.14276815959E+02 0.71889706042E+01
 0.46809761074E+01 0.38164943861E+01 0.33071585189E+01 0.31457499575E+01 0.33074774928E+01
 0.38165240565E+01 0.46807272258E+01 0.71890260452E+01 0.14277064088E+02 0.27605696373E+02
 0.46236864318E+02 0.66290567570E+02 0.81958865058E+02 0.87906865707E+02 0.81958894356E+02
 0.40340274247E+02 0.25751957567E+02 0.14276815959E+02 0.75515376247E+01 0.48546447957E+01
 0.39289319775E+01 0.33453880059E+01 0.30718435911E+01 0.30725732931E+01 0.33466271721E+01
 0.39291981734E+01 0.48538377848E+01 0.75506346680E+01 0.14276437031E+02 0.25752149432E+02
 0.40341028886E+02 0.54209962657E+02 0.62735655761E+02 0.62735148292E+02 0.54208932129E+02
 0.20861100965E+02 0.12501396917E+02 0.71889706042E+01 0.48546447957E+01 0.39697731639E+01
 0.33732974489E+01 0.30406786949E+01 0.29388440393E+01 0.30408978113E+01 0.33732925507E+01
 0.39694826237E+01 0.48545038389E+01 0.71891642791E+01 0.12501668480E+02 0.20861339856E+02
 0.30487642455E+02 0.38290241992E+02 0.41300583948E+02 0.38289885907E+02 0.30487288007E+02
 0.96931765107E+01 0.62917801304E+01 0.46809761074E+01 0.39289319775E+01 0.33732974489E+01
 0.30335806259E+01 0.28824438637E+01 0.28820861385E+01 0.30327731907E+01 0.33727110978E+01
 0.39291680909E+01 0.46819407859E+01 0.62926443818E+01 0.96931622480E+01 0.14672042375E+02
 0.19794345694E+02 0.23070868156E+02 0.23071301693E+02 0.19795364118E+02 0.14672913852E+02
 0.52982969914E+01 0.44153529511E+01 0.38164943861E+01 0.33453880059E+01 0.30406786949E+01
 0.28824438637E+01 0.28349928742E+01 0.28825098459E+01 0.30407878191E+01 0.33454693249E+01
 0.38164634098E+01 0.44151924732E+01 0.52980691248E+01 0.69596232495E+01 0.92230301957E+01
 0.11241139244E+02 0.12053173334E+02 0.11241236982E+02 0.92232025225E+01 0.69598439182E+01
 0.40914035843E+01 0.36557989183E+01 0.33071585189E+01 0.30718435911E+01 0.29388440393E+01
 0.28820861385E+01 0.28825098459E+01 0.29397684481E+01 0.30724719299E+01 0.33068804455E+01
 0.36547794390E+01 0.40904958611E+01 0.45560551949E+01 0.51406343245E+01 0.58347565798E+01
 0.63282601385E+01 0.63278400017E+01 0.58337837339E+01 0.51398310008E+01 0.45560985352E+01
 0.34771899473E+01 0.32784306693E+01 0.31457499575E+01 0.30725732931E+01 0.30408978113E+01
 0.30327731907E+01 0.30407878191E+01 0.30724719299E+01 0.31457425005E+01 0.32785238763E+01
 0.34773785560E+01 0.37283678675E+01 0.39951086017E+01 0.42289513544E+01 0.43900800580E+01
 0.44513923571E+01 0.43902185843E+01 0.42290126572E+01 0.39949693335E+01 0.37281308360E+01
 0.32777285907E+01 0.32780223895E+01 0.33074774928E+01 0.33466271721E+01 0.33732925507E+01
 0.33727110978E+01 0.33454693249E+01 0.33068804455E+01 0.32785238763E+01 0.32788354864E+01
 0.33173597676E+01 0.33917387477E+01 0.34863007680E+01 0.35746400163E+01 0.36282978523E+01
 0.36286590710E+01 0.35754954115E+01 0.34870718872E+01 0.33918211579E+01 0.33165804792E+01
 0.34775200021E+01 0.36548755275E+01 0.38165240565E+01 0.39291981734E+01 0.39694826237E+01
 0.39291680909E+01 0.38164634098E+01 0.36547794390E+01 0.34773785560E+01 0.33173597676E+01
 0.31978067469E+01 0.31269193800E+01 0.30980231322E+01 0.30936264043E+01 0.30948387310E+01
 0.30934853820E+01 0.30978908575E+01 0.31269267085E+01 0.31979455078E+01 0.33175347503E+01
 0.40913795308E+01 0.44148339780E+01 0.46807272258E+01 0.48538377848E+01 0.48545038389E+01
 0.46819407859E+01 0.44151924732E+01 0.40904958611E+01 0.37283678675E+01 0.33917387477E+01
 0.31269193800E+01 0.29493972624E+01 0.28494222340E+01 0.28069161615E+01 0.28067860913E+01
 0.28489593312E+01 0.29486616518E+01 0.31264419552E+01 0.33921556683E+01 0.37295540937E+01
 0.52979495863E+01 0.62924876595E+01 0.71890260452E+01 0.75506346680E+01 0.71891642791E+01
 0.62926443818E+01 0.52980691248E+01 0.45560551949E+01 0.39951086017E+01 0.34863007680E+01
 0.30980231322E+01 0.28494222340E+01 0.27193655546E+01 0.26799195356E+01 0.27194169166E+01
 0.28495078815E+01 0.30980660167E+01 0.34862301487E+01 0.39949635403E+01 0.45559237541E+01
 0.96932056019E+01 0.12502721038E+02 0.14277064088E+02 0.14276437031E+02 0.12501668480E+02
 0.96931622480E+01 0.69596232495E+01 0.51406343245E+01 0.42289513544E+01 0.35746400163E+01
 0.30936264043E+01 0.28069161615E+01 0.26799195356E+01 0.26797054776E+01 0.28067844433E+01
 0.30942420784E+01 0.35755640676E+01 0.42289968147E+01 0.51394850704E+01 0.69584371052E+01
 0.20861463113E+02 0.25752208156E+02 0.27605696373E+02 0.25752149432E+02 0.20861339856E+02
 0.14672042375E+02 0.92230301957E+01 0.58347565798E+01 0.43900800580E+01 0.36282978523E+01
 0.30948387310E+01 0.28067860913E+01 0.27194169166E+01 0.28067844433E+01 0.30948259096E+01
 0.36282838373E+01 0.43901045349E+01 0.58348552830E+01 0.92231917385E+01 0.14672211807E+02
 0.40340278003E+02 0.46236350912E+02 0.46236864318E+02 0.40341028886E+02 0.30487642455E+02
 0.19794345694E+02 0.11241139244E+02 0.63282601385E+01 0.44513923571E+01 0.36286590710E+01
 0.30934853820E+01 0.28489593312E+01 0.28495078815E+01 0.30942420784E+01 0.36282838373E+01
 0.44501238624E+01 0.63276860596E+01 0.11242049019E+02 0.19795689289E+02 0.30487949833E+02
 0.66290851675E+02 0.70795969719E+02 0.66290567570E+02 0.54209962657E+02 0.38290241992E+02
 0.23070868156E+02 0.12053173334E+02 0.63278400017E+01 0.43902185843E+01 0.35754954115E+01
 0.30978908575E+01 0.29486616518E+01 0.30980660167E+01 0.35755640676E+01 0.43901045349E+01
 0.63276860596E+01 0.12052937267E+02 0.23070437999E+02 0.38289873380E+02 0.54210014922E+02
 0.93351155830E+02 0.93350484247E+02 0.81958865058E+02 0.62735655761E+02 0.41300583948E+02
 0.23071301693E+02 0.11241236982E+02 0.58337837339E+01 0.42290126572E+01 0.34870718872E+01
 0.31269267085E+01 0.31264419552E+01 0.34862301487E+01 0.42289968147E+01 0.58348552830E+01
 0.11242049019E+02 0.23070437999E+02 0.41298684226E+02 0.62734799541E+02 0.81959634818E+02
 0.11408027907E+03 0.10696372896E+03 0.87906865707E+02 0.62735148292E+02 0.38289885907E+02
 0.19795364118E+02 0.92232025225E+01 0.51398310008E+01 0.39949693335E+01 0.33918211579E+01
 0.31979455078E+01 0.33921556683E+01 0.39949635403E+01 0.51394850704E+01 0.92231917385E+01
 0.19795689289E+02 0.38289873380E+02 0.62734799541E+02 0.87906857093E+02 0.10696406173E+03
 0.12187453846E+03 0.10696364711E+03 0.81958894356E+02 0.54208932129E+02 0.30487288007E+02
 0.14672913852E+02 0.69598439182E+01 0.45560985352E+01 0.37281308360E+01 0.33165804792E+01
 0.33175347503E+01 0.37295540937E+01 0.45559237541E+01 0.69584371052E+01 0.14672211807E+02
 0.30487949833E+02 0.54210014922E+02 0.81959634818E+02 0.10696406173E+03 0.12187469458E+03
 0.81511423210E+02 0.61833332559E+02 0.40340375133E+02 0.22440585279E+02 0.11006647192E+02
 0.58168042422E+01 0.42704638445E+01 0.35470771028E+01 0.31938856277E+01 0.31934852925E+01
 0.35463843094E+01 0.42703776276E+01 0.58173150530E+01 0.11006543762E+02 0.22439214807E+02
 0.40339314865E+02 0.61834796388E+02 0.81514809526E+02 0.93351270054E+02 0.93349445365E+02
 0.61833332559E+02 0.43130821055E+02 0.25752223648E+02 0.13367494813E+02 0.68594037908E+01
 0.45953504562E+01 0.37613866533E+01 0.32675923368E+01 0.31118799189E+01 0.32679817166E+01
 0.37615754177E+01 0.45949850436E+01 0.68586386362E+01 0.13366595087E+02 0.25751567572E+02
 0.43131055672E+02 0.61834644449E+02 0.76426746681E+02 0.81959583875E+02 0.76425401585E+02
 0.40340375133E+02 0.25752223648E+02 0.14277147979E+02 0.75516818723E+01 0.48545901928E+01
 0.39288980786E+01 0.33454242493E+01 0.30718003482E+01 0.30724581676E+01 0.33466136538E+01
 0.39292765749E+01 0.48538241529E+01 0.75505283407E+01 0.14276406125E+02 0.25752165604E+02
 0.40340889040E+02 0.54209680947E+02 0.62735472085E+02 0.62735142335E+02 0.54208980520E+02
 0.22440585279E+02 0.13367494813E+02 0.75516818723E+01 0.49584839120E+01 0.40192169320E+01
 0.34056713095E+01 0.30614634266E+01 0.29557146489E+01 0.30615936973E+01 0.34062994808E+01
 0.40201798879E+01 0.49587727147E+01 0.75505864675E+01 0.13365903239E+02 0.22440373543E+02
 0.32859716539E+02 0.41301151208E+02 0.44557847935E+02 0.41299165099E+02 0.32857953670E+02
 0.11006647192E+02 0.68594037908E+01 0.48545901928E+01 0.40192169320E+01 0.34279082362E+01
 0.30625808016E+01 0.28997828792E+01 0.28994291113E+01 0.30621264186E+01 0.34282466064E+01
 0.40201301359E+01 0.48549734386E+01 0.68588354678E+01 0.11006060886E+02 0.16975385964E+02
 0.23071640947E+02 0.26961057835E+02 0.26960379725E+02 0.23070385584E+02 0.16974917668E+02
 0.58168042422E+01 0.45953504562E+01 0.39288980786E+01 0.34056713095E+01 0.30625808016E+01
 0.28837281130E+01 0.28300090670E+01 0.28833883151E+01 0.30621316217E+01 0.34054278018E+01
 0.39291459694E+01 0.45961409851E+01 0.58176416046E+01 0.81475601990E+01 0.11240689160E+02
 0.13958669161E+02 0.15046463337E+02 0.13959760412E+02 0.11241683757E+02 0.81475201109E+01
 0.42704638445E+01 0.37613866533E+01 0.33454242493E+01 0.30614634266E+01 0.28997828792E+01
 0.28300090670E+01 0.28299993361E+01 0.28998272219E+01 0.30616059473E+01 0.33455454978E+01
 0.37614240632E+01 0.42704801640E+01 0.48807013102E+01 0.58343487873E+01 0.69742488100E+01
 0.77711939895E+01 0.77716029960E+01 0.69750607609E+01 0.58348869398E+01 0.48808248075E+01
 0.35470771028E+01 0.32675923368E+01 0.30718003482E+01 0.29557146489E+01 0.28994291113E+01
 0.28833883151E+01 0.28998272219E+01 0.29564676163E+01 0.30724720706E+01 0.32675586379E+01
 0.35462766545E+01 0.38843489565E+01 0.42290047040E+01 0.45385891621E+01 0.48040732601E+01
 0.49156345016E+01 0.48036696895E+01 0.45382528775E+01 0.42292757900E+01 0.38852286968E+01
 0.31938856277E+01 0.31118799189E+01 0.30724581676E+01 0.30615936973E+01 0.30621264186E+01
 0.30621316217E+01 0.30616059473E+01 0.30724720706E+01 0.31119289169E+01 0.31940599076E+01
 0.33227326651E+01 0.34863275452E+01 0.36571809202E+01 0.37990168183E+01 0.38793550300E+01
 0.38795695571E+01 0.37994031736E+01 0.36573063470E+01 0.34861051665E+01 0.33224245499E+01
 0.31934852925E+01 0.32679817166E+01 0.33466136538E+01 0.34062994808E+01 0.34282466064E+01
 0.34054278018E+01 0.33455454978E+01 0.32675586379E+01 0.31940599076E+01 0.31438133725E+01
 0.31269257791E+01 0.31423699971E+01 0.31776397287E+01 0.32123525124E+01 0.32269681951E+01
 0.32130991854E+01 0.31784365955E+01 0.31424364433E+01 0.31260881011E+01 0.31426702099E+01
 0.35463843094E+01 0.37615754177E+01 0.39292765749E+01 0.40201798879E+01 0.40201301359E+01
 0.39291459694E+01 0.37614240632E+01 0.35462766545E+01 0.33227326651E+01 0.31269257791E+01
 0.29808711868E+01 0.28891664158E+01 0.28424491035E+01 0.28249772809E+01 0.28248675346E+01
 0.28422424422E+01 0.28890615687E+01 0.29809017866E+01 0.31269947376E+01 0.33228002456E+01
 0.42703776276E+01 0.45949850436E+01 0.48538241529E+01 0.49587727147E+01 0.48549734386E+01
 0.45961409851E+01 0.42704801640E+01 0.38843489565E+01 0.34863275452E+01 0.31423699971E+01
 0.28891664158E+01 0.27295540538E+01 0.26465133420E+01 0.26212297916E+01 0.26460146264E+01
 0.27288614925E+01 0.28887988052E+01 0.31427613497E+01 0.34873776792E+01 0.38852687127E+01
 0.58173150530E+01 0.68586386362E+01 0.75505283407E+01 0.75505864675E+01 0.68588354678E+01
 0.58176416046E+01 0.48807013102E+01 0.42290047040E+01 0.36571809202E+01 0.31776397287E+01
 0.28424491035E+01 0.26465133420E+01 0.25598274755E+01 0.25597516572E+01 0.26464052222E+01
 0.28425018040E+01 0.31778487599E+01 0.36573250448E+01 0.42288964732E+01 0.48803851371E+01
 0.11006543762E+02 0.13366595087E+02 0.14276406125E+02 0.13365903239E+02 0.11006060886E+02
 0.81475601990E+01 0.58343487873E+01 0.45385891621E+01 0.37990168183E+01 0.32123525124E+01
 0.28249772809E+01 0.26212297916E+01 0.25597516572E+01 0.26214528993E+01 0.28254419737E+01
 0.32128566664E+01 0.37990950770E+01 0.45379597276E+01 0.58334152871E+01 0.81471673250E+01
 0.22439214807E+02 0.25751567572E+02 0.25752165604E+02 0.22440373543E+02 0.16975385964E+02
 0.11240689160E+02 0.69742488100E+01 0.48040732601E+01 0.38793550300E+01 0.32269681951E+01
 0.28248675346E+01 0.26460146264E+01 0.26464052222E+01 0.28254419737E+01 0.32268890557E+01
 0.38788806478E+01 0.48041621567E+01 0.69750591795E+01 0.11241248568E+02 0.16974874595E+02
 0.40339314865E+02 0.43131055672E+02 0.40340889040E+02 0.32859716539E+02 0.23071640947E+02
 0.13958669161E+02 0.77711939895E+01 0.49156345016E+01 0.38795695571E+01 0.32130991854E+01
 0.28422424422E+01 0.27288614925E+01 0.28425018040E+01 0.32128566664E+01 0.38788806478E+01
 0.49156597072E+01 0.77724574155E+01 0.13959995555E+02 0.23071490243E+02 0.32858074639E+02
 0.61834796388E+02 0.61834644449E+02 0.54209680947E+02 0.41301151208E+02 0.26961057835E+02
 0.15046463337E+02 0.77716029960E+01 0.48036696895E+01 0.37994031736E+01 0.31784365955E+01
 0.28890615687E+01 0.28887988052E+01 0.31778487599E+01 0.37990950770E+01 0.48041621567E+01
 0.77724574155E+01 0.15046570166E+02 0.26960174163E+02 0.41300304425E+02 0.54209597678E+02
 0.81514809526E+02 0.76426746681E+02 0.62735472085E+02 0.44557847935E+02 0.26960379725E+02
 0.13959760412E+02 0.69750607609E+01 0.45382528775E+01 0.36573063470E+01 0.31424364433E+01
 0.29809017866E+01 0.31427613497E+01 0.36573250448E+01 0.45379597276E+01 0.69750591795E+01
 0.13959995555E+02 0.26960174163E+02 0.44557219467E+02 0.62735148950E+02 0.76426857066E+02
 0.93351270054E+02 0.81959583875E+02 0.62735142335E+02 0.41299165099E+02 0.23070385584E+02
 0.11241683757E+02 0.58348869398E+01 0.42292757900E+01 0.34861051665E+01 0.31260881011E+01
 0.31269947376E+01 0.34873776792E+01 0.42288964732E+01 0.58334152871E+01 0.11241248568E+02
 0.23071490243E+02 0.41300304425E+02 0.62735148950E+02 0.81958869873E+02 0.93350875373E+02
 0.93349445365E+02 0.76425401585E+02 0.54208980520E+02 0.32857953670E+02 0.16974917668E+02
 0.81475201109E+01 0.48808248075E+01 0.38852286968E+01 0.33224245499E+01 0.31426702099E+01
 0.33228002456E+01 0.38852687127E+01 0.48803851371E+01 0.81471673250E+01 0.16974874595E+02
 0.32858074639E+02 0.54209597678E+02 0.76426857066E+02 0.93350875373E+02 0.99688316841E+02
 0.50051940449E+02 0.34905787501E+02 0.20861350437E+02 0.11006798260E+02 0.60341903834E+01
 0.43684394752E+01 0.36045367084E+01 0.31568409172E+01 0.30170112343E+01 0.31567434567E+01
 0.36044146334E+01 0.43683533451E+01 0.60341646043E+01 0.11006865347E+02 0.20861531455E+02
 0.34906025829E+02 0.50052130441E+02 0.61834928619E+02 0.66291100083E+02 0.61834839591E+02
 0.34905787501E+02 0.22327929134E+02 0.12501777887E+02 0.68595227307E+01 0.46676218904E+01
 0.38241272023E+01 0.32748292914E+01 0.30200940774E+01 0.30205660805E+01 0.32755706908E+01