   1   1   1   0
  0.1071875E+02  0.2474874E-09  0.2474874E-09  0.2474874E-09  0.5000000E-15
  1.000000000000000E-004
  CAR 
 fcc Ni                                  
     57.14663697     -2.26512343  301      9.56940409      1.00000000
     -2.265  0.0000E+00  0.0000E+00  0.0000E+00  0.0000E+00
     -2.067  0.0000E+00  0.0000E+00  0.0000E+00  0.0000E+00
     -1.869  0.0000E+00  0.0000E+00  0.0000E+00  0.0000E+00
     -1.671  0.0000E+00  0.0000E+00  0.0000E+00  0.0000E+00
     -1.473  0.0000E+00  0.0000E+00  0.0000E+00  0.0000E+00
     -1.275 -0.4231E-35 -0.1588E-33 -0.8379E-36 -0.3145E-34
     -1.077 -0.4841E-28 -0.1193E-26 -0.9587E-29 -0.2363E-27
     -0.879 -0.7667E-22 -0.1240E-20 -0.1518E-22 -0.2456E-21
     -0.681 -0.1630E-16 -0.1715E-15 -0.3229E-17 -0.3397E-16
     -0.483 -0.4772E-12 -0.3291E-11 -0.9451E-13 -0.6518E-12
     -0.285 -0.1867E-08 -0.8345E-08 -0.3699E-09 -0.1653E-08
     -0.087 -0.9273E-06 -0.2636E-05 -0.1840E-06 -0.5236E-06
      0.111 -0.4957E-04 -0.8198E-04 -0.1000E-04 -0.1676E-04
      0.309  0.8738E-05  0.2361E-03 -0.8270E-05  0.2999E-04
      0.507  0.1371E-02  0.1434E-02  0.2631E-03  0.3139E-03
      0.705  0.6117E-02  0.1076E-01  0.1474E-02  0.2445E-02
      0.904  0.3328E-01  0.3491E-01  0.8066E-02  0.9359E-02
      1.102  0.1586E-01  0.1001E-01  0.1121E-01  0.1134E-01
      1.300  0.1539E-01  0.2129E-01  0.1425E-01  0.1556E-01
      1.498  0.3247E-01  0.3513E-01  0.2068E-01  0.2252E-01
      1.696  0.7457E-01  0.8120E-01  0.3545E-01  0.3860E-01
      1.894  0.4677E-01  0.3149E-01  0.4471E-01  0.4483E-01
      2.092  0.3390E-02  0.4843E-02  0.4539E-01  0.4579E-01
      2.290  0.1900E-01  0.2466E-01  0.4915E-01  0.5068E-01
      2.488  0.1005E+00  0.1118E+00  0.6905E-01  0.7282E-01
      2.686  0.8112E-01  0.6546E-01  0.8511E-01  0.8578E-01
      2.884  0.4871E-01  0.5085E-01  0.9476E-01  0.9585E-01
      3.082  0.8298E-01  0.8295E-01  0.1112E+00  0.1123E+00
      3.280  0.7562E-01  0.7235E-01  0.1262E+00  0.1266E+00
      3.478  0.4665E-02  0.3902E-02  0.1271E+00  0.1274E+00
      3.676  0.7113E-01  0.5472E-01  0.1412E+00  0.1382E+00
      3.874  0.2175E+00  0.2121E+00  0.1843E+00  0.1802E+00
      4.072  0.1008E+00  0.9624E-01  0.2042E+00  0.1993E+00
      4.270  0.1543E+00  0.1107E+00  0.2348E+00  0.2212E+00
      4.468  0.9213E-01  0.1330E+00  0.2530E+00  0.2475E+00
      4.666  0.1447E+00  0.5748E-01  0.2817E+00  0.2589E+00
      4.864  0.4248E+00  0.1140E+00  0.3658E+00  0.2815E+00
      5.062  0.5546E+00  0.3546E+00  0.4756E+00  0.3517E+00
      5.260  0.5845E+00  0.4590E+00  0.5914E+00  0.4426E+00
      5.458  0.5526E+00  0.4282E+00  0.7008E+00  0.5274E+00
      5.656  0.8873E+00  0.4130E+00  0.8765E+00  0.6092E+00
      5.854  0.1076E+01  0.5080E+00  0.1090E+01  0.7098E+00
      6.053  0.8237E+00  0.7119E+00  0.1253E+01  0.8508E+00
      6.251  0.8795E+00  0.8561E+00  0.1427E+01  0.1020E+01
      6.449  0.7779E+00  0.8216E+00  0.1581E+01  0.1183E+01
      6.647  0.9933E+00  0.8143E+00  0.1778E+01  0.1344E+01
      6.845  0.1232E+01  0.8464E+00  0.2022E+01  0.1512E+01
      7.043  0.1193E+01  0.6667E+00  0.2258E+01  0.1644E+01
      7.241  0.1422E+01  0.1156E+01  0.2539E+01  0.1873E+01
      7.439  0.1693E+01  0.1019E+01  0.2875E+01  0.2075E+01
      7.637  0.1342E+01  0.1234E+01  0.3141E+01  0.2319E+01
      7.835  0.9831E+00  0.1361E+01  0.3335E+01  0.2589E+01
      8.033  0.9352E+00  0.1510E+01  0.3521E+01  0.2888E+01
      8.231  0.1440E+01  0.1324E+01  0.3806E+01  0.3150E+01
      8.429  0.1379E+01  0.9820E+00  0.4079E+01  0.3344E+01
      8.627  0.1055E+01  0.9853E+00  0.4288E+01  0.3540E+01
      8.825  0.1542E+01  0.1207E+01  0.4593E+01  0.3779E+01
      9.023  0.2130E+01  0.1495E+01  0.5015E+01  0.4075E+01
      9.221  0.1372E+01  0.8439E+00  0.5287E+01  0.4242E+01
      9.419  0.8974E-02  0.1177E+01  0.5288E+01  0.4475E+01
      9.617  0.6545E-03  0.1665E+01  0.5288E+01  0.4805E+01
      9.815  0.1229E+00  0.1863E+01  0.5313E+01  0.5173E+01
     10.013  0.3379E+00  0.5869E+00  0.5380E+01  0.5290E+01
     10.211  0.2457E+00  0.3361E-01  0.5428E+01  0.5296E+01
     10.409  0.1097E+00  0.1640E+00  0.5450E+01  0.5329E+01
     10.607  0.1260E+00  0.3423E+00  0.5475E+01  0.5397E+01
     10.805  0.8615E-01  0.2752E+00  0.5492E+01  0.5451E+01
     11.004  0.1007E+00  0.1354E+00  0.5512E+01  0.5478E+01
     11.202  0.3828E-01  0.1088E+00  0.5520E+01  0.5499E+01
     11.400  0.2224E+00  0.9199E-01  0.5564E+01  0.5518E+01
     11.598  0.2609E+00  0.5191E-01  0.5615E+01  0.5528E+01
     11.796  0.6397E-01  0.2279E+00  0.5628E+01  0.5573E+01
     11.994  0.1146E+00  0.1995E+00  0.5651E+01  0.5613E+01
     12.192  0.1636E+00  0.8594E-01  0.5683E+01  0.5630E+01
     12.390  0.1396E+00  0.1724E+00  0.5711E+01  0.5664E+01
     12.588  0.1449E+00  0.1766E+00  0.5739E+01  0.5699E+01
     12.786  0.8256E-01  0.2156E+00  0.5756E+01  0.5741E+01
     12.984  0.1646E-02  0.8591E-01  0.5756E+01  0.5758E+01
     13.182  0.1313E-01 -0.1139E-01  0.5759E+01  0.5756E+01
     13.380  0.1765E+00 -0.2076E-02  0.5794E+01  0.5756E+01
     13.578  0.2535E+00  0.1428E+00  0.5844E+01  0.5784E+01
     13.776  0.8641E-01  0.2596E+00  0.5861E+01  0.5835E+01
     13.974  0.1577E-01  0.1014E+00  0.5864E+01  0.5856E+01
     14.172  0.5651E-01  0.4209E-01  0.5875E+01  0.5864E+01
     14.370  0.1379E+00  0.2934E-01  0.5903E+01  0.5870E+01
     14.568  0.1005E+00  0.1637E+00  0.5923E+01  0.5902E+01
     14.766  0.6594E-01  0.1115E+00  0.5936E+01  0.5924E+01
     14.964  0.3420E-01  0.5634E-01  0.5942E+01  0.5935E+01
     15.162  0.1304E+00  0.3441E-01  0.5968E+01  0.5942E+01
     15.360  0.3088E-01  0.1319E+00  0.5974E+01  0.5968E+01
     15.558  0.5673E-01  0.2580E-01  0.5986E+01  0.5973E+01
     15.756  0.8867E-01  0.4345E-02  0.6003E+01  0.5974E+01
     15.954  0.1267E+00  0.9256E-01  0.6028E+01  0.5993E+01
     16.153  0.1975E+00  0.1256E+00  0.6067E+01  0.6017E+01
     16.351  0.1772E+00  0.1737E+00  0.6102E+01  0.6052E+01
     16.549  0.7677E-02  0.2071E+00  0.6104E+01  0.6093E+01
     16.747  0.6270E-01  0.5832E-01  0.6116E+01  0.6104E+01
     16.945  0.3535E+00  0.6563E-01  0.6186E+01  0.6117E+01
     17.143  0.2214E+00  0.3435E+00  0.6230E+01  0.6185E+01
     17.341  0.5620E-01  0.2223E+00  0.6241E+01  0.6230E+01
     17.539  0.7915E-01  0.4434E-01  0.6257E+01  0.6238E+01
     17.737  0.1660E+00  0.1037E+00  0.6290E+01  0.6259E+01
     17.935  0.2033E+00  0.1628E+00  0.6330E+01  0.6291E+01
     18.133  0.1207E+00  0.1893E+00  0.6354E+01  0.6329E+01
     18.331  0.3598E-01  0.1339E+00  0.6361E+01  0.6355E+01
     18.529  0.6245E-01  0.3131E-01  0.6373E+01  0.6361E+01
     18.727  0.3146E-02  0.6204E-01  0.6374E+01  0.6374E+01
     18.925  0.6989E-01  0.1927E-02  0.6388E+01  0.6374E+01
     19.123  0.2450E+00  0.8120E-01  0.6436E+01  0.6390E+01
     19.321  0.6367E-01  0.2431E+00  0.6449E+01  0.6438E+01
     19.519  0.1501E+00  0.8121E-01  0.6479E+01  0.6454E+01
     19.717  0.1603E+00  0.1508E+00  0.6511E+01  0.6484E+01
     19.915  0.2029E+00  0.1651E+00  0.6551E+01  0.6517E+01
     20.113  0.2410E+00  0.2218E+00  0.6598E+01  0.6561E+01
     20.311  0.2214E+00  0.2659E+00  0.6642E+01  0.6613E+01
     20.509  0.1946E+00  0.1909E+00  0.6681E+01  0.6651E+01
     20.707  0.1675E+00  0.1933E+00  0.6714E+01  0.6689E+01
     20.905  0.2206E+00  0.1862E+00  0.6758E+01  0.6726E+01
     21.104  0.1498E+00  0.2097E+00  0.6787E+01  0.6768E+01
     21.302  0.1946E-01  0.1105E+00  0.6791E+01  0.6790E+01
     21.500  0.2478E-01  0.6988E-03  0.6796E+01  0.6790E+01
     21.698  0.2707E+00  0.1013E+00  0.6850E+01  0.6810E+01
     21.896  0.2534E+00  0.3133E+00  0.6900E+01  0.6872E+01
     22.094  0.1869E+00  0.2022E+00  0.6937E+01  0.6912E+01
     22.292  0.3535E+00  0.2829E+00  0.7007E+01  0.6968E+01
     22.490  0.1303E+00  0.2738E+00  0.7033E+01  0.7022E+01
     22.688  0.1311E+00  0.9622E-01  0.7059E+01  0.7041E+01
     22.886  0.1815E+00  0.1931E+00  0.7095E+01  0.7080E+01
     23.084  0.3267E-01  0.9686E-01  0.7101E+01  0.7099E+01
     23.282  0.8653E-01  0.4412E-01  0.7118E+01  0.7108E+01
     23.480  0.2739E+00  0.2010E+00  0.7172E+01  0.7147E+01
     23.678  0.3042E+00  0.2792E+00  0.7233E+01  0.7203E+01
     23.876  0.3761E+00  0.3587E+00  0.7307E+01  0.7274E+01
     24.074  0.2126E+00  0.3145E+00  0.7349E+01  0.7336E+01
     24.272  0.9111E-01  0.1215E+00  0.7367E+01  0.7360E+01
     24.470  0.1799E+00  0.1439E+00  0.7403E+01  0.7389E+01
     24.668  0.1280E+00  0.1552E+00  0.7428E+01  0.7419E+01
     24.866  0.2140E+00  0.1896E+00  0.7471E+01  0.7457E+01
     25.064  0.1462E+00  0.1471E+00  0.7500E+01  0.7486E+01
     25.262  0.3999E+00  0.2991E+00  0.7579E+01  0.7545E+01
     25.460  0.2232E+00  0.3380E+00  0.7623E+01  0.7612E+01
     25.658  0.2641E+00  0.2372E+00  0.7675E+01  0.7659E+01
     25.856  0.1186E+00  0.1726E+00  0.7699E+01  0.7693E+01
     26.054  0.1092E+00  0.1147E+00  0.7720E+01  0.7716E+01
     26.253  0.2600E+00  0.1688E+00  0.7772E+01  0.7749E+01
     26.451  0.2718E+00  0.3102E+00  0.7826E+01  0.7811E+01
     26.649  0.1148E+00  0.1557E+00  0.7849E+01  0.7842E+01
     26.847  0.6633E-01  0.7568E-01  0.7862E+01  0.7857E+01
     27.045  0.1538E+00  0.1102E+00  0.7892E+01  0.7878E+01
     27.243  0.1928E+00  0.2034E+00  0.7930E+01  0.7919E+01
     27.441  0.2943E+00  0.2586E+00  0.7989E+01  0.7970E+01
     27.639  0.2807E+00  0.3010E+00  0.8044E+01  0.8030E+01
     27.837  0.3613E+00  0.3593E+00  0.8116E+01  0.8101E+01
     28.035  0.2000E+00  0.2410E+00  0.8155E+01  0.8148E+01
     28.233  0.3133E-01  0.6097E-01  0.8162E+01  0.8161E+01
     28.431  0.4065E-01  0.2291E-01  0.8170E+01  0.8165E+01
     28.629  0.1557E+00  0.1279E+00  0.8200E+01  0.8190E+01
     28.827  0.1262E+00  0.1625E+00  0.8225E+01  0.8223E+01
     29.025  0.1134E-01  0.3103E-01  0.8228E+01  0.8229E+01
     29.223  0.7277E-03 -0.2049E-01  0.8228E+01  0.8225E+01
     29.421  0.3682E+00  0.2459E+00  0.8301E+01  0.8273E+01
     29.619  0.4125E+00  0.4891E+00  0.8382E+01  0.8370E+01
     29.817  0.1456E+00  0.1940E+00  0.8411E+01  0.8409E+01
     30.015  0.8992E-01  0.9104E-01  0.8429E+01  0.8427E+01
     30.213  0.1440E+00  0.1295E+00  0.8458E+01  0.8452E+01
     30.411  0.1480E+00  0.1363E+00  0.8487E+01  0.8479E+01
     30.609  0.1861E+00  0.1680E+00  0.8524E+01  0.8513E+01
     30.807  0.2575E+00  0.2906E+00  0.8575E+01  0.8570E+01
     31.005  0.1809E+00  0.2026E+00  0.8611E+01  0.8610E+01
     31.204  0.1435E+00  0.1054E+00  0.8639E+01  0.8631E+01
     31.402  0.1373E+00  0.1341E+00  0.8666E+01  0.8658E+01
     31.600  0.2400E+00  0.2598E+00  0.8714E+01  0.8709E+01
     31.798  0.1734E+00  0.1911E+00  0.8748E+01  0.8747E+01
     31.996  0.1938E+00  0.1445E+00  0.8786E+01  0.8776E+01
     32.194  0.3641E+00  0.3589E+00  0.8858E+01  0.8847E+01
     32.392  0.2315E+00  0.3020E+00  0.8904E+01  0.8906E+01
     32.590  0.2055E+00  0.1793E+00  0.8945E+01  0.8942E+01
     32.788  0.2550E+00  0.2730E+00  0.8996E+01  0.8996E+01
     32.986  0.2979E+00  0.2794E+00  0.9055E+01  0.9051E+01
     33.184  0.2438E+00  0.2571E+00  0.9103E+01  0.9102E+01
     33.382  0.2547E+00  0.2152E+00  0.9153E+01  0.9145E+01
     33.580  0.3036E+00  0.3128E+00  0.9213E+01  0.9207E+01
     33.778  0.1877E+00  0.2104E+00  0.9251E+01  0.9249E+01
     33.976  0.3375E-01  0.5903E-01  0.9257E+01  0.9260E+01
     34.174  0.2248E+00  0.1937E+00  0.9302E+01  0.9299E+01
     34.372  0.2768E+00  0.2512E+00  0.9357E+01  0.9348E+01
     34.570  0.3153E+00  0.3027E+00  0.9419E+01  0.9408E+01
     34.768  0.4897E+00  0.4528E+00  0.9516E+01  0.9498E+01
     34.966  0.4864E+00  0.5487E+00  0.9612E+01  0.9607E+01
     35.164  0.2057E+00  0.2189E+00  0.9653E+01  0.9650E+01
     35.362  0.2258E+00  0.2195E+00  0.9698E+01  0.9693E+01
     35.560  0.1585E+00  0.1236E+00  0.9729E+01  0.9718E+01
     35.758  0.8574E-01  0.1190E+00  0.9746E+01  0.9741E+01
     35.956  0.3354E+00  0.3067E+00  0.9813E+01  0.9802E+01
     36.154  0.2369E+00  0.3133E+00  0.9859E+01  0.9864E+01
     36.353  0.7805E-01  0.7821E-01  0.9875E+01  0.9880E+01
     36.551  0.1102E+00  0.7509E-01  0.9897E+01  0.9895E+01
     36.749  0.1713E+00  0.1966E+00  0.9931E+01  0.9934E+01
     36.947  0.1139E+00  0.7669E-01  0.9953E+01  0.9949E+01
     37.145  0.1737E+00  0.1245E+00  0.9988E+01  0.9973E+01
     37.343  0.1334E+00  0.1826E+00  0.1001E+02  0.1001E+02
     37.541  0.7890E-01  0.5040E-01  0.1003E+02  0.1002E+02
     37.739  0.1738E+00  0.2133E+00  0.1006E+02  0.1006E+02
     37.937  0.1702E+00  0.1850E+00  0.1010E+02  0.1010E+02
     38.135  0.5993E-01  0.5891E-01  0.1011E+02  0.1011E+02
     38.333  0.8981E-01  0.6934E-01  0.1013E+02  0.1012E+02
     38.531  0.1639E+00  0.1430E+00  0.1016E+02  0.1015E+02
     38.729  0.3210E+00  0.2837E+00  0.1022E+02  0.1021E+02
     38.927  0.3978E+00  0.4370E+00  0.1030E+02  0.1029E+02
     39.125  0.2097E+00  0.2480E+00  0.1034E+02  0.1034E+02
     39.323  0.1368E+00  0.8396E-01  0.1037E+02  0.1036E+02
     39.521  0.2408E+00  0.2392E+00  0.1042E+02  0.1041E+02
     39.719  0.2188E+00  0.2213E+00  0.1046E+02  0.1045E+02
     39.917  0.4649E+00  0.4673E+00  0.1055E+02  0.1054E+02
     40.115  0.7875E+00  0.8107E+00  0.1071E+02  0.1070E+02
     40.313  0.3486E+00  0.3652E+00  0.1078E+02  0.1078E+02
     40.511  0.1546E+00  0.1143E+00  0.1081E+02  0.1080E+02
     40.709  0.6444E-01  0.1186E+00  0.1082E+02  0.1082E+02
     40.907  0.6214E-01  0.7844E-01  0.1083E+02  0.1084E+02
     41.105  0.1862E+00  0.1658E+00  0.1087E+02  0.1087E+02
     41.304  0.6662E-01  0.6630E-01  0.1088E+02  0.1088E+02
     41.502  0.9731E-01  0.1028E+00  0.1090E+02  0.1091E+02
     41.700  0.1712E+00  0.1686E+00  0.1094E+02  0.1094E+02
     41.898  0.2235E+00  0.2206E+00  0.1098E+02  0.1098E+02
     42.096  0.2791E+00  0.2637E+00  0.1104E+02  0.1103E+02
     42.294  0.1386E+00  0.1698E+00  0.1106E+02  0.1107E+02
     42.492  0.1500E+00  0.1609E+00  0.1109E+02  0.1110E+02
     42.690  0.2093E+00  0.1803E+00  0.1114E+02  0.1114E+02
     42.888  0.1636E+00  0.1250E+00  0.1117E+02  0.1116E+02
     43.086  0.2449E+00  0.2581E+00  0.1122E+02  0.1121E+02
     43.284  0.3133E+00  0.3117E+00  0.1128E+02  0.1127E+02
     43.482  0.3408E+00  0.3461E+00  0.1135E+02  0.1134E+02
     43.680  0.1609E+00  0.1805E+00  0.1138E+02  0.1138E+02
     43.878  0.2868E-01  0.5464E-01  0.1138E+02  0.1139E+02
     44.076  0.2530E+00  0.2417E+00  0.1143E+02  0.1144E+02
     44.274  0.1755E+00  0.1661E+00  0.1147E+02  0.1147E+02
     44.472  0.5863E-01  0.7168E-01  0.1148E+02  0.1148E+02
     44.670  0.1050E+00  0.9227E-01  0.1150E+02  0.1150E+02
     44.868  0.3302E+00  0.2807E+00  0.1157E+02  0.1156E+02
     45.066  0.2756E+00  0.2980E+00  0.1162E+02  0.1162E+02
     45.264  0.3611E-02  0.3984E-01  0.1162E+02  0.1162E+02
     45.462  0.1026E+00  0.1358E+00  0.1164E+02  0.1165E+02
     45.660  0.1714E+00  0.1647E+00  0.1168E+02  0.1168E+02
     45.858  0.1353E+00  0.7095E-01  0.1170E+02  0.1170E+02
     46.056  0.1268E+00  0.1256E+00  0.1173E+02  0.1172E+02
     46.254  0.1574E-01  0.5607E-01  0.1173E+02  0.1173E+02
     46.453  0.1320E+00  0.1386E+00  0.1176E+02  0.1176E+02
     46.651  0.1324E+00  0.1176E+00  0.1178E+02  0.1178E+02
     46.849  0.2386E-01  0.2136E-01  0.1179E+02  0.1179E+02
     47.047  0.1893E-01  0.2455E-02  0.1179E+02  0.1179E+02
     47.245  0.6491E-01  0.6335E-01  0.1180E+02  0.1180E+02
     47.443  0.6259E-02  0.2272E-01  0.1181E+02  0.1181E+02
     47.641 -0.6932E-02  0.2298E-02  0.1180E+02  0.1181E+02
     47.839  0.1144E+00  0.1559E+00  0.1183E+02  0.1184E+02
     48.037  0.2013E+00  0.1754E+00  0.1187E+02  0.1187E+02
     48.235  0.1573E+00  0.1462E+00  0.1190E+02  0.1190E+02
     48.433  0.3999E-01  0.2641E-01  0.1191E+02  0.1191E+02
     48.631 -0.4870E-02 -0.4660E-02  0.1191E+02  0.1191E+02
     48.829 -0.5422E-03 -0.3011E-03  0.1191E+02  0.1191E+02
     49.027 -0.5448E-05 -0.2284E-05  0.1191E+02  0.1191E+02
     49.225 -0.1886E-04 -0.7496E-04  0.1191E+02  0.1191E+02
     49.423 -0.1087E-02 -0.2103E-02  0.1191E+02  0.1190E+02
     49.621  0.3905E-03  0.9246E-02  0.1191E+02  0.1191E+02
     49.819  0.5332E-01  0.6566E-01  0.1192E+02  0.1192E+02
     50.017  0.4934E-01  0.4081E-01  0.1193E+02  0.1193E+02
     50.215  0.6457E-01  0.6445E-01  0.1194E+02  0.1194E+02
     50.413  0.6064E-01  0.6369E-01  0.1195E+02  0.1195E+02
     50.611  0.6272E-01  0.5433E-01  0.1196E+02  0.1196E+02
     50.809  0.8121E-02  0.1141E-02  0.1196E+02  0.1196E+02
     51.007 -0.2003E-02 -0.1214E-02  0.1196E+02  0.1196E+02
     51.205 -0.6697E-04 -0.2324E-04  0.1196E+02  0.1196E+02
     51.404 -0.8316E-06 -0.1444E-05  0.1196E+02  0.1196E+02
     51.602 -0.1347E-03 -0.2303E-03  0.1196E+02  0.1196E+02
     51.800 -0.2567E-02 -0.2875E-02  0.1196E+02  0.1196E+02
     51.998  0.1644E-01  0.2440E-01  0.1197E+02  0.1197E+02
     52.196  0.6681E-01  0.6462E-01  0.1198E+02  0.1198E+02
     52.394  0.1295E-01  0.7049E-02  0.1198E+02  0.1198E+02
     52.592 -0.2394E-02 -0.1955E-02  0.1198E+02  0.1198E+02
     52.790 -0.1263E-02 -0.1473E-02  0.1198E+02  0.1198E+02
     52.988  0.6316E-02  0.1136E-01  0.1198E+02  0.1198E+02
     53.186  0.3339E-01  0.3264E-01  0.1199E+02  0.1199E+02
     53.384  0.8396E-02  0.4054E-02  0.1199E+02  0.1199E+02
     53.582 -0.1319E-02 -0.1004E-02  0.1199E+02  0.1199E+02
     53.780 -0.6578E-03 -0.6407E-03  0.1199E+02  0.1199E+02
     53.978  0.3216E-02  0.3488E-02  0.1199E+02  0.1199E+02
     54.176  0.1600E-01  0.1600E-01  0.1199E+02  0.1199E+02
     54.374  0.9755E-02  0.1115E-01  0.1200E+02  0.1200E+02
     54.572  0.1568E-01  0.1488E-01  0.1200E+02  0.1200E+02
     54.770  0.1994E-02  0.1041E-02  0.1200E+02  0.1200E+02
     54.968 -0.4880E-03 -0.3909E-03  0.1200E+02  0.1200E+02
     55.166 -0.1581E-04 -0.9665E-05  0.1200E+02  0.1200E+02
     55.364 -0.5007E-07 -0.2457E-07  0.1200E+02  0.1200E+02
     55.562 -0.1975E-10 -0.7856E-11  0.1200E+02  0.1200E+02
     55.760 -0.1026E-14 -0.3336E-15  0.1200E+02  0.1200E+02
     55.958  0.0000E+00  0.0000E+00  0.1200E+02  0.1200E+02
     56.156  0.0000E+00  0.0000E+00  0.1200E+02  0.1200E+02
     56.354  0.0000E+00  0.0000E+00  0.1200E+02  0.1200E+02
     56.553  0.0000E+00  0.0000E+00  0.1200E+02  0.1200E+02
     56.751  0.0000E+00  0.0000E+00  0.1200E+02  0.1200E+02
     56.949  0.0000E+00  0.0000E+00  0.1200E+02  0.1200E+02
     57.147  0.0000E+00  0.0000E+00  0.1200E+02  0.1200E+02
     57.14663697     -2.26512343  301      9.56940409      1.00000000
     -2.265  0.0000E+00  0.0000E+00  0.0000E+00  0.0000E+00  0.0000E+00  0.0000E+00  0.0000E+00  0.0000E+00  0.0000E+00  0.0000E+00  0.0000E+00  0.0000E+00  0.0000E+00  0.0000E+00  0.0000E+00  0.0000E+00  0.0000E+00  0.0000E+00
     -2.067  0.0000E+00  0.0000E+00  0.0000E+00  0.0000E+00  0.0000E+00  0.0000E+00  0.0000E+00  0.0000E+00  0.0000E+00  0.0000E+00  0.0000E+00  0.0000E+00  0.0000E+00  0.0000E+00  0.0000E+00  0.0000E+00  0.0000E+00  0.0000E+00
     -1.869  0.0000E+00  0.0000E+00  0.0000E+00  0.0000E+00  0.0000E+00  0.0000E+00  0.0000E+00  0.0000E+00  0.0000E+00  0.0000E+00  0.0000E+00  0.0000E+00  0.0000E+00  0.0000E+00  0.0000E+00  0.0000E+00  0.0000E+00  0.0000E+00
     -1.671  0.0000E+00  0.0000E+00  0.0000E+00  0.0000E+00  0.0000E+00  0.0000E+00  0.0000E+00  0.0000E+00  0.0000E+00  0.0000E+00  0.0000E+00  0.0000E+00  0.0000E+00  0.0000E+00  0.0000E+00  0.0000E+00  0.0000E+00  0.0000E+00
     -1.473  0.0000E+00  0.0000E+00  0.0000E+00  0.0000E+00  0.0000E+00  0.0000E+00  0.0000E+00  0.0000E+00  0.0000E+00  0.0000E+00  0.0000E+00  0.0000E+00  0.0000E+00  0.0000E+00  0.0000E+00  0.0000E+00  0.0000E+00  0.0000E+00
     -1.275 -0.3136E-35 -0.1178E-33 -0.3977E-50 -0.5360E-49 -0.3977E-50 -0.5360E-49 -0.3977E-50 -0.5360E-49 -0.2567E-45 -0.3851E-44 -0.2567E-45 -0.3851E-44 -0.1312E-48 -0.2708E-47 -0.2567E-45 -0.3851E-44 -0.1312E-48 -0.2708E-47
     -1.077 -0.3588E-28 -0.8851E-27 -0.4550E-43 -0.4027E-42 -0.4550E-43 -0.4027E-42 -0.4550E-43 -0.4027E-42 -0.2937E-38 -0.2893E-37 -0.2937E-38 -0.2893E-37 -0.1501E-41 -0.2034E-40 -0.2937E-38 -0.2893E-37 -0.1501E-41 -0.2034E-40
     -0.879 -0.5683E-22 -0.9197E-21 -0.1044E-33 -0.3265E-32 -0.1044E-33 -0.3265E-32 -0.1044E-33 -0.3265E-32 -0.4655E-32 -0.3015E-31 -0.4655E-32 -0.3015E-31 -0.2379E-35 -0.2115E-34 -0.4655E-32 -0.3015E-31 -0.2379E-35 -0.2115E-34
     -0.681 -0.1208E-16 -0.1272E-15 -0.5896E-27 -0.1217E-25 -0.5896E-27 -0.1217E-25 -0.5896E-27 -0.1217E-25 -0.1006E-26 -0.4464E-26 -0.1006E-26 -0.4464E-26 -0.5129E-30 -0.3092E-29 -0.1006E-26 -0.4464E-26 -0.5129E-30 -0.3092E-29
     -0.483 -0.3537E-12 -0.2441E-11 -0.4608E-21 -0.6266E-20 -0.4608E-21 -0.6266E-20 -0.4608E-21 -0.6266E-20 -0.4234E-22 -0.2371E-21 -0.4234E-22 -0.2371E-21 -0.3130E-25 -0.3109E-24 -0.4234E-22 -0.2371E-21 -0.3130E-25 -0.3109E-24
     -0.285 -0.1384E-08 -0.6189E-08 -0.4789E-16 -0.4272E-15 -0.4789E-16 -0.4272E-15 -0.4789E-16 -0.4272E-15 -0.1502E-17 -0.1091E-16 -0.1502E-17 -0.1091E-16 -0.5278E-20 -0.5170E-19 -0.1502E-17 -0.1091E-16 -0.5278E-20 -0.5170E-19
     -0.087 -0.6873E-06 -0.1955E-05 -0.6907E-12 -0.4036E-11 -0.6907E-12 -0.4036E-11 -0.6907E-12 -0.4036E-11 -0.2000E-13 -0.1006E-12 -0.2000E-13 -0.1006E-12 -0.2171E-15 -0.1446E-14 -0.2000E-13 -0.1006E-12 -0.2171E-15 -0.1446E-14
      0.111 -0.3673E-04 -0.6079E-04 -0.1323E-08 -0.5029E-08 -0.1323E-08 -0.5029E-08 -0.1323E-08 -0.5029E-08 -0.3765E-10 -0.1231E-09 -0.3765E-10 -0.1231E-09 -0.1242E-11 -0.5399E-11 -0.3765E-10 -0.1231E-09 -0.1242E-11 -0.5399E-11
      0.309  0.7441E-05  0.1774E-03 -0.3201E-06 -0.7758E-06 -0.3201E-06 -0.7758E-06 -0.3201E-06 -0.7758E-06 -0.8715E-08 -0.1793E-07 -0.8715E-08 -0.1793E-07 -0.9132E-09 -0.2553E-08 -0.8715E-08 -0.1793E-07 -0.9132E-09 -0.2553E-08
      0.507  0.1039E-02  0.1095E-02 -0.7850E-05 -0.1040E-04 -0.7850E-05 -0.1040E-04 -0.7850E-05 -0.1040E-04 -0.1790E-06 -0.1823E-06 -0.1790E-06 -0.1823E-06 -0.7610E-07 -0.1285E-06 -0.1790E-06 -0.1823E-06 -0.7610E-07 -0.1285E-06
      0.705  0.4435E-02  0.7759E-02  0.3275E-04  0.7436E-04  0.3275E-04  0.7436E-04  0.3275E-04  0.7436E-04  0.1083E-05  0.1754E-05  0.1083E-05  0.1754E-05 -0.2048E-06  0.1795E-06  0.1083E-05  0.1754E-05 -0.2048E-06  0.1795E-06
      0.904  0.2384E-01  0.2501E-01  0.2739E-03  0.2929E-03  0.2739E-03  0.2929E-03  0.2739E-03  0.2929E-03  0.4560E-05  0.3498E-05  0.4560E-05  0.3498E-05  0.4958E-05  0.5752E-05  0.4560E-05  0.3498E-05  0.4958E-05  0.5752E-05
      1.102  0.1136E-01  0.7157E-02  0.1328E-03  0.8998E-04  0.1328E-03  0.8998E-04  0.1328E-03  0.8998E-04 -0.6089E-06 -0.2761E-06 -0.6089E-06 -0.2761E-06  0.4932E-05  0.3272E-05 -0.6089E-06 -0.2761E-06  0.4932E-05  0.3272E-05
      1.300  0.1049E-01  0.1454E-01  0.2937E-03  0.4040E-03  0.2937E-03  0.4040E-03  0.2937E-03  0.4040E-03  0.1793E-04  0.2115E-04  0.1793E-04  0.2115E-04  0.4346E-05  0.5226E-05  0.1793E-04  0.2115E-04  0.4346E-05  0.5226E-05
      1.498  0.2203E-01  0.2366E-01  0.6471E-03  0.7594E-03  0.6471E-03  0.7594E-03  0.6471E-03  0.7594E-03  0.3667E-04  0.3751E-04  0.3667E-04  0.3751E-04  0.2202E-04  0.3284E-04  0.3667E-04  0.3751E-04  0.2202E-04  0.3284E-04
      1.696  0.4902E-01  0.5338E-01  0.1924E-02  0.2126E-02  0.1924E-02  0.2126E-02  0.1924E-02  0.2126E-02  0.1437E-03  0.1405E-03  0.1437E-03  0.1405E-03  0.1262E-03  0.1198E-03  0.1437E-03  0.1405E-03  0.1262E-03  0.1198E-03
      1.894  0.3066E-01  0.2066E-01  0.1223E-02  0.8327E-03  0.1223E-02  0.8327E-03  0.1223E-02  0.8327E-03  0.1273E-03  0.7867E-04  0.1273E-03  0.7867E-04  0.4988E-04  0.2455E-04  0.1273E-03  0.7867E-04  0.4988E-04  0.2455E-04
      2.092  0.2052E-02  0.2946E-02  0.1351E-03  0.1913E-03  0.1351E-03  0.1913E-03  0.1351E-03  0.1913E-03 -0.2000E-04 -0.2590E-04 -0.2000E-04 -0.2590E-04  0.6174E-04  0.7867E-04 -0.2000E-04 -0.2590E-04  0.6174E-04  0.7867E-04
      2.290  0.1164E-01  0.1502E-01  0.7052E-03  0.9524E-03  0.7052E-03  0.9524E-03  0.7052E-03  0.9524E-03  0.4911E-04  0.9579E-04  0.4911E-04  0.9579E-04  0.1379E-03  0.1202E-03  0.4911E-04  0.9579E-04  0.1379E-03  0.1202E-03
      2.488  0.5970E-01  0.6660E-01  0.4139E-02  0.4692E-02  0.4139E-02  0.4692E-02  0.4139E-02  0.4692E-02  0.7614E-03  0.6883E-03  0.7614E-03  0.6883E-03  0.3937E-03  0.4151E-03  0.7614E-03  0.6883E-03  0.3937E-03  0.4151E-03
      2.686  0.4792E-01  0.3873E-01  0.3430E-02  0.2819E-02  0.3430E-02  0.2819E-02  0.3430E-02  0.2819E-02  0.5102E-03  0.3436E-03  0.5102E-03  0.3436E-03  0.4745E-03  0.3541E-03  0.5102E-03  0.3436E-03  0.4745E-03  0.3541E-03
      2.884  0.2709E-01  0.2844E-01  0.2270E-02  0.2447E-02  0.2270E-02  0.2447E-02  0.2270E-02  0.2447E-02  0.8099E-03  0.6964E-03  0.8099E-03  0.6964E-03  0.2140E-03  0.1969E-03  0.8099E-03  0.6964E-03  0.2140E-03  0.1969E-03
      3.082  0.4476E-01  0.4506E-01  0.4042E-02  0.4195E-02  0.4042E-02  0.4195E-02  0.4042E-02  0.4195E-02  0.1298E-02  0.9733E-03  0.1298E-02  0.9733E-03  0.9699E-03  0.9462E-03  0.1298E-02  0.9733E-03  0.9699E-03  0.9462E-03
      3.280  0.3968E-01  0.3839E-01  0.3909E-02  0.3835E-02  0.3909E-02  0.3835E-02  0.3909E-02  0.3835E-02  0.7426E-03  0.5873E-03  0.7426E-03  0.5873E-03  0.1728E-02  0.1400E-02  0.7426E-03  0.5873E-03  0.1728E-02  0.1400E-02
      3.478  0.2701E-02  0.2185E-02  0.2777E-03  0.2351E-03  0.2777E-03  0.2351E-03  0.2777E-03  0.2351E-03 -0.7882E-04 -0.9506E-05 -0.7882E-04 -0.9506E-05  0.6502E-04  0.1628E-04 -0.7882E-04 -0.9506E-05  0.6502E-04  0.1628E-04
      3.676  0.3347E-01  0.2652E-01  0.4160E-02  0.3381E-02  0.4160E-02  0.3381E-02  0.4160E-02  0.3381E-02  0.2273E-02  0.1242E-02  0.2273E-02  0.1242E-02  0.8729E-03  0.5834E-03  0.2273E-02  0.1242E-02  0.8729E-03  0.5834E-03
      3.874  0.9942E-01  0.9926E-01  0.1249E-01  0.1286E-01  0.1249E-01  0.1286E-01  0.1249E-01  0.1286E-01  0.7531E-02  0.5789E-02  0.7531E-02  0.5789E-02  0.4000E-02  0.3420E-02  0.7531E-02  0.5789E-02  0.4000E-02  0.3420E-02
      4.072  0.4283E-01  0.4388E-01  0.5711E-02  0.5912E-02  0.5711E-02  0.5912E-02  0.5711E-02  0.5912E-02  0.3740E-02  0.2280E-02  0.3740E-02  0.2280E-02  0.3527E-02  0.2548E-02  0.3740E-02  0.2280E-02  0.3527E-02  0.2548E-02
      4.270  0.5805E-01  0.4452E-01  0.7873E-02  0.6618E-02  0.7873E-02  0.6618E-02  0.7873E-02  0.6618E-02  0.9708E-02  0.4156E-02  0.9708E-02  0.4156E-02  0.5894E-02  0.4597E-02  0.9708E-02  0.4156E-02  0.5894E-02  0.4597E-02
      4.468  0.3388E-01  0.5190E-01  0.5043E-02  0.7477E-02  0.5043E-02  0.7477E-02  0.5043E-02  0.7477E-02  0.4366E-02  0.7546E-02  0.4366E-02  0.7546E-02  0.5351E-02  0.3799E-02  0.4366E-02  0.7546E-02  0.5351E-02  0.3799E-02
      4.666  0.3739E-01  0.1984E-01  0.5090E-02  0.3314E-02  0.5090E-02  0.3314E-02  0.5090E-02  0.3314E-02  0.1528E-01  0.1121E-02  0.1528E-01  0.1121E-02  0.1117E-01  0.5959E-02  0.1528E-01  0.1121E-02  0.1117E-01  0.5959E-02
      4.864  0.1007E+00  0.3472E-01  0.1388E-01  0.6411E-02  0.1388E-01  0.6411E-02  0.1388E-01  0.6411E-02  0.5801E-01  0.5913E-02  0.5801E-01  0.5913E-02  0.2210E-01  0.9733E-02  0.5801E-01  0.5913E-02  0.2210E-01  0.9733E-02
      5.062  0.1016E+00  0.1035E+00  0.1756E-01  0.1740E-01  0.1756E-01  0.1740E-01  0.1756E-01  0.1740E-01  0.4463E-01  0.3882E-01  0.4463E-01  0.3882E-01  0.9143E-01  0.9463E-02  0.4463E-01  0.3882E-01  0.9143E-01  0.9463E-02
      5.260  0.7824E-01  0.9957E-01  0.1368E-01  0.1702E-01  0.1368E-01  0.1702E-01  0.1368E-01  0.1702E-01  0.6081E-01  0.4026E-01  0.6081E-01  0.4026E-01  0.1034E+00  0.5647E-01  0.6081E-01  0.4026E-01  0.1034E+00  0.5647E-01
      5.458  0.3972E-01  0.6456E-01  0.7241E-02  0.1162E-01  0.7241E-02  0.1162E-01  0.7241E-02  0.1162E-01  0.7699E-01  0.2722E-01  0.7699E-01  0.2722E-01  0.1016E+00  0.9169E-01  0.7699E-01  0.2722E-01  0.1016E+00  0.9169E-01
      5.656  0.4997E-01  0.4950E-01  0.1615E-01  0.7867E-02  0.1615E-01  0.7867E-02  0.1615E-01  0.7867E-02  0.1613E+00  0.4638E-01  0.1613E+00  0.4638E-01  0.1106E+00  0.7459E-01  0.1613E+00  0.4638E-01  0.1106E+00  0.7459E-01
      5.854  0.4070E-01  0.5057E-01  0.1904E-01  0.1231E-01  0.1904E-01  0.1231E-01  0.1904E-01  0.1231E-01  0.2063E+00  0.5110E-01  0.2063E+00  0.5110E-01  0.1326E+00  0.1016E+00  0.2063E+00  0.5110E-01  0.1326E+00  0.1016E+00
      6.053  0.7515E-02  0.5801E-01  0.1642E-01  0.2045E-01  0.1642E-01  0.2045E-01  0.1642E-01  0.2045E-01  0.1665E+00  0.9534E-01  0.1665E+00  0.9534E-01  0.1007E+00  0.1111E+00  0.1665E+00  0.9534E-01  0.1007E+00  0.1111E+00
      6.251  0.5242E-02  0.2743E-01  0.1822E-01  0.1432E-01  0.1822E-01  0.1432E-01  0.1822E-01  0.1432E-01  0.1743E+00  0.1494E+00  0.1743E+00  0.1494E+00  0.1141E+00  0.1292E+00  0.1743E+00  0.1494E+00  0.1141E+00  0.1292E+00
      6.449  0.2098E-02  0.1201E-01  0.1611E-01  0.1740E-01  0.1611E-01  0.1740E-01  0.1611E-01  0.1740E-01  0.1359E+00  0.1784E+00  0.1359E+00  0.1784E+00  0.1293E+00  0.7659E-01  0.1359E+00  0.1784E+00  0.1293E+00  0.7659E-01
      6.647  0.5897E-02  0.5469E-02  0.2115E-01  0.1854E-01  0.2115E-01  0.1854E-01  0.2115E-01  0.1854E-01  0.2127E+00  0.1668E+00  0.2127E+00  0.1668E+00  0.1083E+00  0.9275E-01  0.2127E+00  0.1668E+00  0.1083E+00  0.9275E-01
      6.845  0.1231E-01  0.4309E-02  0.2703E-01  0.1900E-01  0.2703E-01  0.1900E-01  0.2703E-01  0.1900E-01  0.2627E+00  0.1627E+00  0.2627E+00  0.1627E+00  0.1337E+00  0.1138E+00  0.2627E+00  0.1627E+00  0.1337E+00  0.1138E+00
      7.043  0.1249E-01  0.1306E-02  0.2269E-01  0.1531E-01  0.2269E-01  0.1531E-01  0.2269E-01  0.1531E-01  0.2497E+00  0.1349E+00  0.2497E+00  0.1349E+00  0.1472E+00  0.8150E-01  0.2497E+00  0.1349E+00  0.1472E+00  0.8150E-01
      7.241  0.1040E-01  0.6842E-02  0.2165E-01  0.2992E-01  0.2165E-01  0.2992E-01  0.2165E-01  0.2992E-01  0.2841E+00  0.2416E+00  0.2841E+00  0.2416E+00  0.2127E+00  0.1235E+00  0.2841E+00  0.2416E+00  0.2127E+00  0.1235E+00
      7.439  0.1186E-01  0.8865E-02  0.2433E-01  0.2381E-01  0.2433E-01  0.2381E-01  0.2433E-01  0.2381E-01  0.3569E+00  0.2338E+00  0.3569E+00  0.2338E+00  0.2318E+00  0.8451E-01  0.3569E+00  0.2338E+00  0.2318E+00  0.8451E-01
      7.637  0.1481E-01  0.1205E-01  0.1966E-01  0.2595E-01  0.1966E-01  0.2595E-01  0.1966E-01  0.2595E-01  0.2662E+00  0.2506E+00  0.2662E+00  0.2506E+00  0.2056E+00  0.1594E+00  0.2662E+00  0.2506E+00  0.2056E+00  0.1594E+00