    1    1    1    2
  0.1071875E+02  0.2474874E-09  0.2474874E-09  0.2474874E-09  0.5000000E-15
  1.000000000000000E-004
  CAR 
 fcc Ni                                  
     10     56     12
 
  0.0000000E+00  0.0000000E+00  0.0000000E+00  0.7513148E-03
      1          0.477571        0.435411   1.000000   1.000000
      2          7.148281        7.822096   1.000000   1.000000
      3          7.148284        7.822098   1.000000   1.000000
      4          7.148287        7.822100   1.000000   1.000000
      5          8.325381        8.903847   1.000000   1.000013
      6          8.325381        8.903847   1.000000   1.000013
      7         33.475814       33.316151   0.000000   0.000000
      8         37.436394       37.408118   0.000000   0.000000
      9         37.436633       37.408326   0.000000   0.000000
     10         37.436633       37.408329   0.000000   0.000000
     11         40.579417       40.643288   0.000000   0.000000
     12         40.579525       40.643361   0.000000   0.000000
 
  0.9090909E-01  0.2906225E-17 -0.4032669E-17  0.6010518E-02
      1          0.802968        0.761261   1.000000   1.000000
      2          7.067100        7.730555   1.000000   1.000000
      3          7.218960        7.894863   1.000000   1.000000
      4          7.218978        7.894873   1.000000   1.000000
      5          8.297694        8.874674   1.000000   1.000005
      6          8.297708        8.874687   1.000000   1.000005
      7         32.137525       32.090333   0.000000   0.000000
      8         34.934414       34.857609   0.000000   0.000000
      9         36.805063       36.815023   0.000000   0.000000
     10         36.805311       36.815243   0.000000   0.000000
     11         41.546461       41.561334   0.000000   0.000000
     12         41.546721       41.561440   0.000000   0.000000
 
  0.1818182E+00  0.9281897E-17 -0.4595891E-17  0.6010518E-02
      1          1.736031        1.699765   1.000000   1.000000
      2          6.887274        7.517447   1.000000   1.000000
      3          7.352959        8.019425   1.000000   1.000000
      4          7.353024        8.019480   1.000000   1.000000
      5          8.291584        8.880449   1.000000   1.000006
      6          8.291641        8.880503   1.000000   1.000006
      7         27.694157       27.759774   0.000000   0.000000
      8         34.147765       34.021156   0.000000   0.000000
      9         35.880782       35.929547   0.000000   0.000000
     10         35.881029       35.929773   0.000000   0.000000
     11         41.570808       41.510585   0.000000   0.000000
     12         42.298924       42.270504   0.000000   0.000000
 
  0.2727273E+00 -0.1036328E-16 -0.1036328E-16  0.6010518E-02
      1          3.084758        3.087881   1.000000   1.000000
      2          6.844891        7.390433   1.000000   1.000000
      3          7.362628        7.988731   1.000000   1.000000
      4          7.362728        7.988812   1.000000   1.000000
      5          8.467360        9.102979   1.000000   1.002372
      6          8.467453        9.103060   1.000000   1.002376
      7         23.083879       23.212943   0.000000   0.000000
      8         33.371215       33.237843   0.000000   0.000000
      9         35.183300       35.254119   0.000000   0.000000
     10         35.183464       35.254290   0.000000   0.000000
     11         40.466493       40.477667   0.000000   0.000000
     12         40.466671       40.477831   0.000000   0.000000
 
  0.3636364E+00  0.2897213E-16  0.1216559E-17  0.6010518E-02
      1          4.250637        4.428042   1.000000   1.000000
      2          7.252947        7.788500   1.000000   1.000000
      3          7.253067        7.847908   1.000000   1.000000
      4          7.489307        7.848003   1.000000   1.000000
      5          8.768898        9.444907   1.000000   0.929849
      6          8.769004        9.445000   1.000000   0.929652
      7         18.941997       19.151484   0.000000   0.000000
      8         32.529126       32.386759   0.000000   0.000000
      9         34.746562       34.824461   0.000000   0.000000
     10         34.746572       34.824525   0.000000   0.000000
     11         38.646734       38.668611   0.000000   0.000000
     12         38.647251       38.669037   0.000000   0.000000
 
  0.4545455E+00  0.5857508E-17  0.5857508E-17  0.6010518E-02
      1          4.659023        5.020815   1.000000   1.000000
      2          7.167090        7.748018   1.000000   1.000000
      3          7.167201        7.748108   1.000000   1.000000
      4          8.933208        8.925475   1.000033   1.000026
      5          8.983712        9.680429   1.000139   0.101140
      6          8.983818        9.680521   1.000139   0.100913
      7         15.902961       16.237979   0.000000   0.000000
      8         32.020929       31.871855   0.000000   0.000000
      9         34.561599       34.635801   0.000000   0.000000
     10         34.561780       34.635878   0.000000   0.000000
     11         37.684287       37.709555   0.000000   0.000000
     12         37.685019       37.710146   0.000000   0.000000
 
  0.9090909E-01  0.9090909E-01  0.2584837E-17  0.4507889E-02
      1          0.910719        0.869076   1.000000   1.000000
      2          6.993983        7.655704   1.000000   1.000000
      3          7.271534        7.949005   1.000000   1.000000
      4          7.271535        7.949009   1.000000   1.000000
      5          8.185157        8.754531   1.000000   1.000000
      6          8.381484        8.961911   1.000000   1.000076
      7         32.702434       32.605423   0.000000   0.000000
      8         34.871138       34.909713   0.000000   0.000000
      9         34.871266       34.909833   0.000000   0.000000
     10         35.698029       35.632854   0.000000   0.000000
     11         42.303519       42.317769   0.000000   0.000000
     12         43.067260       43.040101   0.000000   0.000000
 
  0.1818182E+00  0.9090909E-01 -0.4900031E-17  0.1803156E-01
      1          1.640406        1.601865   1.000000   1.000000
      2          6.810106        7.451785   1.000000   1.000000
      3          7.407777        8.078432   1.000000   1.000000
      4          7.418366        8.094355   1.000000   1.000000
      5          8.080694        8.650745   1.000000   1.000000
      6          8.436160        9.024674   1.000000   1.000403
      7         29.474411       29.516587   0.000000   0.000000
      8         33.206481       33.138186   0.000000   0.000000
      9         33.366682       33.424315   0.000000   0.000000
     10         36.734915       36.682581   0.000000   0.000000
     11         40.443716       40.544126   0.000000   0.000000
     12         42.781036       42.854064   0.000000   0.000000
 
  0.2727273E+00  0.9090909E-01 -0.4595891E-17  0.1803156E-01
      1          2.866391        2.849998   1.000000   1.000000
      2          6.660278        7.254831   1.000000   1.000000
      3          7.387410        7.999412   1.000000   1.000000
      4          7.493087        8.139556   1.000000   1.000000
      5          8.275115        8.893645   1.000000   1.000010
      6          8.590958        9.216217   1.000000   1.015775
      7         24.804497       24.908233   0.000000   0.000000
      8         32.381352       32.388025   0.000000   0.000000
      9         32.462793       32.448401   0.000000   0.000000
     10         36.556230       36.601767   0.000000   0.000000
     11         39.779346       39.773684   0.000000   0.000000
     12         42.538736       42.580091   0.000000   0.000000
 
  0.3636364E+00  0.9090909E-01  0.4514787E-16  0.1803156E-01
      1          4.160984        4.265292   1.000000   1.000000
      2          6.857883        7.313845   1.000000   1.000000
      3          7.208164        7.794590   1.000000   1.000000
      4          7.421828        8.032816   1.000000   1.000000
      5          8.838933        9.462376   1.000002   0.888784
      6          8.848146        9.508203   1.000002   0.746010
      7         20.439706       20.610090   0.000000   0.000000
      8         31.641157       31.558358   0.000000   0.000000
      9         31.937164       32.005479   0.000000   0.000000
     10         34.658923       34.745318   0.000000   0.000000
     11         40.070346       40.041079   0.000000   0.000000
     12         41.957245       41.964996   0.000000   0.000000
 
  0.4545455E+00  0.9090909E-01  0.4631937E-16  0.1803156E-01
      1          4.780834        5.111787   1.000000   1.000000
      2          7.049301        7.561245   1.000000   1.000000
      3          7.318618        7.907959   1.000000   1.000000
      4          7.656288        8.037090   1.000000   1.000000
      5          9.013709        9.708746   1.000305   0.041280
      6          9.853476       10.302101  -0.031004  -0.000001
      7         16.846888       17.120570   0.000000   0.000000
      8         30.801704       30.735242   0.000000   0.000000
      9         32.137591       32.202915   0.000000   0.000000
     10         33.370592       33.426106   0.000000   0.000000
     11         39.989765       39.972739   0.000000   0.000000
     12         40.443328       40.465367   0.000000   0.000000
 
 -0.4545455E+00  0.9090909E-01  0.1378767E-16  0.1803156E-01
      1          4.873400        5.265723   1.000000   1.000000
      2          7.022820        7.556120   1.000000   1.000000
      3          7.272687        7.853767   1.000000   1.000000
      4          8.004703        8.373955   1.000000   1.000000
      5          8.969546        9.669854   1.000094   0.128670
      6         10.550421       10.856215  -0.000000  -0.000000
      7         15.504544       15.859961   0.000000   0.000000
      8         30.044581       30.021604   0.000000   0.000000
      9         33.030109       33.028059   0.000000   0.000000
     10         33.052288       33.118626   0.000000   0.000000
     11         39.351260       39.383130   0.000000   0.000000
     12         40.043165       40.036743   0.000000   0.000000
 
 -0.3636364E+00  0.9090909E-01  0.1495917E-16  0.1803156E-01
      1          4.668760        4.933691   1.000000   1.000000
      2          7.116671        7.643039   1.000000   1.000000
      3          7.325967        7.821009   1.000000   1.000000
      4          7.448896        7.911291   1.000000   1.000000
      5          8.707467        9.392629   1.000000   1.008504
      6          9.637877       10.195345   0.228234  -0.000044
      7         17.923725       18.157622   0.000000   0.000000
      8         29.652386       29.662714   0.000000   0.000000
      9         33.560582       33.520333   0.000000   0.000000
     10         34.731671       34.804615   0.000000   0.000000
     11         38.809116       38.839662   0.000000   0.000000
     12         40.204593       40.194759   0.000000   0.000000
 
 -0.2727273E+00  0.9090909E-01  0.5082514E-16  0.1803156E-01
      1          3.779095        3.822276   1.000000   1.000000
      2          6.770023        7.291285   1.000000   1.000000
      3          7.275621        7.867496   1.000000   1.000000
      4          7.444832        8.053848   1.000000   1.000000
      5          8.334047        8.983884   1.000000   1.000139
      6          8.985010        9.625644   1.000144   0.272142
      7         21.842539       21.989415   0.000000   0.000000
      8         29.738268       29.765042   0.000000   0.000000
      9         34.779110       34.722857   0.000000   0.000000
     10         37.093747       37.175539   0.000000   0.000000
     11         38.640554       38.663153   0.000000   0.000000
     12         39.843510       39.810764   0.000000   0.000000
 
 -0.1818182E+00  0.9090909E-01  0.1036328E-16  0.1803156E-01
      1          2.420213        2.391773   1.000000   1.000000
      2          6.734312        7.350113   1.000000   1.000000
      3          7.384560        8.016633   1.000000   1.000000
      4          7.484450        8.152279   1.000000   1.000000
      5          8.089514        8.673344   1.000000   1.000000
      6          8.584147        9.203782   1.000000   1.013374
      7         26.332883       26.418701   0.000000   0.000000
      8         30.301557       30.328029   0.000000   0.000000
      9         36.257147       36.189037   0.000000   0.000000
     10         38.788675       38.787772   0.000000   0.000000
     11         39.026014       38.973414   0.000000   0.000000
     12         39.944651       40.021937   0.000000   0.000000
 
 -0.9090909E-01  0.9090909E-01 -0.5812450E-17  0.9015778E-02
      1          1.331936        1.291865   1.000000   1.000000
      2          6.922813        7.572396   1.000000   1.000000
      3          7.324740        8.001886   1.000000   1.000000
      4          7.334284        8.007131   1.000000   1.000000
      5          8.157912        8.725667   1.000000   1.000000
      6          8.385828        8.973426   1.000000   1.000104
      7         30.618575       30.632100   0.000000   0.000000
      8         31.771845       31.788362   0.000000   0.000000
      9         36.337052       36.265718   0.000000   0.000000
     10         38.636446       38.604211   0.000000   0.000000
     11         39.811958       39.768777   0.000000   0.000000
     12         40.933477       40.986921   0.000000   0.000000
 
  0.1818182E+00  0.1818182E+00 -0.5238668E-17  0.4507889E-02
      1          2.139207        2.103748   1.000000   1.000000
      2          6.589550        7.221000   1.000000   1.000000
      3          7.623808        8.313515   1.000000   1.000000
      4          7.623811        8.313517   1.000000   1.000000
      5          7.858562        8.396382   1.000000   1.000000
      6          8.533524        9.119322   1.000000   1.003281
      7         31.419445       31.442405   0.000000   0.000000
      8         31.419557       31.481104   0.000000   0.000000
      9         31.452848       31.481213   0.000000   0.000000
     10         32.814422       32.740059   0.000000   0.000000
     11         38.292207       38.487784   0.000000   0.000000
     12         46.316480       46.275731   0.000000   0.000000
 
  0.2727273E+00  0.1818182E+00 -0.4032669E-17  0.1803156E-01
      1          3.140273        3.124123   1.000000   1.000000
      2          6.363600        6.972083   1.000000   1.000000
      3          7.488934        8.055613   1.000000   1.000000
      4          7.800615        8.477704   1.000000   1.000000
      5          8.172793        8.808054   1.000000   1.000001
      6          8.669890        9.279952   1.000000   1.029925
      7         26.905876       26.981791   0.000000   0.000000
      8         30.072506       30.134061   0.000000   0.000000
      9         31.053526       31.023306   0.000000   0.000000
     10         32.997475       33.030219   0.000000   0.000000
     11         37.435203       37.580061   0.000000   0.000000
     12         45.738139       45.668475   0.000000   0.000000
 
  0.3636364E+00  0.1818182E+00  0.1969024E-16  0.1803156E-01
      1          4.349613        4.417520   1.000000   1.000000
      2          6.281314        6.834988   1.000000   1.000000
      3          7.193491        7.744300   1.000000   1.000000
      4          7.798198        8.435081   1.000000   1.000000
      5          8.891695        9.552503   1.000009   0.571233
      6          9.023830        9.610634   1.000394   0.329587
      7         22.418533       22.544244   0.000000   0.000000
      8         29.383875       29.394936   0.000000   0.000000
      9         29.387851       29.443141   0.000000   0.000000
     10         32.561089       32.624656   0.000000   0.000000
     11         40.025427       40.097767   0.000000   0.000000
     12         44.763375       44.700507   0.000000   0.000000
 
  0.4545455E+00  0.1818182E+00 -0.1383273E-16  0.1803156E-01
      1          5.124132        5.418422   1.000000   1.000000
      2          6.492414        6.911817   1.000000   1.000000
      3          7.083789        7.637273   1.000000   1.000000
      4          7.700830        8.306913   1.000000   1.000000
      5          9.044398        9.739639   1.000651  -0.002006
      6         10.483620       10.921375  -0.000000  -0.000000
      7         18.423971       18.619209   0.000000   0.000000
      8         27.665140       27.705518   0.000000   0.000000
      9         29.454683       29.511534   0.000000   0.000000
     10         32.182800       32.220222   0.000000   0.000000
     11         43.331062       43.324713   0.000000   0.000000
     12         44.100947       44.104603   0.000000   0.000000
 
 -0.4545455E+00  0.1818182E+00  0.1955506E-16  0.1803156E-01
      1          5.328831        5.756339   1.000000   1.000000
      2          6.612575        7.016902   1.000000   1.000000
      3          7.269815        7.786537   1.000000   1.000000
      4          7.616631        8.204517   1.000000   1.000000
      5          8.977519        9.684647   1.000117   0.090944
      6         12.191798       12.446522  -0.000000  -0.000000
      7         15.726180       16.038080   0.000000   0.000000
      8         26.296903       26.357452   0.000000   0.000000
      9         30.316088       30.375985   0.000000   0.000000
     10         32.245298       32.250100   0.000000   0.000000
     11         42.866210       42.881241   0.000000   0.000000
     12         43.145169       43.102407   0.000000   0.000000
 
 -0.3636364E+00  0.1818182E+00  0.1378767E-16  0.1803156E-01
      1          5.302181        5.660766   1.000000   1.000000
      2          6.748651        7.178124   1.000000   1.000000
      3          7.079293        7.579771   1.000000   1.000000
      4          7.609452        8.188669   1.000000   1.000000
      5          8.679861        9.381286   1.000000   1.017813
      6         11.296322       11.694943  -0.000000  -0.000000
      7         17.325891       17.563268   0.000000   0.000000
      8         25.460445       25.534062   0.000000   0.000000
      9         31.948159       32.015130   0.000000   0.000000
     10         32.855866       32.835000   0.000000   0.000000
     11         42.127201       42.150003   0.000000   0.000000
     12         42.352226       42.299329   0.000000   0.000000
 
 -0.2727273E+00  0.1818182E+00 -0.5857508E-17  0.1803156E-01
      1          4.785749        4.904199   1.000000   1.000000
      2          6.589190        7.119907   1.000000   1.000000
      3          7.001109        7.539616   1.000000   1.000000
      4          7.700081        8.279003   1.000000   1.000000
      5          8.248116        8.934003   1.000000   1.000034
      6          9.934610       10.516194  -0.013451  -0.000000
      7         21.065572       21.220583   0.000000   0.000000
      8         25.240638       25.321033   0.000000   0.000000
      9         34.089533       34.053723   0.000000   0.000000
     10         34.240276       34.310501   0.000000   0.000000
     11         40.906937       40.828381   0.000000   0.000000
     12         41.948328       41.976054   0.000000   0.000000
 
 -0.1818182E+00  0.1818182E+00  0.9191782E-17  0.9015778E-02
      1          3.574397        3.573266   1.000000   1.000000
      2          6.545836        7.144290   1.000000   1.000000
      3          7.257680        7.837955   1.000000   1.000000
      4          7.788034        8.445802   1.000000   1.000000
      5          7.896381        8.492916   1.000000   1.000000
      6          9.108145        9.743810   1.002632  -0.006249
      7         25.116810       25.234374   0.000000   0.000000
      8         25.918313       25.979907   0.000000   0.000000
      9         35.859619       35.819061   0.000000   0.000000
     10         36.965816       37.019913   0.000000   0.000000
     11         38.961051       38.867602   0.000000   0.000000
     12         42.157004       42.181080   0.000000   0.000000
 
  0.2727273E+00  0.2727273E+00 -0.2653831E-17  0.4507889E-02
      1          3.800691        3.820122   1.000000   1.000000
      2          6.082857        6.678759   1.000000   1.000000
      3          7.767601        8.211107   1.000000   1.000000
      4          8.154839        8.866284   1.000000   1.000004
      5          8.154840        8.866288   1.000000   1.000004
      6          8.739801        9.332583   1.000000   1.035189
      7         28.366689       28.419816   0.000000   0.000000
      8         28.366787       28.419916   0.000000   0.000000
      9         28.717791       28.730668   0.000000   0.000000
     10         30.512035       30.567433   0.000000   0.000000
     11         34.825198       34.976292   0.000000   0.000000
     12         50.047535       49.960580   0.000000   0.000000
 
  0.3636364E+00  0.2727273E+00  0.2198818E-16  0.1803156E-01
      1          4.597647        4.714370   1.000000   1.000000
      2          5.891935        6.468169   1.000000   1.000000
      3          7.665351        8.139999   1.000000   1.000000
      4          8.295856        8.971055   1.000000   1.000098
      5          8.910474        9.555434   1.000016   0.558952
      6          9.033709        9.608996   1.000503   0.336059
      7         24.692008       24.768374   0.000000   0.000000
      8         26.505612       26.576084   0.000000   0.000000
      9         27.363548       27.407710   0.000000   0.000000
     10         31.255734       31.319685   0.000000   0.000000
     11         35.561367       35.667263   0.000000   0.000000
     12         49.795673       49.739917   0.000000   0.000000
 
  0.4545455E+00  0.2727273E+00 -0.2861167E-17  0.1803156E-01
      1          5.220975        5.490907   1.000000   1.000000
      2          5.889173        6.416947   1.000000   1.000000
      3          7.429366        7.938452   1.000000   1.000000
      4          8.231295        8.860613   1.000000   1.000003
      5          9.070342        9.767151   1.001182  -0.023918
      6         10.807008       11.209552  -0.000000  -0.000000
      7         20.620867       20.744269   0.000000   0.000000
      8         24.425516       24.521730   0.000000   0.000000
      9         27.188705       27.228888   0.000000   0.000000
     10         31.466553       31.529645   0.000000   0.000000
     11         38.903237       38.973485   0.000000   0.000000
     12         48.077439       48.061486   0.000000   0.000000
 
 -0.4545455E+00  0.2727273E+00  0.4505775E-17  0.1803156E-01
      1          5.583524        6.012118   1.000000   1.000000
      2          6.050276        6.472501   1.000000   1.000000
      3          7.209739        7.748568   1.000000   1.000000
      4          8.117464        8.715764   1.000000   1.000000
      5          9.004868        9.724913   1.000243   0.015923
      6         13.244457       13.506653  -0.000000  -0.000000
      7         17.062554       17.259182   0.000000   0.000000
      8         22.811189       22.924878   0.000000   0.000000
      9         27.884743       27.930533   0.000000   0.000000
     10         31.617251       31.661454   0.000000   0.000000
     11         43.224914       43.274420   0.000000   0.000000
     12         46.607629       46.597825   0.000000   0.000000
 
 -0.3636364E+00  0.2727273E+00  0.5677277E-17  0.1803156E-01
      1          5.814435        6.277779   1.000000   1.000000
      2          6.262631        6.633336   1.000000   1.000000
      3          6.913161        7.457556   1.000000   1.000000
      4          8.026162        8.596300   1.000000   1.000000
      5          8.715377        9.445069   1.000000   0.929503
      6         13.495993       13.767080  -0.000000  -0.000000
      7         16.965597       17.181989   0.000000   0.000000
      8         21.789063       21.912020   0.000000   0.000000
      9         29.393558       29.451430   0.000000   0.000000
     10         32.069048       32.086964   0.000000   0.000000
     11         45.516255       45.463900   0.000000   0.000000
     12         45.542559       45.507284   0.000000   0.000000
 
 -0.2727273E+00  0.2727273E+00  0.2072657E-16  0.9015778E-02
      1          5.662405        5.921971   1.000000   1.000000
      2          6.559084        7.075425   1.000000   1.000000
      3          6.608935        7.115193   1.000000   1.000000
      4          7.937943        8.484245   1.000000   1.000000
      5          8.362109        9.095542   1.000000   1.002035
      6         11.405525       11.848509  -0.000000  -0.000000
      7         20.077740       20.245073   0.000000   0.000000
      8         21.853315       21.966499   0.000000   0.000000
      9         31.568306       31.636591   0.000000   0.000000
     10         32.926750       32.917643   0.000000   0.000000
     11         43.350516       43.255296   0.000000   0.000000
     12         44.482370       44.473070   0.000000   0.000000
 
  0.3636364E+00  0.3636364E+00  0.2421713E-16  0.4507889E-02
      1          4.781178        4.999697   1.000000   1.000000
      2          5.632831        6.200210   1.000000   1.000000
      3          8.715871        9.246475   1.000000   1.022390
      4          8.715875        9.458537   1.000000   0.898469
      5          8.921996        9.458547   1.000023   0.898444
      6          9.057858        9.522362   1.000891   0.693078
      7         23.768931       23.876794   0.000000   0.000000
      8         26.022980       26.050901   0.000000   0.000000
      9         26.023081       26.051004   0.000000   0.000000
     10         29.875174       29.978709   0.000000   0.000000
     11         33.572529       33.693429   0.000000   0.000000
     12         54.082968       54.078465   0.000000   0.000000
 
  0.4545455E+00  0.3636364E+00  0.1591665E-16  0.1803156E-01
      1          4.989757        5.287391   1.000000   1.000000
      2          5.543015        6.097746   1.000000   1.000000
      3          8.423667        8.999346   1.000000   1.000210
      4          8.749047        9.394975   1.000000   1.006272
      5          9.080022        9.788608   1.001463  -0.032436
      6         10.948302       11.204533  -0.000000  -0.000000
      7         21.602078       21.747371   0.000000   0.000000
      8         23.255320       23.318840   0.000000   0.000000
      9         25.541547       25.560522   0.000000   0.000000
     10         30.652332       30.741461   0.000000   0.000000
     11         34.770835       34.872451   0.000000   0.000000
     12         52.090215       52.064477   0.000000   0.000000
 
 -0.4545455E+00  0.3636364E+00 -0.3604620E-17  0.1803156E-01
      1          5.282076        5.637060   1.000000   1.000000
      2          5.650233        6.179857   1.000000   1.000000
      3          7.911509        8.473639   1.000000   1.000000
      4          8.631755        9.233556   1.000000   1.019461
      5          9.052450        9.797624   1.000786  -0.034253
      6         13.407913       13.606379  -0.000000  -0.000000
      7         19.399815       19.524777   0.000000   0.000000
      8         20.333378       20.494845   0.000000   0.000000
      9         26.004090       26.028899   0.000000   0.000000
     10         31.121283       31.198243   0.000000   0.000000
     11         38.392475       38.467341   0.000000   0.000000
     12         50.189948       50.158847   0.000000   0.000000
 
 -0.3636364E+00  0.3636364E+00 -0.2433119E-17  0.9015778E-02
      1          5.656783        6.079122   1.000000   1.000000
      2          5.899920        6.361102   1.000000   1.000000
      3          7.320628        7.868557   1.000000   1.000000
      4          8.416126        8.982851   1.000000   1.000135
      5          8.855271        9.612775   1.000003   0.321179
      6         15.851798       16.028806   0.000000   0.000000
      7         16.242008       16.418802   0.000000   0.000000
      8         19.825545       20.003059   0.000000   0.000000
      9         27.348705       27.389938   0.000000   0.000000
     10         31.508898       31.560864   0.000000   0.000000
     11         43.095602       43.152948   0.000000   0.000000
     12         48.232312       48.197454   0.000000   0.000000
 
  0.4545455E+00  0.4545455E+00  0.1639363E-16  0.4507889E-02
      1          4.867144        5.190911   1.000000   1.000000
      2          5.376457        5.927961   1.000000   1.000000
      3          9.034291        9.639017   1.000510   0.224293
      4          9.103001        9.871697   1.002373  -0.027137
      5          9.103005        9.871708   1.002373  -0.027135
      6         11.486345       11.481144  -0.000000  -0.000000
      7         19.709302       19.913722   0.000000   0.000000
      8         24.728688       24.732290   0.000000   0.000000
      9         24.728793       24.732399   0.000000   0.000000
     10         29.604060       29.729852   0.000000   0.000000
     11         33.192448       33.313113   0.000000   0.000000
     12         54.446102       54.425730   0.000000   0.000000
 
 -0.4545455E+00  0.4545455E+00 -0.1171502E-16  0.9015778E-02
      1          4.971294        5.309407   1.000000   1.000000
      2          5.418071        5.965123   1.000000   1.000000
      3          8.735222        9.391476   1.000000   1.009562
      4          8.958896        9.557773   1.000069   0.549123
      5          9.125810        9.896683   1.003715  -0.021392
      6         12.691121       12.761253  -0.000000  -0.000000
      7         19.009165       19.238211   0.000000   0.000000
      8         22.669123       22.716997   0.000000   0.000000
      9         24.893740       24.900050   0.000000   0.000000
     10         30.509881       30.607091   0.000000   0.000000