       N       E                     dE             d eps       ncg     rms          rms(c)
DAV:   1     0.169021108869E+02    0.16902E+02   -0.30512E+03  3008   0.634E+02
DAV:   2    -0.605083386030E+01   -0.22953E+02   -0.21590E+02  2916   0.118E+02
DAV:   3    -0.647832493375E+01   -0.42749E+00   -0.42636E+00  3084   0.181E+01
DAV:   4    -0.648055562810E+01   -0.22307E-02   -0.22305E-02  3072   0.115E+00
DAV:   5    -0.648058475913E+01   -0.29131E-04   -0.29131E-04  3020   0.125E-01    0.994E+00
DAV:   6    -0.578018020351E+01    0.70040E+00   -0.13751E+01  3316   0.442E+01    0.556E+00
DAV:   7    -0.548259384181E+01    0.29759E+00   -0.23224E+00  3280   0.166E+01    0.184E+00
DAV:   8    -0.546680588471E+01    0.15788E-01   -0.20635E-02  3464   0.121E+00    0.883E-01
DAV:   9    -0.546470801473E+01    0.20979E-02   -0.12197E-03  2956   0.235E-01    0.249E-01
DAV:  10    -0.546417873982E+01    0.52927E-03   -0.56021E-04  2116   0.136E-01    0.369E-02
DAV:  11    -0.546418516261E+01   -0.64228E-05   -0.21070E-05  1448   0.393E-02
   1 F= -.54641852E+01 E0= -.54634843E+01  d E =-.210252E-02  mag=     0.5721
