PROCAR lm decomposed
# of k-points:   56         # of bands:   12         # of ions:    1

 k-point     1 :    0.00000000 0.00000000 0.00000000     weight = 0.00075131

band     1 # energy    0.47757067 # occ.  1.00000000
 
ion      s     py     pz     px    dxy    dyz    dz2    dxz  x2-y2    tot
    1  0.741  0.000  0.000  0.000  0.000  0.000  0.000  0.000  0.000  0.741
 
band     2 # energy    7.14828148 # occ.  1.00000000
 
ion      s     py     pz     px    dxy    dyz    dz2    dxz  x2-y2    tot
    1  0.000  0.000  0.000  0.000  0.279  0.279  0.000  0.420  0.000  0.978
 
band     3 # energy    7.14828418 # occ.  1.00000000
 
ion      s     py     pz     px    dxy    dyz    dz2    dxz  x2-y2    tot
    1  0.000  0.000  0.000  0.000  0.489  0.489  0.000  0.000  0.000  0.978
 
band     4 # energy    7.14828737 # occ.  1.00000000
 
ion      s     py     pz     px    dxy    dyz    dz2    dxz  x2-y2    tot
    1  0.000  0.000  0.000  0.000  0.210  0.210  0.000  0.558  0.000  0.978
 
band     5 # energy    8.32538057 # occ.  1.00000000
 
ion      s     py     pz     px    dxy    dyz    dz2    dxz  x2-y2    tot
    1  0.000  0.000  0.000  0.000  0.000  0.000  0.247  0.000  0.741  0.989
 
band     6 # energy    8.32538125 # occ.  1.00000000
 
ion      s     py     pz     px    dxy    dyz    dz2    dxz  x2-y2    tot
    1  0.000  0.000  0.000  0.000  0.000  0.000  0.741  0.000  0.247  0.989
 
band     7 # energy   33.47581386 # occ.  0.00000000
 
ion      s     py     pz     px    dxy    dyz    dz2    dxz  x2-y2    tot
    1  0.000  0.000  0.000  0.000  0.000  0.000  0.000  0.000  0.000  0.000
 
band     8 # energy   37.43639400 # occ.  0.00000000
 
ion      s     py     pz     px    dxy    dyz    dz2    dxz  x2-y2    tot
    1  0.000  0.122  0.123  0.123  0.000  0.000  0.000  0.000  0.000  0.367
 
band     9 # energy   37.43663280 # occ.  0.00000000
 
ion      s     py     pz     px    dxy    dyz    dz2    dxz  x2-y2    tot
    1  0.000  0.000  0.183  0.183  0.000  0.000  0.000  0.000  0.000  0.367
 
band    10 # energy   37.43663300 # occ.  0.00000000
 
ion      s     py     pz     px    dxy    dyz    dz2    dxz  x2-y2    tot
    1  0.000  0.245  0.061  0.061  0.000  0.000  0.000  0.000  0.000  0.367
 
band    11 # energy   40.57941662 # occ.  0.00000000
 
ion      s     py     pz     px    dxy    dyz    dz2    dxz  x2-y2    tot
    1  0.000  0.000  0.000  0.000  0.119  0.201  0.000  0.948  0.000  1.268
 
band    12 # energy   40.57952512 # occ.  0.00000000
 
ion      s     py     pz     px    dxy    dyz    dz2    dxz  x2-y2    tot
    1  0.000  0.000  0.000  0.000  0.470  0.758  0.000  0.040  0.000  1.268
 

 k-point     2 :    0.09090909 0.00000000-0.00000000     weight = 0.00601052

band     1 # energy    0.80296783 # occ.  1.00000000
 
ion      s     py     pz     px    dxy    dyz    dz2    dxz  x2-y2    tot
    1  0.719  0.007  0.007  0.007  0.000  0.000  0.000  0.000  0.000  0.742
 
band     2 # energy    7.06709992 # occ.  1.00000000
 
ion      s     py     pz     px    dxy    dyz    dz2    dxz  x2-y2    tot
    1  0.000  0.001  0.001  0.001  0.324  0.324  0.000  0.324  0.000  0.974
 
band     3 # energy    7.21896027 # occ.  1.00000000
 
ion      s     py     pz     px    dxy    dyz    dz2    dxz  x2-y2    tot
    1  0.000  0.000  0.000  0.000  0.647  0.133  0.004  0.193  0.000  0.978
 
band     4 # energy    7.21897847 # occ.  1.00000000
 
ion      s     py     pz     px    dxy    dyz    dz2    dxz  x2-y2    tot
    1  0.000  0.000  0.000  0.000  0.002  0.516  0.000  0.455  0.004  0.978
 
band     5 # energy    8.29769398 # occ.  1.00000000
 
ion      s     py     pz     px    dxy    dyz    dz2    dxz  x2-y2    tot
    1  0.000  0.000  0.000  0.000  0.000  0.002  0.000  0.002  0.983  0.987
 
band     6 # energy    8.29770833 # occ.  1.00000000
 
ion      s     py     pz     px    dxy    dyz    dz2    dxz  x2-y2    tot
    1  0.000  0.000  0.000  0.000  0.003  0.001  0.983  0.001  0.000  0.987
 
band     7 # energy   32.13752454 # occ.  0.00000000
 
ion      s     py     pz     px    dxy    dyz    dz2    dxz  x2-y2    tot
    1  0.008  0.038  0.038  0.038  0.106  0.106  0.000  0.106  0.000  0.441
 
band     8 # energy   34.93441383 # occ.  0.00000000
 
ion      s     py     pz     px    dxy    dyz    dz2    dxz  x2-y2    tot
    1  0.027  0.065  0.065  0.065  0.007  0.007  0.000  0.007  0.000  0.242
 
band     9 # energy   36.80506310 # occ.  0.00000000
 
ion      s     py     pz     px    dxy    dyz    dz2    dxz  x2-y2    tot
    1  0.000  0.056  0.224  0.056  0.161  0.040  0.024  0.040  0.000  0.603
 
band    10 # energy   36.80531140 # occ.  0.00000000
 
ion      s     py     pz     px    dxy    dyz    dz2    dxz  x2-y2    tot
    1  0.000  0.168  0.000  0.168  0.000  0.121  0.000  0.121  0.024  0.603
 
band    11 # energy   41.54646139 # occ.  0.00000000
 
ion      s     py     pz     px    dxy    dyz    dz2    dxz  x2-y2    tot
    1  0.000  0.003  0.008  0.003  0.548  0.173  0.021  0.202  0.003  0.961
 
band    12 # energy   41.54672052 # occ.  0.00000000
 
ion      s     py     pz     px    dxy    dyz    dz2    dxz  x2-y2    tot
    1  0.000  0.005  0.001  0.007  0.066  0.465  0.003  0.391  0.021  0.960
 

 k-point     3 :    0.18181818 0.00000000-0.00000000     weight = 0.00601052

band     1 # energy    1.73603115 # occ.  1.00000000
 
ion      s     py     pz     px    dxy    dyz    dz2    dxz  x2-y2    tot
    1  0.651  0.027  0.027  0.027  0.004  0.004  0.000  0.004  0.000  0.745
 
band     2 # energy    6.88727437 # occ.  1.00000000
 
ion      s     py     pz     px    dxy    dyz    dz2    dxz  x2-y2    tot
    1  0.003  0.006  0.006  0.006  0.313  0.313  0.000  0.313  0.000  0.961
 
band     3 # energy    7.35295861 # occ.  1.00000000
 
ion      s     py     pz     px    dxy    dyz    dz2    dxz  x2-y2    tot
    1  0.000  0.000  0.001  0.000  0.594  0.140  0.085  0.157  0.000  0.978
 
band     4 # energy    7.35302442 # occ.  1.00000000
 
ion      s     py     pz     px    dxy    dyz    dz2    dxz  x2-y2    tot
    1  0.000  0.001  0.000  0.001  0.000  0.454  0.000  0.437  0.085  0.978
 
band     5 # energy    8.29158389 # occ.  1.00000000
 
ion      s     py     pz     px    dxy    dyz    dz2    dxz  x2-y2    tot
    1  0.000  0.000  0.000  0.000  0.000  0.043  0.000  0.043  0.899  0.985
 
band     6 # energy    8.29164147 # occ.  1.00000000
 
ion      s     py     pz     px    dxy    dyz    dz2    dxz  x2-y2    tot
    1  0.000  0.000  0.000  0.000  0.057  0.014  0.899  0.014  0.000  0.985
 
band     7 # energy   27.69415703 # occ.  0.00000000
 
ion      s     py     pz     px    dxy    dyz    dz2    dxz  x2-y2    tot
    1  0.058  0.092  0.092  0.092  0.132  0.132  0.000  0.132  0.000  0.732
 
band     8 # energy   34.14776496 # occ.  0.00000000
 
ion      s     py     pz     px    dxy    dyz    dz2    dxz  x2-y2    tot
    1  0.031  0.008  0.008  0.008  0.019  0.019  0.000  0.019  0.000  0.111
 
band     9 # energy   35.88078236 # occ.  0.00000000
 
ion      s     py     pz     px    dxy    dyz    dz2    dxz  x2-y2    tot
    1  0.000  0.058  0.233  0.058  0.254  0.064  0.055  0.064  0.000  0.785
 
band    10 # energy   35.88102891 # occ.  0.00000000
 
ion      s     py     pz     px    dxy    dyz    dz2    dxz  x2-y2    tot
    1  0.000  0.174  0.000  0.174  0.000  0.191  0.000  0.191  0.055  0.785
 
band    11 # energy   41.57080756 # occ.  0.00000000
 
ion      s     py     pz     px    dxy    dyz    dz2    dxz  x2-y2    tot
    1  0.004  0.069  0.069  0.069  0.011  0.011  0.000  0.011  0.000  0.243
 
band    12 # energy   42.29892397 # occ.  0.00000000
 
ion      s     py     pz     px    dxy    dyz    dz2    dxz  x2-y2    tot
    1  0.000  0.005  0.013  0.024  0.061  0.110  0.175  0.021  0.190  0.599
 

 k-point     4 :    0.27272727-0.00000000-0.00000000     weight = 0.00601052

band     1 # energy    3.08475779 # occ.  1.00000000
 
ion      s     py     pz     px    dxy    dyz    dz2    dxz  x2-y2    tot
    1  0.529  0.045  0.045  0.045  0.033  0.033  0.000  0.033  0.000  0.764
 
band     2 # energy    6.84489144 # occ.  1.00000000
 
ion      s     py     pz     px    dxy    dyz    dz2    dxz  x2-y2    tot
    1  0.021  0.028  0.028  0.028  0.275  0.275  0.000  0.275  0.000  0.928
 
band     3 # energy    7.36262773 # occ.  1.00000000
 
ion      s     py     pz     px    dxy    dyz    dz2    dxz  x2-y2    tot
    1  0.000  0.000  0.001  0.000  0.435  0.105  0.321  0.113  0.000  0.976
 
band     4 # energy    7.36272842 # occ.  1.00000000
 
ion      s     py     pz     px    dxy    dyz    dz2    dxz  x2-y2    tot
    1  0.000  0.001  0.000  0.001  0.000  0.331  0.000  0.323  0.321  0.976
 
band     5 # energy    8.46735998 # occ.  1.00000000
 
ion      s     py     pz     px    dxy    dyz    dz2    dxz  x2-y2    tot
    1  0.000  0.001  0.000  0.001  0.000  0.162  0.000  0.163  0.659  0.985
 
band     6 # energy    8.46745265 # occ.  1.00000000
 
ion      s     py     pz     px    dxy    dyz    dz2    dxz  x2-y2    tot
    1  0.000  0.000  0.001  0.000  0.217  0.054  0.659  0.054  0.000  0.985
 
band     7 # energy   23.08387877 # occ.  0.00000000
 
ion      s     py     pz     px    dxy    dyz    dz2    dxz  x2-y2    tot
    1  0.134  0.101  0.101  0.101  0.119  0.119  0.000  0.119  0.000  0.794
 
band     8 # energy   33.37121537 # occ.  0.00000000
 
ion      s     py     pz     px    dxy    dyz    dz2    dxz  x2-y2    tot
    1  0.019  0.000  0.000  0.000  0.025  0.025  0.000  0.025  0.000  0.097
 
band     9 # energy   35.18330048 # occ.  0.00000000
 
ion      s     py     pz     px    dxy    dyz    dz2    dxz  x2-y2    tot
    1  0.000  0.068  0.273  0.069  0.238  0.060  0.065  0.059  0.000  0.832
 
band    10 # energy   35.18346406 # occ.  0.00000000
 
ion      s     py     pz     px    dxy    dyz    dz2    dxz  x2-y2    tot
    1  0.000  0.205  0.000  0.205  0.000  0.178  0.000  0.178  0.065  0.832
 
band    11 # energy   40.46649304 # occ.  0.00000000
 
ion      s     py     pz     px    dxy    dyz    dz2    dxz  x2-y2    tot
    1  0.000  0.024  0.093  0.023  0.006  0.001  0.594  0.001  0.000  0.743
 
band    12 # energy   40.46667149 # occ.  0.00000000
 
ion      s     py     pz     px    dxy    dyz    dz2    dxz  x2-y2    tot
    1  0.000  0.070  0.000  0.070  0.000  0.004  0.000  0.004  0.594  0.743
 

 k-point     5 :    0.36363636 0.00000000 0.00000000     weight = 0.00601052

band     1 # energy    4.25063699 # occ.  1.00000000
 
ion      s     py     pz     px    dxy    dyz    dz2    dxz  x2-y2    tot
    1  0.327  0.029  0.029  0.029  0.141  0.141  0.000  0.141  0.000  0.835
 
band     2 # energy    7.25294693 # occ.  1.00000000
 
ion      s     py     pz     px    dxy    dyz    dz2    dxz  x2-y2    tot
    1  0.000  0.000  0.000  0.000  0.324  0.079  0.485  0.083  0.000  0.972
 
band     3 # energy    7.25306667 # occ.  1.00000000
 
ion      s     py     pz     px    dxy    dyz    dz2    dxz  x2-y2    tot
    1  0.000  0.000  0.000  0.000  0.000  0.246  0.000  0.241  0.485  0.972
 
band     4 # energy    7.48930715 # occ.  1.00000000
 
ion      s     py     pz     px    dxy    dyz    dz2    dxz  x2-y2    tot
    1  0.081  0.101  0.101  0.101  0.148  0.149  0.000  0.149  0.000  0.830
 
band     5 # energy    8.76889827 # occ.  1.00000012
 
ion      s     py     pz     px    dxy    dyz    dz2    dxz  x2-y2    tot
    1  0.000  0.001  0.000  0.001  0.000  0.247  0.000  0.248  0.493  0.989
 
band     6 # energy    8.76900444 # occ.  1.00000012
 
ion      s     py     pz     px    dxy    dyz    dz2    dxz  x2-y2    tot
    1  0.000  0.000  0.001  0.000  0.330  0.083  0.493  0.082  0.000  0.989
 
band     7 # energy   18.94199702 # occ.  0.00000000
 
ion      s     py     pz     px    dxy    dyz    dz2    dxz  x2-y2    tot
    1  0.248  0.080  0.080  0.080  0.117  0.117  0.000  0.117  0.000  0.840
 
band     8 # energy   32.52912568 # occ.  0.00000000
 
ion      s     py     pz     px    dxy    dyz    dz2    dxz  x2-y2    tot
    1  0.007  0.005  0.005  0.005  0.012  0.012  0.000  0.012  0.000  0.059
 
band     9 # energy   34.74656163 # occ.  0.00000000
 
ion      s     py     pz     px    dxy    dyz    dz2    dxz  x2-y2    tot
    1  0.000  0.072  0.343  0.101  0.142  0.042  0.045  0.030  0.000  0.774
 
band    10 # energy   34.74657180 # occ.  0.00000000
 
ion      s     py     pz     px    dxy    dyz    dz2    dxz  x2-y2    tot
    1  0.000  0.272  0.001  0.243  0.000  0.101  0.000  0.113  0.045  0.774
 
band    11 # energy   38.64673362 # occ.  0.00000000
 
ion      s     py     pz     px    dxy    dyz    dz2    dxz  x2-y2    tot
    1  0.000  0.016  0.064  0.016  0.098  0.024  0.656  0.025  0.000  0.899
 
band    12 # energy   38.64725142 # occ.  0.00000000
 
ion      s     py     pz     px    dxy    dyz    dz2    dxz  x2-y2    tot
    1  0.000  0.048  0.000  0.048  0.000  0.074  0.000  0.073  0.656  0.899
 

 k-point     6 :    0.45454545 0.00000000 0.00000000     weight = 0.00601052

band     1 # energy    4.65902321 # occ.  1.00000000
 
ion      s     py     pz     px    dxy    dyz    dz2    dxz  x2-y2    tot
    1  0.191  0.003  0.003  0.003  0.232  0.232  0.000  0.232  0.000  0.895
 
band     2 # energy    7.16708965 # occ.  1.00000000
 
ion      s     py     pz     px    dxy    dyz    dz2    dxz  x2-y2    tot
    1  0.000  0.000  0.000  0.000  0.283  0.069  0.547  0.073  0.000  0.972
 
band     3 # energy    7.16720063 # occ.  1.00000000
 
ion      s     py     pz     px    dxy    dyz    dz2    dxz  x2-y2    tot
    1  0.000  0.000  0.000  0.000  0.000  0.215  0.000  0.210  0.547  0.972
 
band     4 # energy    8.93320832 # occ.  1.00003276
 
ion      s     py     pz     px    dxy    dyz    dz2    dxz  x2-y2    tot
    1  0.036  0.206  0.206  0.206  0.022  0.022  0.000  0.022  0.000  0.719
 
band     5 # energy    8.98371245 # occ.  1.00013855
 
ion      s     py     pz     px    dxy    dyz    dz2    dxz  x2-y2    tot
    1  0.000  0.000  0.000  0.000  0.000  0.280  0.000  0.281  0.431  0.992
 
band     6 # energy    8.98381849 # occ.  1.00013895
 
ion      s     py     pz     px    dxy    dyz    dz2    dxz  x2-y2    tot
    1  0.000  0.000  0.000  0.000  0.374  0.094  0.431  0.093  0.000  0.992
 
band     7 # energy   15.90296060 # occ.  0.00000000
 
ion      s     py     pz     px    dxy    dyz    dz2    dxz  x2-y2    tot
    1  0.414  0.021  0.021  0.021  0.141  0.141  0.000  0.141  0.000  0.898
 
band     8 # energy   32.02092884 # occ.  0.00000000
 
ion      s     py     pz     px    dxy    dyz    dz2    dxz  x2-y2    tot
    1  0.001  0.009  0.009  0.009  0.001  0.001  0.000  0.001  0.000  0.033
 
band     9 # energy   34.56159940 # occ.  0.00000000
 
ion      s     py     pz     px    dxy    dyz    dz2    dxz  x2-y2    tot
    1  0.000  0.310  0.000  0.313  0.000  0.016  0.000  0.016  0.007  0.663
 
band    10 # energy   34.56178040 # occ.  0.00000000
 
ion      s     py     pz     px    dxy    dyz    dz2    dxz  x2-y2    tot
    1  0.000  0.106  0.416  0.102  0.021  0.005  0.007  0.005  0.000  0.663
 
band    11 # energy   37.68428674 # occ.  0.00000000
 
ion      s     py     pz     px    dxy    dyz    dz2    dxz  x2-y2    tot
    1  0.000  0.003  0.010  0.003  0.211  0.052  0.691  0.053  0.000  1.022
 
band    12 # energy   37.68501899 # occ.  0.00000000
 
ion      s     py     pz     px    dxy    dyz    dz2    dxz  x2-y2    tot
    1  0.000  0.008  0.000  0.008  0.000  0.158  0.000  0.158  0.691  1.022
 

 k-point     7 :    0.09090909 0.09090909 0.00000000     weight = 0.00450789

band     1 # energy    0.91071862 # occ.  1.00000000
 
ion      s     py     pz     px    dxy    dyz    dz2    dxz  x2-y2    tot
    1  0.711  0.030  0.000  0.000  0.000  0.000  0.000  0.000  0.001  0.742
 
band     2 # energy    6.99398329 # occ.  1.00000000
 
ion      s     py     pz     px    dxy    dyz    dz2    dxz  x2-y2    tot
    1  0.000  0.000  0.000  0.000  0.000  0.000  0.000  0.973  0.000  0.973
 
band     3 # energy    7.27153442 # occ.  1.00000000
 
ion      s     py     pz     px    dxy    dyz    dz2    dxz  x2-y2    tot
    1  0.000  0.000  0.001  0.001  0.479  0.496  0.000  0.000  0.000  0.978
 
band     4 # energy    7.27153454 # occ.  1.00000000
 
ion      s     py     pz     px    dxy    dyz    dz2    dxz  x2-y2    tot
    1  0.000  0.000  0.001  0.001  0.496  0.479  0.000  0.000  0.000  0.978
 
band     5 # energy    8.18515675 # occ.  1.00000000
 
ion      s     py     pz     px    dxy    dyz    dz2    dxz  x2-y2    tot
    1  0.001  0.000  0.000  0.000  0.000  0.000  0.246  0.000  0.738  0.984
 
band     6 # energy    8.38148427 # occ.  1.00000000
 
ion      s     py     pz     px    dxy    dyz    dz2    dxz  x2-y2    tot
    1  0.000  0.000  0.000  0.000  0.000  0.000  0.742  0.000  0.247  0.989
 
band     7 # energy   32.70243436 # occ.  0.00000000
 
ion      s     py     pz     px    dxy    dyz    dz2    dxz  x2-y2    tot
    1  0.000  0.000  0.000  0.000  0.000  0.000  0.000  0.276  0.000  0.276
 
band     8 # energy   34.87113795 # occ.  0.00000000
 
ion      s     py     pz     px    dxy    dyz    dz2    dxz  x2-y2    tot
    1  0.000  0.000  0.185  0.185  0.176  0.176  0.000  0.000  0.000  0.722
 
band     9 # energy   34.87126568 # occ.  0.00000000
 
ion      s     py     pz     px    dxy    dyz    dz2    dxz  x2-y2    tot
    1  0.000  0.000  0.185  0.185  0.176  0.175  0.000  0.000  0.000  0.722
 
band    10 # energy   35.69802928 # occ.  0.00000000
 
ion      s     py     pz     px    dxy    dyz    dz2    dxz  x2-y2    tot
    1  0.049  0.171  0.000  0.000  0.000  0.000  0.022  0.000  0.065  0.307
 
band    11 # energy   42.30351926 # occ.  0.00000000
 
ion      s     py     pz     px    dxy    dyz    dz2    dxz  x2-y2    tot
    1  0.000  0.000  0.000  0.000  0.000  0.000  0.000  0.992  0.000  0.992
 
band    12 # energy   43.06725963 # occ.  0.00000000
 
ion      s     py     pz     px    dxy    dyz    dz2    dxz  x2-y2    tot
    1  0.000  0.000  0.012  0.000  0.012  0.672  0.000  0.000  0.000  0.696
 

 k-point     8 :    0.18181818 0.09090909-0.00000000     weight = 0.01803156

band     1 # energy    1.64040622 # occ.  1.00000000
 
ion      s     py     pz     px    dxy    dyz    dz2    dxz  x2-y2    tot
    1  0.658  0.063  0.007  0.007  0.002  0.002  0.001  0.000  0.003  0.744
 
band     2 # energy    6.81010594 # occ.  1.00000000
 
ion      s     py     pz     px    dxy    dyz    dz2    dxz  x2-y2    tot
    1  0.000  0.000  0.002  0.002  0.055  0.055  0.000  0.850  0.000  0.965
 
band     3 # energy    7.40777742 # occ.  1.00000000
 
ion      s     py     pz     px    dxy    dyz    dz2    dxz  x2-y2    tot
    1  0.000  0.001  0.002  0.002  0.405  0.401  0.014  0.110  0.041  0.976
 
band     4 # energy    7.41836626 # occ.  1.00000000
 
ion      s     py     pz     px    dxy    dyz    dz2    dxz  x2-y2    tot
    1  0.000  0.000  0.002  0.002  0.465  0.469  0.028  0.000  0.010  0.977
 
band     5 # energy    8.08069415 # occ.  1.00000000
 
ion      s     py     pz     px    dxy    dyz    dz2    dxz  x2-y2    tot
    1  0.003  0.002  0.000  0.000  0.024  0.024  0.230  0.006  0.690  0.980
 
band     6 # energy    8.43615995 # occ.  1.00000000
 
ion      s     py     pz     px    dxy    dyz    dz2    dxz  x2-y2    tot
    1  0.000  0.000  0.000  0.000  0.019  0.019  0.712  0.000  0.237  0.988
 
band     7 # energy   29.47441108 # occ.  0.00000000
 
ion      s     py     pz     px    dxy    dyz    dz2    dxz  x2-y2    tot
    1  0.031  0.035  0.107  0.107  0.110  0.110  0.001  0.195  0.004  0.701
 
band     8 # energy   33.20648065 # occ.  0.00000000
 
ion      s     py     pz     px    dxy    dyz    dz2    dxz  x2-y2    tot
    1  0.037  0.043  0.009  0.009  0.007  0.007  0.012  0.196  0.037  0.356
 
band     9 # energy   33.36668154 # occ.  0.00000000
 
ion      s     py     pz     px    dxy    dyz    dz2    dxz  x2-y2    tot
    1  0.000  0.000  0.204  0.204  0.183  0.183  0.009  0.000  0.003  0.786
 
band    10 # energy   36.73491464 # occ.  0.00000000
 
ion      s     py     pz     px    dxy    dyz    dz2    dxz  x2-y2    tot
    1  0.002  0.001  0.076  0.076  0.032  0.032  0.046  0.022  0.138  0.424
 
band    11 # energy   40.44371630 # occ.  0.00000000
 
ion      s     py     pz     px    dxy    dyz    dz2    dxz  x2-y2    tot
    1  0.037  0.459  0.023  0.023  0.031  0.031  0.014  0.099  0.041  0.758
 
band    12 # energy   42.78103592 # occ.  0.00000000
 
ion      s     py     pz     px    dxy    dyz    dz2    dxz  x2-y2    tot
    1  0.050  0.141  0.008  0.008  0.153  0.153  0.046  0.298  0.138  0.995
 

 k-point     9 :    0.27272727 0.09090909-0.00000000     weight = 0.01803156

band     1 # energy    2.86639141 # occ.  1.00000000
 
ion      s     py     pz     px    dxy    dyz    dz2    dxz  x2-y2    tot
    1  0.555  0.097  0.022  0.022  0.020  0.020  0.003  0.009  0.008  0.754
 
band     2 # energy    6.66027810 # occ.  1.00000000
 
ion      s     py     pz     px    dxy    dyz    dz2    dxz  x2-y2    tot
    1  0.006  0.008  0.013  0.013  0.094  0.094  0.001  0.718  0.002  0.949
 
band     3 # energy    7.38741039 # occ.  1.00000000
 
ion      s     py     pz     px    dxy    dyz    dz2    dxz  x2-y2    tot
    1  0.000  0.001  0.001  0.001  0.216  0.215  0.095  0.158  0.285  0.972
 
band     4 # energy    7.49308708 # occ.  1.00000000
 
ion      s     py     pz     px    dxy    dyz    dz2    dxz  x2-y2    tot
    1  0.000  0.000  0.002  0.002  0.374  0.375  0.167  0.000  0.056  0.976
 
band     5 # energy    8.27511471 # occ.  1.00000000
 
ion      s     py     pz     px    dxy    dyz    dz2    dxz  x2-y2    tot
    1  0.011  0.009  0.002  0.002  0.149  0.150  0.145  0.073  0.436  0.977
 
band     6 # energy    8.59095798 # occ.  1.00000000
 
ion      s     py     pz     px    dxy    dyz    dz2    dxz  x2-y2    tot
    1  0.000  0.000  0.000  0.000  0.113  0.113  0.572  0.000  0.191  0.989
 
band     7 # energy   24.80449701 # occ.  0.00000000
 
ion      s     py     pz     px    dxy    dyz    dz2    dxz  x2-y2    tot
    1  0.096  0.054  0.130  0.130  0.105  0.105  0.001  0.149  0.004  0.776
 
band     8 # energy   32.38135171 # occ.  0.00000000
 
ion      s     py     pz     px    dxy    dyz    dz2    dxz  x2-y2    tot
    1  0.000  0.000  0.225  0.225  0.156  0.156  0.031  0.000  0.010  0.803
 
band     9 # energy   32.46279330 # occ.  0.00000000
 
ion      s     py     pz     px    dxy    dyz    dz2    dxz  x2-y2    tot
    1  0.026  0.007  0.001  0.001  0.000  0.000  0.025  0.212  0.076  0.350
 
band    10 # energy   36.55622958 # occ.  0.00000000
 
ion      s     py     pz     px    dxy    dyz    dz2    dxz  x2-y2    tot
    1  0.049  0.296  0.000  0.000  0.003  0.003  0.062  0.102  0.186  0.702
 
band    11 # energy   39.77934632 # occ.  0.00000000
 
ion      s     py     pz     px    dxy    dyz    dz2    dxz  x2-y2    tot
    1  0.006  0.155  0.068  0.068  0.024  0.024  0.029  0.043  0.087  0.505
 
band    12 # energy   42.53873563 # occ.  0.00000000
 
ion      s     py     pz     px    dxy    dyz    dz2    dxz  x2-y2    tot
    1  0.014  0.066  0.093  0.093  0.073  0.073  0.038  0.196  0.114  0.760
 

 k-point    10 :    0.36363636 0.09090909 0.00000000     weight = 0.01803156

band     1 # energy    4.16098372 # occ.  1.00000000
 
ion      s     py     pz     px    dxy    dyz    dz2    dxz  x2-y2    tot
    1  0.376  0.090  0.022  0.022  0.098  0.098  0.004  0.084  0.013  0.806
 
band     2 # energy    6.85788259 # occ.  1.00000000
 
ion      s     py     pz     px    dxy    dyz    dz2    dxz  x2-y2    tot
    1  0.036  0.046  0.050  0.050  0.064  0.064  0.018  0.515  0.053  0.896
 
band     3 # energy    7.20816363 # occ.  1.00000000
 
ion      s     py     pz     px    dxy    dyz    dz2    dxz  x2-y2    tot
    1  0.002  0.000  0.000  0.000  0.111  0.111  0.126  0.242  0.378  0.969
 
band     4 # energy    7.42182763 # occ.  1.00000000
 
ion      s     py     pz     px    dxy    dyz    dz2    dxz  x2-y2    tot
    1  0.000  0.000  0.002  0.002  0.274  0.275  0.316  0.000  0.105  0.974
 
band     5 # energy    8.83893332 # occ.  1.00000154
 
ion      s     py     pz     px    dxy    dyz    dz2    dxz  x2-y2    tot
    1  0.000  0.000  0.000  0.000  0.212  0.218  0.417  0.000  0.143  0.991
 
band     6 # energy    8.84814559 # occ.  1.00000212
 
ion      s     py     pz     px    dxy    dyz    dz2    dxz  x2-y2    tot
    1  0.033  0.032  0.011  0.011  0.200  0.195  0.098  0.098  0.283  0.961
 
band     7 # energy   20.43970584 # occ.  0.00000000
 
ion      s     py     pz     px    dxy    dyz    dz2    dxz  x2-y2    tot
    1  0.193  0.048  0.120  0.120  0.097  0.097  0.001  0.141  0.004  0.821
 
band     8 # energy   31.64115690 # occ.  0.00000000
 
ion      s     py     pz     px    dxy    dyz    dz2    dxz  x2-y2    tot
    1  0.006  0.009  0.003  0.003  0.000  0.000  0.041  0.137  0.123  0.323
 
band     9 # energy   31.93716395 # occ.  0.00000000
 
ion      s     py     pz     px    dxy    dyz    dz2    dxz  x2-y2    tot
    1  0.000  0.000  0.244  0.244  0.112  0.112  0.060  0.000  0.020  0.791
 
band    10 # energy   34.65892292 # occ.  0.00000000
 
ion      s     py     pz     px    dxy    dyz    dz2    dxz  x2-y2    tot
    1  0.082  0.382  0.029  0.029  0.002  0.002  0.031  0.108  0.092  0.755
 
band    11 # energy   40.07034610 # occ.  0.00000000
 
ion      s     py     pz     px    dxy    dyz    dz2    dxz  x2-y2    tot
    1  0.001  0.033  0.005  0.005  0.054  0.054  0.098  0.149  0.293  0.692
 
band    12 # energy   41.95724543 # occ.  0.00000000
 
ion      s     py     pz     px    dxy    dyz    dz2    dxz  x2-y2    tot
    1  0.000  0.000  0.061  0.061  0.036  0.036  0.411  0.000  0.137  0.743
 

 k-point    11 :    0.45454545 0.09090909 0.00000000     weight = 0.01803156

band     1 # energy    4.78083397 # occ.  1.00000000
 
ion      s     py     pz     px    dxy    dyz    dz2    dxz  x2-y2    tot
    1  0.199  0.033  0.002  0.002  0.204  0.204  0.002  0.234  0.005  0.885
 
band     2 # energy    7.04930116 # occ.  1.00000000
 
ion      s     py     pz     px    dxy    dyz    dz2    dxz  x2-y2    tot
    1  0.000  0.002  0.007  0.007  0.087  0.087  0.161  0.121  0.484  0.956
 
band     3 # energy    7.31861780 # occ.  1.00000000
 
ion      s     py     pz     px    dxy    dyz    dz2    dxz  x2-y2    tot
    1  0.000  0.000  0.001  0.001  0.221  0.221  0.396  0.000  0.132  0.972
 
band     4 # energy    7.65628773 # occ.  1.00000000
 
ion      s     py     pz     px    dxy    dyz    dz2    dxz  x2-y2    tot
    1  0.029  0.085  0.079  0.079  0.015  0.015  0.019  0.493  0.057  0.871
 
band     5 # energy    9.01370863 # occ.  1.00030533
 
ion      s     py     pz     px    dxy    dyz    dz2    dxz  x2-y2    tot
    1  0.000  0.000  0.000  0.000  0.271  0.271  0.338  0.000  0.113  0.993
 
band     6 # energy    9.85347630 # occ. -0.03100413
 
ion      s     py     pz     px    dxy    dyz    dz2    dxz  x2-y2    tot
    1  0.052  0.110  0.068  0.068  0.140  0.140  0.062  0.059  0.185  0.885
 
band     7 # energy   16.84688775 # occ.  0.00000000
 
ion      s     py     pz     px    dxy    dyz    dz2    dxz  x2-y2    tot
    1  0.340  0.015  0.070  0.070  0.108  0.108  0.001  0.153  0.003  0.869
 
band     8 # energy   30.80170394 # occ.  0.00000000
 
ion      s     py     pz     px    dxy    dyz    dz2    dxz  x2-y2    tot
    1  0.002  0.084  0.000  0.000  0.009  0.009  0.051  0.062  0.152  0.368
 
band     9 # energy   32.13759144 # occ.  0.00000000
 
ion      s     py     pz     px    dxy    dyz    dz2    dxz  x2-y2    tot
    1  0.000  0.000  0.258  0.258  0.061  0.061  0.095  0.000  0.032  0.764
 
band    10 # energy   33.37059180 # occ.  0.00000000
 
ion      s     py     pz     px    dxy    dyz    dz2    dxz  x2-y2    tot
    1  0.077  0.295  0.071  0.071  0.008  0.008  0.007  0.073  0.021  0.630
 
band    11 # energy   39.98976479 # occ.  0.00000000
 
ion      s     py     pz     px    dxy    dyz    dz2    dxz  x2-y2    tot
    1  0.010  0.022  0.000  0.000  0.025  0.024  0.113  0.240  0.339  0.774
 
band    12 # energy   40.44332802 # occ.  0.00000000
 
ion      s     py     pz     px    dxy    dyz    dz2    dxz  x2-y2    tot
    1  0.000  0.000  0.062  0.062  0.101  0.101  0.394  0.000  0.132  0.853
 

 k-point    12 :   -0.45454545 0.09090909 0.00000000     weight = 0.01803156

band     1 # energy    4.87340009 # occ.  1.00000000
 
ion      s     py     pz     px    dxy    dyz    dz2    dxz  x2-y2    tot
    1  0.161  0.005  0.004  0.004  0.230  0.230  0.000  0.270  0.000  0.903
 
band     2 # energy    7.02282033 # occ.  1.00000000
 
ion      s     py     pz     px    dxy    dyz    dz2    dxz  x2-y2    tot
    1  0.000  0.000  0.005  0.005  0.059  0.059  0.154  0.214  0.462  0.958
 
band     3 # energy    7.27268663 # occ.  1.00000000
 
ion      s     py     pz     px    dxy    dyz    dz2    dxz  x2-y2    tot
    1  0.000  0.000  0.001  0.001  0.200  0.200  0.427  0.000  0.142  0.971
 
band     4 # energy    8.00470311 # occ.  1.00000000
 
ion      s     py     pz     px    dxy    dyz    dz2    dxz  x2-y2    tot
    1  0.001  0.082  0.082  0.082  0.100  0.100  0.041  0.268  0.123  0.878
 
band     5 # energy    8.96954600 # occ.  1.00009377
 
ion      s     py     pz     px    dxy    dyz    dz2    dxz  x2-y2    tot
    1  0.000  0.000  0.000  0.000  0.293  0.293  0.304  0.000  0.101  0.992
 
band     6 # energy   10.55042134 # occ. -0.00000000
 
ion      s     py     pz     px    dxy    dyz    dz2    dxz  x2-y2    tot
    1  0.006  0.138  0.141  0.141  0.019  0.019  0.049  0.161  0.148  0.823
 
band     7 # energy   15.50454390 # occ.  0.00000000
 
ion      s     py     pz     px    dxy    dyz    dz2    dxz  x2-y2    tot
    1  0.447  0.026  0.000  0.000  0.147  0.147  0.000  0.139  0.000  0.907
 
band     8 # energy   30.04458123 # occ.  0.00000000
 
ion      s     py     pz     px    dxy    dyz    dz2    dxz  x2-y2    tot