<?xml version="1.0" encoding="ISO-8859-1"?>
<modeling>
 <generator>
  <i name="program" type="string">vasp </i>
  <i name="version" type="string">6.3.0  </i>
  <i name="subversion" type="string">20Jan22 (build Feb 01 2022 16:52:37) complex                          parallel </i>
  <i name="platform" type="string">TETRA_NSC1 </i>
  <i name="date" type="string">2022 02 23 </i>
  <i name="time" type="string">15:19:25 </i>
 </generator>
 <incar>
  <i type="string" name="SYSTEM">fcc Ni</i>
  <i type="int" name="ISTART">     0</i>
  <i type="int" name="ISPIN">     2</i>
  <i type="int" name="ICHARG">     2</i>
  <i name="ENCUT">    270.00000000</i>
  <v name="MAGMOM">      1.00000000</v>
  <i type="int" name="ISMEAR">     1</i>
  <i name="SIGMA">      0.20000000</i>
  <i type="int" name="LORBIT">    11</i>
 </incar>
 <primitive_cell>
  <structure name="primitive_cell" >
   <crystal>
    <varray name="basis" >
     <v>       1.75000000       1.75000000       0.00000000 </v>
     <v>       0.00000000       1.75000000       1.75000000 </v>
     <v>       1.75000000       0.00000000       1.75000000 </v>
    </varray>
    <i name="volume">     10.71875000 </i>
    <varray name="rec_basis" >
     <v>       0.28571429       0.28571429      -0.28571429 </v>
     <v>      -0.28571429       0.28571429       0.28571429 </v>
     <v>       0.28571429      -0.28571429       0.28571429 </v>
    </varray>
   </crystal>
   <varray name="positions" >
    <v>       0.00000000       0.00000000       0.00000000 </v>
   </varray>
  </structure>
  <varray name="primitive_index" >
   <v type="int" >        1 </v>
  </varray>
 </primitive_cell>
 <kpoints>
  <generation param="Monkhorst-Pack">
   <v type="int" name="divisions">      11       11       11 </v>
   <v name="usershift">      0.00000000       0.00000000       0.00000000 </v>
   <v name="genvec1">      0.09090909      -0.00000000      -0.00000000 </v>
   <v name="genvec2">     -0.00000000       0.09090909       0.00000000 </v>
   <v name="genvec3">      0.00000000       0.00000000       0.09090909 </v>
   <v name="shift">      0.00000000       0.00000000       0.00000000 </v>
  </generation>
  <varray name="kpointlist" >
   <v>       0.00000000       0.00000000       0.00000000 </v>
   <v>       0.09090909       0.00000000      -0.00000000 </v>
   <v>       0.18181818       0.00000000      -0.00000000 </v>
   <v>       0.27272727      -0.00000000      -0.00000000 </v>
   <v>       0.36363636       0.00000000       0.00000000 </v>
   <v>       0.45454545       0.00000000       0.00000000 </v>
   <v>       0.09090909       0.09090909       0.00000000 </v>
   <v>       0.18181818       0.09090909      -0.00000000 </v>
   <v>       0.27272727       0.09090909      -0.00000000 </v>
   <v>       0.36363636       0.09090909       0.00000000 </v>
   <v>       0.45454545       0.09090909       0.00000000 </v>
   <v>      -0.45454545       0.09090909       0.00000000 </v>
   <v>      -0.36363636       0.09090909       0.00000000 </v>
   <v>      -0.27272727       0.09090909       0.00000000 </v>
   <v>      -0.18181818       0.09090909       0.00000000 </v>
   <v>      -0.09090909       0.09090909      -0.00000000 </v>
   <v>       0.18181818       0.18181818      -0.00000000 </v>
   <v>       0.27272727       0.18181818      -0.00000000 </v>
   <v>       0.36363636       0.18181818       0.00000000 </v>
   <v>       0.45454545       0.18181818      -0.00000000 </v>
   <v>      -0.45454545       0.18181818       0.00000000 </v>
   <v>      -0.36363636       0.18181818       0.00000000 </v>
   <v>      -0.27272727       0.18181818      -0.00000000 </v>
   <v>      -0.18181818       0.18181818       0.00000000 </v>
   <v>       0.27272727       0.27272727      -0.00000000 </v>
   <v>       0.36363636       0.27272727       0.00000000 </v>
   <v>       0.45454545       0.27272727      -0.00000000 </v>
   <v>      -0.45454545       0.27272727       0.00000000 </v>
   <v>      -0.36363636       0.27272727       0.00000000 </v>
   <v>      -0.27272727       0.27272727       0.00000000 </v>
   <v>       0.36363636       0.36363636       0.00000000 </v>
   <v>       0.45454545       0.36363636       0.00000000 </v>
   <v>      -0.45454545       0.36363636      -0.00000000 </v>
   <v>      -0.36363636       0.36363636      -0.00000000 </v>
   <v>       0.45454545       0.45454545       0.00000000 </v>
   <v>      -0.45454545       0.45454545      -0.00000000 </v>
   <v>       0.27272727       0.18181818       0.09090909 </v>
   <v>       0.36363636       0.18181818       0.09090909 </v>
   <v>       0.45454545       0.18181818       0.09090909 </v>
   <v>      -0.45454545       0.18181818       0.09090909 </v>
   <v>       0.36363636       0.27272727       0.09090909 </v>
   <v>       0.45454545       0.27272727       0.09090909 </v>
   <v>      -0.45454545       0.27272727       0.09090909 </v>
   <v>      -0.36363636       0.27272727       0.09090909 </v>
   <v>      -0.27272727       0.27272727       0.09090909 </v>
   <v>      -0.18181818       0.27272727       0.09090909 </v>
   <v>       0.45454545       0.36363636       0.09090909 </v>
   <v>      -0.45454545       0.36363636       0.09090909 </v>
   <v>      -0.36363636       0.36363636       0.09090909 </v>
   <v>      -0.27272727       0.36363636       0.09090909 </v>
   <v>      -0.45454545       0.45454545       0.09090909 </v>
   <v>      -0.36363636       0.45454545       0.09090909 </v>
   <v>      -0.45454545       0.36363636       0.18181818 </v>
   <v>      -0.36363636       0.36363636       0.18181818 </v>
   <v>      -0.36363636       0.45454545       0.18181818 </v>
   <v>      -0.27272727       0.45454545       0.18181818 </v>
  </varray>
  <varray name="weights" >
   <v>       0.00075131 </v>
   <v>       0.00601052 </v>
   <v>       0.00601052 </v>
   <v>       0.00601052 </v>
   <v>       0.00601052 </v>
   <v>       0.00601052 </v>
   <v>       0.00450789 </v>
   <v>       0.01803156 </v>
   <v>       0.01803156 </v>
   <v>       0.01803156 </v>
   <v>       0.01803156 </v>
   <v>       0.01803156 </v>
   <v>       0.01803156 </v>
   <v>       0.01803156 </v>
   <v>       0.01803156 </v>
   <v>       0.00901578 </v>
   <v>       0.00450789 </v>
   <v>       0.01803156 </v>
   <v>       0.01803156 </v>
   <v>       0.01803156 </v>
   <v>       0.01803156 </v>
   <v>       0.01803156 </v>
   <v>       0.01803156 </v>
   <v>       0.00901578 </v>
   <v>       0.00450789 </v>
   <v>       0.01803156 </v>
   <v>       0.01803156 </v>
   <v>       0.01803156 </v>
   <v>       0.01803156 </v>
   <v>       0.00901578 </v>
   <v>       0.00450789 </v>
   <v>       0.01803156 </v>
   <v>       0.01803156 </v>
   <v>       0.00901578 </v>
   <v>       0.00450789 </v>
   <v>       0.00901578 </v>
   <v>       0.01803156 </v>
   <v>       0.03606311 </v>
   <v>       0.03606311 </v>
   <v>       0.03606311 </v>
   <v>       0.01803156 </v>
   <v>       0.03606311 </v>
   <v>       0.03606311 </v>
   <v>       0.03606311 </v>
   <v>       0.03606311 </v>
   <v>       0.01803156 </v>
   <v>       0.01803156 </v>
   <v>       0.03606311 </v>
   <v>       0.03606311 </v>
   <v>       0.01803156 </v>
   <v>       0.01803156 </v>
   <v>       0.01803156 </v>
   <v>       0.01803156 </v>
   <v>       0.03606311 </v>
   <v>       0.01803156 </v>
   <v>       0.01803156 </v>
  </varray>
 </kpoints>
 <parameters>
  <separator name="general" >
   <i type="string" name="SYSTEM">fcc Ni</i>
   <i type="logical" name="LCOMPAT"> F  </i>
  </separator>
  <separator name="electronic" >
   <i type="string" name="PREC">normal</i>
   <i name="ENMAX">    270.00000000</i>
   <i name="ENAUG">    544.56500000</i>
   <i name="EDIFF">      0.00010000</i>
   <i type="int" name="IALGO">    38</i>
   <i type="int" name="IWAVPR">    10</i>
   <i type="int" name="NBANDS">    12</i>
   <i type="int" name="NBANDSLOW">    -1</i>
   <i type="int" name="NBANDSHIGH">    -1</i>
   <i name="NELECT">     10.00000000</i>
   <i type="int" name="TURBO">     0</i>
   <i type="int" name="IRESTART">     0</i>
   <i type="int" name="NREBOOT">     0</i>
   <i type="int" name="NMIN">     0</i>
   <i name="EREF">      0.00000000</i>
   <separator name="electronic smearing" >
    <i type="int" name="ISMEAR">     1</i>
    <i name="SIGMA">      0.20000000</i>
    <i name="KSPACING">      0.50000000</i>
    <i type="logical" name="KGAMMA"> T  </i>
    <i type="logical" name="KBLOWUP"> T  </i>
   </separator>
   <separator name="electronic projectors" >
    <i type="logical" name="LREAL"> F  </i>
    <v name="ROPT">      0.00000000</v>
    <i type="int" name="LMAXPAW">  -100</i>
    <i type="int" name="LMAXMIX">     2</i>
    <i type="logical" name="NLSPLINE"> F  </i>
   </separator>
   <separator name="electronic startup" >
    <i type="int" name="ISTART">     0</i>
    <i type="int" name="ICHARG">     2</i>
    <i type="int" name="INIWAV">     1</i>
   </separator>
   <separator name="electronic spin" >
    <i type="int" name="ISPIN">     2</i>
    <i type="logical" name="LNONCOLLINEAR"> F  </i>
    <v name="MAGMOM">      1.00000000</v>
    <i name="NUPDOWN">     -1.00000000</i>
    <i type="logical" name="LSORBIT"> F  </i>
    <v name="SAXIS">      0.00000000      0.00000000      1.00000000</v>
    <i type="logical" name="LSPIRAL"> F  </i>
    <v name="QSPIRAL">      0.00000000      0.00000000      0.00000000</v>
    <i type="logical" name="LZEROZ"> F  </i>
   </separator>
   <separator name="electronic exchange-correlation" >
    <i type="logical" name="LASPH"> F  </i>
    <i type="logical" name="LMETAGGA"> F  </i>
   </separator>
   <separator name="electronic convergence" >
    <i type="int" name="NELM">    60</i>
    <i type="int" name="NELMDL">    -5</i>
    <i type="int" name="NELMIN">     2</i>
    <i name="ENINI">    270.00000000</i>
    <separator name="electronic convergence detail" >
     <i type="logical" name="LDIAG"> T  </i>
     <i type="logical" name="LSUBROT"> F  </i>
     <i name="WEIMIN">      0.00000000</i>
     <i name="EBREAK">      0.00000208</i>
     <i name="DEPER">      0.30000000</i>
     <i type="int" name="NRMM">     4</i>
     <i name="TIME">      0.40000000</i>
    </separator>
   </separator>
   <separator name="electronic mixer" >
    <i name="AMIX">      0.40000000</i>
    <i name="BMIX">      1.00000000</i>
    <i name="AMIN">      0.10000000</i>
    <i name="AMIX_MAG">      1.60000000</i>
    <i name="BMIX_MAG">      1.00000000</i>
    <separator name="electronic mixer details" >
     <i type="int" name="IMIX">     4</i>
     <i type="logical" name="MIXFIRST"> F  </i>
     <i type="int" name="MAXMIX">   -45</i>
     <i name="WC">    100.00000000</i>
     <i type="int" name="INIMIX">     1</i>
     <i type="int" name="MIXPRE">     1</i>
     <i type="int" name="MREMOVE">     5</i>
    </separator>
   </separator>
   <separator name="electronic dipolcorrection" >
    <i type="logical" name="LDIPOL"> F  </i>
    <i type="logical" name="LMONO"> F  </i>
    <i type="int" name="IDIPOL">     0</i>
    <i name="EPSILON">      1.00000000</i>
    <v name="DIPOL">   -100.00000000   -100.00000000   -100.00000000</v>
    <i name="EFIELD">      0.00000000</i>
   </separator>
  </separator>
  <separator name="grids" >
   <i type="int" name="NGX">    10</i>
   <i type="int" name="NGY">    10</i>
   <i type="int" name="NGZ">    10</i>
   <i type="int" name="NGXF">    20</i>
   <i type="int" name="NGYF">    20</i>
   <i type="int" name="NGZF">    20</i>
   <i type="logical" name="ADDGRID"> F  </i>
  </separator>
  <separator name="ionic" >
   <i type="int" name="NSW">     0</i>
   <i type="int" name="IBRION">    -1</i>
   <i type="int" name="MDALGO">     0</i>
   <i type="int" name="ISIF">     2</i>
   <i name="PSTRESS">      0.00000000</i>
   <i name="EDIFFG">      0.00100000</i>
   <i type="int" name="NFREE">     0</i>
   <i name="POTIM">      0.50000000</i>
   <i name="SMASS">     -3.00000000</i>
   <i name="SCALEE">      1.00000000</i>
  </separator>
  <separator name="ionic md" >
   <i name="TEBEG">      0.00010000</i>
   <i name="TEEND">      0.00010000</i>
   <i type="int" name="NBLOCK">     1</i>
   <i type="int" name="KBLOCK">     1</i>
   <i type="int" name="NPACO">   256</i>
   <i name="APACO">     10.00000000</i>
  </separator>
  <separator name="symmetry" >
   <i type="int" name="ISYM">     2</i>
   <i name="SYMPREC">      0.00001000</i>
  </separator>
  <separator name="dos" >
   <i type="int" name="LORBIT">    11</i>
   <v name="RWIGS">     -1.00000000</v>
   <i type="int" name="NEDOS">   301</i>
   <i name="EMIN">     10.00000000</i>
   <i name="EMAX">    -10.00000000</i>
   <i name="EFERMI">      0.00000000</i>
  </separator>
  <separator name="writing" >
   <i type="int" name="NWRITE">     2</i>
   <i type="logical" name="LWAVE"> T  </i>
   <i type="logical" name="LDOWNSAMPLE"> F  </i>
   <i type="logical" name="LCHARG"> T  </i>
   <i type="logical" name="LPARD"> F  </i>
   <i type="logical" name="LVTOT"> F  </i>
   <i type="logical" name="LVHAR"> F  </i>
   <i type="logical" name="LELF"> F  </i>
   <i type="logical" name="LOPTICS"> F  </i>
   <v name="STM">      0.00000000      0.00000000      0.00000000      0.00000000      0.00000000      0.00000000      0.00000000</v>
  </separator>
  <separator name="performance" >
   <i type="int" name="NPAR">     4</i>
   <i type="int" name="NSIM">     4</i>
   <i type="int" name="NBLK">    -1</i>
   <i type="logical" name="LPLANE"> T  </i>
   <i type="logical" name="LSCALAPACK"> T  </i>
   <i type="logical" name="LSCAAWARE"> F  </i>
   <i type="logical" name="LSCALU"> F  </i>
   <i type="logical" name="LASYNC"> F  </i>
   <i type="logical" name="LORBITALREAL"> F  </i>
  </separator>
  <separator name="miscellaneous" >
   <i type="int" name="IDIOT">     3</i>
   <i type="int" name="PHON_NSTRUCT">    -1</i>
   <i type="logical" name="LMUSIC"> F  </i>
   <v name="POMASS">     58.69000000</v>
   <v name="DARWINR">      0.00000000</v>
   <v name="DARWINV">      1.00000000</v>
   <i type="logical" name="LCORR"> T  </i>
  </separator>
  <i type="logical" name="GGA_COMPAT"> T  </i>
  <i type="logical" name="LBERRY"> F  </i>
  <i type="int" name="ICORELEVEL">     0</i>
  <i type="logical" name="LDAU"> F  </i>
  <i type="int" name="I_CONSTRAINED_M">     0</i>
  <separator name="electronic exchange-correlation" >
   <i type="string" name="GGA">--</i>
   <i type="int" name="VOSKOWN">     0</i>
   <i type="logical" name="LHFCALC"> F  </i>
   <i type="string" name="PRECFOCK"></i>
   <i type="logical" name="LSYMGRAD"> F  </i>
   <i type="logical" name="LHFONE"> F  </i>
   <i type="logical" name="LRHFCALC"> F  </i>
   <i type="logical" name="LTHOMAS"> F  </i>
   <i type="logical" name="LMODELHF"> F  </i>
   <i type="logical" name="LFOCKACE"> F  </i>
   <i name="ENCUT4O">     -1.00000000</i>
   <i type="int" name="EXXOEP">     0</i>
   <i type="int" name="FOURORBIT">     0</i>
   <i name="AEXX">      0.00000000</i>
   <i name="HFALPHA">      0.00000000</i>
   <i name="MCALPHA">      0.00000000</i>
   <i name="ALDAX">      1.00000000</i>
   <i name="AGGAX">      1.00000000</i>
   <i name="ALDAC">      1.00000000</i>
   <i name="AGGAC">      1.00000000</i>
   <i type="int" name="NKREDX">     1</i>
   <i type="int" name="NKREDY">     1</i>
   <i type="int" name="NKREDZ">     1</i>
   <i type="logical" name="SHIFTRED"> F  </i>
   <i type="logical" name="ODDONLY"> F  </i>
   <i type="logical" name="EVENONLY"> F  </i>
   <i type="int" name="LMAXFOCK">     0</i>
   <i type="int" name="NMAXFOCKAE">     0</i>
   <i type="logical" name="LFOCKAEDFT"> F  </i>
   <i name="HFSCREEN">      0.00000000</i>
   <i name="HFSCREENC">      0.00000000</i>
   <i type="int" name="NBANDSGWLOW">     0</i>
  </separator>
  <separator name="vdW DFT" >
   <i type="logical" name="LUSE_VDW"> F  </i>
   <i name="Zab_VDW">     -0.84910000</i>
   <i name="PARAM1">      0.12340000</i>
   <i name="PARAM2">      1.00000000</i>
   <i name="PARAM3">      0.00000000</i>
  </separator>
  <separator name="model GW" >
   <i type="int" name="MODEL_GW">     0</i>
   <i name="MODEL_EPS0">      6.43125000</i>
   <i name="MODEL_ALPHA">      1.00000000</i>
  </separator>
  <separator name="linear response parameters" >
   <i type="logical" name="LEPSILON"> F  </i>
   <i type="logical" name="LRPA"> F  </i>
   <i type="logical" name="LNABLA"> F  </i>
   <i type="logical" name="LVEL"> F  </i>
   <i name="CSHIFT">      0.10000000</i>
   <i name="OMEGAMAX">     -1.00000000</i>
   <i name="DEG_THRESHOLD">      0.00200000</i>
   <i name="RTIME">     -0.10000000</i>
   <i name="WPLASMAI">      0.00000000</i>
   <v name="DFIELD">      0.00000000      0.00000000      0.00000000</v>
   <v name="WPLASMA">      0.00000000      0.00000000      0.00000000      0.00000000      0.00000000      0.00000000      0.00000000      0.00000000      0.00000000</v>
  </separator>
  <separator name="orbital magnetization" >
   <i type="logical" name="NUCIND"> F  </i>
   <v name="MAGPOS">      0.00000000      0.00000000      0.00000000</v>
   <i type="logical" name="LNICSALL"> T  </i>
   <i type="logical" name="ORBITALMAG"> F  </i>
   <i type="logical" name="LMAGBLOCH"> F  </i>
   <i type="logical" name="LCHIMAG"> F  </i>
   <i type="logical" name="LGAUGE"> T  </i>
   <i type="int" name="MAGATOM">     0</i>
   <v name="MAGDIPOL">      0.00000000      0.00000000      0.00000000</v>
   <v name="AVECCONST">      0.00000000      0.00000000      0.00000000</v>
  </separator>
  <separator name="response functions" >
   <i type="logical" name="LFINITE_TEMPERATURE"> F  </i>
   <i type="logical" name="LADDER"> F  </i>
   <i type="logical" name="LRPAFORCE"> F  </i>
   <i type="logical" name="LFXC"> F  </i>
   <i type="logical" name="LHARTREE"> T  </i>
   <i type="int" name="IBSE">     0</i>
   <v type="int" name="KPOINT">    -1     0     0     0</v>
   <i type="logical" name="LTCTC"> F  </i>
   <i type="logical" name="LTCTE"> F  </i>
   <i type="logical" name="LTETE"> F  </i>
   <i type="logical" name="LTRIPLET"> F  </i>
   <i type="logical" name="LFXCEPS"> F  </i>
   <i type="logical" name="LFXHEG"> F  </i>
   <i type="int" name="NATURALO">     2</i>
   <i type="logical" name="LHOLEGF"> F  </i>
   <i type="logical" name="L2ORDER"> F  </i>
   <i type="logical" name="LDMP1"> F  </i>
   <i type="logical" name="LMP2LT"> F  </i>
   <i type="logical" name="LSMP2LT"> F  </i>
   <i type="logical" name="LGWLF"> F  </i>
   <i name="ENCUTGW">     -2.00000000</i>
   <i name="ENCUTGWSOFT">     -2.00000000</i>
   <i name="ENCUTLF">     -1.00000000</i>
   <i type="logical" name="LESF_SPLINES"> F  </i>
   <i type="int" name="LMAXMP2">    -1</i>
   <i name="SCISSOR">      0.00000000</i>
   <i type="int" name="NOMEGA">     0</i>
   <i type="int" name="NOMEGAR">     0</i>
   <i type="int" name="NBANDSGW">    -1</i>
   <i type="int" name="NBANDSO">    -1</i>
   <i type="int" name="NBANDSV">    -1</i>
   <i type="int" name="NELMGW">     1</i>
   <i type="int" name="NELMHF">     1</i>
   <i type="int" name="DIM">     3</i>
   <i type="int" name="IESPILON">     4</i>
   <i type="int" name="ANTIRES">     0</i>
   <i name="OMEGAMAX">    -30.00000000</i>
   <i name="OMEGAMIN">    -30.00000000</i>
   <i name="OMEGATL">   -200.00000000</i>
   <i type="int" name="OMEGAGRID">     0</i>
   <i name="CSHIFT">     -0.10000000</i>
   <i type="logical" name="LSELFENERGY"> F  </i>
   <i type="logical" name="LSPECTRAL"> F  </i>
   <i type="logical" name="LSPECTRALGW"> F  </i>
   <i type="logical" name="LSINGLES"> F  </i>
   <i type="logical" name="LFERMIGW"> F  </i>
   <i type="logical" name="ODDONLYGW"> F  </i>
   <i type="logical" name="EVENONLYGW"> F  </i>
   <i type="int" name="NKREDLFX">     1</i>
   <i type="int" name="NKREDLFY">     1</i>
   <i type="int" name="NKREDLFZ">     1</i>
   <i type="int" name="MAXMEM">  2800</i>
   <i type="int" name="TELESCOPE">     0</i>
   <i type="int" name="NTAUPAR">    -1</i>
   <i type="int" name="NOMEGAPAR">    -1</i>
   <i name="DAMP_NEWTON">      0.80000001</i>
   <i name="LAMBDA">      1.00000000</i>
  </separator>
  <separator name="External order field" >
   <i name="OFIELD_KAPPA">      0.00000000</i>
   <v name="OFIELD_K">      0.00000000      0.00000000      0.00000000</v>
   <i name="OFIELD_Q6_NEAR">      0.00000000</i>
   <i name="OFIELD_Q6_FAR">      0.00000000</i>
   <i name="OFIELD_A">      0.00000000</i>
  </separator>
  <separator name="optional k-points parameters" >
   <i type="int" name="KPOINTS_OPT_MODE">     1</i>
   <i type="logical" name="LKPOINTS_OPT"> F  </i>
  </separator>
 </parameters>
 <atominfo>
  <atoms>       1 </atoms>
  <types>       1 </types>
  <array name="atoms" >
   <dimension dim="1">ion</dimension>
   <field type="string">element</field>
   <field type="int">atomtype</field>
   <set>
    <rc><c>Ni</c><c>   1</c></rc>
   </set>
  </array>
  <array name="atomtypes" >
   <dimension dim="1">type</dimension>
   <field type="int">atomspertype</field>
   <field type="string">element</field>
   <field>mass</field>
   <field>valence</field>
   <field type="string">pseudopotential</field>
   <set>
    <rc><c>   1</c><c>Ni</c><c>     58.69000000</c><c>     10.00000000</c><c>  PAW_PBE Ni 02Aug2007                  </c></rc>
   </set>
  </array>
 </atominfo>
 <structure name="initialpos" >
  <crystal>
   <varray name="basis" >
    <v>       1.75000000       1.75000000       0.00000000 </v>
    <v>       0.00000000       1.75000000       1.75000000 </v>
    <v>       1.75000000       0.00000000       1.75000000 </v>
   </varray>
   <i name="volume">     10.71875000 </i>
   <varray name="rec_basis" >
    <v>       0.28571429       0.28571429      -0.28571429 </v>
    <v>      -0.28571429       0.28571429       0.28571429 </v>
    <v>       0.28571429      -0.28571429       0.28571429 </v>
   </varray>
  </crystal>
  <varray name="positions" >
   <v>       0.00000000       0.00000000       0.00000000 </v>
  </varray>
 </structure>
 <calculation>
  <scstep>
   <time name="dav">    0.17    0.17</time>
   <time name="total">    0.17    0.17</time>
   <energy>
    <i name="alphaZ">     47.57961609 </i>
    <i name="ewald">   -943.15768639 </i>
    <i name="hartreedc">   -242.77483297 </i>
    <i name="XCdc">     31.82572317 </i>
    <i name="pawpsdc">    962.83317360 </i>
    <i name="pawaedc">  -1029.67071227 </i>
    <i name="eentropy">     -0.00055321 </i>
    <i name="bandstr">    112.63130819 </i>
    <i name="atom">   1077.63607467 </i>
    <i name="e_fr_energy">     16.90211089 </i>
    <i name="e_wo_entrp">     16.90266410 </i>
    <i name="e_0_energy">     16.90229529 </i>
   </energy>
  </scstep>
  <scstep>
   <time name="dav">    0.16    0.16</time>
   <time name="total">    0.16    0.16</time>
   <energy>
    <i name="e_fr_energy">     -6.05083386 </i>
    <i name="e_wo_entrp">     -6.04997307 </i>
    <i name="e_0_energy">     -6.05054693 </i>
   </energy>
  </scstep>
  <scstep>
   <time name="dav">    0.16    0.16</time>
   <time name="total">    0.16    0.16</time>
   <energy>
    <i name="e_fr_energy">     -6.47832493 </i>
    <i name="e_wo_entrp">     -6.47815095 </i>
    <i name="e_0_energy">     -6.47826694 </i>
   </energy>
  </scstep>
  <scstep>
   <time name="dav">    0.16    0.16</time>
   <time name="total">    0.16    0.16</time>
   <energy>
    <i name="e_fr_energy">     -6.48055563 </i>
    <i name="e_wo_entrp">     -6.48038634 </i>
    <i name="e_0_energy">     -6.48049920 </i>
   </energy>
  </scstep>
  <scstep>
   <time name="dav">    0.15    0.15</time>
   <time name="total">    0.16    0.16</time>
   <energy>
    <i name="e_fr_energy">     -6.48058476 </i>
    <i name="e_wo_entrp">     -6.48041554 </i>
    <i name="e_0_energy">     -6.48052835 </i>
   </energy>
  </scstep>
  <scstep>
   <time name="dav">    0.16    0.16</time>
   <time name="total">    0.17    0.17</time>
   <energy>
    <i name="e_fr_energy">     -5.78018020 </i>
    <i name="e_wo_entrp">     -5.77716467 </i>
    <i name="e_0_energy">     -5.77917503 </i>
   </energy>
  </scstep>
  <scstep>
   <time name="dav">    0.17    0.17</time>
   <time name="total">    0.17    0.17</time>
   <energy>
    <i name="e_fr_energy">     -5.48259384 </i>
    <i name="e_wo_entrp">     -5.48081896 </i>
    <i name="e_0_energy">     -5.48200222 </i>
   </energy>
  </scstep>
  <scstep>
   <time name="dav">    0.18    0.18</time>
   <time name="total">    0.19    0.19</time>
   <energy>
    <i name="e_fr_energy">     -5.46680588 </i>
    <i name="e_wo_entrp">     -5.46475986 </i>
    <i name="e_0_energy">     -5.46612388 </i>
   </energy>
  </scstep>
  <scstep>
   <time name="dav">    0.15    0.15</time>
   <time name="total">    0.16    0.16</time>
   <energy>
    <i name="e_fr_energy">     -5.46470801 </i>
    <i name="e_wo_entrp">     -5.46263271 </i>
    <i name="e_0_energy">     -5.46401625 </i>
   </energy>
  </scstep>
  <scstep>
   <time name="dav">    0.12    0.12</time>
   <time name="total">    0.13    0.13</time>
   <energy>
    <i name="e_fr_energy">     -5.46417874 </i>
    <i name="e_wo_entrp">     -5.46208741 </i>
    <i name="e_0_energy">     -5.46348163 </i>
   </energy>
  </scstep>
  <scstep>
   <time name="dav">    0.10    0.10</time>
   <time name="total">    0.11    0.11</time>
   <energy>
    <i name="alphaZ">     47.57961609 </i>
    <i name="ewald">   -943.15768639 </i>
    <i name="hartreedc">   -222.00215544 </i>
    <i name="XCdc">     30.74143322 </i>
    <i name="pawpsdc">   1147.07810386 </i>
    <i name="pawaedc">  -1215.69580439 </i>
    <i name="eentropy">     -0.00210252 </i>
    <i name="bandstr">     72.35833573 </i>
    <i name="atom">   1077.63607467 </i>
    <i name="e_fr_energy">     -5.46418516 </i>
    <i name="e_wo_entrp">     -5.46208264 </i>
    <i name="e_0_energy">     -5.46348432 </i>
   </energy>
  </scstep>
  <structure>
   <crystal>
    <varray name="basis" >
     <v>       1.75000000       1.75000000       0.00000000 </v>
     <v>       0.00000000       1.75000000       1.75000000 </v>
     <v>       1.75000000       0.00000000       1.75000000 </v>
    </varray>
    <i name="volume">     10.71875000 </i>
    <varray name="rec_basis" >
     <v>       0.28571429       0.28571429      -0.28571429 </v>
     <v>      -0.28571429       0.28571429       0.28571429 </v>
     <v>       0.28571429      -0.28571429       0.28571429 </v>
    </varray>
   </crystal>
   <varray name="positions" >
    <v>       0.00000000       0.00000000       0.00000000 </v>
   </varray>
  </structure>
  <varray name="forces" >
   <v>      -0.00000000       0.00000000      -0.00000000 </v>
  </varray>
  <varray name="stress" >
   <v>     -23.59390937      -0.00000000       0.00000000 </v>
   <v>      -0.00000000     -23.59390937      -0.00000000 </v>
   <v>       0.00000000      -0.00000000     -23.59390937 </v>
  </varray>
  <energy>
   <i name="e_fr_energy">     -5.46418516 </i>
   <i name="e_wo_entrp">     -5.46208264 </i>
   <i name="e_0_energy">     -5.46348432 </i>
  </energy>
  <time name="totalsc">    1.83    1.84</time>
  <eigenvalues>
   <array>
    <dimension dim="1">band</dimension>
    <dimension dim="2">kpoint</dimension>
    <dimension dim="3">spin</dimension>
    <field>eigene</field>
    <field>occ</field>
    <set>
     <set comment="spin 1">
      <set comment="kpoint 1">
       <r>    0.4776    1.0000 </r>
       <r>    7.1483    1.0000 </r>
       <r>    7.1483    1.0000 </r>
       <r>    7.1483    1.0000 </r>
       <r>    8.3254    1.0000 </r>
       <r>    8.3254    1.0000 </r>
       <r>   33.4758    0.0000 </r>
       <r>   37.4364    0.0000 </r>
       <r>   37.4366    0.0000 </r>
       <r>   37.4366    0.0000 </r>
       <r>   40.5794    0.0000 </r>
       <r>   40.5795    0.0000 </r>
      </set>
      <set comment="kpoint 2">
       <r>    0.8030    1.0000 </r>
       <r>    7.0671    1.0000 </r>
       <r>    7.2190    1.0000 </r>
       <r>    7.2190    1.0000 </r>
       <r>    8.2977    1.0000 </r>
       <r>    8.2977    1.0000 </r>
       <r>   32.1375    0.0000 </r>
       <r>   34.9344    0.0000 </r>
       <r>   36.8051    0.0000 </r>
       <r>   36.8053    0.0000 </r>
       <r>   41.5465    0.0000 </r>
       <r>   41.5467    0.0000 </r>
      </set>
      <set comment="kpoint 3">
       <r>    1.7360    1.0000 </r>
       <r>    6.8873    1.0000 </r>
       <r>    7.3530    1.0000 </r>
       <r>    7.3530    1.0000 </r>
       <r>    8.2916    1.0000 </r>
       <r>    8.2916    1.0000 </r>
       <r>   27.6942    0.0000 </r>
       <r>   34.1478    0.0000 </r>
       <r>   35.8808    0.0000 </r>
       <r>   35.8810    0.0000 </r>
       <r>   41.5708    0.0000 </r>
       <r>   42.2989    0.0000 </r>
      </set>
      <set comment="kpoint 4">
       <r>    3.0848    1.0000 </r>
       <r>    6.8449    1.0000 </r>
       <r>    7.3626    1.0000 </r>
       <r>    7.3627    1.0000 </r>
       <r>    8.4674    1.0000 </r>
       <r>    8.4675    1.0000 </r>
       <r>   23.0839    0.0000 </r>
       <r>   33.3712    0.0000 </r>
       <r>   35.1833    0.0000 </r>
       <r>   35.1835    0.0000 </r>
       <r>   40.4665    0.0000 </r>
       <r>   40.4667    0.0000 </r>
      </set>
      <set comment="kpoint 5">
       <r>    4.2506    1.0000 </r>
       <r>    7.2529    1.0000 </r>
       <r>    7.2531    1.0000 </r>
       <r>    7.4893    1.0000 </r>
       <r>    8.7689    1.0000 </r>
       <r>    8.7690    1.0000 </r>
       <r>   18.9420    0.0000 </r>
       <r>   32.5291    0.0000 </r>
       <r>   34.7466    0.0000 </r>
       <r>   34.7466    0.0000 </r>
       <r>   38.6467    0.0000 </r>
       <r>   38.6473    0.0000 </r>
      </set>
      <set comment="kpoint 6">
       <r>    4.6590    1.0000 </r>
       <r>    7.1671    1.0000 </r>
       <r>    7.1672    1.0000 </r>
       <r>    8.9332    1.0000 </r>
       <r>    8.9837    1.0001 </r>
       <r>    8.9838    1.0001 </r>
       <r>   15.9030    0.0000 </r>
       <r>   32.0209    0.0000 </r>
       <r>   34.5616    0.0000 </r>
       <r>   34.5618    0.0000 </r>
       <r>   37.6843    0.0000 </r>
       <r>   37.6850    0.0000 </r>
      </set>
      <set comment="kpoint 7">
       <r>    0.9107    1.0000 </r>
       <r>    6.9940    1.0000 </r>
       <r>    7.2715    1.0000 </r>
       <r>    7.2715    1.0000 </r>
       <r>    8.1852    1.0000 </r>
       <r>    8.3815    1.0000 </r>
       <r>   32.7024    0.0000 </r>
       <r>   34.8711    0.0000 </r>
       <r>   34.8713    0.0000 </r>
       <r>   35.6980    0.0000 </r>
       <r>   42.3035    0.0000 </r>
       <r>   43.0673    0.0000 </r>
      </set>
      <set comment="kpoint 8">
       <r>    1.6404    1.0000 </r>
       <r>    6.8101    1.0000 </r>
       <r>    7.4078    1.0000 </r>
       <r>    7.4184    1.0000 </r>
       <r>    8.0807    1.0000 </r>
       <r>    8.4362    1.0000 </r>
       <r>   29.4744    0.0000 </r>
       <r>   33.2065    0.0000 </r>
       <r>   33.3667    0.0000 </r>
       <r>   36.7349    0.0000 </r>
       <r>   40.4437    0.0000 </r>
       <r>   42.7810    0.0000 </r>
      </set>
      <set comment="kpoint 9">
       <r>    2.8664    1.0000 </r>
       <r>    6.6603    1.0000 </r>
       <r>    7.3874    1.0000 </r>
       <r>    7.4931    1.0000 </r>
       <r>    8.2751    1.0000 </r>
       <r>    8.5910    1.0000 </r>
       <r>   24.8045    0.0000 </r>
       <r>   32.3814    0.0000 </r>
       <r>   32.4628    0.0000 </r>
       <r>   36.5562    0.0000 </r>
       <r>   39.7793    0.0000 </r>
       <r>   42.5387    0.0000 </r>
      </set>
      <set comment="kpoint 10">
       <r>    4.1610    1.0000 </r>
       <r>    6.8579    1.0000 </r>
       <r>    7.2082    1.0000 </r>
       <r>    7.4218    1.0000 </r>
       <r>    8.8389    1.0000 </r>
       <r>    8.8481    1.0000 </r>
       <r>   20.4397    0.0000 </r>
       <r>   31.6412    0.0000 </r>
       <r>   31.9372    0.0000 </r>
       <r>   34.6589    0.0000 </r>
       <r>   40.0703    0.0000 </r>
       <r>   41.9572    0.0000 </r>
      </set>
      <set comment="kpoint 11">
       <r>    4.7808    1.0000 </r>
       <r>    7.0493    1.0000 </r>
       <r>    7.3186    1.0000 </r>
       <r>    7.6563    1.0000 </r>
       <r>    9.0137    1.0003 </r>
       <r>    9.8535   -0.0310 </r>
       <r>   16.8469    0.0000 </r>
       <r>   30.8017    0.0000 </r>
       <r>   32.1376    0.0000 </r>
       <r>   33.3706    0.0000 </r>
       <r>   39.9898    0.0000 </r>
       <r>   40.4433    0.0000 </r>
      </set>
      <set comment="kpoint 12">
       <r>    4.8734    1.0000 </r>
       <r>    7.0228    1.0000 </r>
       <r>    7.2727    1.0000 </r>
       <r>    8.0047    1.0000 </r>
       <r>    8.9695    1.0001 </r>
       <r>   10.5504   -0.0000 </r>
       <r>   15.5045    0.0000 </r>
       <r>   30.0446    0.0000 </r>
       <r>   33.0301    0.0000 </r>
       <r>   33.0523    0.0000 </r>
       <r>   39.3513    0.0000 </r>
       <r>   40.0432    0.0000 </r>
      </set>
      <set comment="kpoint 13">
       <r>    4.6688    1.0000 </r>
       <r>    7.1167    1.0000 </r>
       <r>    7.3260    1.0000 </r>
       <r>    7.4489    1.0000 </r>
       <r>    8.7075    1.0000 </r>
       <r>    9.6379    0.2282 </r>
       <r>   17.9237    0.0000 </r>
       <r>   29.6524    0.0000 </r>
       <r>   33.5606    0.0000 </r>
       <r>   34.7317    0.0000 </r>
       <r>   38.8091    0.0000 </r>
       <r>   40.2046    0.0000 </r>
      </set>
      <set comment="kpoint 14">
       <r>    3.7791    1.0000 </r>
       <r>    6.7700    1.0000 </r>
       <r>    7.2756    1.0000 </r>
       <r>    7.4448    1.0000 </r>
       <r>    8.3340    1.0000 </r>
       <r>    8.9850    1.0001 </r>
       <r>   21.8425    0.0000 </r>
       <r>   29.7383    0.0000 </r>
       <r>   34.7791    0.0000 </r>
       <r>   37.0937    0.0000 </r>
       <r>   38.6406    0.0000 </r>
       <r>   39.8435    0.0000 </r>
      </set>
      <set comment="kpoint 15">
       <r>    2.4202    1.0000 </r>
       <r>    6.7343    1.0000 </r>
       <r>    7.3846    1.0000 </r>
       <r>    7.4844    1.0000 </r>
       <r>    8.0895    1.0000 </r>
       <r>    8.5841    1.0000 </r>
       <r>   26.3329    0.0000 </r>
       <r>   30.3016    0.0000 </r>
       <r>   36.2571    0.0000 </r>
       <r>   38.7887    0.0000 </r>
       <r>   39.0260    0.0000 </r>
       <r>   39.9447    0.0000 </r>
      </set>
      <set comment="kpoint 16">
       <r>    1.3319    1.0000 </r>
       <r>    6.9228    1.0000 </r>
       <r>    7.3247    1.0000 </r>
       <r>    7.3343    1.0000 </r>
       <r>    8.1579    1.0000 </r>
       <r>    8.3858    1.0000 </r>
       <r>   30.6186    0.0000 </r>
       <r>   31.7718    0.0000 </r>
       <r>   36.3371    0.0000 </r>
       <r>   38.6364    0.0000 </r>
       <r>   39.8120    0.0000 </r>
       <r>   40.9335    0.0000 </r>
      </set>
      <set comment="kpoint 17">
       <r>    2.1392    1.0000 </r>
       <r>    6.5896    1.0000 </r>
       <r>    7.6238    1.0000 </r>
       <r>    7.6238    1.0000 </r>
       <r>    7.8586    1.0000 </r>
       <r>    8.5335    1.0000 </r>
       <r>   31.4194    0.0000 </r>
       <r>   31.4196    0.0000 </r>
       <r>   31.4528    0.0000 </r>
       <r>   32.8144    0.0000 </r>
       <r>   38.2922    0.0000 </r>
       <r>   46.3165    0.0000 </r>
      </set>
      <set comment="kpoint 18">
       <r>    3.1403    1.0000 </r>
       <r>    6.3636    1.0000 </r>
       <r>    7.4889    1.0000 </r>
       <r>    7.8006    1.0000 </r>
       <r>    8.1728    1.0000 </r>
       <r>    8.6699    1.0000 </r>
       <r>   26.9059    0.0000 </r>
       <r>   30.0725    0.0000 </r>
       <r>   31.0535    0.0000 </r>
       <r>   32.9975    0.0000 </r>
       <r>   37.4352    0.0000 </r>
       <r>   45.7381    0.0000 </r>
      </set>
      <set comment="kpoint 19">
       <r>    4.3496    1.0000 </r>
       <r>    6.2813    1.0000 </r>
       <r>    7.1935    1.0000 </r>
       <r>    7.7982    1.0000 </r>
       <r>    8.8917    1.0000 </r>
       <r>    9.0238    1.0004 </r>
       <r>   22.4185    0.0000 </r>
       <r>   29.3839    0.0000 </r>
       <r>   29.3879    0.0000 </r>
       <r>   32.5611    0.0000 </r>
       <r>   40.0254    0.0000 </r>
       <r>   44.7634    0.0000 </r>
      </set>
      <set comment="kpoint 20">
       <r>    5.1241    1.0000 </r>
       <r>    6.4924    1.0000 </r>
       <r>    7.0838    1.0000 </r>
       <r>    7.7008    1.0000 </r>
       <r>    9.0444    1.0007 </r>
       <r>   10.4836   -0.0000 </r>
       <r>   18.4240    0.0000 </r>
       <r>   27.6651    0.0000 </r>
       <r>   29.4547    0.0000 </r>
       <r>   32.1828    0.0000 </r>
       <r>   43.3311    0.0000 </r>
       <r>   44.1009    0.0000 </r>
      </set>
      <set comment="kpoint 21">
       <r>    5.3288    1.0000 </r>
       <r>    6.6126    1.0000 </r>
       <r>    7.2698    1.0000 </r>
       <r>    7.6166    1.0000 </r>
       <r>    8.9775    1.0001 </r>
       <r>   12.1918   -0.0000 </r>
       <r>   15.7262    0.0000 </r>
       <r>   26.2969    0.0000 </r>
       <r>   30.3161    0.0000 </r>
       <r>   32.2453    0.0000 </r>
       <r>   42.8662    0.0000 </r>
       <r>   43.1452    0.0000 </r>
      </set>
      <set comment="kpoint 22">
       <r>    5.3022    1.0000 </r>
       <r>    6.7487    1.0000 </r>
       <r>    7.0793    1.0000 </r>
       <r>    7.6095    1.0000 </r>
       <r>    8.6799    1.0000 </r>
       <r>   11.2963   -0.0000 </r>
       <r>   17.3259    0.0000 </r>
       <r>   25.4604    0.0000 </r>
       <r>   31.9482    0.0000 </r>
       <r>   32.8559    0.0000 </r>
       <r>   42.1272    0.0000 </r>
       <r>   42.3522    0.0000 </r>
      </set>
      <set comment="kpoint 23">
       <r>    4.7857    1.0000 </r>
       <r>    6.5892    1.0000 </r>
       <r>    7.0011    1.0000 </r>
       <r>    7.7001    1.0000 </r>
       <r>    8.2481    1.0000 </r>
       <r>    9.9346   -0.0135 </r>
       <r>   21.0656    0.0000 </r>
       <r>   25.2406    0.0000 </r>
       <r>   34.0895    0.0000 </r>
       <r>   34.2403    0.0000 </r>
       <r>   40.9069    0.0000 </r>
       <r>   41.9483    0.0000 </r>
      </set>
      <set comment="kpoint 24">
       <r>    3.5744    1.0000 </r>
       <r>    6.5458    1.0000 </r>
       <r>    7.2577    1.0000 </r>
       <r>    7.7880    1.0000 </r>
       <r>    7.8964    1.0000 </r>
       <r>    9.1081    1.0026 </r>
       <r>   25.1168    0.0000 </r>
       <r>   25.9183    0.0000 </r>
       <r>   35.8596    0.0000 </r>
       <r>   36.9658    0.0000 </r>
       <r>   38.9611    0.0000 </r>
       <r>   42.1570    0.0000 </r>
      </set>
      <set comment="kpoint 25">
       <r>    3.8007    1.0000 </r>
       <r>    6.0829    1.0000 </r>
       <r>    7.7676    1.0000 </r>
       <r>    8.1548    1.0000 </r>
       <r>    8.1548    1.0000 </r>
       <r>    8.7398    1.0000 </r>
       <r>   28.3667    0.0000 </r>
       <r>   28.3668    0.0000 </r>
       <r>   28.7178    0.0000 </r>
       <r>   30.5120    0.0000 </r>
       <r>   34.8252    0.0000 </r>
       <r>   50.0475    0.0000 </r>
      </set>
      <set comment="kpoint 26">
       <r>    4.5976    1.0000 </r>
       <r>    5.8919    1.0000 </r>
       <r>    7.6654    1.0000 </r>
       <r>    8.2959    1.0000 </r>
       <r>    8.9105    1.0000 </r>
       <r>    9.0337    1.0005 </r>
       <r>   24.6920    0.0000 </r>
       <r>   26.5056    0.0000 </r>
       <r>   27.3635    0.0000 </r>
       <r>   31.2557    0.0000 </r>
       <r>   35.5614    0.0000 </r>
       <r>   49.7957    0.0000 </r>
      </set>
      <set comment="kpoint 27">
       <r>    5.2210    1.0000 </r>
       <r>    5.8892    1.0000 </r>
       <r>    7.4294    1.0000 </r>
       <r>    8.2313    1.0000 </r>
       <r>    9.0703    1.0012 </r>
       <r>   10.8070   -0.0000 </r>
       <r>   20.6209    0.0000 </r>
       <r>   24.4255    0.0000 </r>
       <r>   27.1887    0.0000 </r>
       <r>   31.4666    0.0000 </r>
       <r>   38.9032    0.0000 </r>
       <r>   48.0774    0.0000 </r>
      </set>
      <set comment="kpoint 28">
       <r>    5.5835    1.0000 </r>
       <r>    6.0503    1.0000 </r>
       <r>    7.2097    1.0000 </r>
       <r>    8.1175    1.0000 </r>
       <r>    9.0049    1.0002 </r>
       <r>   13.2445   -0.0000 </r>
       <r>   17.0626    0.0000 </r>
       <r>   22.8112    0.0000 </r>
       <r>   27.8847    0.0000 </r>
       <r>   31.6173    0.0000 </r>
       <r>   43.2249    0.0000 </r>
       <r>   46.6076    0.0000 </r>
      </set>
      <set comment="kpoint 29">
       <r>    5.8144    1.0000 </r>
       <r>    6.2626    1.0000 </r>
       <r>    6.9132    1.0000 </r>
       <r>    8.0262    1.0000 </r>
       <r>    8.7154    1.0000 </r>
       <r>   13.4960   -0.0000 </r>
       <r>   16.9656    0.0000 </r>
       <r>   21.7891    0.0000 </r>
       <r>   29.3936    0.0000 </r>
       <r>   32.0690    0.0000 </r>
       <r>   45.5163    0.0000 </r>
       <r>   45.5426    0.0000 </r>
      </set>
      <set comment="kpoint 30">
       <r>    5.6624    1.0000 </r>
       <r>    6.5591    1.0000 </r>
       <r>    6.6089    1.0000 </r>
       <r>    7.9379    1.0000 </r>
       <r>    8.3621    1.0000 </r>
       <r>   11.4055   -0.0000 </r>
       <r>   20.0777    0.0000 </r>
       <r>   21.8533    0.0000 </r>
       <r>   31.5683    0.0000 </r>
       <r>   32.9267    0.0000 </r>
       <r>   43.3505    0.0000 </r>
       <r>   44.4824    0.0000 </r>
      </set>
      <set comment="kpoint 31">
       <r>    4.7812    1.0000 </r>
       <r>    5.6328    1.0000 </r>
       <r>    8.7159    1.0000 </r>
       <r>    8.7159    1.0000 </r>
       <r>    8.9220    1.0000 </r>
       <r>    9.0579    1.0009 </r>
       <r>   23.7689    0.0000 </r>
       <r>   26.0230    0.0000 </r>
       <r>   26.0231    0.0000 </r>
       <r>   29.8752    0.0000 </r>
       <r>   33.5725    0.0000 </r>
       <r>   54.0830    0.0000 </r>
      </set>
      <set comment="kpoint 32">
       <r>    4.9898    1.0000 </r>
       <r>    5.5430    1.0000 </r>
       <r>    8.4237    1.0000 </r>
       <r>    8.7490    1.0000 </r>
       <r>    9.0800    1.0015 </r>
       <r>   10.9483   -0.0000 </r>
       <r>   21.6021    0.0000 </r>
       <r>   23.2553    0.0000 </r>
       <r>   25.5415    0.0000 </r>
       <r>   30.6523    0.0000 </r>
       <r>   34.7708    0.0000 </r>
       <r>   52.0902    0.0000 </r>
      </set>
      <set comment="kpoint 33">
       <r>    5.2821    1.0000 </r>
       <r>    5.6502    1.0000 </r>
       <r>    7.9115    1.0000 </r>
       <r>    8.6318    1.0000 </r>
       <r>    9.0524    1.0008 </r>
       <r>   13.4079   -0.0000 </r>
       <r>   19.3998    0.0000 </r>
       <r>   20.3334    0.0000 </r>
       <r>   26.0041    0.0000 </r>
       <r>   31.1213    0.0000 </r>
       <r>   38.3925    0.0000 </r>
       <r>   50.1899    0.0000 </r>
      </set>
      <set comment="kpoint 34">
       <r>    5.6568    1.0000 </r>
       <r>    5.8999    1.0000 </r>
       <r>    7.3206    1.0000 </r>
       <r>    8.4161    1.0000 </r>
       <r>    8.8553    1.0000 </r>
       <r>   15.8518    0.0000 </r>
       <r>   16.2420    0.0000 </r>
       <r>   19.8255    0.0000 </r>
       <r>   27.3487    0.0000 </r>
       <r>   31.5089    0.0000 </r>
       <r>   43.0956    0.0000 </r>
       <r>   48.2323    0.0000 </r>
      </set>
      <set comment="kpoint 35">
       <r>    4.8671    1.0000 </r>
       <r>    5.3765    1.0000 </r>
       <r>    9.0343    1.0005 </r>
       <r>    9.1030    1.0024 </r>
       <r>    9.1030    1.0024 </r>
       <r>   11.4863   -0.0000 </r>
       <r>   19.7093    0.0000 </r>
       <r>   24.7287    0.0000 </r>
       <r>   24.7288    0.0000 </r>
       <r>   29.6041    0.0000 </r>
       <r>   33.1924    0.0000 </r>
       <r>   54.4461    0.0000 </r>
      </set>
      <set comment="kpoint 36">
       <r>    4.9713    1.0000 </r>
       <r>    5.4181    1.0000 </r>
       <r>    8.7352    1.0000 </r>
       <r>    8.9589    1.0001 </r>
       <r>    9.1258    1.0037 </r>
       <r>   12.6911   -0.0000 </r>
       <r>   19.0092    0.0000 </r>
       <r>   22.6691    0.0000 </r>
       <r>   24.8937    0.0000 </r>
       <r>   30.5099    0.0000 </r>
       <r>   34.5643    0.0000 </r>
       <r>   53.0945    0.0000 </r>
      </set>
      <set comment="kpoint 37">
       <r>    2.5217    1.0000 </r>
       <r>    6.5988    1.0000 </r>
       <r>    7.4283    1.0000 </r>
       <r>    7.6364    1.0000 </r>
       <r>    8.0102    1.0000 </r>
       <r>    8.6206    1.0000 </r>
       <r>   28.0122    0.0000 </r>
       <r>   28.7521    0.0000 </r>
       <r>   34.8623    0.0000 </r>
       <r>   35.3433    0.0000 </r>
       <r>   39.6098    0.0000 </r>
       <r>   42.5951    0.0000 </r>
      </set>
      <set comment="kpoint 38">
       <r>    3.7843    1.0000 </r>
       <r>    6.4694    1.0000 </r>
       <r>    7.2227    1.0000 </r>
       <r>    7.7285    1.0000 </r>
       <r>    8.2530    1.0000 </r>
       <r>    9.0649    1.0010 </r>
       <r>   23.7155    0.0000 </r>
       <r>   27.7150    0.0000 </r>
       <r>   32.7821    0.0000 </r>
       <r>   35.9223    0.0000 </r>
       <r>   40.0637    0.0000 </r>
       <r>   41.8461    0.0000 </r>
      </set>
      <set comment="kpoint 39">
       <r>    4.8482    1.0000 </r>
       <r>    6.6940    1.0000 </r>
       <r>    7.0009    1.0000 </r>
       <r>    7.6242    1.0000 </r>
       <r>    8.6866    1.0000 </r>
       <r>    9.9121   -0.0180 </r>
       <r>   19.5152    0.0000 </r>
       <r>   27.5055    0.0000 </r>
       <r>   30.8142    0.0000 </r>
       <r>   35.2300    0.0000 </r>
       <r>   39.8474    0.0000 </r>
       <r>   43.4913    0.0000 </r>
      </set>
      <set comment="kpoint 40">
       <r>    5.1828    1.0000 </r>
       <r>    6.7657    1.0000 </r>
       <r>    7.3195    1.0000 </r>
       <r>    7.5326    1.0000 </r>
       <r>    8.9291    1.0000 </r>
       <r>   11.3734   -0.0000 </r>
       <r>   16.2261    0.0000 </r>
       <r>   27.7985    0.0000 </r>
       <r>   29.3700    0.0000 </r>
       <r>   34.6633    0.0000 </r>
       <r>   39.5416    0.0000 </r>
       <r>   43.9551    0.0000 </r>
      </set>
      <set comment="kpoint 41">
       <r>    4.1185    1.0000 </r>
       <r>    6.1537    1.0000 </r>
       <r>    7.3030    1.0000 </r>
       <r>    8.1534    1.0000 </r>
       <r>    8.3439    1.0000 </r>
       <r>    9.0514    1.0008 </r>
       <r>   25.6846    0.0000 </r>
       <r>   26.2343    0.0000 </r>
       <r>   29.5314    0.0000 </r>
       <r>   33.7120    0.0000 </r>
       <r>   37.0819    0.0000 </r>
       <r>   45.4058    0.0000 </r>
      </set>
      <set comment="kpoint 42">
       <r>    5.0770    1.0000 </r>
       <r>    6.1113    1.0000 </r>
       <r>    7.0400    1.0000 </r>
       <r>    8.1406    1.0000 </r>
       <r>    8.7395    1.0000 </r>
       <r>   10.1141   -0.0004 </r>
       <r>   21.6157    0.0000 </r>
       <r>   25.5797    0.0000 </r>
       <r>   27.3532    0.0000 </r>
       <r>   34.3582    0.0000 </r>
       <r>   39.3372    0.0000 </r>
       <r>   44.0891    0.0000 </r>
      </set>
      <set comment="kpoint 43">
       <r>    5.5550    1.0000 </r>
       <r>    6.2560    1.0000 </r>
       <r>    6.9507    1.0000 </r>
       <r>    7.9965    1.0000 </r>
       <r>    8.9522    1.0001 </r>
       <r>   12.0337   -0.0000 </r>
       <r>   17.8156    0.0000 </r>
       <r>   25.1859    0.0000 </r>
       <r>   26.2323    0.0000 </r>
       <r>   34.4590    0.0000 </r>
       <r>   41.5251    0.0000 </r>
       <r>   44.7639    0.0000 </r>
      </set>
      <set comment="kpoint 44">
       <r>    5.7132    1.0000 </r>
       <r>    6.3200    1.0000 </r>
       <r>    6.9613    1.0000 </r>
       <r>    7.9020    1.0000 </r>
       <r>    8.8861    1.0000 </r>
       <r>   13.4220   -0.0000 </r>
       <r>   16.0267    0.0000 </r>
       <r>   24.0451    0.0000 </r>
       <r>   27.0414    0.0000 </r>
       <r>   34.9190    0.0000 </r>
       <r>   41.0771    0.0000 </r>
       <r>   47.8311    0.0000 </r>
      </set>
      <set comment="kpoint 45">
       <r>    5.6241    1.0000 </r>
       <r>    6.4810    1.0000 </r>
       <r>    6.6622    1.0000 </r>
       <r>    7.9544    1.0000 </r>
       <r>    8.5973    1.0000 </r>
       <r>   11.5157   -0.0000 </r>
       <r>   19.0070    0.0000 </r>
       <r>   23.3856    0.0000 </r>
       <r>   28.5572    0.0000 </r>
       <r>   35.9840    0.0000 </r>
       <r>   40.1014    0.0000 </r>
       <r>   45.9119    0.0000 </r>
      </set>
      <set comment="kpoint 46">
       <r>    4.9118    1.0000 </r>
       <r>    6.3460    1.0000 </r>
       <r>    6.9062    1.0000 </r>
       <r>    8.0640    1.0000 </r>
       <r>    8.1855    1.0000 </r>
       <r>    9.9946   -0.0052 </r>
       <r>   22.6610    0.0000 </r>
       <r>   23.7232    0.0000 </r>
       <r>   30.5609    0.0000 </r>
       <r>   37.6775    0.0000 </r>
       <r>   38.3848    0.0000 </r>
       <r>   43.3807    0.0000 </r>
      </set>
      <set comment="kpoint 47">
       <r>    5.0448    1.0000 </r>
       <r>    5.7566    1.0000 </r>
       <r>    7.6897    1.0000 </r>
       <r>    8.7147    1.0000 </r>
       <r>    8.7760    1.0000 </r>
       <r>   10.2757   -0.0000 </r>
       <r>   23.8255    0.0000 </r>
       <r>   23.8298    0.0000 </r>
       <r>   24.7943    0.0000 </r>
       <r>   32.6395    0.0000 </r>
       <r>   35.8758    0.0000 </r>
       <r>   48.1458    0.0000 </r>
      </set>
      <set comment="kpoint 48">
       <r>    5.4041    1.0000 </r>
       <r>    5.8097    1.0000 </r>
       <r>    7.4346    1.0000 </r>
       <r>    8.5295    1.0000 </r>
       <r>    9.0018    1.0002 </r>
       <r>   12.3958   -0.0000 </r>
       <r>   20.1627    0.0000 </r>
       <r>   22.2058    0.0000 </r>
       <r>   24.3760    0.0000 </r>
       <r>   33.5660    0.0000 </r>
       <r>   38.7786    0.0000 </r>
       <r>   46.4178    0.0000 </r>
      </set>
      <set comment="kpoint 49">
       <r>    5.7373    1.0000 </r>
       <r>    5.9803    1.0000 </r>
       <r>    7.0926    1.0000 </r>
       <r>    8.3129    1.0000 </r>
       <r>    8.9599    1.0001 </r>
       <r>   15.0600    0.0000 </r>
       <r>   16.8033    0.0000 </r>
       <r>   20.8907    0.0000 </r>
       <r>   25.1843    0.0000 </r>
       <r>   34.1130    0.0000 </r>
       <r>   43.0037    0.0000 </r>
       <r>   44.9022    0.0000 </r>
      </set>
      <set comment="kpoint 50">
       <r>    6.0547    1.0000 </r>
       <r>    6.1370    1.0000 </r>
       <r>    6.6796    1.0000 </r>
       <r>    8.1678    1.0000 </r>
       <r>    8.7338    1.0000 </r>
       <r>   13.7211   -0.0000 </r>
       <r>   18.0707    0.0000 </r>
       <r>   20.6691    0.0000 </r>
       <r>   26.6379    0.0000 </r>
       <r>   34.9721    0.0000 </r>
       <r>   42.5821    0.0000 </r>
       <r>   47.1189    0.0000 </r>
      </set>
      <set comment="kpoint 51">
       <r>    5.0908    1.0000 </r>
       <r>    5.5226    1.0000 </r>
       <r>    8.2751    1.0000 </r>
       <r>    8.8734    1.0000 </r>
       <r>    9.1018    1.0023 </r>
       <r>   12.6018   -0.0000 </r>
       <r>   19.8786    0.0000 </r>
       <r>   22.7404    0.0000 </r>
       <r>   23.4613    0.0000 </r>
       <r>   32.0921    0.0000 </r>
       <r>   35.4306    0.0000 </r>
       <r>   50.4877    0.0000 </r>
      </set>
      <set comment="kpoint 52">
       <r>    5.3574    1.0000 </r>
       <r>    5.7031    1.0000 </r>
       <r>    7.7261    1.0000 </r>
       <r>    8.6345    1.0000 </r>
       <r>    9.0990    1.0022 </r>
       <r>   14.4537   -0.0000 </r>
       <r>   19.0434    0.0000 </r>
       <r>   19.9239    0.0000 </r>
       <r>   23.8458    0.0000 </r>
       <r>   33.3210    0.0000 </r>
       <r>   38.6095    0.0000 </r>
       <r>   47.9210    0.0000 </r>
      </set>
      <set comment="kpoint 53">
       <r>    5.6709    1.0000 </r>
       <r>    6.1136    1.0000 </r>
       <r>    6.7629    1.0000 </r>
       <r>    8.3880    1.0000 </r>
       <r>    8.7104    1.0000 </r>
       <r>   11.8281   -0.0000 </r>
       <r>   20.7946    0.0000 </r>
       <r>   22.1860    0.0000 </r>
       <r>   25.1601    0.0000 </r>
       <r>   37.2104    0.0000 </r>
       <r>   39.0288    0.0000 </r>
       <r>   43.5016    0.0000 </r>
      </set>
      <set comment="kpoint 54">
       <r>    5.9238    1.0000 </r>
       <r>    6.1964    1.0000 </r>
       <r>    6.6483    1.0000 </r>
       <r>    8.2185    1.0000 </r>
       <r>    8.9420    1.0000 </r>
       <r>   14.2187   -0.0000 </r>
       <r>   17.6068    0.0000 </r>
       <r>   22.1805    0.0000 </r>
       <r>   23.5273    0.0000 </r>
       <r>   37.7925    0.0000 </r>
       <r>   40.0559    0.0000 </r>
       <r>   44.9181    0.0000 </r>
      </set>
      <set comment="kpoint 55">
       <r>    5.5936    1.0000 </r>
       <r>    5.9657    1.0000 </r>
       <r>    7.1381    1.0000 </r>
       <r>    8.4481    1.0000 </r>
       <r>    9.1007    1.0023 </r>
       <r>   14.6262   -0.0000 </r>
       <r>   19.7301    0.0000 </r>
       <r>   20.3691    0.0000 </r>
       <r>   21.6856    0.0000 </r>
       <r>   36.5903    0.0000 </r>
       <r>   39.8625    0.0000 </r>
       <r>   44.4651    0.0000 </r>
      </set>
      <set comment="kpoint 56">
       <r>    5.7847    1.0000 </r>
       <r>    6.2609    1.0000 </r>
       <r>    6.7112    1.0000 </r>
       <r>    8.2727    1.0000 </r>
       <r>    9.0988    1.0022 </r>
       <r>   16.8999    0.0000 </r>
       <r>   16.9351    0.0000 </r>
       <r>   20.0165    0.0000 </r>
       <r>   22.0207    0.0000 </r>
       <r>   38.0873    0.0000 </r>
       <r>   41.9145    0.0000 </r>
       <r>   43.2197    0.0000 </r>
      </set>
     </set>
     <set comment="spin 2">
      <set comment="kpoint 1">
       <r>    0.4354    1.0000 </r>
       <r>    7.8221    1.0000 </r>
       <r>    7.8221    1.0000 </r>
       <r>    7.8221    1.0000 </r>
       <r>    8.9038    1.0000 </r>
       <r>    8.9038    1.0000 </r>
       <r>   33.3162    0.0000 </r>
       <r>   37.4081    0.0000 </r>
       <r>   37.4083    0.0000 </r>
       <r>   37.4083    0.0000 </r>
       <r>   40.6433    0.0000 </r>
       <r>   40.6434    0.0000 </r>
      </set>
      <set comment="kpoint 2">
       <r>    0.7613    1.0000 </r>
       <r>    7.7306    1.0000 </r>
       <r>    7.8949    1.0000 </r>
       <r>    7.8949    1.0000 </r>
       <r>    8.8747    1.0000 </r>
       <r>    8.8747    1.0000 </r>
       <r>   32.0903    0.0000 </r>
       <r>   34.8576    0.0000 </r>
       <r>   36.8150    0.0000 </r>
       <r>   36.8152    0.0000 </r>
       <r>   41.5613    0.0000 </r>
       <r>   41.5614    0.0000 </r>
      </set>
      <set comment="kpoint 3">
       <r>    1.6998    1.0000 </r>
       <r>    7.5174    1.0000 </r>
       <r>    8.0194    1.0000 </r>
       <r>    8.0195    1.0000 </r>
       <r>    8.8804    1.0000 </r>
       <r>    8.8805    1.0000 </r>
       <r>   27.7598    0.0000 </r>
       <r>   34.0212    0.0000 </r>
       <r>   35.9295    0.0000 </r>
       <r>   35.9298    0.0000 </r>
       <r>   41.5106    0.0000 </r>
       <r>   42.2705    0.0000 </r>
      </set>
      <set comment="kpoint 4">
       <r>    3.0879    1.0000 </r>
       <r>    7.3904    1.0000 </r>
       <r>    7.9887    1.0000 </r>
       <r>    7.9888    1.0000 </r>
       <r>    9.1030    1.0024 </r>
       <r>    9.1031    1.0024 </r>
       <r>   23.2129    0.0000 </r>
       <r>   33.2378    0.0000 </r>
       <r>   35.2541    0.0000 </r>
       <r>   35.2543    0.0000 </r>
       <r>   40.4777    0.0000 </r>
       <r>   40.4778    0.0000 </r>
      </set>
      <set comment="kpoint 5">
       <r>    4.4280    1.0000 </r>
       <r>    7.7885    1.0000 </r>
       <r>    7.8479    1.0000 </r>
       <r>    7.8480    1.0000 </r>
       <r>    9.4449    0.9298 </r>
       <r>    9.4450    0.9297 </r>
       <r>   19.1515    0.0000 </r>
       <r>   32.3868    0.0000 </r>
       <r>   34.8245    0.0000 </r>
       <r>   34.8245    0.0000 </r>
       <r>   38.6686    0.0000 </r>
       <r>   38.6690    0.0000 </r>
      </set>
      <set comment="kpoint 6">
       <r>    5.0208    1.0000 </r>
       <r>    7.7480    1.0000 </r>
       <r>    7.7481    1.0000 </r>
       <r>    8.9255    1.0000 </r>
       <r>    9.6804    0.1011 </r>
       <r>    9.6805    0.1009 </r>
       <r>   16.2380    0.0000 </r>
       <r>   31.8719    0.0000 </r>
       <r>   34.6358    0.0000 </r>
       <r>   34.6359    0.0000 </r>
       <r>   37.7096    0.0000 </r>
       <r>   37.7101    0.0000 </r>
      </set>
      <set comment="kpoint 7">
       <r>    0.8691    1.0000 </r>
       <r>    7.6557    1.0000 </r>
       <r>    7.9490    1.0000 </r>
       <r>    7.9490    1.0000 </r>
       <r>    8.7545    1.0000 </r>
       <r>    8.9619    1.0001 </r>
       <r>   32.6054    0.0000 </r>
       <r>   34.9097    0.0000 </r>
       <r>   34.9098    0.0000 </r>
       <r>   35.6329    0.0000 </r>
       <r>   42.3178    0.0000 </r>
       <r>   43.0401    0.0000 </r>
      </set>
      <set comment="kpoint 8">
       <r>    1.6019    1.0000 </r>
       <r>    7.4518    1.0000 </r>
       <r>    8.0784    1.0000 </r>
       <r>    8.0944    1.0000 </r>
       <r>    8.6507    1.0000 </r>
       <r>    9.0247    1.0004 </r>
       <r>   29.5166    0.0000 </r>
       <r>   33.1382    0.0000 </r>
       <r>   33.4243    0.0000 </r>
       <r>   36.6826    0.0000 </r>
       <r>   40.5441    0.0000 </r>
       <r>   42.8541    0.0000 </r>
      </set>
      <set comment="kpoint 9">
       <r>    2.8500    1.0000 </r>
       <r>    7.2548    1.0000 </r>
       <r>    7.9994    1.0000 </r>
       <r>    8.1396    1.0000 </r>
       <r>    8.8936    1.0000 </r>
       <r>    9.2162    1.0158 </r>
       <r>   24.9082    0.0000 </r>
       <r>   32.3880    0.0000 </r>
       <r>   32.4484    0.0000 </r>
       <r>   36.6018    0.0000 </r>
       <r>   39.7737    0.0000 </r>
       <r>   42.5801    0.0000 </r>
      </set>
      <set comment="kpoint 10">
       <r>    4.2653    1.0000 </r>
       <r>    7.3138    1.0000 </r>
       <r>    7.7946    1.0000 </r>
       <r>    8.0328    1.0000 </r>
       <r>    9.4624    0.8888 </r>
       <r>    9.5082    0.7460 </r>
       <r>   20.6101    0.0000 </r>
       <r>   31.5584    0.0000 </r>
       <r>   32.0055    0.0000 </r>
       <r>   34.7453    0.0000 </r>
       <r>   40.0411    0.0000 </r>
       <r>   41.9650    0.0000 </r>
      </set>
      <set comment="kpoint 11">
       <r>    5.1118    1.0000 </r>
       <r>    7.5612    1.0000 </r>
       <r>    7.9080    1.0000 </r>
       <r>    8.0371    1.0000 </r>
       <r>    9.7087    0.0413 </r>
       <r>   10.3021   -0.0000 </r>
       <r>   17.1206    0.0000 </r>
       <r>   30.7352    0.0000 </r>
       <r>   32.2029    0.0000 </r>
       <r>   33.4261    0.0000 </r>
       <r>   39.9727    0.0000 </r>
       <r>   40.4654    0.0000 </r>
      </set>
      <set comment="kpoint 12">
       <r>    5.2657    1.0000 </r>
       <r>    7.5561    1.0000 </r>
       <r>    7.8538    1.0000 </r>
       <r>    8.3740    1.0000 </r>
       <r>    9.6699    0.1287 </r>
       <r>   10.8562   -0.0000 </r>
       <r>   15.8600    0.0000 </r>
       <r>   30.0216    0.0000 </r>
       <r>   33.0281    0.0000 </r>
       <r>   33.1186    0.0000 </r>
       <r>   39.3831    0.0000 </r>
       <r>   40.0367    0.0000 </r>
      </set>
      <set comment="kpoint 13">
       <r>    4.9337    1.0000 </r>
       <r>    7.6430    1.0000 </r>
       <r>    7.8210    1.0000 </r>
       <r>    7.9113    1.0000 </r>
       <r>    9.3926    1.0085 </r>
       <r>   10.1953   -0.0000 </r>
       <r>   18.1576    0.0000 </r>
       <r>   29.6627    0.0000 </r>
       <r>   33.5203    0.0000 </r>
       <r>   34.8046    0.0000 </r>
       <r>   38.8397    0.0000 </r>
       <r>   40.1948    0.0000 </r>
      </set>
      <set comment="kpoint 14">
       <r>    3.8223    1.0000 </r>
       <r>    7.2913    1.0000 </r>
       <r>    7.8675    1.0000 </r>
       <r>    8.0538    1.0000 </r>
       <r>    8.9839    1.0001 </r>
       <r>    9.6256    0.2721 </r>
       <r>   21.9894    0.0000 </r>
       <r>   29.7650    0.0000 </r>
       <r>   34.7229    0.0000 </r>
       <r>   37.1755    0.0000 </r>
       <r>   38.6632    0.0000 </r>
       <r>   39.8108    0.0000 </r>
      </set>
      <set comment="kpoint 15">
       <r>    2.3918    1.0000 </r>
       <r>    7.3501    1.0000 </r>
       <r>    8.0166    1.0000 </r>
       <r>    8.1523    1.0000 </r>
       <r>    8.6733    1.0000 </r>
       <r>    9.2038    1.0134 </r>
       <r>   26.4187    0.0000 </r>
       <r>   30.3280    0.0000 </r>
       <r>   36.1890    0.0000 </r>
       <r>   38.7878    0.0000 </r>
       <r>   38.9734    0.0000 </r>
       <r>   40.0219    0.0000 </r>
      </set>
      <set comment="kpoint 16">
       <r>    1.2919    1.0000 </r>
       <r>    7.5724    1.0000 </r>
       <r>    8.0019    1.0000 </r>
       <r>    8.0071    1.0000 </r>
       <r>    8.7257    1.0000 </r>
       <r>    8.9734    1.0001 </r>
       <r>   30.6321    0.0000 </r>
       <r>   31.7884    0.0000 </r>
       <r>   36.2657    0.0000 </r>
       <r>   38.6042    0.0000 </r>
       <r>   39.7688    0.0000 </r>
       <r>   40.9869    0.0000 </r>
      </set>
      <set comment="kpoint 17">
       <r>    2.1037    1.0000 </r>
       <r>    7.2210    1.0000 </r>
       <r>    8.3135    1.0000 </r>
       <r>    8.3135    1.0000 </r>
       <r>    8.3964    1.0000 </r>
       <r>    9.1193    1.0033 </r>
       <r>   31.4424    0.0000 </r>
       <r>   31.4811    0.0000 </r>
       <r>   31.4812    0.0000 </r>
       <r>   32.7401    0.0000 </r>
       <r>   38.4878    0.0000 </r>
       <r>   46.2757    0.0000 </r>
      </set>
      <set comment="kpoint 18">
       <r>    3.1241    1.0000 </r>
       <r>    6.9721    1.0000 </r>
       <r>    8.0556    1.0000 </r>
       <r>    8.4777    1.0000 </r>
       <r>    8.8081    1.0000 </r>
       <r>    9.2800    1.0299 </r>
       <r>   26.9818    0.0000 </r>
       <r>   30.1341    0.0000 </r>
       <r>   31.0233    0.0000 </r>
       <r>   33.0302    0.0000 </r>
       <r>   37.5801    0.0000 </r>
       <r>   45.6685    0.0000 </r>
      </set>
      <set comment="kpoint 19">
       <r>    4.4175    1.0000 </r>
       <r>    6.8350    1.0000 </r>
       <r>    7.7443    1.0000 </r>
       <r>    8.4351    1.0000 </r>
       <r>    9.5525    0.5712 </r>
       <r>    9.6106    0.3296 </r>
       <r>   22.5442    0.0000 </r>
       <r>   29.3949    0.0000 </r>
       <r>   29.4431    0.0000 </r>
       <r>   32.6247    0.0000 </r>
       <r>   40.0978    0.0000 </r>
       <r>   44.7005    0.0000 </r>
      </set>
      <set comment="kpoint 20">
       <r>    5.4184    1.0000 </r>
       <r>    6.9118    1.0000 </r>
       <r>    7.6373    1.0000 </r>
       <r>    8.3069    1.0000 </r>
       <r>    9.7396   -0.0020 </r>
       <r>   10.9214   -0.0000 </r>
       <r>   18.6192    0.0000 </r>
       <r>   27.7055    0.0000 </r>
       <r>   29.5115    0.0000 </r>
       <r>   32.2202    0.0000 </r>
       <r>   43.3247    0.0000 </r>
       <r>   44.1046    0.0000 </r>
      </set>
      <set comment="kpoint 21">
       <r>    5.7563    1.0000 </r>
       <r>    7.0169    1.0000 </r>
       <r>    7.7865    1.0000 </r>
       <r>    8.2045    1.0000 </r>
       <r>    9.6846    0.0909 </r>
       <r>   12.4465   -0.0000 </r>
       <r>   16.0381    0.0000 </r>
       <r>   26.3575    0.0000 </r>
       <r>   30.3760    0.0000 </r>
       <r>   32.2501    0.0000 </r>
       <r>   42.8812    0.0000 </r>
       <r>   43.1024    0.0000 </r>
      </set>
      <set comment="kpoint 22">
       <r>    5.6608    1.0000 </r>
       <r>    7.1781    1.0000 </r>
       <r>    7.5798    1.0000 </r>
       <r>    8.1887    1.0000 </r>
       <r>    9.3813    1.0178 </r>
       <r>   11.6949   -0.0000 </r>
       <r>   17.5633    0.0000 </r>
       <r>   25.5341    0.0000 </r>
       <r>   32.0151    0.0000 </r>
       <r>   32.8350    0.0000 </r>
       <r>   42.1500    0.0000 </r>
       <r>   42.2993    0.0000 </r>
      </set>
      <set comment="kpoint 23">
       <r>    4.9042    1.0000 </r>
       <r>    7.1199    1.0000 </r>
       <r>    7.5396    1.0000 </r>
       <r>    8.2790    1.0000 </r>
       <r>    8.9340    1.0000 </r>
       <r>   10.5162   -0.0000 </r>
       <r>   21.2206    0.0000 </r>
       <r>   25.3210    0.0000 </r>
       <r>   34.0537    0.0000 </r>
       <r>   34.3105    0.0000 </r>
       <r>   40.8284    0.0000 </r>
       <r>   41.9761    0.0000 </r>
      </set>
      <set comment="kpoint 24">
       <r>    3.5733    1.0000 </r>
       <r>    7.1443    1.0000 </r>
       <r>    7.8380    1.0000 </r>
       <r>    8.4458    1.0000 </r>
       <r>    8.4929    1.0000 </r>
       <r>    9.7438   -0.0062 </r>
       <r>   25.2344    0.0000 </r>
       <r>   25.9799    0.0000 </r>
       <r>   35.8191    0.0000 </r>
       <r>   37.0199    0.0000 </r>
       <r>   38.8676    0.0000 </r>
       <r>   42.1811    0.0000 </r>
      </set>
      <set comment="kpoint 25">
       <r>    3.8201    1.0000 </r>
       <r>    6.6788    1.0000 </r>
       <r>    8.2111    1.0000 </r>
       <r>    8.8663    1.0000 </r>
       <r>    8.8663    1.0000 </r>
       <r>    9.3326    1.0352 </r>
       <r>   28.4198    0.0000 </r>
       <r>   28.4199    0.0000 </r>
       <r>   28.7307    0.0000 </r>
       <r>   30.5674    0.0000 </r>
       <r>   34.9763    0.0000 </r>
       <r>   49.9606    0.0000 </r>
      </set>
      <set comment="kpoint 26">
       <r>    4.7144    1.0000 </r>
       <r>    6.4682    1.0000 </r>
       <r>    8.1400    1.0000 </r>
       <r>    8.9711    1.0001 </r>
       <r>    9.5554    0.5590 </r>
       <r>    9.6090    0.3361 </r>
       <r>   24.7684    0.0000 </r>
       <r>   26.5761    0.0000 </r>
       <r>   27.4077    0.0000 </r>
       <r>   31.3197    0.0000 </r>
       <r>   35.6673    0.0000 </r>
       <r>   49.7399    0.0000 </r>
      </set>
      <set comment="kpoint 27">
       <r>    5.4909    1.0000 </r>
       <r>    6.4169    1.0000 </r>
       <r>    7.9385    1.0000 </r>
       <r>    8.8606    1.0000 </r>
       <r>    9.7672   -0.0239 </r>
       <r>   11.2096   -0.0000 </r>
       <r>   20.7443    0.0000 </r>
       <r>   24.5217    0.0000 </r>
       <r>   27.2289    0.0000 </r>
       <r>   31.5296    0.0000 </r>
       <r>   38.9735    0.0000 </r>
       <r>   48.0615    0.0000 </r>
      </set>
      <set comment="kpoint 28">
       <r>    6.0121    1.0000 </r>
       <r>    6.4725    1.0000 </r>
       <r>    7.7486    1.0000 </r>
       <r>    8.7158    1.0000 </r>
       <r>    9.7249    0.0159 </r>
       <r>   13.5067   -0.0000 </r>
       <r>   17.2592    0.0000 </r>
       <r>   22.9249    0.0000 </r>
       <r>   27.9305    0.0000 </r>
       <r>   31.6615    0.0000 </r>
       <r>   43.2744    0.0000 </r>
       <r>   46.5978    0.0000 </r>
      </set>
      <set comment="kpoint 29">
       <r>    6.2778    1.0000 </r>
       <r>    6.6333    1.0000 </r>
       <r>    7.4576    1.0000 </r>
       <r>    8.5963    1.0000 </r>
       <r>    9.4451    0.9295 </r>
       <r>   13.7671   -0.0000 </r>
       <r>   17.1820    0.0000 </r>
       <r>   21.9120    0.0000 </r>
       <r>   29.4514    0.0000 </r>
       <r>   32.0870    0.0000 </r>
       <r>   45.4639    0.0000 </r>
       <r>   45.5073    0.0000 </r>
      </set>
      <set comment="kpoint 30">
       <r>    5.9220    1.0000 </r>
       <r>    7.0754    1.0000 </r>
       <r>    7.1152    1.0000 </r>
       <r>    8.4842    1.0000 </r>
       <r>    9.0955    1.0020 </r>
       <r>   11.8485   -0.0000 </r>
       <r>   20.2451    0.0000 </r>
       <r>   21.9665    0.0000 </r>
       <r>   31.6366    0.0000 </r>
       <r>   32.9176    0.0000 </r>
       <r>   43.2553    0.0000 </r>
       <r>   44.4731    0.0000 </r>
      </set>
      <set comment="kpoint 31">
       <r>    4.9997    1.0000 </r>
       <r>    6.2002    1.0000 </r>
       <r>    9.2465    1.0224 </r>
       <r>    9.4585    0.8985 </r>
       <r>    9.4585    0.8984 </r>
       <r>    9.5224    0.6931 </r>
       <r>   23.8768    0.0000 </r>
       <r>   26.0509    0.0000 </r>
       <r>   26.0510    0.0000 </r>
       <r>   29.9787    0.0000 </r>
       <r>   33.6934    0.0000 </r>
       <r>   54.0785    0.0000 </r>
      </set>
      <set comment="kpoint 32">
       <r>    5.2874    1.0000 </r>
       <r>    6.0977    1.0000 </r>
       <r>    8.9993    1.0002 </r>
       <r>    9.3950    1.0063 </r>
       <r>    9.7886   -0.0324 </r>
       <r>   11.2045   -0.0000 </r>
       <r>   21.7474    0.0000 </r>
       <r>   23.3188    0.0000 </r>
       <r>   25.5605    0.0000 </r>
       <r>   30.7415    0.0000 </r>
       <r>   34.8725    0.0000 </r>
       <r>   52.0645    0.0000 </r>
      </set>
      <set comment="kpoint 33">
       <r>    5.6371    1.0000 </r>
       <r>    6.1799    1.0000 </r>
       <r>    8.4736    1.0000 </r>
       <r>    9.2336    1.0195 </r>
       <r>    9.7976   -0.0343 </r>
       <r>   13.6064   -0.0000 </r>
       <r>   19.5248    0.0000 </r>
       <r>   20.4948    0.0000 </r>
       <r>   26.0289    0.0000 </r>
       <r>   31.1982    0.0000 </r>
       <r>   38.4673    0.0000 </r>
       <r>   50.1588    0.0000 </r>
      </set>
      <set comment="kpoint 34">
       <r>    6.0791    1.0000 </r>
       <r>    6.3611    1.0000 </r>
       <r>    7.8686    1.0000 </r>
       <r>    8.9829    1.0001 </r>
       <r>    9.6128    0.3212 </r>
       <r>   16.0288    0.0000 </r>
       <r>   16.4188    0.0000 </r>
       <r>   20.0031    0.0000 </r>
       <r>   27.3899    0.0000 </r>
       <r>   31.5609    0.0000 </r>
       <r>   43.1529    0.0000 </r>
       <r>   48.1975    0.0000 </r>
      </set>
      <set comment="kpoint 35">
       <r>    5.1909    1.0000 </r>
       <r>    5.9280    1.0000 </r>
       <r>    9.6390    0.2243 </r>
       <r>    9.8717   -0.0271 </r>
       <r>    9.8717   -0.0271 </r>
       <r>   11.4811   -0.0000 </r>
       <r>   19.9137    0.0000 </r>
       <r>   24.7323    0.0000 </r>
       <r>   24.7324    0.0000 </r>
       <r>   29.7299    0.0000 </r>
       <r>   33.3131    0.0000 </r>
       <r>   54.4257    0.0000 </r>
      </set>
      <set comment="kpoint 36">
       <r>    5.3094    1.0000 </r>
       <r>    5.9651    1.0000 </r>
       <r>    9.3915    1.0096 </r>
       <r>    9.5578    0.5491 </r>
       <r>    9.8967   -0.0214 </r>
       <r>   12.7613   -0.0000 </r>
       <r>   19.2382    0.0000 </r>
       <r>   22.7170    0.0000 </r>
       <r>   24.9000    0.0000 </r>
       <r>   30.6071    0.0000 </r>
       <r>   34.6679    0.0000 </r>
       <r>   53.0598    0.0000 </r>
      </set>
      <set comment="kpoint 37">
       <r>    2.4920    1.0000 </r>
       <r>    7.2212    1.0000 </r>
       <r>    8.0474    1.0000 </r>
       <r>    8.3300    1.0000 </r>
       <r>    8.5811    1.0000 </r>
       <r>    9.2350    1.0198 </r>
       <r>   28.0896    0.0000 </r>
       <r>   28.7909    0.0000 </r>
       <r>   34.8337    0.0000 </r>
       <r>   35.3130    0.0000 </r>
       <r>   39.7845    0.0000 </r>
       <r>   42.5361    0.0000 </r>
      </set>
      <set comment="kpoint 38">
       <r>    3.7987    1.0000 </r>
       <r>    7.0505    1.0000 </r>
       <r>    7.7967    1.0000 </r>
       <r>    8.3612    1.0000 </r>
       <r>    8.8798    1.0000 </r>
       <r>    9.6998    0.0580 </r>
       <r>   23.8316    0.0000 </r>
       <r>   27.7716    0.0000 </r>
       <r>   32.7881    0.0000 </r>
       <r>   35.9362    0.0000 </r>
       <r>   40.0991    0.0000 </r>
       <r>   41.8490    0.0000 </r>
      </set>
      <set comment="kpoint 39">
       <r>    5.0443    1.0000 </r>
       <r>    7.1332    1.0000 </r>
       <r>    7.5741    1.0000 </r>
       <r>    8.2197    1.0000 </r>
       <r>    9.3561    1.0307 </r>
       <r>   10.4604   -0.0000 </r>
       <r>   19.6961    0.0000 </r>
       <r>   27.5560    0.0000 </r>
       <r>   30.8514    0.0000 </r>
       <r>   35.2423    0.0000 </r>
       <r>   39.8503    0.0000 </r>
       <r>   43.4703    0.0000 </r>
      </set>
      <set comment="kpoint 40">
       <r>    5.5769    1.0000 </r>
       <r>    7.2035    1.0000 </r>
       <r>    7.8067    1.0000 </r>
       <r>    8.1134    1.0000 </r>
       <r>    9.6304    0.2546 </r>
       <r>   11.6999   -0.0000 </r>
       <r>   16.5153    0.0000 </r>
       <r>   27.8280    0.0000 </r>
       <r>   29.4392    0.0000 </r>
       <r>   34.6538    0.0000 </r>
       <r>   39.5634    0.0000 </r>
       <r>   43.9234    0.0000 </r>
      </set>
      <set comment="kpoint 41">
       <r>    4.1509    1.0000 </r>
       <r>    6.7441    1.0000 </r>
       <r>    7.8415    1.0000 </r>
       <r>    8.8669    1.0000 </r>
       <r>    8.9054    1.0000 </r>
       <r>    9.6822    0.0968 </r>
       <r>   25.7846    0.0000 </r>
       <r>   26.2850    0.0000 </r>
       <r>   29.5782    0.0000 </r>
       <r>   33.7220    0.0000 </r>
       <r>   37.2006    0.0000 </r>
       <r>   45.3668    0.0000 </r>
      </set>
      <set comment="kpoint 42">
       <r>    5.2411    1.0000 </r>
       <r>    6.6579    1.0000 </r>
       <r>    7.5696    1.0000 </r>
       <r>    8.7558    1.0000 </r>
       <r>    9.4048    0.9957 </r>
       <r>   10.6359   -0.0000 </r>
       <r>   21.7435    0.0000 </r>
       <r>   25.6444    0.0000 </r>
       <r>   27.4283    0.0000 </r>
       <r>   34.3794    0.0000 </r>
       <r>   39.3984    0.0000 </r>
       <r>   44.0871    0.0000 </r>
      </set>
      <set comment="kpoint 43">
       <r>    5.9328    1.0000 </r>
       <r>    6.6818    1.0000 </r>
       <r>    7.4939    1.0000 </r>
       <r>    8.5879    1.0000 </r>
       <r>    9.6625    0.1494 </r>
       <r>   12.3734   -0.0000 </r>
       <r>   18.0100    0.0000 </r>
       <r>   25.2558    0.0000 </r>
       <r>   26.3156    0.0000 </r>
       <r>   34.4728    0.0000 </r>
       <r>   41.5220    0.0000 </r>
       <r>   44.8203    0.0000 </r>
      </set>
      <set comment="kpoint 44">
       <r>    6.1721    1.0000 </r>
       <r>    6.6990    1.0000 </r>
       <r>    7.5017    1.0000 </r>
       <r>    8.4804    1.0000 </r>
       <r>    9.6074    0.3425 </r>
       <r>   13.6568   -0.0000 </r>
       <r>   16.2996    0.0000 </r>
       <r>   24.1342    0.0000 </r>
       <r>   27.1124    0.0000 </r>
       <r>   34.9203    0.0000 </r>
       <r>   41.0716    0.0000 </r>
       <r>   47.7874    0.0000 </r>
      </set>
      <set comment="kpoint 45">
       <r>    5.9236    1.0000 </r>
       <r>    6.9287    1.0000 </r>
       <r>    7.2196    1.0000 </r>
       <r>    8.5228    1.0000 </r>
       <r>    9.3100    1.0347 </r>
       <r>   11.9311   -0.0000 </r>
       <r>   19.1864    0.0000 </r>
       <r>   23.4819    0.0000 </r>
       <r>   28.6187    0.0000 </r>
       <r>   35.9835    0.0000 </r>
       <r>   40.0826    0.0000 </r>
       <r>   45.9729    0.0000 </r>
      </set>
      <set comment="kpoint 46">
       <r>    5.0063    1.0000 </r>
       <r>    6.9205    1.0000 </r>
       <r>    7.4432    1.0000 </r>
       <r>    8.6041    1.0000 </r>
       <r>    8.9066    1.0000 </r>
       <r>   10.5693   -0.0000 </r>
       <r>   22.8021    0.0000 </r>
       <r>   23.8052    0.0000 </r>
       <r>   30.6045    0.0000 </r>
       <r>   37.6922    0.0000 </r>
       <r>   38.3500    0.0000 </r>
       <r>   43.4615    0.0000 </r>
      </set>
      <set comment="kpoint 47">
       <r>    5.2767    1.0000 </r>
       <r>    6.3200    1.0000 </r>
       <r>    8.1946    1.0000 </r>
       <r>    9.3415    1.0342 </r>
       <r>    9.4577    0.9004 </r>
       <r>   10.7156   -0.0000 </r>
       <r>   23.9047    0.0000 </r>
       <r>   23.9195    0.0000 </r>
       <r>   24.8717    0.0000 </r>
       <r>   32.6777    0.0000 </r>
       <r>   35.9765    0.0000 </r>
       <r>   48.1185    0.0000 </r>
      </set>
      <set comment="kpoint 48">
       <r>    5.7333    1.0000 </r>
       <r>    6.3467    1.0000 </r>
       <r>    7.9643    1.0000 </r>
       <r>    9.1238    1.0036 </r>
       <r>    9.7379   -0.0001 </r>
       <r>   12.6859   -0.0000 </r>
       <r>   20.2821    0.0000 </r>
       <r>   22.3337    0.0000 </r>
       <r>   24.4420    0.0000 </r>
       <r>   33.6012    0.0000 </r>
       <r>   38.8521    0.0000 </r>
       <r>   46.3959    0.0000 </r>
      </set>
      <set comment="kpoint 49">
       <r>    6.1389    1.0000 </r>
       <r>    6.4618    1.0000 </r>
       <r>    7.6368    1.0000 </r>
       <r>    8.8833    1.0000 </r>
       <r>    9.7110    0.0374 </r>
       <r>   15.2598    0.0000 </r>
       <r>   16.9890    0.0000 </r>
       <r>   21.0358    0.0000 </r>
       <r>   25.2540    0.0000 </r>
       <r>   34.1386    0.0000 </r>
       <r>   43.0437    0.0000 </r>
       <r>   44.8856    0.0000 </r>
      </set>
      <set comment="kpoint 50">
       <r>    6.4283    1.0000 </r>
       <r>    6.6084    1.0000 </r>
       <r>    7.2261    1.0000 </r>
       <r>    8.7214    1.0000 </r>
       <r>    9.4834    0.8294 </r>
       <r>   13.9975   -0.0000 </r>
       <r>   18.2425    0.0000 </r>
       <r>   20.8086    0.0000 </r>
       <r>   26.7091    0.0000 </r>
       <r>   34.9841    0.0000 </r>
       <r>   42.5380    0.0000 </r>
       <r>   47.1836    0.0000 </r>
      </set>
      <set comment="kpoint 51">
       <r>    5.4244    1.0000 </r>
       <r>    6.0717    1.0000 </r>
       <r>    8.8709    1.0000 </r>
       <r>    9.4659    0.8795 </r>
       <r>    9.8706   -0.0274 </r>
       <r>   12.7650   -0.0000 </r>
       <r>   20.0685    0.0000 </r>
       <r>   22.8120    0.0000 </r>
       <r>   23.4992    0.0000 </r>
       <r>   32.1488    0.0000 </r>
       <r>   35.5332    0.0000 </r>
       <r>   50.4448    0.0000 </r>
      </set>
      <set comment="kpoint 52">
       <r>    5.7161    1.0000 </r>
       <r>    6.2401    1.0000 </r>
       <r>    8.2929    1.0000 </r>
       <r>    9.2119    1.0149 </r>
       <r>    9.8682   -0.0279 </r>
       <r>   14.6071   -0.0000 </r>
       <r>   19.2202    0.0000 </r>
       <r>   20.0598    0.0000 </r>
       <r>   23.9037    0.0000 </r>
       <r>   33.3625    0.0000 </r>
       <r>   38.6891    0.0000 </r>
       <r>   47.8663    0.0000 </r>
      </set>
      <set comment="kpoint 53">
       <r>    5.9436    1.0000 </r>
       <r>    6.6686    1.0000 </r>
       <r>    7.2773    1.0000 </r>
       <r>    8.9415    1.0000 </r>
       <r>    9.4555    0.9059 </r>
       <r>   12.2053   -0.0000 </r>
       <r>   20.9352    0.0000 </r>
       <r>   22.2778    0.0000 </r>
       <r>   25.2518    0.0000 </r>
       <r>   37.1989    0.0000 </r>
       <r>   39.0628    0.0000 </r>
       <r>   43.5502    0.0000 </r>
      </set>
      <set comment="kpoint 54">
       <r>    6.2868    1.0000 </r>
       <r>    6.7064    1.0000 </r>
       <r>    7.1868    1.0000 </r>
       <r>    8.7806    1.0000 </r>
       <r>    9.6932    0.0716 </r>
       <r>   14.4630   -0.0000 </r>
       <r>   17.7876    0.0000 </r>
       <r>   22.2853    0.0000 </r>
       <r>   23.6307    0.0000 </r>
       <r>   37.7886    0.0000 </r>
       <r>   40.0453    0.0000 </r>
       <r>   44.9829    0.0000 </r>
      </set>
      <set comment="kpoint 55">
       <r>    5.9510    1.0000 </r>
       <r>    6.5099    1.0000 </r>
       <r>    7.6798    1.0000 </r>
       <r>    9.0127    1.0003 </r>
[...]
       </set>
       <set comment="band 5">
        <r>  0.0000  0.0026  0.0018  0.0001  0.1754  0.6567  0.0496  0.0112  0.0874 </r>
       </set>
       <set comment="band 6">
        <r>  0.1246  0.0088  0.1208  0.0579  0.0017  0.0020  0.1109  0.3757  0.1015 </r>
       </set>
       <set comment="band 7">
        <r>  0.1560  0.2958  0.0084  0.0400  0.1739  0.0994  0.0133  0.0322  0.0195 </r>
       </set>
       <set comment="band 8">
        <r>  0.1601  0.1739  0.0180  0.0978  0.0655  0.0336  0.0566  0.0451  0.1006 </r>
       </set>
       <set comment="band 9">
        <r>  0.0964  0.0051  0.2937  0.0263  0.0003  0.0033  0.2641  0.0381  0.0030 </r>
       </set>
       <set comment="band 10">
        <r>  0.0110  0.0105  0.0274  0.2754  0.0098  0.0001  0.0120  0.0608  0.0913 </r>
       </set>
       <set comment="band 11">
        <r>  0.0266  0.0522  0.0018  0.0003  0.3790  0.0311  0.0240  0.0511  0.0866 </r>
       </set>
       <set comment="band 12">
        <r>  0.0857  0.0299  0.0692  0.1530  0.0098  0.0145  0.2451  0.0626  0.1061 </r>
       </set>
      </set>
      <set comment="kpoint 46">
       <set comment="band 1">
        <r>  0.3280  0.0000  0.1547  0.0711  0.0000  0.0000  0.0785  0.1433  0.0085 </r>
       </set>
       <set comment="band 2">
        <r>  0.0000  0.0439  0.0000  0.0000  0.7222  0.1761  0.0000  0.0000  0.0000 </r>
       </set>
       <set comment="band 3">
        <r>  0.0048  0.0000  0.0001  0.0098  0.0000  0.0000  0.4297  0.3413  0.1618 </r>
       </set>
       <set comment="band 4">
        <r>  0.0041  0.0000  0.0167  0.0021  0.0000  0.0000  0.3336  0.0126  0.6001 </r>
       </set>
       <set comment="band 5">
        <r>  0.0000  0.0039  0.0000  0.0000  0.2060  0.7712  0.0000  0.0000  0.0000 </r>
       </set>
       <set comment="band 6">
        <r>  0.0735  0.0000  0.0491  0.0233  0.0000  0.0000  0.1196  0.4875  0.2045 </r>
       </set>
       <set comment="band 7">
        <r>  0.0000  0.4411  0.0000  0.0000  0.2505  0.1621  0.0000  0.0000  0.0000 </r>
       </set>
       <set comment="band 8">
        <r>  0.2299  0.0000  0.0488  0.1844  0.0000  0.0000  0.0557  0.1132  0.0724 </r>
       </set>
       <set comment="band 9">
        <r>  0.0750  0.0000  0.2774  0.0019  0.0000  0.0000  0.3201  0.0125  0.0015 </r>
       </set>
       <set comment="band 10">
        <r>  0.0005  0.0000  0.0441  0.3196  0.0000  0.0000  0.0321  0.0079  0.1160 </r>
       </set>
       <set comment="band 11">
        <r>  0.0000  0.1042  0.0000  0.0000  0.4008  0.0381  0.0000  0.0000  0.0000 </r>
       </set>
       <set comment="band 12">
        <r>  0.1362  0.0000  0.1283  0.0981  0.0000  0.0000  0.1918  0.1140  0.1948 </r>
       </set>
      </set>
      <set comment="kpoint 47">
       <set comment="band 1">
        <r>  0.1563  0.0963  0.0000  0.0161  0.0139  0.0000  0.1590  0.0000  0.3885 </r>
       </set>
       <set comment="band 2">
        <r>  0.0000  0.0000  0.0135  0.0000  0.0000  0.0109  0.0000  0.9202  0.0000 </r>
       </set>
       <set comment="band 3">
        <r>  0.0591  0.1184  0.0000  0.0015  0.5140  0.0000  0.1491  0.0000  0.0803 </r>
       </set>
       <set comment="band 4">
        <r>  0.0068  0.0238  0.0000  0.0034  0.0000  0.0000  0.5205  0.0000  0.4244 </r>
       </set>
       <set comment="band 5">
        <r>  0.0000  0.0000  0.0081  0.0000  0.0000  0.9638  0.0000  0.0146  0.0000 </r>
       </set>
       <set comment="band 6">
        <r>  0.0938  0.1636  0.0000  0.0123  0.4575  0.0000  0.1409  0.0000  0.0522 </r>
       </set>
       <set comment="band 7">
        <r>  0.0072  0.1051  0.0000  0.1777  0.0482  0.0000  0.1517  0.0000  0.2355 </r>
       </set>
       <set comment="band 8">
        <r>  0.0000  0.0000  0.5033  0.0000  0.0000  0.0708  0.0000  0.2197  0.0000 </r>
       </set>
       <set comment="band 9">
        <r>  0.2719  0.1380  0.0000  0.2439  0.0255  0.0000  0.0001  0.0000  0.0673 </r>
       </set>
       <set comment="band 10">
        <r>  0.0000  0.0000  0.0984  0.0000  0.0000  0.0173  0.0000  0.6826  0.0000 </r>
       </set>
       <set comment="band 11">
        <r>  0.2812  0.0859  0.0000  0.1768  0.0135  0.0000  0.0180  0.0000  0.1077 </r>
       </set>
       <set comment="band 12">
        <r>  0.0483  0.0009  0.0000  0.0439  0.0994  0.0000  0.0532  0.0000  0.2332 </r>
       </set>
      </set>
      <set comment="kpoint 48">
       <set comment="band 1">
        <r>  0.0641  0.0375  0.0009  0.0264  0.0119  0.0023  0.2398  0.0255  0.4564 </r>
       </set>
       <set comment="band 2">
        <r>  0.0005  0.0000  0.0326  0.0070  0.0039  0.0121  0.0108  0.8539  0.0147 </r>
       </set>
       <set comment="band 3">
        <r>  0.0319  0.1220  0.0002  0.0003  0.6254  0.0383  0.0792  0.0159  0.0121 </r>
       </set>
       <set comment="band 4">
        <r>  0.0000  0.0116  0.0017  0.0043  0.0001  0.1330  0.4835  0.0020  0.3420 </r>
       </set>
       <set comment="band 5">
        <r>  0.0002  0.0003  0.0023  0.0001  0.0872  0.7670  0.0768  0.0102  0.0478 </r>
       </set>
       <set comment="band 6">
        <r>  0.1061  0.3069  0.0049  0.0208  0.2756  0.0300  0.0621  0.0009  0.0630 </r>
       </set>
       <set comment="band 7">
        <r>  0.0899  0.0006  0.2872  0.1345  0.0191  0.0260  0.0381  0.1695  0.0224 </r>
       </set>
       <set comment="band 8">
        <r>  0.1989  0.1838  0.0095  0.0245  0.0191  0.0001  0.0994  0.0166  0.2403 </r>
       </set>
       <set comment="band 9">
        <r>  0.1489  0.0172  0.2217  0.1945  0.0110  0.0132  0.0635  0.0640  0.0033 </r>
       </set>
       <set comment="band 10">
        <r>  0.0554  0.0081  0.0578  0.0529  0.0010  0.0055  0.0007  0.5268  0.0342 </r>
       </set>
       <set comment="band 11">
        <r>  0.1552  0.0274  0.0364  0.2064  0.0023  0.0028  0.0190  0.1359  0.1080 </r>
       </set>
       <set comment="band 12">
        <r>  0.0598  0.0085  0.0020  0.0216  0.2264  0.0036  0.0377  0.0015  0.1887 </r>
       </set>
      </set>
      <set comment="kpoint 49">
       <set comment="band 1">
        <r>  0.0208  0.0083  0.0022  0.0311  0.0053  0.0022  0.3134  0.0737  0.4309 </r>
       </set>
       <set comment="band 2">
        <r>  0.0128  0.0009  0.0595  0.0247  0.0156  0.0108  0.0360  0.7360  0.0229 </r>
       </set>
       <set comment="band 3">
        <r>  0.0058  0.1184  0.0018  0.0004  0.6551  0.0966  0.0124  0.0373  0.0009 </r>
       </set>
       <set comment="band 4">
        <r>  0.0028  0.0026  0.0035  0.0031  0.0009  0.0547  0.5025  0.0004  0.4044 </r>
       </set>
       <set comment="band 5">
        <r>  0.0006  0.0008  0.0001  0.0000  0.1544  0.7782  0.0296  0.0054  0.0222 </r>
       </set>
       <set comment="band 6">
        <r>  0.0208  0.3774  0.0471  0.0522  0.1763  0.0441  0.0469  0.0174  0.0540 </r>
       </set>
       <set comment="band 7">
        <r>  0.1949  0.0420  0.2058  0.0849  0.0409  0.0261  0.0300  0.1875  0.0136 </r>
       </set>
       <set comment="band 8">
        <r>  0.2946  0.1147  0.0006  0.0466  0.0216  0.0046  0.0863  0.0179  0.2068 </r>
       </set>
       <set comment="band 9">
        <r>  0.1186  0.0031  0.2713  0.1382  0.0019  0.0035  0.1414  0.0681  0.0019 </r>
       </set>
       <set comment="band 10">
        <r>  0.0670  0.0035  0.0307  0.1291  0.0001  0.0009  0.0000  0.3574  0.0779 </r>
       </set>
       <set comment="band 11">
        <r>  0.0512  0.0158  0.0403  0.1973  0.0309  0.0044  0.0326  0.2449  0.0417 </r>
       </set>
       <set comment="band 12">
        <r>  0.0646  0.0214  0.0147  0.0050  0.3286  0.0090  0.0043  0.0130  0.1281 </r>
       </set>
      </set>
      <set comment="kpoint 50">
       <set comment="band 1">
        <r>  0.0334  0.0000  0.0883  0.0759  0.0000  0.0000  0.2605  0.2673  0.1414 </r>
       </set>
       <set comment="band 2">
        <r>  0.0311  0.0000  0.0095  0.0026  0.0000  0.0000  0.1817  0.4808  0.2218 </r>
       </set>
       <set comment="band 3">
        <r>  0.0000  0.0989  0.0000  0.0000  0.6821  0.1500  0.0000  0.0000  0.0000 </r>
       </set>
       <set comment="band 4">
        <r>  0.0019  0.0000  0.0098  0.0002  0.0000  0.0000  0.4342  0.0065  0.5192 </r>
       </set>
       <set comment="band 5">
        <r>  0.0000  0.0025  0.0000  0.0000  0.1952  0.7900  0.0000  0.0000  0.0000 </r>
       </set>
       <set comment="band 6">
        <r>  0.1520  0.0000  0.1948  0.0947  0.0000  0.0000  0.0787  0.2731  0.0600 </r>
       </set>
       <set comment="band 7">
        <r>  0.0000  0.5219  0.0000  0.0000  0.2274  0.1004  0.0000  0.0000  0.0000 </r>
       </set>
       <set comment="band 8">
        <r>  0.3696  0.0000  0.0123  0.0942  0.0000  0.0000  0.0807  0.0403  0.1728 </r>
       </set>
       <set comment="band 9">
        <r>  0.1079  0.0000  0.2896  0.0793  0.0000  0.0000  0.2136  0.0602  0.0023 </r>
       </set>
       <set comment="band 10">
        <r>  0.0465  0.0000  0.0222  0.2010  0.0000  0.0000  0.0032  0.2079  0.1108 </r>
       </set>
       <set comment="band 11">
        <r>  0.0000  0.0611  0.0000  0.0000  0.4361  0.0209  0.0000  0.0000  0.0000 </r>
       </set>
       <set comment="band 12">
        <r>  0.0189  0.0000  0.0002  0.2921  0.0000  0.0000  0.1633  0.3111  0.0260 </r>
       </set>
      </set>
      <set comment="kpoint 51">
       <set comment="band 1">
        <r>  0.0549  0.0090  0.0000  0.0135  0.0008  0.0000  0.2321  0.0000  0.5592 </r>
       </set>
       <set comment="band 2">
        <r>  0.0000  0.0000  0.0144  0.0000  0.0000  0.0011  0.0000  0.9257  0.0000 </r>
       </set>
       <set comment="band 3">
        <r>  0.0092  0.1297  0.0000  0.0006  0.7565  0.0000  0.0426  0.0000  0.0001 </r>
       </set>
       <set comment="band 4">
        <r>  0.0001  0.0074  0.0000  0.0029  0.0234  0.0000  0.6504  0.0000  0.3025 </r>
       </set>
       <set comment="band 5">
        <r>  0.0000  0.0000  0.0014  0.0000  0.0000  0.9910  0.0000  0.0016  0.0000 </r>
       </set>
       <set comment="band 6">
        <r>  0.0496  0.5002  0.0000  0.0040  0.2270  0.0000  0.0190  0.0000  0.0302 </r>
       </set>
       <set comment="band 7">
        <r>  0.2690  0.0769  0.0000  0.0322  0.0058  0.0000  0.1261  0.0000  0.3183 </r>
       </set>
       <set comment="band 8">
        <r>  0.0000  0.0000  0.5554  0.0000  0.0000  0.0093  0.0000  0.2034  0.0000 </r>
       </set>
       <set comment="band 9">
        <r>  0.1850  0.0037  0.0000  0.4414  0.0073  0.0000  0.0486  0.0000  0.0003 </r>
       </set>
       <set comment="band 10">
        <r>  0.0000  0.0000  0.0852  0.0000  0.0000  0.0018  0.0000  0.7800  0.0000 </r>
       </set>
       <set comment="band 11">
        <r>  0.3230  0.0097  0.0000  0.1592  0.0014  0.0000  0.0327  0.0000  0.1860 </r>
       </set>
       <set comment="band 12">
        <r>  0.0177  0.0154  0.0000  0.0134  0.2175  0.0000  0.0192  0.0000  0.0532 </r>
       </set>
      </set>
      <set comment="kpoint 52">
       <set comment="band 1">
        <r>  0.0310  0.0000  0.0016  0.0259  0.0000  0.0000  0.2823  0.0098  0.5270 </r>
       </set>
       <set comment="band 2">
        <r>  0.0011  0.0000  0.0329  0.0053  0.0000  0.0000  0.0029  0.8906  0.0033 </r>
       </set>
       <set comment="band 3">
        <r>  0.0000  0.1419  0.0000  0.0000  0.7335  0.0556  0.0000  0.0000  0.0000 </r>
       </set>
       <set comment="band 4">
        <r>  0.0032  0.0000  0.0009  0.0047  0.0000  0.0000  0.6298  0.0001  0.3427 </r>
       </set>
       <set comment="band 5">
        <r>  0.0000  0.0007  0.0000  0.0000  0.0779  0.9154  0.0000  0.0000  0.0000 </r>
       </set>
       <set comment="band 6">
        <r>  0.0000  0.5706  0.0000  0.0000  0.2278  0.0295  0.0000  0.0000  0.0000 </r>
       </set>
       <set comment="band 7">
        <r>  0.0763  0.0000  0.1268  0.1503  0.0000  0.0000  0.1489  0.0464  0.2516 </r>
       </set>
       <set comment="band 8">
        <r>  0.3894  0.0000  0.1897  0.0248  0.0000  0.0000  0.0055  0.1402  0.0588 </r>
       </set>
       <set comment="band 9">
        <r>  0.1284  0.0000  0.2294  0.2199  0.0000  0.0000  0.0861  0.0630  0.0002 </r>
       </set>
       <set comment="band 10">
        <r>  0.0578  0.0000  0.0554  0.0465  0.0000  0.0000  0.0013  0.5671  0.0435 </r>
       </set>
       <set comment="band 11">
        <r>  0.1834  0.0000  0.0351  0.1959  0.0000  0.0000  0.0220  0.1320  0.1575 </r>
       </set>
       <set comment="band 12">
        <r>  0.0000  0.0328  0.0000  0.0000  0.3413  0.0053  0.0000  0.0000  0.0000 </r>
       </set>
      </set>
      <set comment="kpoint 53">
       <set comment="band 1">
        <r>  0.1005  0.0937  0.0000  0.0543  0.0770  0.0000  0.2369  0.0000  0.2799 </r>
       </set>
       <set comment="band 2">
        <r>  0.0000  0.0000  0.0503  0.0000  0.0000  0.0503  0.0000  0.8375  0.0000 </r>
       </set>
       <set comment="band 3">
        <r>  0.0400  0.0559  0.0000  0.0015  0.5571  0.0000  0.2238  0.0000  0.0527 </r>
       </set>
       <set comment="band 4">
        <r>  0.0002  0.0214  0.0000  0.0040  0.0077  0.0000  0.3582  0.0000  0.5805 </r>
       </set>
       <set comment="band 5">
        <r>  0.0000  0.0000  0.0060  0.0000  0.0000  0.9135  0.0000  0.0672  0.0000 </r>
       </set>
       <set comment="band 6">
        <r>  0.1327  0.1872  0.0000  0.0362  0.3625  0.0000  0.1341  0.0000  0.0429 </r>
       </set>
       <set comment="band 7">
        <r>  0.0000  0.0000  0.5025  0.0000  0.0000  0.0775  0.0000  0.2609  0.0000 </r>
       </set>
       <set comment="band 8">
        <r>  0.2257  0.0035  0.0000  0.2375  0.0615  0.0000  0.1779  0.0000  0.0164 </r>
       </set>
       <set comment="band 9">
        <r>  0.1985  0.2725  0.0000  0.0068  0.0228  0.0000  0.0444  0.0000  0.2225 </r>
       </set>
       <set comment="band 10">
        <r>  0.0000  0.0000  0.0919  0.0000  0.0000  0.0199  0.0000  0.5491  0.0000 </r>
       </set>
       <set comment="band 11">
        <r>  0.0273  0.0577  0.0000  0.3588  0.0157  0.0000  0.0325  0.0000  0.0022 </r>
       </set>
       <set comment="band 12">
        <r>  0.1810  0.0056  0.0000  0.0166  0.2248  0.0000  0.0316  0.0000  0.4020 </r>
       </set>
      </set>
      <set comment="kpoint 54">
       <set comment="band 1">
        <r>  0.0156  0.0326  0.0003  0.0588  0.0286  0.0026  0.4582  0.0194  0.2593 </r>
       </set>
       <set comment="band 2">
        <r>  0.0231  0.0159  0.0546  0.0039  0.1946  0.0436  0.0622  0.5220  0.0044 </r>
       </set>
       <set comment="band 3">
        <r>  0.0122  0.0619  0.0242  0.0022  0.5241  0.0002  0.0356  0.2703  0.0005 </r>
       </set>
       <set comment="band 4">
        <r>  0.0042  0.0095  0.0014  0.0008  0.0067  0.0456  0.2786  0.0003  0.6239 </r>
       </set>
       <set comment="band 5">
        <r>  0.0009  0.0000  0.0022  0.0000  0.0263  0.8708  0.0127  0.0506  0.0271 </r>
       </set>
       <set comment="band 6">
        <r>  0.1014  0.2800  0.0184  0.0665  0.2392  0.0060  0.0895  0.0039  0.0425 </r>
       </set>
       <set comment="band 7">
        <r>  0.1535  0.0021  0.3383  0.0341  0.0221  0.0417  0.0328  0.2102  0.0018 </r>
       </set>
       <set comment="band 8">
        <r>  0.1030  0.0048  0.1474  0.1525  0.0313  0.0055  0.2336  0.0589  0.0215 </r>
       </set>
       <set comment="band 9">
        <r>  0.2921  0.2310  0.0217  0.0178  0.0339  0.0050  0.0125  0.0004  0.1646 </r>
       </set>
       <set comment="band 10">
        <r>  0.0027  0.0219  0.0379  0.1952  0.0407  0.0020  0.0094  0.2091  0.0049 </r>
       </set>
       <set comment="band 11">
        <r>  0.0192  0.0183  0.0228  0.0497  0.1788  0.0095  0.0439  0.2555  0.0560 </r>
       </set>
       <set comment="band 12">
        <r>  0.1065  0.0003  0.0153  0.1905  0.1721  0.0000  0.0000  0.0705  0.2447 </r>
       </set>
      </set>
      <set comment="kpoint 55">
       <set comment="band 1">
        <r>  0.0193  0.0077  0.0000  0.0455  0.0026  0.0000  0.3824  0.0000  0.4189 </r>
       </set>
       <set comment="band 2">
        <r>  0.0000  0.0000  0.0533  0.0000  0.0000  0.0050  0.0000  0.8777  0.0000 </r>
       </set>
       <set comment="band 3">
        <r>  0.0106  0.1207  0.0000  0.0000  0.7716  0.0000  0.0249  0.0000  0.0000 </r>
       </set>
       <set comment="band 4">
        <r>  0.0069  0.0048  0.0000  0.0037  0.0102  0.0000  0.4770  0.0000  0.4723 </r>
       </set>
       <set comment="band 5">
        <r>  0.0000  0.0000  0.0013  0.0000  0.0000  0.9853  0.0000  0.0075  0.0000 </r>
       </set>
       <set comment="band 6">
        <r>  0.0644  0.4397  0.0000  0.0188  0.2572  0.0000  0.0313  0.0000  0.0305 </r>
       </set>
       <set comment="band 7">
        <r>  0.0000  0.0000  0.5416  0.0000  0.0000  0.0105  0.0000  0.2717  0.0000 </r>
       </set>
       <set comment="band 8">
        <r>  0.0650  0.0850  0.0000  0.1755  0.0295  0.0000  0.2062  0.0000  0.2186 </r>
       </set>
       <set comment="band 9">
        <r>  0.5174  0.0271  0.0000  0.1234  0.0003  0.0000  0.0647  0.0000  0.0219 </r>
       </set>
       <set comment="band 10">
        <r>  0.0000  0.0000  0.0875  0.0000  0.0000  0.0023  0.0000  0.6151  0.0000 </r>
       </set>
       <set comment="band 11">
        <r>  0.1258  0.0121  0.0000  0.3495  0.0026  0.0000  0.0184  0.0000  0.1455 </r>
       </set>
       <set comment="band 12">
        <r>  0.0466  0.0299  0.0000  0.0000  0.3777  0.0000  0.0115  0.0000  0.1005 </r>
       </set>
      </set>
      <set comment="kpoint 56">
       <set comment="band 1">
        <r>  0.0013  0.0000  0.0033  0.0572  0.0000  0.0000  0.5294  0.0001  0.2896 </r>
       </set>
       <set comment="band 2">
        <r>  0.0077  0.0000  0.0776  0.0019  0.0000  0.0000  0.0002  0.8396  0.0033 </r>
       </set>
       <set comment="band 3">
        <r>  0.0000  0.1043  0.0000  0.0000  0.8103  0.0155  0.0000  0.0000  0.0000 </r>
       </set>
       <set comment="band 4">
        <r>  0.0142  0.0000  0.0018  0.0005  0.0000  0.0000  0.3367  0.0033  0.6139 </r>
       </set>
       <set comment="band 5">
        <r>  0.0000  0.0011  0.0000  0.0000  0.0230  0.9699  0.0000  0.0000  0.0000 </r>
       </set>
       <set comment="band 6">
        <r>  0.0000  0.5515  0.0000  0.0000  0.2692  0.0152  0.0000  0.0000  0.0000 </r>
       </set>
       <set comment="band 7">
        <r>  0.0667  0.0000  0.3738  0.0701  0.0000  0.0000  0.0718  0.2219  0.0181 </r>
       </set>
       <set comment="band 8">
        <r>  0.2600  0.0000  0.0137  0.1422  0.0000  0.0000  0.1457  0.0259  0.1964 </r>
       </set>
       <set comment="band 9">
        <r>  0.3532  0.0000  0.1566  0.0736  0.0000  0.0000  0.1413  0.0421  0.0057 </r>
       </set>
       <set comment="band 10">
        <r>  0.0156  0.0000  0.0552  0.1011  0.0000  0.0000  0.0001  0.4075  0.0419 </r>
       </set>
       <set comment="band 11">
        <r>  0.0000  0.0611  0.0000  0.0000  0.4897  0.0027  0.0000  0.0000  0.0000 </r>
       </set>
       <set comment="band 12">
        <r>  0.0187  0.0000  0.0151  0.3669  0.0000  0.0000  0.0468  0.1552  0.0557 </r>
       </set>
      </set>
     </set>
    </set>
   </array>
  </projected>
 </calculation>
 <structure name="finalpos" >
  <crystal>
   <varray name="basis" >
    <v>       1.75000000       1.75000000       0.00000000 </v>
    <v>       0.00000000       1.75000000       1.75000000 </v>
    <v>       1.75000000       0.00000000       1.75000000 </v>
   </varray>
   <i name="volume">     10.71875000 </i>
   <varray name="rec_basis" >
    <v>       0.28571429       0.28571429      -0.28571429 </v>
    <v>      -0.28571429       0.28571429       0.28571429 </v>
    <v>       0.28571429      -0.28571429       0.28571429 </v>
   </varray>
  </crystal>
  <varray name="positions" >
   <v>       0.00000000       0.00000000       0.00000000 </v>
  </varray>
 </structure>
</modeling>
