fcc Si                                  
   4.30000000000000     
     0.500000    0.500000    0.000000
     0.000000    0.500000    0.500000
     0.500000    0.000000    0.500000
   Si
     1
Direct
  0.000000  0.000000  0.000000
 
   24   24   24
 -3.2525     -2.3623     -.21095E-01  2.9360      5.5425      7.1004      7.4156      6.7825      5.7642      4.8231    
  4.1068      3.6682      3.5216      3.6682      4.1068      4.8231      5.7642      6.7825      7.4156      7.1004    
  5.5425      2.9360     -.21095E-01 -2.3623     -2.3623     -.74935      1.8807      4.6104      6.6019      7.4209    
  7.1434      6.2268      5.2212      4.3916      3.8180      3.5290      3.5290      3.8180      4.3916      5.2212    
  6.2268      7.1435      7.4210      6.6021      4.6107      1.8809     -.74928     -2.3623     -.21095E-01  1.8807    
  4.2414      6.2428      7.3120      7.3210      6.5638      5.5506      4.6462      3.9640      3.5485      3.4100    
  3.5485      3.9640      4.6462      5.5505      6.5638      7.3211      7.3122      6.2432      4.2418      1.8810    
 -.20910E-01 -.74928      2.9360      4.6104      6.2428      7.2526      7.3812      6.7582      5.7839      4.8463    
  4.0900      3.5734      3.3149      3.3149      3.5734      4.0899      4.8462      5.7838      6.7582      7.3813    
  7.2529      6.2432      4.6109      2.9364      1.8810      1.8809      5.5425      6.6019      7.3120      7.3812    
  6.8204      5.9043      4.9735      4.1817      3.5964      3.2440      3.1270      3.2440      3.5964      4.1816    
  4.9734      5.9042      6.8203      7.3812      7.3122      6.6022      5.5428      4.6109      4.2418      4.6107    
  7.1004      7.4209      7.3210      6.7582      5.9043      5.0170      4.2298      3.6120      3.1966      2.9902    
  2.9902      3.1967      3.6121      4.2298      5.0169      5.9042      6.7581      7.3210      7.4209      7.1005    
  6.6022      6.2432      6.2432      6.6021      7.4156      7.1434      6.5638      5.7839      4.9735      4.2298    
  3.6175      3.1727      2.9070      2.8191      2.9070      3.1728      3.6176      4.2299      4.9735      5.7839    
  6.5637      7.1433      7.4155      7.4209      7.3122      7.2529      7.3122      7.4210      6.7825      6.2268    
  5.5506      4.8463      4.1817      3.6120      3.1727      2.8790      2.7331      2.7332      2.8791      3.1728    
  3.6122      4.1819      4.8465      5.5506      6.2268      6.7824      7.1433      7.3210      7.3812      7.3813    
  7.3211      7.1435      5.7642      5.2212      4.6462      4.0900      3.5964      3.1966      2.9070      2.7331    
  2.6754      2.7331      2.9069      3.1966      3.5966      4.0902      4.6465      5.2213      5.7642      6.2268    
  6.5637      6.7581      6.8203      6.7582      6.5638      6.2268      4.8231      4.3916      3.9640      3.5734    
  3.2440      2.9902      2.8191      2.7332      2.7331      2.8189      2.9900      3.2439      3.5735      3.9642    
  4.3918      4.8233      5.2213      5.5506      5.7839      5.9042      5.9042      5.7838      5.5505      5.2212    
  4.1068      3.8180      3.5485      3.3149      3.1270      2.9902      2.9070      2.8791      2.9069      2.9900    
  3.1268      3.3147      3.5484      3.8181      4.1069      4.3918      4.6465      4.8465      4.9735      5.0169    
  4.9734      4.8462      4.6462      4.3916      3.6682      3.5290      3.4100      3.3149      3.2440      3.1967    
  3.1728      3.1728      3.1966      3.2439      3.3147      3.4097      3.5288      3.6681      3.8181      3.9642    
  4.0902      4.1819      4.2299      4.2298      4.1816      4.0899      3.9640      3.8180      3.5216      3.5290    
  3.5485      3.5734      3.5964      3.6121      3.6176      3.6122      3.5966      3.5735      3.5484      3.5288    
  3.5214      3.5288      3.5484      3.5735      3.5966      3.6122      3.6176      3.6121      3.5964      3.5734    
  3.5485      3.5290      3.6682      3.8180      3.9640      4.0899      4.1816      4.2298      4.2299      4.1819    
  4.0902      3.9642      3.8181      3.6681      3.5288      3.4097      3.3147      3.2439      3.1966      3.1728    
  3.1728      3.1967      3.2440      3.3149      3.4100      3.5290      4.1068      4.3916      4.6462      4.8462    
  4.9734      5.0169      4.9735      4.8465      4.6465      4.3918      4.1069      3.8181      3.5484      3.3147    
  3.1268      2.9900      2.9069      2.8791      2.9070      2.9902      3.1270      3.3149      3.5485      3.8180    
  4.8231      5.2212      5.5505      5.7838      5.9042      5.9042      5.7839      5.5506      5.2213      4.8233    
  4.3918      3.9642      3.5735      3.2439      2.9900      2.8189      2.7331      2.7332      2.8191      2.9902    
  3.2440      3.5734      3.9640      4.3916      5.7642      6.2268      6.5638      6.7582      6.8203      6.7581    
  6.5637      6.2268      5.7642      5.2213      4.6465      4.0902      3.5966      3.1966      2.9069      2.7331    
  2.6754      2.7331      2.9070      3.1966      3.5964      4.0900      4.6462      5.2212      6.7825      7.1435    
  7.3211      7.3813      7.3812      7.3210      7.1433      6.7824      6.2268      5.5506      4.8465      4.1819    
  3.6122      3.1728      2.8791      2.7332      2.7331      2.8790      3.1727      3.6120      4.1817      4.8463    
  5.5506      6.2268      7.4156      7.4210      7.3122      7.2529      7.3122      7.4209      7.4155      7.1433    
  6.5637      5.7839      4.9735      4.2299      3.6176      3.1728      2.9070      2.8191      2.9070      3.1727    
  3.6175      4.2298      4.9735      5.7839      6.5638      7.1434      7.1004      6.6021      6.2432      6.2432    
  6.6022      7.1005      7.4209      7.3210      6.7581      5.9042      5.0169      4.2298      3.6121      3.1967    
  2.9902      2.9902      3.1966      3.6120      4.2298      5.0170      5.9043      6.7582      7.3210      7.4209    
  5.5425      4.6107      4.2418      4.6109      5.5428      6.6022      7.3122      7.3812      6.8203      5.9042    
  4.9734      4.1816      3.5964      3.2440      3.1270      3.2440      3.5964      4.1817      4.9735      5.9043    
  6.8204      7.3812      7.3120      6.6019      2.9360      1.8809      1.8810      2.9364      4.6109      6.2432    
  7.2529      7.3813      6.7582      5.7838      4.8462      4.0899      3.5734      3.3149      3.3149      3.5734    
  4.0900      4.8463      5.7839      6.7582      7.3812      7.2526      6.2428      4.6104     -.21095E-01 -.74928    
 -.20910E-01  1.8810      4.2418      6.2432      7.3122      7.3211      6.5638      5.5505      4.6462      3.9640    
  3.5485      3.4100      3.5485      3.9640      4.6462      5.5506      6.5638      7.3210      7.3120      6.2428    
  4.2414      1.8807     -2.3623     -2.3623     -.74928      1.8809      4.6107      6.6021      7.4210      7.1435    
  6.2268      5.2212      4.3916      3.8180      3.5290      3.5290      3.8180      4.3916      5.2212      6.2268    
  7.1434      7.4209      6.6019      4.6104      1.8807     -.74935     -2.3623     -.74936      1.8807      4.6104    
  6.6019      7.4209      7.1434      6.2268      5.2212      4.3916      3.8180      3.5290      3.5290      3.8180    
  4.3916      5.2212      6.2268      7.1435      7.4210      6.6021      4.6107      1.8809     -.74928     -2.3623    
 -.74936      1.2950      3.8482      6.0434      7.2674      7.3715      6.6506      5.6331      4.7157      4.0216    
  3.5982      3.4569      3.5982      4.0216      4.7156      5.6330      6.6506      7.3716      7.2677      6.0438    
  3.8486      1.2952     -.74923     -1.5302      1.8807      3.8482      5.8140      7.1177      7.4474      6.9184    
  5.9510      4.9885      4.2069      3.6711      3.4024      3.4024      3.6711      4.2068      4.9884      5.9510    
  6.9185      7.4476      7.1180      5.8145      3.8486      1.8811     0.65373     0.65360      4.6104      6.0434    
  7.1177      7.4595      7.0422      6.1502      5.1847      4.3544      3.7370      3.3640      3.2401      3.3640    
  3.7370      4.3543      5.1846      6.1500      7.0421      7.4596      7.1180      6.0439      4.6109      3.3976    
  2.9238      3.3973      6.6019      7.2674      7.4474      7.0422      6.2175      5.2871      4.4490      3.7861    
  3.3385      3.1158      3.1158      3.3386      3.7861      4.4489      5.2869      6.2173      7.0420      7.4474    
  7.2676      6.6022      5.7877      5.2394      5.2393      5.7874      7.4209      7.3715      6.9184      6.1502    
  5.2871      4.4815      3.8121      3.3238      3.0316      2.9350      3.0317      3.3239      3.8122      4.4815    
  5.2870      6.1500      6.9183      7.3714      7.4209      7.1705      6.8584      6.7217      6.8584      7.1704    
  7.1434      6.6506      5.9510      5.1847      4.4490      3.8121      3.3189      2.9891      2.8254      2.8255    
  2.9892      3.3191      3.8123      4.4491      5.1848      5.9510      6.6504      7.1433      7.3753      7.4120    
  7.3813      7.3813      7.4120      7.3754      6.2268      5.6331      4.9885      4.3544      3.7861      3.3238    
  2.9891      2.7887      2.7223      2.7888      2.9891      3.3239      3.7863      4.3546      4.9886      5.6331    
  6.2267      6.6964      6.9966      7.1456      7.1880      7.1457      6.9967      6.6965      5.2212      4.7157    
  4.2069      3.7370      3.3385      3.0316      2.8254      2.7223      2.7223      2.8253      3.0316      3.3386    
  3.7371      4.2071      4.7159      5.2213      5.6788      6.0496      6.3041      6.4301      6.4301      6.3041    
  6.0497      5.6788      4.3916      4.0216      3.6711      3.3640      3.1158      2.9350      2.8255      2.7888    
  2.8253      2.9348      3.1156      3.3639      3.6711      4.0218      4.3918      4.7509      5.0669      5.3118    
  5.4658      5.5182      5.4658      5.3117      5.0667      4.7507      3.8180      3.5982      3.4024      3.2401    
  3.1158      3.0317      2.9892      2.9891      3.0316      3.1156      3.2399      3.4022      3.5981      3.8181    
  4.0466      4.2632      4.4464      4.5783      4.6471      4.6470      4.5781      4.4461      4.2629      4.0464    
  3.5290      3.4569      3.4024      3.3640      3.3386      3.3239      3.3191      3.3239      3.3386      3.3639    
  3.4022      3.4566      3.5288      3.6159      3.7097      3.7986      3.8706      3.9170      3.9329      3.9169    
  3.8704      3.7984      3.7097      3.6160      3.5290      3.5982      3.6711      3.7370      3.7861      3.8122    
  3.8123      3.7863      3.7371      3.6711      3.5981      3.5288      3.4720      3.4314      3.4055      3.3902    
  3.3817      3.3777      3.3776      3.3816      3.3902      3.4056      3.4316      3.4723      3.8180      4.0216    
  4.2068      4.3543      4.4489      4.4815      4.4491      4.3546      4.2071      4.0218      3.8181      3.6159    
  3.4314      3.2747      3.1504      3.0604      3.0057      2.9873      3.0058      3.0605      3.1506      3.2749    
  3.4316      3.6160      4.3916      4.7156      4.9884      5.1846      5.2869      5.2870      5.1848      4.9886    
  4.7159      4.3918      4.0466      3.7097      3.4055      3.1504      2.9540      2.8211      2.7541      2.7542    
  2.8212      2.9542      3.1506      3.4056      3.7097      4.0464      5.2212      5.6330      5.9510      6.1500    
  6.2173      6.1500      5.9510      5.6331      5.2213      4.7509      4.2632      3.7986      3.3902      3.0604    
  2.8211      2.6769      2.6289      2.6770      2.8212      3.0605      3.3902      3.7984      4.2629      4.7507    
  6.2268      6.6506      6.9185      7.0421      7.0420      6.9183      6.6504      6.2267      5.6788      5.0669    
  4.4464      3.8706      3.3817      3.0057      2.7541      2.6289      2.6289      2.7541      3.0057      3.3815    
  3.8704      4.4462      5.0667      5.6788      7.1435      7.3716      7.4476      7.4596      7.4474      7.3714    
  7.1433      6.6964      6.0496      5.3118      4.5783      3.9170      3.3777      2.9873      2.7542      2.6770    
  2.7541      2.9873      3.3775      3.9168      4.5782      5.3117      6.0497      6.6965      7.4210      7.2677    
  7.1180      7.1180      7.2676      7.4209      7.3753      6.9966      6.3041      5.4658      4.6471      3.9329    
  3.3776      3.0058      2.8212      2.8212      3.0057      3.3775      3.9328      4.6470      5.4659      6.3042    
  6.9967      7.3754      6.6021      6.0438      5.8145      6.0439      6.6022      7.1705      7.4120      7.1456    
  6.4301      5.5182      4.6470      3.9169      3.3816      3.0605      2.9542      3.0605      3.3815      3.9168    
  4.6470      5.5183      6.4302      7.1457      7.4120      7.1704      4.6107      3.8486      3.8486      4.6109    
  5.7877      6.8584      7.3813      7.1880      6.4301      5.4658      4.5781      3.8704      3.3902      3.1506    
  3.1506      3.3902      3.8704      4.5782      5.4659      6.4302      7.1880      7.3812      6.8582      5.7874    
  1.8809      1.2952      1.8811      3.3976      5.2394      6.7217      7.3813      7.1457      6.3041      5.3117    
  4.4461      3.7984      3.4056      3.2749      3.4056      3.7984      4.4462      5.3117      6.3042      7.1457    
  7.3812      6.7214      5.2391      3.3973     -.74928     -.74923     0.65373      2.9238      5.2393      6.8584    
  7.4120      6.9967      6.0497      5.0667      4.2629      3.7097      3.4316      3.4316      3.7097      4.2629    
  5.0667      6.0497      6.9967      7.4120      6.8582      5.2391      2.9235     0.65360     -2.3623     -1.5302    
 0.65360      3.3973      5.7874      7.1704      7.3754      6.6965      5.6788      4.7507      4.0464      3.6160    
  3.4723      3.6160      4.0464      4.7507      5.6788      6.6965      7.3754      7.1704      5.7874      3.3973    
 0.65360     -1.5302     -.21099E-01  1.8807      4.2414      6.2428      7.3120      7.3210      6.5638      5.5506    
  4.6462      3.9640      3.5485      3.4100      3.5485      3.9640      4.6462      5.5505      6.5638      7.3211    
  7.3122      6.2432      4.2418      1.8810     -.20910E-01 -.74928      1.8807      3.8482      5.8140      7.1177    
  7.4474      6.9184      5.9510      4.9885      4.2069      3.6711      3.4024      3.4024      3.6711      4.2068    
  4.9884      5.9510      6.9185      7.4476      7.1180      5.8145      3.8486      1.8811     0.65373     0.65359    
  4.2414      5.8140      7.0256      7.4721      7.1124      6.2341      5.2579      4.4144      3.7859      3.4057    
  3.2794      3.4057      3.7859      4.4143      5.2577      6.2340      7.1124      7.4722      7.0259      5.8145    
  4.2419      2.9238      2.4111      2.9235      6.2428      7.1177      7.4721      7.1722      6.3784      5.4295    
  4.5655      3.8789      3.4143      3.1828      3.1828      3.4143      3.8789      4.5653      5.4293      6.3782    
  7.1721      7.4721      7.1179      6.2432      5.2395      4.5786      4.5784      5.2391      7.3120      7.4474    
  7.1124      6.3784      5.4884      4.6448      3.9392      3.4227      3.1133      3.0109      3.1133      3.4227    
  3.9392      4.6447      5.4882      6.3781      7.1122      7.4473      7.3120      6.8584      6.3879      6.1913    
  6.3878      6.8582      7.3210      6.9184      6.2341      5.4295      4.6448      3.9600      3.4276      3.0711    
  2.8943      2.8944      3.0712      3.4277      3.9600      4.6448      5.4294      6.2339      6.9182      7.3208    
  7.4118      7.3063      7.1867      7.1868      7.3064      7.4120      6.5638      5.9510      5.2579      4.5655    
  3.9392      3.4276      3.0570      2.8355      2.7622      2.8356      3.0571      3.4277      3.9393      4.5655    
  5.2579      5.9509      6.5636      6.9964      7.2254      7.3077      7.3230      7.3078      7.2256      6.9967    
  5.5506      4.9885      4.4144      3.8789      3.4227      3.0711      2.8355      2.7181      2.7181      2.8355    
  3.0712      3.4228      3.8791      4.4146      4.9886      5.5506      6.0496      6.4369      6.6828      6.7965    
  6.7966      6.6829      6.4370      6.0497      4.6462      4.2069      3.7859      3.4143      3.1133      2.8943    
  2.7622      2.7181      2.7621      2.8942      3.1132      3.4143      3.7860      4.2071      4.6464      5.0668    
  5.4313      5.7099      5.8832      5.9417      5.8832      5.7099      5.4313      5.0667      3.9640      3.6711    
  3.4057      3.1828      3.0109      2.8944      2.8356      2.8355      2.8942      3.0107      3.1826      3.4057    
  3.6711      3.9642      4.2631      4.5420      4.7751      4.9414      5.0276      5.0276      4.9413      4.7749    
  4.5418      4.2629      3.5485      3.4024      3.2794      3.1828      3.1133      3.0712      3.0571      3.0712    
  3.1132      3.1826      3.2792      3.4022      3.5484      3.7097      3.8728      4.0212      4.1389      4.2140    
  4.2397      4.2138      4.1386      4.0209      3.8727      3.7097      3.4100      3.4024      3.4057      3.4143    
  3.4227      3.4277      3.4277      3.4228      3.4143      3.4057      3.4022      3.4097      3.4314      3.4656    
  3.5062      3.5448      3.5742      3.5898      3.5897      3.5741      3.5447      3.5062      3.4657      3.4316    
  3.5485      3.6711      3.7859      3.8789      3.9392      3.9600      3.9393      3.8791      3.7860      3.6711    
  3.5484      3.4314      3.3299      3.2483      3.1866      3.1433      3.1173      3.1086      3.1173      3.1433    
  3.1867      3.2485      3.3301      3.4316      3.9640      4.2068      4.4143      4.5653      4.6447      4.6448    
  4.5655      4.4146      4.2071      3.9642      3.7097      3.4656      3.2483      3.0676      2.9289      2.8348    
  2.7873      2.7873      2.8350      2.9291      3.0679      3.2485      3.4657      3.7097      4.6462      4.9884    
  5.2577      5.4293      5.4882      5.4294      5.2579      4.9886      4.6464      4.2631      3.8728      3.5062    
  3.1866      2.9289      2.7414      2.6278      2.5899      2.6279      2.7416      2.9291      3.1867      3.5062    
  3.8727      4.2629      5.5505      5.9510      6.2340      6.3782      6.3781      6.2339      5.9509      5.5506    
  5.0668      4.5420      4.0212      3.5448      3.1433      2.8348      2.6278      2.5244      2.5244      2.6279    
  2.8349      3.1432      3.5447      4.0210      4.5418      5.0667      6.5638      6.9185      7.1124      7.1721    
  7.1122      6.9182      6.5636      6.0496      5.4313      4.7751      4.1389      3.5742      3.1173      2.7873    
  2.5899      2.5244      2.5899      2.7873      3.1172      3.5740      4.1387      4.7749      5.4313      6.0497    
  7.3211      7.4476      7.4722      7.4721      7.4473      7.3208      6.9964      6.4369      5.7099      4.9414    
  4.2140      3.5898      3.1086      2.7873      2.6279      2.6279      2.7873      3.1085      3.5897      4.2139    
  4.9413      5.7099      6.4370      6.9967      7.3122      7.1180      7.0259      7.1179      7.3120      7.4118    
  7.2254      6.6828      5.8832      5.0276      4.2397      3.5897      3.1173      2.8350      2.7416      2.8349    
  3.1172      3.5897      4.2397      5.0277      5.8833      6.6829      7.2256      7.4120      6.2432      5.8145    
  5.8145      6.2432      6.8584      7.3063      7.3077      6.7965      5.9417      5.0276      4.2138      3.5741    
  3.1433      2.9291      2.9291      3.1432      3.5740      4.2139      5.0277      5.9418      6.7967      7.3078    
  7.3064      6.8584      4.2418      3.8486      4.2419      5.2395      6.3879      7.1867      7.3230      6.7966    
  5.8832      4.9413      4.1386      3.5447      3.1867      3.0679      3.1867      3.5447      4.1387      4.9413    
  5.8833      6.7967      7.3231      7.1867      6.3878      5.2393      1.8810      1.8811      2.9238      4.5786    
  6.1913      7.1868      7.3078      6.6829      5.7099      4.7749      4.0209      3.5062      3.2485      3.2485    
  3.5062      4.0210      4.7749      5.7099      6.6829      7.3078      7.1867      6.1912      4.5784      2.9238    
 -.20910E-01 0.65373      2.4111      4.5784      6.3878      7.3064      7.2256      6.4370      5.4313      4.5418    
  3.8727      3.4657      3.3301      3.4657      3.8727      4.5418      5.4313      6.4370      7.2256      7.3064    
  6.3878      4.5784      2.4111     0.65373     -.74928     0.65359      2.9235      5.2391      6.8582      7.4120    
  6.9967      6.0497      5.0667      4.2629      3.7097      3.4316      3.4316      3.7097      4.2629      5.0667    
  6.0497      6.9967      7.4120      6.8584      5.2393      2.9238     0.65373     -.74923      2.9360      4.6104    
  6.2428      7.2526      7.3812      6.7582      5.7839      4.8463      4.0900      3.5734      3.3149      3.3149    
  3.5734      4.0899      4.8462      5.7838      6.7582      7.3813      7.2529      6.2432      4.6109      2.9364    
  1.8810      1.8809      4.6104      6.0434      7.1177      7.4595      7.0422      6.1502      5.1847      4.3544    
  3.7370      3.3640      3.2401      3.3640      3.7370      4.3543      5.1846      6.1500      7.0421      7.4596    
  7.1180      6.0439      4.6109      3.3976      2.9238      3.3973      6.2428      7.1177      7.4721      7.1722    
  6.3784      5.4295      4.5655      3.8789      3.4143      3.1828      3.1828      3.4143      3.8789      4.5653    
  5.4293      6.3782      7.1721      7.4721      7.1179      6.2432      5.2395      4.5786      4.5784      5.2391    
  7.2526      7.4595      7.1722      6.4551      5.5578      4.7014      3.9833      3.4571      3.1417      3.0373    
  3.1417      3.4571      3.9833      4.7012      5.5575      6.4548      7.1720      7.4594      7.2527      6.7216    
  6.1913      5.9722      6.1912      6.7215      7.3812      7.0422      6.3784      5.5578      4.7483      4.0385    
  3.4855      3.1149      2.9311      2.9312      3.1150      3.4855      4.0385      4.7482      5.5575      6.3781    
  7.0418      7.3809      7.3810      7.1866      7.0122      7.0123      7.1867      7.3812      6.7582      6.1502    
  5.4295      4.7014      4.0385      3.4953      3.1016      2.8665      2.7888      2.8666      3.1017      3.4954    
  4.0386      4.7014      5.4294      6.1499      6.7579      7.1453      7.3075      7.3314      7.3239      7.3316    
  7.3078      7.1457      5.7839      5.1847      4.5655      3.9833      3.4855      3.1016      2.8448      2.7171    
  2.7171      2.8449      3.1017      3.4856      3.9835      4.5656      5.1848      5.7838      6.3039      6.6826    
  6.9035      6.9973      6.9975      6.9038      6.6829      6.3042      4.8463      4.3544      3.8789      3.4571    
  3.1149      2.8665      2.7171      2.6674      2.7171      2.8665      3.1149      3.4572      3.8791      4.3546    
  4.8464      5.3117      5.7098      6.0097      6.1912      6.2511      6.1913      6.0098      5.7099      5.3117    
  4.0900      3.7370      3.4143      3.1417      2.9311      2.7888      2.7171      2.7171      2.7886      2.9310    
  3.1416      3.4143      3.7371      4.0902      4.4464      4.7750      5.0469      5.2395      5.3389      5.3389    
  5.2395      5.0469      4.7749      4.4462      3.5734      3.3640      3.1828      3.0373      2.9312      2.8666    
  2.8449      2.8665      2.9310      3.0371      3.1826      3.3639      3.5734      3.7986      4.0212      4.2205    
  4.3773      4.4770      4.5110      4.4768      4.3771      4.2203      4.0210      3.7984      3.3149      3.2401    
  3.1828      3.1417      3.1150      3.1017      3.1017      3.1149      3.1416      3.1826      3.2398      3.3146    
  3.4055      3.5062      3.6063      3.6937      3.7578      3.7914      3.7913      3.7576      3.6935      3.6062    
  3.5062      3.4056      3.3149      3.3640      3.4143      3.4571      3.4855      3.4954      3.4856      3.4572    
  3.4143      3.3639      3.3146      3.2746      3.2482      3.2351      3.2312      3.2318      3.2332      3.2337    
  3.2331      3.2317      3.2312      3.2352      3.2485      3.2749      3.5734      3.7370      3.8789      3.9833    
  4.0385      4.0386      3.9835      3.8791      3.7371      3.5734      3.4055      3.2482      3.1117      3.0007    
  2.9166      2.8598      2.8311      2.8311      2.8598      2.9167      3.0009      3.1120      3.2485      3.4056    
  4.0899      4.3543      4.5653      4.7012      4.7482      4.7014      4.5656      4.3546      4.0902      3.7986    
  3.5062      3.2351      3.0007      2.8122      2.6746      2.5909      2.5629      2.5910      2.6748      2.8124    
  3.0009      3.2352      3.5062      3.7984      4.8462      5.1846      5.4293      5.5575      5.5575      5.4294    
  5.1848      4.8464      4.4464      4.0212      3.6063      3.2312      2.9166      2.6746      2.5115      2.4296    
  2.4296      2.5116      2.6748      2.9166      3.2312      3.6062      4.0209      4.4461      5.7838      6.1500    
  6.3782      6.4548      6.3781      6.1499      5.7838      5.3117      4.7750      4.2205      3.6937      3.2318    
  2.8598      2.5909      2.4296      2.3760      2.4297      2.5910      2.8598      3.2316      3.6935      4.2203    
  4.7749      5.3117      6.7582      7.0421      7.1721      7.1720      7.0418      6.7579      6.3039      5.7098    
  5.0469      4.3773      3.7578      3.2332      2.8311      2.5629      2.4296      2.4297      2.5629      2.8310    
  3.2330      3.7576      4.3771      5.0469      5.7099      6.3041      7.3813      7.4596      7.4721      7.4594    
  7.3809      7.1453      6.6826      6.0097      5.2395      4.4770      3.7914      3.2337      2.8311      2.5910    
  2.5116      2.5910      2.8310      3.2337      3.7913      4.4769      5.2396      6.0098      6.6829      7.1457    
  7.2529      7.1180      7.1179      7.2527      7.3810      7.3075      6.9035      6.1912      5.3389      4.5110    
  3.7913      3.2331      2.8598      2.6748      2.6748      2.8598      3.2330      3.7913      4.5110      5.3390    
  6.1914      6.9038      7.3078      7.3813      6.2432      6.0439      6.2432      6.7216      7.1866      7.3314    
  6.9973      6.2511      5.3389      4.4768      3.7576      3.2317      2.9167      2.8124      2.9166      3.2316    
  3.7576      4.4769      5.3390      6.2513      6.9976      7.3316      7.1868      6.7217      4.6109      4.6109    
  5.2395      6.1913      7.0122      7.3239      6.9975      6.1913      5.2395      4.3771      3.6935      3.2312    
  3.0009      3.0009      3.2312      3.6935      4.3771      5.2396      6.1914      6.9976      7.3239      7.0123    
  6.1913      5.2394      2.9364      3.3976      4.5786      5.9722      7.0123      7.3316      6.9038      6.0098    
  5.0469      4.2203      3.6062      3.2352      3.1120      3.2352      3.6062      4.2203      5.0469      6.0098    
  6.9038      7.3316      7.0123      5.9722      4.5786      3.3976      1.8810      2.9238      4.5784      6.1912    
  7.1867      7.3078      6.6829      5.7099      4.7749      4.0210      3.5062      3.2485      3.2485      3.5062    
  4.0209      4.7749      5.7099      6.6829      7.3078      7.1868      6.1913      4.5786      2.9238      1.8811    
  1.8809      3.3973      5.2391      6.7215      7.3812      7.1457      6.3042      5.3117      4.4462      3.7984    
  3.4056      3.2749      3.4056      3.7984      4.4461      5.3117      6.3041      7.1457      7.3813      6.7217    
  5.2394      3.3976      1.8811      1.2952      5.5425      6.6019      7.3120      7.3812      6.8204      5.9043    
  4.9735      4.1817      3.5964      3.2440      3.1270      3.2440      3.5964      4.1816      4.9734      5.9042    
  6.8203      7.3812      7.3122      6.6022      5.5428      4.6109      4.2418      4.6107      6.6019      7.2674    
  7.4474      7.0422      6.2175      5.2871      4.4490      3.7861      3.3385      3.1158      3.1158      3.3386    
  3.7861      4.4489      5.2869      6.2173      7.0420      7.4474      7.2676      6.6021      5.7877      5.2394    
  5.2393      5.7874      7.3120      7.4474      7.1124      6.3784      5.4884      4.6448      3.9392      3.4227    
  3.1133      3.0109      3.1133      3.4227      3.9392      4.6447      5.4882      6.3781      7.1122      7.4473    
  7.3120      6.8584      6.3879      6.1913      6.3878      6.8582      7.3812      7.0422      6.3784      5.5578    
  4.7483      4.0385      3.4855      3.1149      2.9311      2.9312      3.1150      3.4855      4.0385      4.7482    
  5.5575      6.3781      7.0418      7.3809      7.3810      7.1866      7.0122      7.0123      7.1867      7.3812    
  6.8204      6.2175      5.4884      4.7483      4.0729      3.5189      3.1172      2.8774      2.7980      2.8774    
  3.1173      3.5190      4.0730      4.7482      5.4882      6.2171      6.8200      7.1876      7.3227      7.3237    
  7.3072      7.3239      7.3231      7.1880      5.9043      5.2871      4.6448      4.0385      3.5189      3.1181    
  2.8502      2.7171      2.7171      2.8503      3.1182      3.5190      4.0387      4.6449      5.2870      5.9041    
  6.4298      6.7962      6.9972      7.0766      7.0768      6.9975      6.7966      6.4302      4.9735      4.4490    