fcc Si                                  
   4.30000000000000     
     0.500000    0.500000    0.000000
     0.000000    0.500000    0.500000
     0.500000    0.000000    0.500000
   Si
     1
Direct
  0.000000  0.000000  0.000000
 
   24   24   24
 -.32524970195E+01 -.23623371808E+01 -.21095005609E-01 0.29360486007E+01 0.55424941148E+01
 0.71003785886E+01 0.74155769717E+01 0.67824652651E+01 0.57641685641E+01 0.48231277795E+01
 0.41067825070E+01 0.36682091918E+01 0.35216480607E+01 0.36682091918E+01 0.41067825070E+01
 0.48231277795E+01 0.57641685641E+01 0.67824652651E+01 0.74155769717E+01 0.71003785886E+01
 0.55424941148E+01 0.29360486007E+01 -.21095005609E-01 -.23623371808E+01 -.23623371808E+01
 -.74935372418E+00 0.18807031653E+01 0.46104297097E+01 0.66018530533E+01 0.74208650076E+01
 0.71433990488E+01 0.62267919430E+01 0.52211791218E+01 0.43915932872E+01 0.38180447290E+01
 0.35290481900E+01 0.35290293195E+01 0.38180132557E+01 0.43915878088E+01 0.52212010637E+01
 0.62268221071E+01 0.71434543899E+01 0.74209979699E+01 0.66020771419E+01 0.46106780038E+01
 0.18808808894E+01 -.74927682798E+00 -.23623208354E+01 -.21095005609E-01 0.18807031653E+01
 0.42413766312E+01 0.62427989853E+01 0.73119881711E+01 0.73209734516E+01 0.65637619588E+01
 0.55505586683E+01 0.46462354940E+01 0.39640261576E+01 0.35485075585E+01 0.34099795533E+01
 0.35484906457E+01 0.39639973695E+01 0.46462001701E+01 0.55505302502E+01 0.65637781570E+01
 0.73210884371E+01 0.73122355503E+01 0.62431557368E+01 0.42417673796E+01 0.18810310104E+01
 -.20909807963E-01 -.74927682798E+00 0.29360486007E+01 0.46104297097E+01 0.62427989853E+01
 0.72525980696E+01 0.73811550358E+01 0.67582246890E+01 0.57839132410E+01 0.48463390403E+01
 0.40899559375E+01 0.35734190458E+01 0.33148597879E+01 0.33148648768E+01 0.35734135053E+01
 0.40899046394E+01 0.48462407251E+01 0.57838188613E+01 0.67582061427E+01 0.73812650085E+01
 0.72528573686E+01 0.62431922893E+01 0.46108867751E+01 0.29364299963E+01 0.18810310104E+01
 0.18808808894E+01 0.55424941148E+01 0.66018530533E+01 0.73119881711E+01 0.73811550358E+01
 0.68203959526E+01 0.59043341689E+01 0.49734841574E+01 0.41816936943E+01 0.35964281479E+01
 0.32439513068E+01 0.31270412956E+01 0.32439689034E+01 0.35964320303E+01 0.41816456096E+01
 0.49733761597E+01 0.59042083330E+01 0.68203289625E+01 0.73812139756E+01 0.73121959810E+01
 0.66021701634E+01 0.55428200668E+01 0.46108867751E+01 0.42417673796E+01 0.46106780038E+01
 0.71003785886E+01 0.74208650076E+01 0.73209734516E+01 0.67582246890E+01 0.59043341689E+01
 0.50169973890E+01 0.42297692818E+01 0.36120324674E+01 0.31965894895E+01 0.29901738526E+01
 0.29902006749E+01 0.31966549919E+01 0.36120954106E+01 0.42297791031E+01 0.50169330955E+01
 0.59042268726E+01 0.67581405001E+01 0.73209625546E+01 0.74209312835E+01 0.71004854863E+01
 0.66021701634E+01 0.62431922893E+01 0.62431557368E+01 0.66020771419E+01 0.74155769717E+01
 0.71433990488E+01 0.65637619588E+01 0.57839132410E+01 0.49734841574E+01 0.42297692818E+01
 0.36174803000E+01 0.31727188415E+01 0.29069641800E+01 0.28190657060E+01 0.29070384958E+01
 0.31728439039E+01 0.36176113628E+01 0.42298562463E+01 0.49735020920E+01 0.57838711204E+01
 0.65636883164E+01 0.71433173456E+01 0.74154965863E+01 0.74209312835E+01 0.73121959810E+01
 0.72528573686E+01 0.73122355503E+01 0.74209979699E+01 0.67824652651E+01 0.62267919430E+01
 0.55505586683E+01 0.48463390403E+01 0.41816936943E+01 0.36120324674E+01 0.31727188415E+01
 0.28790297155E+01 0.27331420853E+01 0.27331614210E+01 0.28790952596E+01 0.31728362863E+01
 0.36121879097E+01 0.41818500743E+01 0.48464589748E+01 0.55506167682E+01 0.62267733167E+01
 0.67823741046E+01 0.71433173456E+01 0.73209625546E+01 0.73812139756E+01 0.73812650085E+01
 0.73210884371E+01 0.71434543899E+01 0.57641685641E+01 0.52211791218E+01 0.46462354940E+01
 0.40899559375E+01 0.35964281479E+01 0.31965894895E+01 0.29069641800E+01 0.27331420853E+01
 0.26753511398E+01 0.27331019164E+01 0.29069269901E+01 0.31966144909E+01 0.35965508310E+01
 0.40901597246E+01 0.46464535496E+01 0.52213359339E+01 0.57642172729E+01 0.62267733167E+01
 0.65636883164E+01 0.67581405001E+01 0.68203289625E+01 0.67582061427E+01 0.65637781570E+01
 0.62268221071E+01 0.48231277795E+01 0.43915932872E+01 0.39640261576E+01 0.35734190458E+01
 0.32439513068E+01 0.29901738526E+01 0.28190657060E+01 0.27331614210E+01 0.27331019164E+01
 0.28189134316E+01 0.29900032988E+01 0.32438565823E+01 0.35734622936E+01 0.39641956266E+01
 0.43918128867E+01 0.48233201703E+01 0.52213359339E+01 0.55506167682E+01 0.57838711204E+01
 0.59042268726E+01 0.59042083330E+01 0.57838188613E+01 0.55505302502E+01 0.52212010637E+01
 0.41067825070E+01 0.38180447290E+01 0.35485075585E+01 0.33148597879E+01 0.31270412956E+01
 0.29902006749E+01 0.29070384958E+01 0.28790952596E+01 0.29069269901E+01 0.29900032988E+01
 0.31268088988E+01 0.33146589787E+01 0.35483984673E+01 0.38180618150E+01 0.41069218503E+01
 0.43918128867E+01 0.46464535496E+01 0.48464589748E+01 0.49735020920E+01 0.50169330955E+01
 0.49733761597E+01 0.48462407251E+01 0.46462001701E+01 0.43915878088E+01 0.36682091918E+01
 0.35290481900E+01 0.34099795533E+01 0.33148648768E+01 0.32439689034E+01 0.31966549919E+01
 0.31728439039E+01 0.31728362863E+01 0.31966144909E+01 0.32438565823E+01 0.33146589787E+01
 0.34097101909E+01 0.35287995284E+01 0.36680814981E+01 0.38180618150E+01 0.39641956266E+01
 0.40901597246E+01 0.41818500743E+01 0.42298562463E+01 0.42297791031E+01 0.41816456096E+01
 0.40899046394E+01 0.39639973695E+01 0.38180132557E+01 0.35216480607E+01 0.35290293195E+01
 0.35484906457E+01 0.35734135053E+01 0.35964320303E+01 0.36120954106E+01 0.36176113628E+01
 0.36121879097E+01 0.35965508310E+01 0.35734622936E+01 0.35483984673E+01 0.35287995284E+01
 0.35213611995E+01 0.35287995284E+01 0.35483984673E+01 0.35734622936E+01 0.35965508310E+01
 0.36121879097E+01 0.36176113628E+01 0.36120954106E+01 0.35964320303E+01 0.35734135053E+01
 0.35484906457E+01 0.35290293195E+01 0.36682091918E+01 0.38180132557E+01 0.39639973695E+01
 0.40899046394E+01 0.41816456096E+01 0.42297791031E+01 0.42298562463E+01 0.41818500743E+01
 0.40901597246E+01 0.39641956266E+01 0.38180618150E+01 0.36680814981E+01 0.35287995284E+01
 0.34097101909E+01 0.33146589787E+01 0.32438565823E+01 0.31966144909E+01 0.31728362863E+01
 0.31728439039E+01 0.31966549919E+01 0.32439689034E+01 0.33148648768E+01 0.34099795533E+01
 0.35290481900E+01 0.41067825070E+01 0.43915878088E+01 0.46462001701E+01 0.48462407251E+01
 0.49733761597E+01 0.50169330955E+01 0.49735020920E+01 0.48464589748E+01 0.46464535496E+01
 0.43918128867E+01 0.41069218503E+01 0.38180618150E+01 0.35483984673E+01 0.33146589787E+01
 0.31268088988E+01 0.29900032988E+01 0.29069269901E+01 0.28790952596E+01 0.29070384958E+01
 0.29902006749E+01 0.31270412956E+01 0.33148597879E+01 0.35485075585E+01 0.38180447290E+01
 0.48231277795E+01 0.52212010637E+01 0.55505302502E+01 0.57838188613E+01 0.59042083330E+01
 0.59042268726E+01 0.57838711204E+01 0.55506167682E+01 0.52213359339E+01 0.48233201703E+01
 0.43918128867E+01 0.39641956266E+01 0.35734622936E+01 0.32438565823E+01 0.29900032988E+01
 0.28189134316E+01 0.27331019164E+01 0.27331614210E+01 0.28190657060E+01 0.29901738526E+01
 0.32439513068E+01 0.35734190458E+01 0.39640261576E+01 0.43915932872E+01 0.57641685641E+01
 0.62268221071E+01 0.65637781570E+01 0.67582061427E+01 0.68203289625E+01 0.67581405001E+01
 0.65636883164E+01 0.62267733167E+01 0.57642172729E+01 0.52213359339E+01 0.46464535496E+01
 0.40901597246E+01 0.35965508310E+01 0.31966144909E+01 0.29069269901E+01 0.27331019164E+01
 0.26753511398E+01 0.27331420853E+01 0.29069641800E+01 0.31965894895E+01 0.35964281479E+01
 0.40899559375E+01 0.46462354940E+01 0.52211791218E+01 0.67824652651E+01 0.71434543899E+01
 0.73210884371E+01 0.73812650085E+01 0.73812139756E+01 0.73209625546E+01 0.71433173456E+01
 0.67823741046E+01 0.62267733167E+01 0.55506167682E+01 0.48464589748E+01 0.41818500743E+01
 0.36121879097E+01 0.31728362863E+01 0.28790952596E+01 0.27331614210E+01 0.27331420853E+01
 0.28790297155E+01 0.31727188415E+01 0.36120324674E+01 0.41816936943E+01 0.48463390403E+01
 0.55505586683E+01 0.62267919430E+01 0.74155769717E+01 0.74209979699E+01 0.73122355503E+01
 0.72528573686E+01 0.73121959810E+01 0.74209312835E+01 0.74154965863E+01 0.71433173456E+01
 0.65636883164E+01 0.57838711204E+01 0.49735020920E+01 0.42298562463E+01 0.36176113628E+01
 0.31728439039E+01 0.29070384958E+01 0.28190657060E+01 0.29069641800E+01 0.31727188415E+01
 0.36174803000E+01 0.42297692818E+01 0.49734841574E+01 0.57839132410E+01 0.65637619588E+01
 0.71433990488E+01 0.71003785886E+01 0.66020771419E+01 0.62431557368E+01 0.62431922893E+01
 0.66021701634E+01 0.71004854863E+01 0.74209312835E+01 0.73209625546E+01 0.67581405001E+01
 0.59042268726E+01 0.50169330955E+01 0.42297791031E+01 0.36120954106E+01 0.31966549919E+01
 0.29902006749E+01 0.29901738526E+01 0.31965894895E+01 0.36120324674E+01 0.42297692818E+01
 0.50169973890E+01 0.59043341689E+01 0.67582246890E+01 0.73209734516E+01 0.74208650076E+01
 0.55424941148E+01 0.46106780038E+01 0.42417673796E+01 0.46108867751E+01 0.55428200668E+01
 0.66021701634E+01 0.73121959810E+01 0.73812139756E+01 0.68203289625E+01 0.59042083330E+01
 0.49733761597E+01 0.41816456096E+01 0.35964320303E+01 0.32439689034E+01 0.31270412956E+01
 0.32439513068E+01 0.35964281479E+01 0.41816936943E+01 0.49734841574E+01 0.59043341689E+01
 0.68203959526E+01 0.73811550358E+01 0.73119881711E+01 0.66018530533E+01 0.29360486007E+01
 0.18808808894E+01 0.18810310104E+01 0.29364299963E+01 0.46108867751E+01 0.62431922893E+01
 0.72528573686E+01 0.73812650085E+01 0.67582061427E+01 0.57838188613E+01 0.48462407251E+01
 0.40899046394E+01 0.35734135053E+01 0.33148648768E+01 0.33148597879E+01 0.35734190458E+01
 0.40899559375E+01 0.48463390403E+01 0.57839132410E+01 0.67582246890E+01 0.73811550358E+01
 0.72525980696E+01 0.62427989853E+01 0.46104297097E+01 -.21095005609E-01 -.74927682798E+00
 -.20909807963E-01 0.18810310104E+01 0.42417673796E+01 0.62431557368E+01 0.73122355503E+01
 0.73210884371E+01 0.65637781570E+01 0.55505302502E+01 0.46462001701E+01 0.39639973695E+01
 0.35484906457E+01 0.34099795533E+01 0.35485075585E+01 0.39640261576E+01 0.46462354940E+01
 0.55505586683E+01 0.65637619588E+01 0.73209734516E+01 0.73119881711E+01 0.62427989853E+01
 0.42413766312E+01 0.18807031653E+01 -.23623371808E+01 -.23623208354E+01 -.74927682798E+00
 0.18808808894E+01 0.46106780038E+01 0.66020771419E+01 0.74209979699E+01 0.71434543899E+01
 0.62268221071E+01 0.52212010637E+01 0.43915878088E+01 0.38180132557E+01 0.35290293195E+01
 0.35290481900E+01 0.38180447290E+01 0.43915932872E+01 0.52211791218E+01 0.62267919430E+01
 0.71433990488E+01 0.74208650076E+01 0.66018530533E+01 0.46104297097E+01 0.18807031653E+01
 -.74935372418E+00 -.23623390980E+01 -.74935676497E+00 0.18807014036E+01 0.46104292435E+01
 0.66018523335E+01 0.74208643095E+01 0.71433996695E+01 0.62267931043E+01 0.52211790952E+01
 0.43915926445E+01 0.38180451780E+01 0.35290492068E+01 0.35290292348E+01 0.38180126121E+01
 0.43915882877E+01 0.52212021340E+01 0.62268221153E+01 0.71434539562E+01 0.74209989312E+01
 0.66020790916E+01 0.46106791596E+01 0.18808813478E+01 -.74927599202E+00 -.23623205668E+01
 -.74935676497E+00 0.12949802704E+01 0.38481711862E+01 0.60434184823E+01 0.72674179184E+01
 0.73714738279E+01 0.66505619678E+01 0.56330580147E+01 0.47156589523E+01 0.40215982930E+01
 0.35981894934E+01 0.34569265189E+01 0.35981661922E+01 0.40215699654E+01 0.47156365278E+01
 0.56330492207E+01 0.66506057328E+01 0.73716386236E+01 0.72677353768E+01 0.60438284491E+01
 0.38485556360E+01 0.12952453144E+01 -.74923183946E+00 -.15302163603E+01 0.18807014036E+01
 0.38481711862E+01 0.58140203166E+01 0.71176740041E+01 0.74473759501E+01 0.69184349508E+01
 0.59510377959E+01 0.49885266816E+01 0.42068786511E+01 0.36711043532E+01 0.34024080458E+01
 0.34024075951E+01 0.36710880523E+01 0.42068213420E+01 0.49884332328E+01 0.59509666019E+01
 0.69184712771E+01 0.74475769819E+01 0.71180361941E+01 0.58144850959E+01 0.38486444867E+01
 0.18810627088E+01 0.65373150008E+00 0.65359540475E+00 0.46104292435E+01 0.60434184823E+01
 0.71176740041E+01 0.74595131412E+01 0.70421551143E+01 0.61501786281E+01 0.51847475761E+01
 0.43544141867E+01 0.37369852882E+01 0.33639761857E+01 0.32400880302E+01 0.33639734230E+01
 0.37369548191E+01 0.43543269571E+01 0.51846052961E+01 0.61500368918E+01 0.70421062958E+01
 0.74596377882E+01 0.71179978172E+01 0.60438839006E+01 0.46108997580E+01 0.33976052767E+01
 0.29237541741E+01 0.33973058303E+01 0.66018523335E+01 0.72674179184E+01 0.74473759501E+01
 0.70421551143E+01 0.62174515920E+01 0.52870695783E+01 0.44489792073E+01 0.37861132276E+01
 0.33385385416E+01 0.31157857253E+01 0.31157983411E+01 0.33385647837E+01 0.37861150700E+01
 0.44489072556E+01 0.52869089612E+01 0.62172612810E+01 0.70420449282E+01 0.74474298972E+01
 0.72676373074E+01 0.66021505101E+01 0.57876856676E+01 0.52394307046E+01 0.52393326348E+01
 0.57874345385E+01 0.74208643095E+01 0.73714738279E+01 0.69184349508E+01 0.61501786281E+01
 0.52870695783E+01 0.44814920225E+01 0.38121234115E+01 0.33237984988E+01 0.30316293961E+01
 0.29349876211E+01 0.30317019264E+01 0.33239002198E+01 0.38121885514E+01 0.44814708303E+01
 0.52869632776E+01 0.61500362781E+01 0.69183206407E+01 0.73714227738E+01 0.74208753786E+01
 0.71704638018E+01 0.68584273597E+01 0.67216873949E+01 0.68583924904E+01 0.71704210857E+01
 0.71433996695E+01 0.66505619678E+01 0.59510377959E+01 0.51847475761E+01 0.44489792073E+01
 0.38121234115E+01 0.33189274422E+01 0.29890765614E+01 0.28254217493E+01 0.28254653416E+01
 0.29891917840E+01 0.33190736239E+01 0.38122538136E+01 0.44490564810E+01 0.51847555197E+01
 0.59509760869E+01 0.66504490487E+01 0.71432656774E+01 0.73752614158E+01 0.74119584749E+01
 0.73812654806E+01 0.73812945954E+01 0.74120408742E+01 0.73753840029E+01 0.62267931043E+01
 0.56330580147E+01 0.49885266816E+01 0.43544141867E+01 0.37861132276E+01 0.33237984988E+01
 0.29890765614E+01 0.27887485456E+01 0.27223255917E+01 0.27887753673E+01 0.29891449645E+01
 0.33239190562E+01 0.37862742392E+01 0.43545772891E+01 0.49886456820E+01 0.56330983314E+01
 0.62267453182E+01 0.66963932459E+01 0.69965535572E+01 0.71456149513E+01 0.71880122292E+01
 0.71456943607E+01 0.69966752699E+01 0.66965020343E+01 0.52211790952E+01 0.47156589523E+01
 0.42068786511E+01 0.37369852882E+01 0.33385385416E+01 0.30316293961E+01 0.28254217493E+01
 0.27223255917E+01 0.27222916017E+01 0.28253433064E+01 0.30315673759E+01 0.33385580808E+01
 0.37371159418E+01 0.42070883089E+01 0.47158716415E+01 0.52213253065E+01 0.56788126711E+01
 0.60496348441E+01 0.63040880120E+01 0.64300898691E+01 0.64301086138E+01 0.63041284751E+01
 0.60496542363E+01 0.56787607121E+01 0.43915926445E+01 0.40215982930E+01 0.36711043532E+01
 0.33639761857E+01 0.31157857253E+01 0.29349876211E+01 0.28254653416E+01 0.27887753673E+01
 0.28253433064E+01 0.29347895556E+01 0.31155949122E+01 0.33638796380E+01 0.36711468587E+01
 0.40217583065E+01 0.43918042077E+01 0.47508855717E+01 0.50668760495E+01 0.53117751195E+01
 0.54658174190E+01 0.55182306558E+01 0.54657533601E+01 0.53116550892E+01 0.50667093679E+01
 0.47506821426E+01 0.38180451780E+01 0.35981894934E+01 0.34024080458E+01 0.32400880302E+01
 0.31157983411E+01 0.30317019264E+01 0.29891917840E+01 0.29891449645E+01 0.30315673759E+01
 0.31155949122E+01 0.32398534499E+01 0.34021971898E+01 0.35980643958E+01 0.38180533880E+01
 0.40465681396E+01 0.42631575863E+01 0.44464068624E+01 0.45783443497E+01 0.46470678072E+01
 0.46469944069E+01 0.45781458518E+01 0.44461438892E+01 0.42629127939E+01 0.40464198889E+01
 0.35290492068E+01 0.34569265189E+01 0.34024075951E+01 0.33639734230E+01 0.33385647837E+01
 0.33239002198E+01 0.33190736239E+01 0.33239190562E+01 0.33385580808E+01 0.33638796380E+01
 0.34021971898E+01 0.34566406425E+01 0.35287919663E+01 0.36158827425E+01 0.37097405917E+01
 0.37985870015E+01 0.38706099751E+01 0.39169898625E+01 0.39328820627E+01 0.39168514115E+01
 0.38703923910E+01 0.37983937834E+01 0.37096788925E+01 0.36160020597E+01 0.35290292348E+01
 0.35981661922E+01 0.36710880523E+01 0.37369548191E+01 0.37861150700E+01 0.38121885514E+01
 0.38122538136E+01 0.37862742392E+01 0.37371159418E+01 0.36711468587E+01 0.35980643958E+01
 0.35287919663E+01 0.34720026015E+01 0.34313832349E+01 0.34055076961E+01 0.33902292316E+01
 0.33816501732E+01 0.33776552146E+01 0.33776237609E+01 0.33815860107E+01 0.33902049335E+01
 0.34055932739E+01 0.34315944242E+01 0.34722805050E+01 0.38180126121E+01 0.40215699654E+01
 0.42068213420E+01 0.43543269571E+01 0.44489072556E+01 0.44814708303E+01 0.44490564810E+01
 0.43545772891E+01 0.42070883089E+01 0.40217583065E+01 0.38180533880E+01 0.36158827425E+01
 0.34313832349E+01 0.32746523691E+01 0.31503971864E+01 0.30603978724E+01 0.30057100569E+01
 0.29873405216E+01 0.30057626647E+01 0.30605214876E+01 0.31506000538E+01 0.32749024556E+01
 0.34316086116E+01 0.36160003990E+01 0.43915882877E+01 0.47156365278E+01 0.49884332328E+01
 0.51846052961E+01 0.52869089612E+01 0.52869632776E+01 0.51847555197E+01 0.49886456820E+01
 0.47158716415E+01 0.43918042077E+01 0.40465681396E+01 0.37097405917E+01 0.34055076961E+01
 0.31503971864E+01 0.29539569843E+01 0.28210665843E+01 0.27541255176E+01 0.27541853715E+01
 0.28212288475E+01 0.29541704726E+01 0.31505861267E+01 0.34056016925E+01 0.37097058457E+01
 0.40464199100E+01 0.52212021340E+01 0.56330492207E+01 0.59509666019E+01 0.61500368918E+01
 0.62172612810E+01 0.61500362781E+01 0.59509760869E+01 0.56330983314E+01 0.52213253065E+01
 0.47508855717E+01 0.42631575863E+01 0.37985870015E+01 0.33902292316E+01 0.30603978724E+01
 0.28210665843E+01 0.26768903525E+01 0.26288645181E+01 0.26769870529E+01 0.28212003798E+01
 0.30604782644E+01 0.33901865274E+01 0.37984168112E+01 0.42629272680E+01 0.47506838375E+01
 0.62268221153E+01 0.66506057328E+01 0.69184712771E+01 0.70421062958E+01 0.70420449282E+01
 0.69183206407E+01 0.66504490487E+01 0.62267453182E+01 0.56788126711E+01 0.50668760495E+01
 0.44464068624E+01 0.38706099751E+01 0.33816501732E+01 0.30057100569E+01 0.27541255176E+01
 0.26288645181E+01 0.26288802985E+01 0.27541478956E+01 0.30056838352E+01 0.33815358450E+01
 0.38704148259E+01 0.44461883251E+01 0.50667098260E+01 0.56787607262E+01 0.71434539562E+01
 0.73716386236E+01 0.74475769819E+01 0.74596377882E+01 0.74474298972E+01 0.73714227738E+01
 0.71432656774E+01 0.66963932459E+01 0.60496348441E+01 0.53117751195E+01 0.45783443497E+01
 0.39169898625E+01 0.33776552146E+01 0.29873405216E+01 0.27541853715E+01 0.26769870529E+01
 0.27541478956E+01 0.29872518601E+01 0.33775186305E+01 0.39168397476E+01 0.45782262761E+01
 0.53117169709E+01 0.60496547000E+01 0.66965004158E+01 0.74209989312E+01 0.72677353768E+01
 0.71180361941E+01 0.71179978172E+01 0.72676373074E+01 0.74208753786E+01 0.73752614158E+01
 0.69965535572E+01 0.63040880120E+01 0.54658174190E+01 0.46470678072E+01 0.39328820627E+01
 0.33776237609E+01 0.30057626647E+01 0.28212288475E+01 0.28212003798E+01 0.30056838352E+01
 0.33775186305E+01 0.39327963245E+01 0.46470427588E+01 0.54658624263E+01 0.63041803659E+01
 0.69966658600E+01 0.73753843108E+01 0.66020790916E+01 0.60438284491E+01 0.58144850959E+01
 0.60438839006E+01 0.66021505101E+01 0.71704638018E+01 0.74119584749E+01 0.71456149513E+01
 0.64300898691E+01 0.55182306558E+01 0.46469944069E+01 0.39168514115E+01 0.33815860107E+01
 0.30605214876E+01 0.29541704726E+01 0.30604782644E+01 0.33815358450E+01 0.39168397476E+01
 0.46470427588E+01 0.55183246577E+01 0.64301920842E+01 0.71456869281E+01 0.74119763865E+01
 0.71704236936E+01 0.46106791596E+01 0.38485556360E+01 0.38486444867E+01 0.46108997580E+01
 0.57876856676E+01 0.68584273597E+01 0.73812654806E+01 0.71880122292E+01 0.64301086138E+01
 0.54657533601E+01 0.45781458518E+01 0.38703923910E+01 0.33902049335E+01 0.31506000538E+01
 0.31505861267E+01 0.33901865274E+01 0.38704148259E+01 0.45782262761E+01 0.54658624263E+01
 0.64301920842E+01 0.71880239839E+01 0.73811786063E+01 0.68582391037E+01 0.57874363781E+01
 0.18808813478E+01 0.12952453144E+01 0.18810627088E+01 0.33976052767E+01 0.52394307046E+01
 0.67216873949E+01 0.73812945954E+01 0.71456943607E+01 0.63041284751E+01 0.53116550892E+01
 0.44461438892E+01 0.37983937834E+01 0.34055932739E+01 0.32749024556E+01 0.34056016925E+01
 0.37984168112E+01 0.44461883251E+01 0.53117169709E+01 0.63041803659E+01 0.71456869281E+01
 0.73811786063E+01 0.67214499423E+01 0.52391171403E+01 0.33973067269E+01 -.74927599202E+00
 -.74923183946E+00 0.65373150008E+00 0.29237541741E+01 0.52393326348E+01 0.68583924904E+01
 0.74120408742E+01 0.69966752699E+01 0.60496542363E+01 0.50667093679E+01 0.42629127939E+01
 0.37096788925E+01 0.34315944242E+01 0.34316086116E+01 0.37097058457E+01 0.42629272680E+01
 0.50667098260E+01 0.60496547000E+01 0.69966658600E+01 0.74119763865E+01 0.68582391037E+01
 0.52391171403E+01 0.29235493333E+01 0.65359797842E+00 -.23623205668E+01 -.15302163603E+01
 0.65359540475E+00 0.33973058303E+01 0.57874345385E+01 0.71704210857E+01 0.73753840029E+01
 0.66965020343E+01 0.56787607121E+01 0.47506821426E+01 0.40464198889E+01 0.36160020597E+01
 0.34722805050E+01 0.36160003990E+01 0.40464199100E+01 0.47506838375E+01 0.56787607262E+01
 0.66965004158E+01 0.73753843108E+01 0.71704236936E+01 0.57874363781E+01 0.33973067269E+01
 0.65359797842E+00 -.15302130676E+01 -.21099221045E-01 0.18806990666E+01 0.42413760777E+01
 0.62428002768E+01 0.73119881936E+01 0.73209733537E+01 0.65637639013E+01 0.55505606945E+01
 0.46462350703E+01 0.39640252498E+01 0.35485088634E+01 0.34099812416E+01 0.35484900858E+01
 0.39639964204E+01 0.46462014875E+01 0.55505320066E+01 0.65637777645E+01 0.73210878620E+01
 0.73122375437E+01 0.62431583387E+01 0.42417674592E+01 0.18810297098E+01 -.20910323085E-01
 -.74927826294E+00 0.18806990666E+01 0.38481700838E+01 0.58140214865E+01 0.71176757335E+01
 0.74473766690E+01 0.69184355341E+01 0.59510391142E+01 0.49885275549E+01 0.42068782649E+01
 0.36711040995E+01 0.34024089196E+01 0.34024082901E+01 0.36710875987E+01 0.42068210566E+01
 0.49884340974E+01 0.59509673191E+01 0.69184709041E+01 0.74475768623E+01 0.71180372467E+01
 0.58144857640E+01 0.38486434118E+01 0.18810609355E+01 0.65373012667E+00 0.65359367270E+00
 0.42413760777E+01 0.58140214865E+01 0.70255565587E+01 0.74720722550E+01 0.71124387183E+01
 0.62341307455E+01 0.52578612958E+01 0.44144317043E+01 0.37858987360E+01 0.34057471209E+01
 0.32794246214E+01 0.34057388242E+01 0.37858578304E+01 0.44143317977E+01 0.52577099157E+01
 0.62339901864E+01 0.71124043336E+01 0.74722218826E+01 0.70259065852E+01 0.58145046424E+01
 0.42418542045E+01 0.29238480865E+01 0.24111049680E+01 0.29235480113E+01 0.62428002768E+01
 0.71176757335E+01 0.74720722550E+01 0.71722234322E+01 0.63784101604E+01 0.54295119859E+01
 0.45654530269E+01 0.38789364509E+01 0.34142927727E+01 0.31828015998E+01 0.31828075614E+01
 0.34142967384E+01 0.38788980082E+01 0.45653288611E+01 0.54292966242E+01 0.63781692538E+01
 0.71720721933E+01 0.74721126095E+01 0.71179309079E+01 0.62431820523E+01 0.52394597891E+01
 0.45785860292E+01 0.45784492095E+01 0.52391180388E+01 0.73119881936E+01 0.74473766690E+01
 0.71124387183E+01 0.63784101604E+01 0.54884002373E+01 0.46448131962E+01 0.39391723038E+01
 0.34226731876E+01 0.31132516358E+01 0.30108674268E+01 0.31133070240E+01 0.34227332843E+01
 0.39391640511E+01 0.46446875985E+01 0.54881688670E+01 0.63781456300E+01 0.71122369079E+01
 0.74473031394E+01 0.73120478456E+01 0.68583663000E+01 0.63879050658E+01 0.61913198043E+01
 0.63878050123E+01 0.68582380470E+01 0.73209733537E+01 0.69184355341E+01 0.62341307455E+01
 0.54295119859E+01 0.46448131962E+01 0.39599751620E+01 0.34275570098E+01 0.30711179503E+01
 0.28943331289E+01 0.28943802784E+01 0.30712308115E+01 0.34276696652E+01 0.39600230327E+01
 0.46447659876E+01 0.54293768680E+01 0.62339366743E+01 0.69182198529E+01 0.73207688898E+01
 0.74118103662E+01 0.73062949399E+01 0.71867236760E+01 0.71867589376E+01 0.73063983827E+01
 0.74119744190E+01 0.65637639013E+01 0.59510391142E+01 0.52578612958E+01 0.45654530269E+01
 0.39391723038E+01 0.34275570098E+01 0.30569735797E+01 0.28355238879E+01 0.27622203396E+01
 0.28355895490E+01 0.30570906868E+01 0.34276998947E+01 0.39393073164E+01 0.45655389449E+01
 0.52578613129E+01 0.59509309796E+01 0.65635616980E+01 0.69964189443E+01 0.72254084730E+01
 0.73076569991E+01 0.73230488013E+01 0.73077909358E+01 0.72256339583E+01 0.69966668974E+01
 0.55505606945E+01 0.49885275549E+01 0.44144317043E+01 0.38789364509E+01 0.34226731876E+01
 0.30711179503E+01 0.28355238879E+01 0.27181127189E+01 0.27181085436E+01 0.28355285573E+01
 0.30711698939E+01 0.34227962546E+01 0.38791147851E+01 0.44146086871E+01 0.49886393958E+01
 0.55505685215E+01 0.60495640990E+01 0.64368860282E+01 0.66827669096E+01 0.67965006652E+01
 0.67965514840E+01 0.66828952951E+01 0.64370312889E+01 0.60496571901E+01 0.46462350703E+01
 0.42068782649E+01 0.37858987360E+01 0.34142927727E+01 0.31132516358E+01 0.28943331289E+01
 0.27622203396E+01 0.27181085436E+01 0.27621354099E+01 0.28942152364E+01 0.31131778290E+01
 0.34143222984E+01 0.37860400690E+01 0.42070846584E+01 0.46464352646E+01 0.50668498591E+01
 0.54313405318E+01 0.57098946235E+01 0.58831615613E+01 0.59416770780E+01 0.58831720684E+01
 0.57098871647E+01 0.54312763728E+01 0.50667094202E+01 0.39640252498E+01 0.36711040995E+01
 0.34057471209E+01 0.31828015998E+01 0.30108674268E+01 0.28943802784E+01 0.28355895490E+01
 0.28355285573E+01 0.28942152364E+01 0.30106507776E+01 0.31826105892E+01 0.34056529738E+01
 0.36711398195E+01 0.39641735050E+01 0.42631362795E+01 0.45420218225E+01 0.47750526733E+01
 0.49413869043E+01 0.50276094839E+01 0.50275625686E+01 0.49412549509E+01 0.47748599871E+01
 0.45418000082E+01 0.42629253134E+01 0.35485088634E+01 0.34024089196E+01 0.32794246214E+01
 0.31828075614E+01 0.31133070240E+01 0.30712308115E+01 0.30570906868E+01 0.30711698939E+01
 0.31131778290E+01 0.31826105892E+01 0.32791873034E+01 0.34021893870E+01 0.35483789046E+01
 0.37097191584E+01 0.38728383154E+01 0.40211915902E+01 0.41388943902E+01 0.42139949522E+01
 0.42396799850E+01 0.42138443379E+01 0.41386498020E+01 0.40209449195E+01 0.38726810690E+01
 0.37097066734E+01 0.34099812416E+01 0.34024082901E+01 0.34057388242E+01 0.34142967384E+01
 0.34227332843E+01 0.34276696652E+01 0.34276998947E+01 0.34227962546E+01 0.34143222984E+01
 0.34056529738E+01 0.34021893870E+01 0.34096905338E+01 0.34313648194E+01 0.34656183621E+01
 0.35062166157E+01 0.35448390626E+01 0.35742046933E+01 0.35897934607E+01 0.35897312333E+01
 0.35740505361E+01 0.35446783905E+01 0.35061540274E+01 0.34657201482E+01 0.34316109257E+01
 0.35484900858E+01 0.36710875987E+01 0.37858578304E+01 0.38788980082E+01 0.39391640511E+01
 0.39600230327E+01 0.39393073164E+01 0.38791147851E+01 0.37860400690E+01 0.36711398195E+01
 0.35483789046E+01 0.34313648194E+01 0.33298747175E+01 0.32482634486E+01 0.31865861260E+01
 0.31432752444E+01 0.31172935330E+01 0.31085735527E+01 0.31172757074E+01 0.31432827285E+01
 0.31866737643E+01 0.32484530200E+01 0.33301278873E+01 0.34315939348E+01 0.39639964204E+01
 0.42068210566E+01 0.44143317977E+01 0.45653288611E+01 0.46446875985E+01 0.46447659876E+01
 0.45655389449E+01 0.44146086871E+01 0.42070846584E+01 0.39641735050E+01 0.37097191584E+01
 0.34656183621E+01 0.32482634486E+01 0.30676422254E+01 0.29289218409E+01 0.28348488125E+01
 0.27872693695E+01 0.27873048076E+01 0.28349597374E+01 0.29291075666E+01 0.30678686818E+01
 0.32484623968E+01 0.34657175271E+01 0.37096769154E+01 0.46462014875E+01 0.49884340974E+01
 0.52577099157E+01 0.54292966242E+01 0.54881688670E+01 0.54293768680E+01 0.52578613129E+01
 0.49886393958E+01 0.46464352646E+01 0.42631362795E+01 0.38728383154E+01 0.35062166157E+01
 0.31865861260E+01 0.29289218409E+01 0.27413862253E+01 0.26278361326E+01 0.25898805477E+01
 0.26279447513E+01 0.27415585984E+01 0.29290835328E+01 0.31866643936E+01 0.35061723415E+01
 0.38726810565E+01 0.42629136309E+01 0.55505320066E+01 0.59509673191E+01 0.62339901864E+01
 0.63781692538E+01 0.63781456300E+01 0.62339366743E+01 0.59509309796E+01 0.55505685215E+01
 0.50668498591E+01 0.45420218225E+01 0.40211915902E+01 0.35448390626E+01 0.31432752444E+01
 0.28348488125E+01 0.26278361326E+01 0.25243920338E+01 0.25244361409E+01 0.26279328533E+01
 0.28349150254E+01 0.31432370919E+01 0.35446789755E+01 0.40209592139E+01 0.45418026025E+01
 0.50667117141E+01 0.65637777645E+01 0.69184709041E+01 0.71124043336E+01 0.71720721933E+01
 0.71122369079E+01 0.69182198529E+01 0.65635616980E+01 0.60495640990E+01 0.54313405318E+01
 0.47750526733E+01 0.41388943902E+01 0.35742046933E+01 0.31172935330E+01 0.27872693695E+01
 0.25898805477E+01 0.25244361409E+01 0.25898977092E+01 0.27872593954E+01 0.31172082776E+01
 0.35740345142E+01 0.41386829688E+01 0.47748769945E+01 0.54312763416E+01 0.60496538173E+01
 0.73210878620E+01 0.74475768623E+01 0.74722218826E+01 0.74721126095E+01 0.74473031394E+01
 0.73207688898E+01 0.69964189443E+01 0.64368860282E+01 0.57098946235E+01 0.49413869043E+01
 0.42139949522E+01 0.35897934607E+01 0.31085735527E+01 0.27873048076E+01 0.26279447513E+01
 0.26279328533E+01 0.27872593954E+01 0.31084845559E+01 0.35896738943E+01 0.42138853363E+01
 0.49413296315E+01 0.57099254719E+01 0.64370286318E+01 0.69966734813E+01 0.73122375437E+01
 0.71180372467E+01 0.70259065852E+01 0.71179309079E+01 0.73120478456E+01 0.74118103662E+01
 0.72254084730E+01 0.66827669096E+01 0.58831615613E+01 0.50276094839E+01 0.42396799850E+01
 0.35897312333E+01 0.31172757074E+01 0.28349597374E+01 0.27415585984E+01 0.28349150254E+01
 0.31172082776E+01 0.35896738943E+01 0.42396637639E+01 0.50276538789E+01 0.58832765366E+01
 0.66829469335E+01 0.72256339073E+01 0.74120421774E+01 0.62431583387E+01 0.58144857640E+01
 0.58145046424E+01 0.62431820523E+01 0.68583663000E+01 0.73062949399E+01 0.73076569991E+01
 0.67965006652E+01 0.59416770780E+01 0.50275625686E+01 0.42138443379E+01 0.35740505361E+01
 0.31432827285E+01 0.29291075666E+01 0.29290835328E+01 0.31432370919E+01 0.35740345142E+01
 0.42138853363E+01 0.50276538789E+01 0.59418044068E+01 0.67966523029E+01 0.73078089572E+01