   1   1   0   0
  0.1987675E+02  0.3040559E-09  0.3040559E-09  0.3040559E-09  0.5000000E-15
  1.000000000000000E-004
  CAR 
 fcc Si                                  
     29.89928703     -7.04887916  301      6.38230919      1.00000000
     -7.049  0.0000E+00  0.0000E+00
     -6.926  0.0000E+00  0.0000E+00
     -6.803  0.0000E+00  0.0000E+00
     -6.679  0.0000E+00  0.0000E+00
     -6.556  0.0000E+00  0.0000E+00
     -6.433  0.0000E+00  0.0000E+00
     -6.310  0.0000E+00  0.0000E+00
     -6.187  0.0000E+00  0.0000E+00
     -6.064  0.0000E+00  0.0000E+00
     -5.940  0.4064E-17  0.5005E-18
     -5.817  0.1461E-11  0.1799E-12
     -5.694  0.2679E-07  0.3300E-08
     -5.571  0.2663E-04  0.3283E-05
     -5.448  0.1613E-02  0.2019E-03
     -5.325  0.9314E-02  0.1349E-02
     -5.201  0.4518E-01  0.6913E-02
     -5.078  0.9687E-01  0.1884E-01
     -4.955  0.4196E-01  0.2401E-01
     -4.832  0.8659E-01  0.3468E-01
     -4.709  0.1359E+00  0.5141E-01
     -4.586  0.2292E+00  0.7964E-01
     -4.463  0.7473E-01  0.8884E-01
     -4.339  0.4156E-01  0.9396E-01
     -4.216  0.1072E+00  0.1072E+00
     -4.093  0.3226E+00  0.1469E+00
     -3.970  0.1868E+00  0.1699E+00
     -3.847  0.1474E+00  0.1881E+00
     -3.724  0.1996E+00  0.2127E+00
     -3.600  0.2517E+00  0.2436E+00
     -3.477  0.8584E-01  0.2542E+00
     -3.354  0.6467E-01  0.2622E+00
     -3.231  0.1671E+00  0.2828E+00
     -3.108  0.5118E+00  0.3458E+00
     -2.985  0.3322E+00  0.3867E+00
     -2.861  0.1307E+00  0.4028E+00
     -2.738  0.2098E+00  0.4286E+00
     -2.615  0.3065E+00  0.4664E+00
     -2.492  0.2310E+00  0.4948E+00
     -2.369  0.6834E-01  0.5033E+00
     -2.246  0.1168E+00  0.5176E+00
     -2.122  0.4517E+00  0.5733E+00
     -1.999  0.3479E+00  0.6161E+00
     -1.876  0.2746E+00  0.6500E+00
     -1.753  0.4254E+00  0.7023E+00
     -1.630  0.5532E+00  0.7705E+00
     -1.507  0.2153E+00  0.7970E+00
     -1.383  0.2909E-01  0.8006E+00
     -1.260  0.1547E+00  0.8196E+00
     -1.137  0.4541E+00  0.8756E+00
     -1.014  0.3002E+00  0.9125E+00
     -0.891  0.2479E+00  0.9431E+00
     -0.768  0.4739E+00  0.1001E+01
     -0.645  0.5705E+00  0.1072E+01
     -0.521  0.1626E+00  0.1092E+01
     -0.398  0.3723E+00  0.1138E+01
     -0.275  0.7638E+00  0.1232E+01
     -0.152  0.6553E+00  0.1312E+01
     -0.029  0.2317E+00  0.1341E+01
      0.094  0.6012E-01  0.1348E+01
      0.218  0.3178E+00  0.1387E+01
      0.341  0.4201E+00  0.1439E+01
      0.464  0.1124E+00  0.1453E+01
      0.587  0.4007E+00  0.1502E+01
      0.710  0.7977E+00  0.1601E+01
      0.833  0.2644E+00  0.1633E+01
      0.957  0.1090E+00  0.1647E+01
      1.080  0.4804E+00  0.1706E+01
      1.203  0.4055E+00  0.1756E+01
      1.326  0.1926E+00  0.1779E+01
      1.449  0.7008E-01  0.1788E+01
      1.572  0.4378E+00  0.1842E+01
      1.696  0.5983E+00  0.1916E+01
      1.819  0.2171E+00  0.1942E+01
      1.942  0.2256E+00  0.1970E+01
      2.065  0.2128E+00  0.1996E+01
      2.188  0.4068E+00  0.2046E+01
      2.311  0.4047E+00  0.2096E+01
      2.434  0.4208E+00  0.2148E+01
      2.558  0.3851E+00  0.2196E+01
      2.681  0.4733E+00  0.2254E+01
      2.804  0.2139E+00  0.2280E+01
      2.927  0.1879E-01  0.2283E+01
      3.050  0.4539E-01  0.2288E+01
      3.173  0.3516E+00  0.2331E+01
      3.297  0.5452E+00  0.2399E+01
      3.420  0.6976E+00  0.2484E+01
      3.543  0.5171E+00  0.2548E+01
      3.666  0.6440E+00  0.2627E+01
      3.789  0.8215E+00  0.2729E+01
      3.912  0.5474E+00  0.2796E+01
      4.036  0.2169E+00  0.2823E+01
      4.159  0.3870E+00  0.2870E+01
      4.282  0.3776E+00  0.2917E+01
      4.405  0.4655E+00  0.2974E+01
      4.528  0.7227E+00  0.3063E+01
      4.651  0.7247E+00  0.3153E+01
      4.775  0.2806E+00  0.3187E+01
      4.898  0.3661E+00  0.3232E+01
      5.021  0.2547E+00  0.3264E+01
      5.144  0.5148E+00  0.3327E+01
      5.267  0.5111E+00  0.3390E+01
      5.390  0.2972E+00  0.3427E+01
      5.513  0.4794E+00  0.3486E+01
      5.637  0.9535E+00  0.3603E+01
      5.760  0.3936E+00  0.3652E+01
      5.883  0.5538E+00  0.3720E+01
      6.006  0.9502E+00  0.3837E+01
      6.129  0.4027E+00  0.3886E+01
      6.252  0.2401E+00  0.3916E+01
      6.376  0.6409E+00  0.3995E+01
      6.499  0.7225E+00  0.4084E+01
      6.622  0.4307E+00  0.4137E+01
      6.745  0.3440E+00  0.4179E+01
      6.868  0.3906E+00  0.4227E+01
      6.991  0.4458E+00  0.4282E+01
      7.115  0.3534E+00  0.4326E+01
      7.238  0.7144E+00  0.4414E+01
      7.361  0.4350E+00  0.4467E+01
      7.484  0.5053E+00  0.4530E+01
      7.607  0.7019E+00  0.4616E+01
      7.730  0.8536E+00  0.4721E+01
      7.854  0.8908E+00  0.4831E+01
      7.977  0.5376E+00  0.4897E+01
      8.100  0.3474E+00  0.4940E+01
      8.223  0.9907E+00  0.5062E+01
      8.346  0.8685E+00  0.5169E+01
      8.469  0.5320E+00  0.5234E+01
      8.593  0.6665E+00  0.5316E+01
      8.716  0.4269E+00  0.5369E+01
      8.839  0.4706E+00  0.5427E+01
      8.962  0.5604E+00  0.5496E+01
      9.085  0.2723E+00  0.5530E+01
      9.208  0.5977E+00  0.5603E+01
      9.331  0.9428E+00  0.5719E+01
      9.455  0.1102E+01  0.5855E+01
      9.578  0.1286E+01  0.6013E+01
      9.701  0.9845E+00  0.6135E+01
      9.824  0.7396E+00  0.6226E+01
      9.947  0.5226E+00  0.6290E+01
     10.070  0.2459E+00  0.6320E+01
     10.194  0.3236E+00  0.6360E+01
     10.317  0.6972E+00  0.6446E+01
     10.440  0.3559E+00  0.6490E+01
     10.563  0.1599E+00  0.6510E+01
     10.686  0.7324E+00  0.6600E+01
     10.809  0.1075E+01  0.6732E+01
     10.933  0.8322E+00  0.6835E+01
     11.056  0.6107E+00  0.6910E+01
     11.179  0.3442E+00  0.6952E+01
     11.302  0.3431E+00  0.6995E+01
     11.425  0.6599E+00  0.7076E+01
     11.548  0.8206E+00  0.7177E+01
     11.672  0.6084E+00  0.7252E+01
     11.795  0.5527E+00  0.7320E+01
     11.918  0.4611E+00  0.7377E+01
     12.041  0.6114E+00  0.7452E+01
     12.164  0.5447E+00  0.7519E+01
     12.287  0.3655E+00  0.7564E+01
     12.410  0.6479E+00  0.7644E+01
     12.534  0.6322E+00  0.7722E+01
     12.657  0.6057E+00  0.7796E+01
     12.780  0.4664E+00  0.7854E+01
     12.903  0.4926E+00  0.7915E+01
     13.026  0.4619E+00  0.7971E+01
     13.149  0.5136E+00  0.8035E+01
     13.273  0.5606E+00  0.8104E+01
     13.396  0.6799E+00  0.8187E+01
     13.519  0.3344E+00  0.8229E+01
     13.642  0.3720E+00  0.8274E+01
     13.765  0.5887E+00  0.8347E+01
     13.888  0.6857E+00  0.8431E+01
     14.012  0.6428E+00  0.8511E+01
     14.135  0.6795E+00  0.8594E+01
     14.258  0.6545E+00  0.8675E+01
     14.381  0.5990E+00  0.8749E+01
     14.504  0.7916E+00  0.8846E+01
     14.627  0.2378E+00  0.8875E+01
     14.751  0.2179E+00  0.8902E+01
     14.874  0.7398E+00  0.8993E+01
     14.997  0.7211E+00  0.9082E+01
     15.120  0.3119E+00  0.9121E+01
     15.243  0.2123E+00  0.9147E+01
     15.366  0.4048E+00  0.9197E+01
     15.490  0.5571E+00  0.9265E+01
     15.613  0.2206E+00  0.9292E+01
     15.736  0.3309E+00  0.9333E+01
     15.859  0.6293E+00  0.9411E+01
     15.982  0.7960E+00  0.9509E+01
     16.105  0.1098E+01  0.9644E+01
     16.228  0.1424E+01  0.9819E+01
     16.352  0.9549E+00  0.9937E+01
     16.475  0.8098E+00  0.1004E+02
     16.598  0.6053E+00  0.1011E+02
     16.721  0.5951E+00  0.1018E+02
     16.844  0.7973E+00  0.1028E+02
     16.967  0.7927E+00  0.1038E+02
     17.091  0.8506E+00  0.1049E+02
     17.214  0.9080E+00  0.1060E+02
     17.337  0.5799E+00  0.1067E+02
     17.460  0.5718E+00  0.1074E+02
     17.583  0.5790E+00  0.1081E+02
     17.706  0.5692E+00  0.1088E+02
     17.830  0.1016E+01  0.1101E+02
     17.953  0.1443E+01  0.1118E+02
     18.076  0.9403E+00  0.1130E+02
     18.199  0.5699E+00  0.1137E+02
     18.322  0.8289E+00  0.1147E+02
     18.445  0.8178E+00  0.1157E+02
     18.569  0.6221E+00  0.1165E+02
     18.692  0.8737E+00  0.1176E+02
     18.815  0.1020E+01  0.1188E+02
     18.938  0.9904E+00  0.1200E+02
     19.061  0.9760E+00  0.1212E+02
     19.184  0.7243E+00  0.1221E+02
     19.307  0.5703E+00  0.1228E+02
     19.431  0.6337E+00  0.1236E+02
     19.554  0.4767E+00  0.1242E+02
     19.677  0.5631E+00  0.1249E+02
     19.800  0.4946E+00  0.1255E+02
     19.923  0.9720E+00  0.1267E+02
     20.046  0.1283E+01  0.1283E+02
     20.170  0.1090E+01  0.1296E+02
     20.293  0.7623E+00  0.1306E+02
     20.416  0.1012E+01  0.1318E+02
     20.539  0.1100E+01  0.1332E+02
     20.662  0.2982E+00  0.1335E+02
     20.785  0.2724E+00  0.1339E+02
     20.909  0.2918E+00  0.1342E+02
     21.032  0.5082E+00  0.1349E+02
     21.155  0.4162E+00  0.1354E+02
     21.278  0.5491E+00  0.1360E+02
     21.401  0.1042E+01  0.1373E+02
     21.524  0.7462E+00  0.1382E+02
     21.648  0.6187E+00  0.1390E+02
     21.771  0.1204E+01  0.1405E+02
     21.894  0.1021E+01  0.1417E+02
     22.017  0.6155E+00  0.1425E+02
     22.140  0.5137E+00  0.1431E+02
     22.263  0.5719E+00  0.1438E+02
     22.386  0.4835E+00  0.1444E+02
     22.510  0.8759E+00  0.1455E+02
     22.633  0.6621E+00  0.1463E+02
     22.756  0.1951E+00  0.1466E+02
     22.879  0.4941E+00  0.1472E+02
     23.002  0.8347E+00  0.1482E+02
     23.125  0.3444E+00  0.1486E+02
     23.249  0.1839E+00  0.1489E+02
     23.372  0.8677E+00  0.1499E+02
     23.495  0.1484E+01  0.1518E+02
     23.618  0.7772E+00  0.1527E+02
     23.741  0.5281E+00  0.1534E+02
     23.864  0.5000E+00  0.1540E+02
     23.988  0.1640E+00  0.1542E+02
     24.111  0.3535E+00  0.1546E+02
     24.234  0.3269E+00  0.1550E+02
     24.357  0.5558E+00  0.1557E+02
     24.480  0.2566E+00  0.1560E+02
     24.603  0.1286E-01  0.1560E+02
     24.727  0.9824E-03  0.1560E+02
     24.850  0.4669E-01  0.1561E+02
     24.973  0.1912E+00  0.1563E+02
     25.096  0.2035E+00  0.1566E+02
     25.219  0.2419E+00  0.1569E+02
     25.342  0.1768E+00  0.1571E+02
     25.466  0.1680E+00  0.1573E+02
     25.589  0.3637E+00  0.1577E+02
     25.712  0.2034E+00  0.1580E+02
     25.835  0.1492E+00  0.1582E+02
     25.958  0.6719E-01  0.1583E+02
     26.081  0.1867E+00  0.1585E+02
     26.204  0.1593E+00  0.1587E+02
     26.328  0.4437E-01  0.1587E+02
     26.451  0.1260E+00  0.1589E+02
     26.574  0.2548E+00  0.1592E+02
     26.697  0.1965E+00  0.1595E+02
     26.820  0.1359E+00  0.1596E+02
     26.943  0.1195E-01  0.1596E+02
     27.067  0.6633E-02  0.1596E+02
     27.190  0.4148E-01  0.1597E+02
     27.313  0.2392E-01  0.1597E+02
     27.436  0.1210E-02  0.1597E+02
     27.559  0.7077E-02  0.1597E+02
     27.682  0.7096E-01  0.1598E+02
     27.806  0.6335E-01  0.1599E+02
     27.929  0.4948E-02  0.1599E+02
     28.052  0.6671E-03  0.1599E+02
     28.175  0.1863E-01  0.1599E+02
     28.298  0.4413E-01  0.1600E+02
     28.421  0.9638E-02  0.1600E+02
     28.545  0.1598E-03  0.1600E+02
     28.668  0.1608E-06  0.1600E+02
     28.791  0.8764E-11  0.1600E+02
     28.914  0.2438E-16  0.1600E+02
     29.037  0.0000E+00  0.1600E+02
     29.160  0.0000E+00  0.1600E+02
     29.283  0.0000E+00  0.1600E+02
     29.407  0.0000E+00  0.1600E+02
     29.530  0.0000E+00  0.1600E+02
     29.653  0.0000E+00  0.1600E+02
     29.776  0.0000E+00  0.1600E+02
     29.899  0.0000E+00  0.1600E+02
