    1    1    1    1
  0.1987675E+02  0.3040559E-09  0.3040559E-09  0.3040559E-09  0.5000000E-15
  1.000000000000000E-004
  CAR 
 fcc Si                                  
      4     56      8
 
  0.0000000E+00  0.0000000E+00  0.0000000E+00  0.7513148E-03
      1         -5.369417   1.000000
      2         14.250947   0.000000
      3         14.251009   0.000000
      4         14.251009   0.000000
      5         17.336537   0.000000
      6         17.336597   0.000000
      7         17.336597   0.000000
      8         21.905287   0.000000
 
  0.9090909E-01  0.3265534E-17  0.3265534E-17  0.6010518E-02
      1         -5.177981   1.000000
      2         12.569068   0.000000
      3         13.924427   0.000000
      4         13.924479   0.000000
      5         17.494071   0.000000
      6         17.855331   0.000000
      7         17.855435   0.000000
      8         21.939215   0.000000
 
  0.1818182E+00  0.3408567E-17  0.3408567E-17  0.6010518E-02
      1         -4.605642   1.000000
      2          9.663724   0.000000
      3         13.355803   0.000000
      4         13.355854   0.000000
      5         17.306788   0.000000
      6         18.512645   0.000000
      7         18.512924   0.000000
      8         21.275741   0.000000
 
  0.2727273E+00  0.5633267E-17  0.5633267E-17  0.6010518E-02
      1         -3.660351   1.000000
      2          6.747983   0.000000
      3         12.900331   0.000000
      4         12.900379   0.000000
      5         17.031716   0.000000
      6         17.937395   0.000000
      7         17.937694   0.000000
      8         22.383428   0.000000
 
  0.3636364E+00  0.1098047E-16  0.1098047E-16  0.6010518E-02
      1         -2.365698   1.000000
      2          4.082144   1.000000
      3         12.628618   0.000000
      4         12.628664   0.000000
      5         16.862052   0.000000
      6         17.084894   0.000000
      7         17.085133   0.000000
      8         21.308776   0.000000
 
  0.4545455E+00  0.1216434E-16  0.1216434E-16  0.6010518E-02
      1         -0.860878   1.000000
      2          1.882338   1.000000
      3         12.513904   0.000000
      4         12.513950   0.000000
      5         16.574016   0.000000
      6         16.574255   0.000000
      7         16.808757   0.000000
      8         20.697935   0.000000
 
  0.9090909E-01  0.9090909E-01 -0.4053191E-18  0.4507889E-02
      1         -5.114148   1.000000
      2         13.141788   0.000000
      3         13.141824   0.000000
      4         13.550465   0.000000
      5         16.177901   0.000000
      6         18.750816   0.000000
      7         18.750865   0.000000
      8         20.427375   0.000000
 
  0.1818182E+00  0.9090909E-01  0.6634492E-18  0.1803156E-01
      1         -4.668587   1.000000
      2         10.751990   0.000000
      3         12.404471   0.000000
      4         13.294645   0.000000
      5         16.195020   0.000000
      6         18.850088   0.000000
      7         19.421292   0.000000
      8         19.759293   0.000000
 
  0.2727273E+00  0.9090909E-01  0.2367733E-17  0.1803156E-01
      1         -3.847049   1.000000
      2          7.837598   0.000000
      3         11.902024   0.000000
      4         12.681465   0.000000
      5         16.267399   0.000000
      6         18.295085   0.000000
      7         19.582914   0.000000
      8         20.014354   0.000000
 
  0.3636364E+00  0.9090909E-01  0.7714935E-17  0.1803156E-01
      1         -2.665324   1.000000
      2          5.085778   1.000000
      3         11.682529   0.000000
      4         12.040541   0.000000
      5         15.713414   0.000000
      6         18.219637   0.000000
      7         18.630060   0.000000
      8         21.653758   0.000000
 
  0.4545455E+00  0.9090909E-01  0.6817133E-17  0.1803156E-01
      1         -1.190558   1.000000
      2          2.691687   1.000000
      3         11.456561   0.000000
      4         11.746214   0.000000
      5         15.478442   0.000000
      6         17.770955   0.000000
      7         18.103167   0.000000
      8         22.296755   0.000000
 
 -0.4545455E+00  0.9090909E-01 -0.1126653E-16  0.1803156E-01
      1         -0.327418   1.000000
      2          1.597569   1.000000
      3         11.004499   0.000000
      4         12.068532   0.000000
      5         15.735747   0.000000
      6         17.259521   0.000000
      7         17.986415   0.000000
      8         22.214185   0.000000
 
 -0.3636364E+00  0.9090909E-01 -0.1424600E-16  0.1803156E-01
      1         -1.703527   1.000000
      2          3.436592   1.000000
      3         10.769299   0.000000
      4         12.590237   0.000000
      5         16.432158   0.000000
      6         17.164141   0.000000
      7         17.915315   0.000000
      8         22.596936   0.000000
 
 -0.2727273E+00  0.9090909E-01 -0.1098047E-16  0.1803156E-01
      1         -3.097824   1.000000
      2          5.976535   1.000000
      3         10.806321   0.000000
      4         13.225011   0.000000
      5         17.453121   0.000000
      6         17.542784   0.000000
      7         17.955888   0.000000
      8         21.701808   0.000000
 
 -0.1818182E+00  0.9090909E-01 -0.5633267E-17  0.1803156E-01
      1         -4.162287   1.000000
      2          8.808770   0.000000
      3         11.141899   0.000000
      4         13.854894   0.000000
      5         17.933223   0.000000
      6         18.154618   0.000000
      7         18.655401   0.000000
      8         20.034906   0.000000
 
 -0.9090909E-01  0.9090909E-01 -0.6531069E-17  0.9015778E-02
      1         -4.859569   1.000000
      2         11.582652   0.000000
      3         11.908863   0.000000
      4         14.235692   0.000000
      5         17.713918   0.000000
      6         17.835004   0.000000
      7         18.891574   0.000000
      8         20.447409   0.000000
 
  0.1818182E+00  0.1818182E+00  0.3352698E-17  0.4507889E-02
      1         -4.350558   1.000000
      2         11.545844   0.000000
      3         11.545876   0.000000
      4         11.842233   0.000000
      5         14.404548   0.000000
      6         16.938733   0.000000
      7         21.193631   0.000000
      8         21.193693   0.000000
 
  0.2727273E+00  0.1818182E+00  0.4306369E-17  0.1803156E-01
      1         -3.655150   1.000000
      2          9.128572   0.000000
      3         10.946811   0.000000
      4         11.317207   0.000000
      5         14.444043   0.000000
      6         16.085091   0.000000
      7         21.703053   0.000000
      8         21.833011   0.000000
 
  0.3636364E+00  0.1818182E+00  0.7571903E-17  0.1803156E-01
      1         -2.593605   1.000000
      2          6.393230   0.438631
      3         10.334877   0.000000
      4         10.651944   0.000000
      5         14.146599   0.000000
      6         17.421316   0.000000
      7         20.875172   0.000000
      8         21.835874   0.000000
 
  0.4545455E+00  0.1818182E+00  0.5633267E-17  0.1803156E-01
      1         -1.203913   1.000000
      2          3.894090   1.000000
      3          9.394000   0.000000
      4         10.675315   0.000000
      5         13.995867   0.000000
      6         19.218351   0.000000
      7         19.936946   0.000000
      8         22.035844   0.000000
 
 -0.4545455E+00  0.1818182E+00  0.9060171E-17  0.1803156E-01
      1          0.163548   1.000000
      2          2.075464   1.000000
      3          8.660201   0.000000
      4         11.007454   0.000000
      5         14.283301   0.000000
      6         19.210660   0.000000
      7         19.949127   0.000000
      8         23.327848   0.000000
 
 -0.3636364E+00  0.1818182E+00 -0.1126653E-16  0.1803156E-01
      1         -0.700597   1.000000
      2          3.173168   1.000000
      3          8.211012   0.000000
      4         11.626683   0.000000
      5         14.985935   0.000000
      6         18.820136   0.000000
      7         19.888392   0.000000
      8         23.777025   0.000000
 
 -0.2727273E+00  0.1818182E+00 -0.1216434E-16  0.1803156E-01
      1         -2.167966   1.000000
      2          5.551686   1.000000
      3          8.084781   0.000000
      4         12.469094   0.000000
      5         16.055517   0.000000
      6         18.800759   0.000000
      7         19.642553   0.000000
      8         21.297808   0.000000
 
 -0.1818182E+00  0.1818182E+00 -0.6817133E-17  0.9015778E-02
      1         -3.344532   1.000000
      2          8.143292   0.000000
      3          8.420307   0.000000
      4         13.371524   0.000000
      5         17.389202   0.000000
      6         19.045819   0.000000
      7         19.139483   0.000000
      8         19.307963   0.000000
 
  0.2727273E+00  0.2727273E+00  0.2947379E-17  0.4507889E-02
      1         -3.086683   1.000000
      2          9.404333   0.000000
      3         10.244292   0.000000
      4         10.244321   0.000000
      5         12.941843   0.000000
      6         14.250204   0.000000
      7         23.769927   0.000000
      8         23.769980   0.000000
 
  0.3636364E+00  0.2727273E+00  0.5347203E-17  0.1803156E-01
      1         -2.149547   1.000000
      2          7.553895   0.000000
      3          8.905444   0.000000
      4          9.849395   0.000000
      5         12.941529   0.000000
      6         14.454531   0.000000
      7         23.453442   0.000000
      8         24.335541   0.000000
 
  0.4545455E+00  0.2727273E+00  0.3408567E-17  0.1803156E-01
      1         -0.868675   1.000000
      2          5.298732   1.000000
      3          7.470141   0.000000
      4          9.780413   0.000000
      5         12.838834   0.000000
      6         16.567892   0.000000
      7         22.505280   0.000000
      8         24.031120   0.000000
 
 -0.4545455E+00  0.2727273E+00  0.9957973E-17  0.1803156E-01
      1          0.611066   1.000000
      2          3.251107   1.000000
      3          6.443604   0.193015
      4         10.036935   0.000000
      5         13.079683   0.000000
      6         19.082221   0.000000
      7         21.674186   0.000000
      8         23.436521   0.000000
 
 -0.3636364E+00  0.2727273E+00 -0.1453207E-16  0.1803156E-01
      1          0.576511   1.000000
      2          3.326162   1.000000
      3          5.787081   1.000000
      4         10.607931   0.000000
      5         13.718849   0.000000
      6         21.077501   0.000000
      7         21.350033   0.000000
      8         22.809173   0.000000
 
 -0.2727273E+00  0.2727273E+00 -0.1126653E-16  0.9015778E-02
      1         -0.897242   1.000000
      2          5.413045   1.000000
      3          5.571121   1.000000
      4         11.456830   0.000000
      5         14.732965   0.000000
      6         20.469182   0.000000
      7         21.276073   0.000000
      8         21.704613   0.000000
 
  0.3636364E+00  0.3636364E+00  0.2542060E-17  0.4507889E-02
      1         -1.338681   1.000000
      2          6.471760   0.102931
      3          9.350527   0.000000
      4          9.350556   0.000000
      5         11.935012   0.000000
      6         12.711566   0.000000
      7         25.953412   0.000000
      8         26.187174   0.000000
 
  0.4545455E+00  0.3636364E+00  0.7081926E-17  0.1803156E-01
      1         -0.179210   1.000000
      2          5.035013   1.000000
      3          7.692728   0.000000
      4          9.177974   0.000000
      5         12.054750   0.000000
      6         13.624860   0.000000
      7         25.241140   0.000000
      8         26.514584   0.000000
 
 -0.4545455E+00  0.3636364E+00 -0.1084932E-15  0.1803156E-01
      1          1.241838   1.000000
      2          3.817508   1.000000
      3          5.599613   1.000000
      4          9.336596   0.000000
      5         12.238520   0.000000
      6         16.120228   0.000000
      7         24.335452   0.000000
      8         25.719713   0.000000
 
 -0.3636364E+00  0.3636364E+00 -0.2196094E-16  0.9015778E-02
      1          1.814154   1.000000
      2          3.625832   1.000000
      3          4.235210   1.000000
      4          9.820977   0.000000
      5         12.792447   0.000000
      6         18.956816   0.000000
      7         23.210871   0.000000
      8         24.303061   0.000000
 
  0.4545455E+00  0.4545455E+00  0.6300077E-17  0.4507889E-02
      1          0.846306   1.000000
      2          3.574305   1.000000
      3          8.898797   0.000000
      4          8.898825   0.000000
      5         11.429670   0.000000
      6         12.038818   0.000000
      7         27.161113   0.000000
      8         28.219825   0.000000
 
 -0.4545455E+00  0.4545455E+00 -0.2432867E-16  0.9015778E-02
      1          1.885670   1.000000
      2          2.645055   1.000000
      3          7.393601   0.000000
      4          8.951924   0.000000
      5         11.762895   0.000000
      6         13.356621   0.000000
      7         26.443753   0.000000
      8         27.676482   0.000000
 
  0.2727273E+00  0.1818182E+00  0.9090909E-01  0.1803156E-01
      1         -4.098089   1.000000
      2          9.861714   0.000000
      3         10.202048   0.000000
      4         13.122859   0.000000
      5         16.172572   0.000000
      6         17.608044   0.000000
      7         19.963277   0.000000
      8         20.507555   0.000000
 
  0.3636364E+00  0.1818182E+00  0.9090909E-01  0.3606311E-01
      1         -3.156226   1.000000
      2          7.177175   0.000000
      3          9.601341   0.000000
      4         12.347047   0.000000
      5         16.226938   0.000000
      6         17.865412   0.000000
      7         19.382603   0.000000
      8         20.995930   0.000000
 
  0.4545455E+00  0.1818182E+00  0.9090909E-01  0.3606311E-01
      1         -1.866195   1.000000
      2          4.547940   1.000000
      3          9.444054   0.000000
      4         11.458196   0.000000
      5         15.915357   0.000000
      6         17.741927   0.000000
      7         19.855214   0.000000
      8         21.750751   0.000000
 
 -0.4545455E+00  0.1818182E+00  0.9090909E-01  0.3606311E-01
      1         -0.367481   1.000000
      2          2.362440   1.000000
      3          9.492483   0.000000
      4         10.839332   0.000000
      5         15.859667   0.000000
      6         17.174619   0.000000
      7         20.139986   0.000000
      8         23.540869   0.000000
 
  0.3636364E+00  0.2727273E+00  0.9090909E-01  0.1803156E-01
      1         -2.839006   1.000000
      2          8.308852   0.000000
      3          8.826558   0.000000
      4         10.689391   0.000000
      5         14.809596   0.000000
      6         15.424992   0.000000
      7         21.348483   0.000000
      8         23.397200   0.000000
 
  0.4545455E+00  0.2727273E+00  0.9090909E-01  0.3606311E-01
      1         -1.665816   1.000000
      2          5.930095   1.000000
      3          8.205981   0.000000
      4          9.685916   0.000000
      5         14.831519   0.000000
      6         17.013098   0.000000
      7         20.435348   0.000000
      8         23.730792   0.000000
 
 -0.4545455E+00  0.2727273E+00  0.9090909E-01  0.3606311E-01
      1         -0.204242   1.000000
      2          3.613295   1.000000
      3          7.738101   0.000000
      4          9.254610   0.000000
      5         14.923297   0.000000
      6         18.726513   0.000000
      7         20.212697   0.000000
      8         23.388282   0.000000
 
 -0.3636364E+00  0.2727273E+00  0.9090909E-01  0.3606311E-01
      1          0.639623   1.000000
      2          2.556472   1.000000
      3          7.209541   0.000000
      4          9.537960   0.000000
      5         15.351119   0.000000
      6         18.558679   0.000000
      7         21.901497   0.000000
      8         22.497168   0.000000
 
 -0.2727273E+00  0.2727273E+00  0.9090909E-01  0.3606311E-01
      1         -0.721546   1.000000
      2          4.373754   1.000000
      3          6.888290   0.000000
      4         10.276172   0.000000
      5         16.062973   0.000000
      6         18.324089   0.000000
      7         20.412859   0.000000
      8         22.946792   0.000000
 
 -0.1818182E+00  0.2727273E+00  0.9090909E-01  0.1803156E-01
      1         -2.101249   1.000000
      2          6.729670   0.000000
      3          7.005785   0.000000
      4         11.310598   0.000000
      5         16.851163   0.000000
      6         17.951502   0.000000
      7         18.894658   0.000000
      8         22.481026   0.000000
 
  0.4545455E+00  0.3636364E+00  0.9090909E-01  0.1803156E-01
      1         -1.100426   1.000000
      2          6.381420   0.505016
      3          7.886632   0.000000
      4          8.557668   0.000000
      5         13.859665   0.000000
      6         14.209730   0.000000
      7         23.022464   0.000000
      8         26.068867   0.000000
 
 -0.4545455E+00  0.3636364E+00  0.9090909E-01  0.3606311E-01
      1          0.266809   1.000000
      2          4.821048   1.000000
      3          6.284513   0.916674
      4          8.212752   0.000000
      5         14.057436   0.000000
      6         16.386756   0.000000
      7         22.141985   0.000000
      8         25.511578   0.000000
 
 -0.3636364E+00  0.3636364E+00  0.9090909E-01  0.3606311E-01
      1          1.564367   1.000000
      2          3.393824   1.000000
      3          5.177864   1.000000
      4          8.531774   0.000000
      5         14.435194   0.000000
      6         18.997836   0.000000
      7         21.485678   0.000000
      8         23.388777   0.000000
 
 -0.2727273E+00  0.3636364E+00  0.9090909E-01  0.1803156E-01
      1          0.692997   1.000000
      2          4.555634   1.000000
      3          4.600905   1.000000
      4          9.243018   0.000000
      5         15.146223   0.000000
      6         20.406697   0.000000
      7         20.715844   0.000000
      8         22.412716   0.000000
 
 -0.4545455E+00  0.4545455E+00  0.9090909E-01  0.1803156E-01
      1          1.059100   1.000000
      2          3.756123   1.000000
      3          7.412434   0.000000
      4          7.764174   0.000000
      5         13.380060   0.000000
      6         13.655111   0.000000
      7         24.919327   0.000000
      8         26.697120   0.000000
 
 -0.3636364E+00  0.4545455E+00  0.9090909E-01  0.1803156E-01
      1          2.148165   1.000000
      2          3.135910   1.000000
      3          5.524864   1.000000
      4          7.889566   0.000000
      5         13.802489   0.000000
      6         16.166266   0.000000
      7         24.081940   0.000000
      8         24.239799   0.000000
 
 -0.4545455E+00  0.3636364E+00  0.1818182E+00  0.1803156E-01
      1         -0.399388   1.000000
      2          5.594652   1.000000
      3          6.045118   0.999999
      4          8.400858   0.000000
      5         16.683928   0.000000
      6         17.074411   0.000000
      7         19.593433   0.000000
      8         25.096617   0.000000
 
 -0.3636364E+00  0.3636364E+00  0.1818182E+00  0.3606311E-01
      1          1.060373   1.000000
      2          3.736273   1.000000
      3          5.905698   1.000000
      4          7.597967   0.000000
      5         16.807538   0.000000
      6         18.370659   0.000000
      7         20.060496   0.000000
      8         22.901847   0.000000
 
 -0.3636364E+00  0.4545455E+00  0.1818182E+00  0.1803156E-01
      1          1.640544   1.000000
      2          4.167394   1.000000
      3          5.562122   1.000000
      4          6.501980   0.045285
      5         16.416266   0.000000
      6         16.623928   0.000000
      7         21.329239   0.000000
      8         23.502740   0.000000
 
 -0.2727273E+00  0.4545455E+00  0.1818182E+00  0.1803156E-01
      1          2.228624   1.000000
      2          4.112469   1.000000
      3          4.464664   1.000000
      4          6.610060   0.000639
      5         16.866194   0.000000
      6         19.039163   0.000000
      7         20.308528   0.000000
      8         21.428545   0.000000
