       N       E                     dE             d eps       ncg     rms          rms(c)
DAV:   1    -0.367072675199E+01   -0.36707E+01   -0.10445E+03   984   0.201E+02
DAV:   2    -0.459163571443E+01   -0.92091E+00   -0.85828E+00  1392   0.164E+01
DAV:   3    -0.459706317965E+01   -0.54275E-02   -0.54082E-02   960   0.114E+00
DAV:   4    -0.459706910209E+01   -0.59224E-05   -0.59227E-05  1544   0.382E-02
DAV:   5    -0.459706910259E+01   -0.49805E-09   -0.20097E-09   904   0.193E-04    0.173E+00
DAV:   6    -0.458781256073E+01    0.92565E-02   -0.48056E-03   984   0.296E-01    0.937E-01
DAV:   7    -0.458314810393E+01    0.46645E-02   -0.88411E-03   928   0.400E-01    0.117E-01
DAV:   8    -0.458315356223E+01   -0.54583E-05   -0.52460E-05  1160   0.523E-02
   1 F= -.45831536E+01 E0= -.45812206E+01  d E =-.386597E-02
