<?xml version="1.0" encoding="ISO-8859-1"?>
<modeling>
 <generator>
  <i name="program" type="string">vasp </i>
  <i name="version" type="string">6.3.0  </i>
  <i name="subversion" type="string">20Jan22 (build Feb 01 2022 16:52:37) complex                          parallel </i>
  <i name="platform" type="string">TETRA_NSC1 </i>
  <i name="date" type="string">2022 02 22 </i>
  <i name="time" type="string">16:07:22 </i>
 </generator>
 <incar>
  <i type="string" name="SYSTEM">fcc Si</i>
  <i type="int" name="ISTART">     0</i>
  <i type="int" name="ICHARG">     2</i>
  <i name="ENCUT">    240.00000000</i>
  <i type="int" name="ISMEAR">     0</i>
  <i name="SIGMA">      0.10000000</i>
 </incar>
 <primitive_cell>
  <structure name="primitive_cell" >
   <crystal>
    <varray name="basis" >
     <v>       2.15000000       2.15000000       0.00000000 </v>
     <v>       0.00000000       2.15000000       2.15000000 </v>
     <v>       2.15000000       0.00000000       2.15000000 </v>
    </varray>
    <i name="volume">     19.87675000 </i>
    <varray name="rec_basis" >
     <v>       0.23255814       0.23255814      -0.23255814 </v>
     <v>      -0.23255814       0.23255814       0.23255814 </v>
     <v>       0.23255814      -0.23255814       0.23255814 </v>
    </varray>
   </crystal>
   <varray name="positions" >
    <v>       0.00000000       0.00000000       0.00000000 </v>
   </varray>
  </structure>
  <varray name="primitive_index" >
   <v type="int" >        1 </v>
  </varray>
 </primitive_cell>
 <kpoints>
  <generation param="Monkhorst-Pack">
   <v type="int" name="divisions">      11       11       11 </v>
   <v name="usershift">      0.00000000       0.00000000       0.00000000 </v>
   <v name="genvec1">      0.09090909       0.00000000       0.00000000 </v>
   <v name="genvec2">      0.00000000       0.09090909      -0.00000000 </v>
   <v name="genvec3">     -0.00000000      -0.00000000       0.09090909 </v>
   <v name="shift">      0.00000000       0.00000000       0.00000000 </v>
  </generation>
  <varray name="kpointlist" >
   <v>       0.00000000       0.00000000       0.00000000 </v>
   <v>       0.09090909       0.00000000       0.00000000 </v>
   <v>       0.18181818       0.00000000       0.00000000 </v>
   <v>       0.27272727       0.00000000       0.00000000 </v>
   <v>       0.36363636       0.00000000       0.00000000 </v>
   <v>       0.45454545       0.00000000       0.00000000 </v>
   <v>       0.09090909       0.09090909      -0.00000000 </v>
   <v>       0.18181818       0.09090909       0.00000000 </v>
   <v>       0.27272727       0.09090909       0.00000000 </v>
   <v>       0.36363636       0.09090909       0.00000000 </v>
   <v>       0.45454545       0.09090909       0.00000000 </v>
   <v>      -0.45454545       0.09090909      -0.00000000 </v>
   <v>      -0.36363636       0.09090909      -0.00000000 </v>
   <v>      -0.27272727       0.09090909      -0.00000000 </v>
   <v>      -0.18181818       0.09090909      -0.00000000 </v>
   <v>      -0.09090909       0.09090909      -0.00000000 </v>
   <v>       0.18181818       0.18181818       0.00000000 </v>
   <v>       0.27272727       0.18181818       0.00000000 </v>
   <v>       0.36363636       0.18181818       0.00000000 </v>
   <v>       0.45454545       0.18181818       0.00000000 </v>
   <v>      -0.45454545       0.18181818       0.00000000 </v>
   <v>      -0.36363636       0.18181818      -0.00000000 </v>
   <v>      -0.27272727       0.18181818      -0.00000000 </v>
   <v>      -0.18181818       0.18181818      -0.00000000 </v>
   <v>       0.27272727       0.27272727       0.00000000 </v>
   <v>       0.36363636       0.27272727       0.00000000 </v>
   <v>       0.45454545       0.27272727       0.00000000 </v>
   <v>      -0.45454545       0.27272727       0.00000000 </v>
   <v>      -0.36363636       0.27272727      -0.00000000 </v>
   <v>      -0.27272727       0.27272727      -0.00000000 </v>
   <v>       0.36363636       0.36363636       0.00000000 </v>
   <v>       0.45454545       0.36363636       0.00000000 </v>
   <v>      -0.45454545       0.36363636      -0.00000000 </v>
   <v>      -0.36363636       0.36363636      -0.00000000 </v>
   <v>       0.45454545       0.45454545       0.00000000 </v>
   <v>      -0.45454545       0.45454545      -0.00000000 </v>
   <v>       0.27272727       0.18181818       0.09090909 </v>
   <v>       0.36363636       0.18181818       0.09090909 </v>
   <v>       0.45454545       0.18181818       0.09090909 </v>
   <v>      -0.45454545       0.18181818       0.09090909 </v>
   <v>       0.36363636       0.27272727       0.09090909 </v>
   <v>       0.45454545       0.27272727       0.09090909 </v>
   <v>      -0.45454545       0.27272727       0.09090909 </v>
   <v>      -0.36363636       0.27272727       0.09090909 </v>
   <v>      -0.27272727       0.27272727       0.09090909 </v>
   <v>      -0.18181818       0.27272727       0.09090909 </v>
   <v>       0.45454545       0.36363636       0.09090909 </v>
   <v>      -0.45454545       0.36363636       0.09090909 </v>
   <v>      -0.36363636       0.36363636       0.09090909 </v>
   <v>      -0.27272727       0.36363636       0.09090909 </v>
   <v>      -0.45454545       0.45454545       0.09090909 </v>
   <v>      -0.36363636       0.45454545       0.09090909 </v>
   <v>      -0.45454545       0.36363636       0.18181818 </v>
   <v>      -0.36363636       0.36363636       0.18181818 </v>
   <v>      -0.36363636       0.45454545       0.18181818 </v>
   <v>      -0.27272727       0.45454545       0.18181818 </v>
  </varray>
  <varray name="weights" >
   <v>       0.00075131 </v>
   <v>       0.00601052 </v>
   <v>       0.00601052 </v>
   <v>       0.00601052 </v>
   <v>       0.00601052 </v>
   <v>       0.00601052 </v>
   <v>       0.00450789 </v>
   <v>       0.01803156 </v>
   <v>       0.01803156 </v>
   <v>       0.01803156 </v>
   <v>       0.01803156 </v>
   <v>       0.01803156 </v>
   <v>       0.01803156 </v>
   <v>       0.01803156 </v>
   <v>       0.01803156 </v>
   <v>       0.00901578 </v>
   <v>       0.00450789 </v>
   <v>       0.01803156 </v>
   <v>       0.01803156 </v>
   <v>       0.01803156 </v>
   <v>       0.01803156 </v>
   <v>       0.01803156 </v>
   <v>       0.01803156 </v>
   <v>       0.00901578 </v>
   <v>       0.00450789 </v>
   <v>       0.01803156 </v>
   <v>       0.01803156 </v>
   <v>       0.01803156 </v>
   <v>       0.01803156 </v>
   <v>       0.00901578 </v>
   <v>       0.00450789 </v>
   <v>       0.01803156 </v>
   <v>       0.01803156 </v>
   <v>       0.00901578 </v>
   <v>       0.00450789 </v>
   <v>       0.00901578 </v>
   <v>       0.01803156 </v>
   <v>       0.03606311 </v>
   <v>       0.03606311 </v>
   <v>       0.03606311 </v>
   <v>       0.01803156 </v>
   <v>       0.03606311 </v>
   <v>       0.03606311 </v>
   <v>       0.03606311 </v>
   <v>       0.03606311 </v>
   <v>       0.01803156 </v>
   <v>       0.01803156 </v>
   <v>       0.03606311 </v>
   <v>       0.03606311 </v>
   <v>       0.01803156 </v>
   <v>       0.01803156 </v>
   <v>       0.01803156 </v>
   <v>       0.01803156 </v>
   <v>       0.03606311 </v>
   <v>       0.01803156 </v>
   <v>       0.01803156 </v>
  </varray>
 </kpoints>
 <parameters>
  <separator name="general" >
   <i type="string" name="SYSTEM">fcc Si</i>
   <i type="logical" name="LCOMPAT"> F  </i>
  </separator>
  <separator name="electronic" >
   <i type="string" name="PREC">normal</i>
   <i name="ENMAX">    240.00000000</i>
   <i name="ENAUG">    322.06900000</i>
   <i name="EDIFF">      0.00010000</i>
   <i type="int" name="IALGO">    38</i>
   <i type="int" name="IWAVPR">    10</i>
   <i type="int" name="NBANDS">     8</i>
   <i type="int" name="NBANDSLOW">    -1</i>
   <i type="int" name="NBANDSHIGH">    -1</i>
   <i name="NELECT">      4.00000000</i>
   <i type="int" name="TURBO">     0</i>
   <i type="int" name="IRESTART">     0</i>
   <i type="int" name="NREBOOT">     0</i>
   <i type="int" name="NMIN">     0</i>
   <i name="EREF">      0.00000000</i>
   <separator name="electronic smearing" >
    <i type="int" name="ISMEAR">     0</i>
    <i name="SIGMA">      0.10000000</i>
    <i name="KSPACING">      0.50000000</i>
    <i type="logical" name="KGAMMA"> T  </i>
    <i type="logical" name="KBLOWUP"> T  </i>
   </separator>
   <separator name="electronic projectors" >
    <i type="logical" name="LREAL"> F  </i>
    <v name="ROPT">      0.00000000</v>
    <i type="int" name="LMAXPAW">  -100</i>
    <i type="int" name="LMAXMIX">     2</i>
    <i type="logical" name="NLSPLINE"> F  </i>
   </separator>
   <separator name="electronic startup" >
    <i type="int" name="ISTART">     0</i>
    <i type="int" name="ICHARG">     2</i>
    <i type="int" name="INIWAV">     1</i>
   </separator>
   <separator name="electronic spin" >
    <i type="int" name="ISPIN">     1</i>
    <i type="logical" name="LNONCOLLINEAR"> F  </i>
    <v name="MAGMOM">      1.00000000</v>
    <i name="NUPDOWN">     -1.00000000</i>
    <i type="logical" name="LSORBIT"> F  </i>
    <v name="SAXIS">      0.00000000      0.00000000      1.00000000</v>
    <i type="logical" name="LSPIRAL"> F  </i>
    <v name="QSPIRAL">      0.00000000      0.00000000      0.00000000</v>
    <i type="logical" name="LZEROZ"> F  </i>
   </separator>
   <separator name="electronic exchange-correlation" >
    <i type="logical" name="LASPH"> F  </i>
    <i type="logical" name="LMETAGGA"> F  </i>
   </separator>
   <separator name="electronic convergence" >
    <i type="int" name="NELM">    60</i>
    <i type="int" name="NELMDL">    -5</i>
    <i type="int" name="NELMIN">     2</i>
    <i name="ENINI">    240.00000000</i>
    <separator name="electronic convergence detail" >
     <i type="logical" name="LDIAG"> T  </i>
     <i type="logical" name="LSUBROT"> F  </i>
     <i name="WEIMIN">      0.00000000</i>
     <i name="EBREAK">      0.00000313</i>
     <i name="DEPER">      0.30000000</i>
     <i type="int" name="NRMM">     4</i>
     <i name="TIME">      0.40000000</i>
    </separator>
   </separator>
   <separator name="electronic mixer" >
    <i name="AMIX">      0.40000000</i>
    <i name="BMIX">      1.00000000</i>
    <i name="AMIN">      0.10000000</i>
    <i name="AMIX_MAG">      1.60000000</i>
    <i name="BMIX_MAG">      1.00000000</i>
    <separator name="electronic mixer details" >
     <i type="int" name="IMIX">     4</i>
     <i type="logical" name="MIXFIRST"> F  </i>
     <i type="int" name="MAXMIX">   -45</i>
     <i name="WC">    100.00000000</i>
     <i type="int" name="INIMIX">     1</i>
     <i type="int" name="MIXPRE">     1</i>
     <i type="int" name="MREMOVE">     5</i>
    </separator>
   </separator>
   <separator name="electronic dipolcorrection" >
    <i type="logical" name="LDIPOL"> F  </i>
    <i type="logical" name="LMONO"> F  </i>
    <i type="int" name="IDIPOL">     0</i>
    <i name="EPSILON">      1.00000000</i>
    <v name="DIPOL">   -100.00000000   -100.00000000   -100.00000000</v>
    <i name="EFIELD">      0.00000000</i>
   </separator>
  </separator>
  <separator name="grids" >
   <i type="int" name="NGX">    12</i>
   <i type="int" name="NGY">    12</i>
   <i type="int" name="NGZ">    12</i>
   <i type="int" name="NGXF">    24</i>
   <i type="int" name="NGYF">    24</i>
   <i type="int" name="NGZF">    24</i>
   <i type="logical" name="ADDGRID"> F  </i>
  </separator>
  <separator name="ionic" >
   <i type="int" name="NSW">     0</i>
   <i type="int" name="IBRION">    -1</i>
   <i type="int" name="MDALGO">     0</i>
   <i type="int" name="ISIF">     2</i>
   <i name="PSTRESS">      0.00000000</i>
   <i name="EDIFFG">      0.00100000</i>
   <i type="int" name="NFREE">     0</i>
   <i name="POTIM">      0.50000000</i>
   <i name="SMASS">     -3.00000000</i>
   <i name="SCALEE">      1.00000000</i>
  </separator>
  <separator name="ionic md" >
   <i name="TEBEG">      0.00010000</i>
   <i name="TEEND">      0.00010000</i>
   <i type="int" name="NBLOCK">     1</i>
   <i type="int" name="KBLOCK">     1</i>
   <i type="int" name="NPACO">   256</i>
   <i name="APACO">     10.00000000</i>
  </separator>
  <separator name="symmetry" >
   <i type="int" name="ISYM">     2</i>
   <i name="SYMPREC">      0.00001000</i>
  </separator>
  <separator name="dos" >
   <i type="int" name="LORBIT">     0</i>
   <v name="RWIGS">     -1.00000000</v>
   <i type="int" name="NEDOS">   301</i>
   <i name="EMIN">     10.00000000</i>
   <i name="EMAX">    -10.00000000</i>
   <i name="EFERMI">      0.00000000</i>
  </separator>
  <separator name="writing" >
   <i type="int" name="NWRITE">     2</i>
   <i type="logical" name="LWAVE"> T  </i>
   <i type="logical" name="LDOWNSAMPLE"> F  </i>
   <i type="logical" name="LCHARG"> T  </i>
   <i type="logical" name="LPARD"> F  </i>
   <i type="logical" name="LVTOT"> F  </i>
   <i type="logical" name="LVHAR"> F  </i>
   <i type="logical" name="LELF"> F  </i>
   <i type="logical" name="LOPTICS"> F  </i>
   <v name="STM">      0.00000000      0.00000000      0.00000000      0.00000000      0.00000000      0.00000000      0.00000000</v>
  </separator>
  <separator name="performance" >
   <i type="int" name="NPAR">     4</i>
   <i type="int" name="NSIM">     4</i>
   <i type="int" name="NBLK">    -1</i>
   <i type="logical" name="LPLANE"> T  </i>
   <i type="logical" name="LSCALAPACK"> T  </i>
   <i type="logical" name="LSCAAWARE"> F  </i>
   <i type="logical" name="LSCALU"> F  </i>
   <i type="logical" name="LASYNC"> F  </i>
   <i type="logical" name="LORBITALREAL"> F  </i>
  </separator>
  <separator name="miscellaneous" >
   <i type="int" name="IDIOT">     3</i>
   <i type="int" name="PHON_NSTRUCT">    -1</i>
   <i type="logical" name="LMUSIC"> F  </i>
   <v name="POMASS">     28.08500000</v>
   <v name="DARWINR">      0.00000000</v>
   <v name="DARWINV">      1.00000000</v>
   <i type="logical" name="LCORR"> T  </i>
  </separator>
  <i type="logical" name="GGA_COMPAT"> T  </i>
  <i type="logical" name="LBERRY"> F  </i>
  <i type="int" name="ICORELEVEL">     0</i>
  <i type="logical" name="LDAU"> F  </i>
  <i type="int" name="I_CONSTRAINED_M">     0</i>
  <separator name="electronic exchange-correlation" >
   <i type="string" name="GGA">--</i>
   <i type="int" name="VOSKOWN">     0</i>
   <i type="logical" name="LHFCALC"> F  </i>
   <i type="string" name="PRECFOCK"></i>
   <i type="logical" name="LSYMGRAD"> F  </i>
   <i type="logical" name="LHFONE"> F  </i>
   <i type="logical" name="LRHFCALC"> F  </i>
   <i type="logical" name="LTHOMAS"> F  </i>
   <i type="logical" name="LMODELHF"> F  </i>
   <i type="logical" name="LFOCKACE"> F  </i>
   <i name="ENCUT4O">     -1.00000000</i>
   <i type="int" name="EXXOEP">     0</i>
   <i type="int" name="FOURORBIT">     0</i>
   <i name="AEXX">      0.00000000</i>
   <i name="HFALPHA">      0.00000000</i>
   <i name="MCALPHA">      0.00000000</i>
   <i name="ALDAX">      1.00000000</i>
   <i name="AGGAX">      1.00000000</i>
   <i name="ALDAC">      1.00000000</i>
   <i name="AGGAC">      1.00000000</i>
   <i type="int" name="NKREDX">     1</i>
   <i type="int" name="NKREDY">     1</i>
   <i type="int" name="NKREDZ">     1</i>
   <i type="logical" name="SHIFTRED"> F  </i>
   <i type="logical" name="ODDONLY"> F  </i>
   <i type="logical" name="EVENONLY"> F  </i>
   <i type="int" name="LMAXFOCK">     0</i>
   <i type="int" name="NMAXFOCKAE">     0</i>
   <i type="logical" name="LFOCKAEDFT"> F  </i>
   <i name="HFSCREEN">      0.00000000</i>
   <i name="HFSCREENC">      0.00000000</i>
   <i type="int" name="NBANDSGWLOW">     0</i>
  </separator>
  <separator name="vdW DFT" >
   <i type="logical" name="LUSE_VDW"> F  </i>
   <i name="Zab_VDW">     -0.84910000</i>
   <i name="PARAM1">      0.12340000</i>
   <i name="PARAM2">      1.00000000</i>
   <i name="PARAM3">      0.00000000</i>
  </separator>
  <separator name="model GW" >
   <i type="int" name="MODEL_GW">     0</i>
   <i name="MODEL_EPS0">     11.92605000</i>
   <i name="MODEL_ALPHA">      1.00000000</i>
  </separator>
  <separator name="linear response parameters" >
   <i type="logical" name="LEPSILON"> F  </i>
   <i type="logical" name="LRPA"> F  </i>
   <i type="logical" name="LNABLA"> F  </i>
   <i type="logical" name="LVEL"> F  </i>
   <i name="CSHIFT">      0.10000000</i>
   <i name="OMEGAMAX">     -1.00000000</i>
   <i name="DEG_THRESHOLD">      0.00200000</i>
   <i name="RTIME">     -0.10000000</i>
   <i name="WPLASMAI">      0.00000000</i>
   <v name="DFIELD">      0.00000000      0.00000000      0.00000000</v>
   <v name="WPLASMA">      0.00000000      0.00000000      0.00000000      0.00000000      0.00000000      0.00000000      0.00000000      0.00000000      0.00000000</v>
  </separator>
  <separator name="orbital magnetization" >
   <i type="logical" name="NUCIND"> F  </i>
   <v name="MAGPOS">      0.00000000      0.00000000      0.00000000</v>
   <i type="logical" name="LNICSALL"> T  </i>
   <i type="logical" name="ORBITALMAG"> F  </i>
   <i type="logical" name="LMAGBLOCH"> F  </i>
   <i type="logical" name="LCHIMAG"> F  </i>
   <i type="logical" name="LGAUGE"> T  </i>
   <i type="int" name="MAGATOM">     0</i>
   <v name="MAGDIPOL">      0.00000000      0.00000000      0.00000000</v>
   <v name="AVECCONST">      0.00000000      0.00000000      0.00000000</v>
  </separator>
  <separator name="response functions" >
   <i type="logical" name="LFINITE_TEMPERATURE"> F  </i>
   <i type="logical" name="LADDER"> F  </i>
   <i type="logical" name="LRPAFORCE"> F  </i>
   <i type="logical" name="LFXC"> F  </i>
   <i type="logical" name="LHARTREE"> T  </i>
   <i type="int" name="IBSE">     0</i>
   <v type="int" name="KPOINT">    -1     0     0     0</v>
   <i type="logical" name="LTCTC"> F  </i>
   <i type="logical" name="LTCTE"> F  </i>
   <i type="logical" name="LTETE"> F  </i>
   <i type="logical" name="LTRIPLET"> F  </i>
   <i type="logical" name="LFXCEPS"> F  </i>
   <i type="logical" name="LFXHEG"> F  </i>
   <i type="int" name="NATURALO">     2</i>
   <i type="logical" name="LHOLEGF"> F  </i>
   <i type="logical" name="L2ORDER"> F  </i>
   <i type="logical" name="LDMP1"> F  </i>
   <i type="logical" name="LMP2LT"> F  </i>
   <i type="logical" name="LSMP2LT"> F  </i>
   <i type="logical" name="LGWLF"> F  </i>
   <i name="ENCUTGW">     -2.00000000</i>
   <i name="ENCUTGWSOFT">     -2.00000000</i>
   <i name="ENCUTLF">     -1.00000000</i>
   <i type="logical" name="LESF_SPLINES"> F  </i>
   <i type="int" name="LMAXMP2">    -1</i>
   <i name="SCISSOR">      0.00000000</i>
   <i type="int" name="NOMEGA">     0</i>
   <i type="int" name="NOMEGAR">     0</i>
   <i type="int" name="NBANDSGW">    -1</i>
   <i type="int" name="NBANDSO">    -1</i>
   <i type="int" name="NBANDSV">    -1</i>
   <i type="int" name="NELMGW">     1</i>
   <i type="int" name="NELMHF">     1</i>
   <i type="int" name="DIM">     3</i>
   <i type="int" name="IESPILON">     4</i>
   <i type="int" name="ANTIRES">     0</i>
   <i name="OMEGAMAX">    -30.00000000</i>
   <i name="OMEGAMIN">    -30.00000000</i>
   <i name="OMEGATL">   -200.00000000</i>
   <i type="int" name="OMEGAGRID">     0</i>
   <i name="CSHIFT">     -0.10000000</i>
   <i type="logical" name="LSELFENERGY"> F  </i>
   <i type="logical" name="LSPECTRAL"> F  </i>
   <i type="logical" name="LSPECTRALGW"> F  </i>
   <i type="logical" name="LSINGLES"> F  </i>
   <i type="logical" name="LFERMIGW"> F  </i>
   <i type="logical" name="ODDONLYGW"> F  </i>
   <i type="logical" name="EVENONLYGW"> F  </i>
   <i type="int" name="NKREDLFX">     1</i>
   <i type="int" name="NKREDLFY">     1</i>
   <i type="int" name="NKREDLFZ">     1</i>
   <i type="int" name="MAXMEM">  2800</i>
   <i type="int" name="TELESCOPE">     0</i>
   <i type="int" name="NTAUPAR">    -1</i>
   <i type="int" name="NOMEGAPAR">    -1</i>
   <i name="DAMP_NEWTON">      0.80000001</i>
   <i name="LAMBDA">      1.00000000</i>
  </separator>
  <separator name="External order field" >
   <i name="OFIELD_KAPPA">      0.00000000</i>
   <v name="OFIELD_K">      0.00000000      0.00000000      0.00000000</v>
   <i name="OFIELD_Q6_NEAR">      0.00000000</i>
   <i name="OFIELD_Q6_FAR">      0.00000000</i>
   <i name="OFIELD_A">      0.00000000</i>
  </separator>
  <separator name="optional k-points parameters" >
   <i type="int" name="KPOINTS_OPT_MODE">     1</i>
   <i type="logical" name="LKPOINTS_OPT"> F  </i>
  </separator>
 </parameters>
 <atominfo>
  <atoms>       1 </atoms>
  <types>       1 </types>
  <array name="atoms" >
   <dimension dim="1">ion</dimension>
   <field type="string">element</field>
   <field type="int">atomtype</field>
   <set>
    <rc><c>Si</c><c>   1</c></rc>
   </set>
  </array>
  <array name="atomtypes" >
   <dimension dim="1">type</dimension>
   <field type="int">atomspertype</field>
   <field type="string">element</field>
   <field>mass</field>
   <field>valence</field>
   <field type="string">pseudopotential</field>
   <set>
    <rc><c>   1</c><c>Si</c><c>     28.08500000</c><c>      4.00000000</c><c>  PAW_PBE Si 05Jan2001                  </c></rc>
   </set>
  </array>
 </atominfo>
 <structure name="initialpos" >
  <crystal>
   <varray name="basis" >
    <v>       2.15000000       2.15000000       0.00000000 </v>
    <v>       0.00000000       2.15000000       2.15000000 </v>
    <v>       2.15000000       0.00000000       2.15000000 </v>
   </varray>
   <i name="volume">     19.87675000 </i>
   <varray name="rec_basis" >
    <v>       0.23255814       0.23255814      -0.23255814 </v>
    <v>      -0.23255814       0.23255814       0.23255814 </v>
    <v>       0.23255814      -0.23255814       0.23255814 </v>
   </varray>
  </crystal>
  <varray name="positions" >
   <v>       0.00000000       0.00000000       0.00000000 </v>
  </varray>
 </structure>
 <calculation>
  <scstep>
   <time name="dav">    0.05    0.05</time>
   <time name="total">    0.05    0.05</time>
   <energy>
    <i name="alphaZ">      1.69359331 </i>
    <i name="ewald">   -122.82983823 </i>
    <i name="hartreedc">     -1.63218441 </i>
    <i name="XCdc">     -9.56225051 </i>
    <i name="pawpsdc">     88.12379961 </i>
    <i name="pawaedc">    -70.53051779 </i>
    <i name="eentropy">     -0.00433250 </i>
    <i name="bandstr">      8.01022718 </i>
    <i name="atom">    103.06077658 </i>
    <i name="e_fr_energy">     -3.67072675 </i>
    <i name="e_wo_entrp">     -3.66639426 </i>
    <i name="e_0_energy">     -3.66856050 </i>
   </energy>
  </scstep>
  <scstep>
   <time name="dav">    0.06    0.06</time>
   <time name="total">    0.06    0.06</time>
   <energy>
    <i name="e_fr_energy">     -4.59163571 </i>
    <i name="e_wo_entrp">     -4.58750106 </i>
    <i name="e_0_energy">     -4.58956839 </i>
   </energy>
  </scstep>
  <scstep>
   <time name="dav">    0.04    0.04</time>
   <time name="total">    0.04    0.04</time>
   <energy>
    <i name="e_fr_energy">     -4.59706318 </i>
    <i name="e_wo_entrp">     -4.59323874 </i>
    <i name="e_0_energy">     -4.59515096 </i>
   </energy>
  </scstep>
  <scstep>
   <time name="dav">    0.07    0.07</time>
   <time name="total">    0.07    0.07</time>
   <energy>
    <i name="e_fr_energy">     -4.59706910 </i>
    <i name="e_wo_entrp">     -4.59324495 </i>
    <i name="e_0_energy">     -4.59515703 </i>
   </energy>
  </scstep>
  <scstep>
   <time name="dav">    0.04    0.04</time>
   <time name="total">    0.04    0.04</time>
   <energy>
    <i name="e_fr_energy">     -4.59706910 </i>
    <i name="e_wo_entrp">     -4.59324495 </i>
    <i name="e_0_energy">     -4.59515703 </i>
   </energy>
  </scstep>
  <scstep>
   <time name="dav">    0.04    0.04</time>
   <time name="total">    0.04    0.04</time>
   <energy>
    <i name="e_fr_energy">     -4.58781256 </i>
    <i name="e_wo_entrp">     -4.58397332 </i>
    <i name="e_0_energy">     -4.58589294 </i>
   </energy>
  </scstep>
  <scstep>
   <time name="dav">    0.03    0.03</time>
   <time name="total">    0.04    0.04</time>
   <energy>
    <i name="e_fr_energy">     -4.58314810 </i>
    <i name="e_wo_entrp">     -4.57928083 </i>
    <i name="e_0_energy">     -4.58121447 </i>
   </energy>
  </scstep>
  <scstep>
   <time name="dav">    0.05    0.05</time>
   <time name="total">    0.05    0.05</time>
   <energy>
    <i name="alphaZ">      1.69359331 </i>
    <i name="ewald">   -122.82983823 </i>
    <i name="hartreedc">     -1.28524697 </i>
    <i name="XCdc">     -9.57697908 </i>
    <i name="pawpsdc">    196.69888171 </i>
    <i name="pawaedc">   -179.07849103 </i>
    <i name="eentropy">     -0.00386597 </i>
    <i name="bandstr">      6.73801612 </i>
    <i name="atom">    103.06077658 </i>
    <i name="e_fr_energy">     -4.58315356 </i>
    <i name="e_wo_entrp">     -4.57928760 </i>
    <i name="e_0_energy">     -4.58122058 </i>
   </energy>
  </scstep>
  <structure>
   <crystal>
    <varray name="basis" >
     <v>       2.15000000       2.15000000       0.00000000 </v>
     <v>       0.00000000       2.15000000       2.15000000 </v>
     <v>       2.15000000       0.00000000       2.15000000 </v>
    </varray>
    <i name="volume">     19.87675000 </i>
    <varray name="rec_basis" >
     <v>       0.23255814       0.23255814      -0.23255814 </v>
     <v>      -0.23255814       0.23255814       0.23255814 </v>
     <v>       0.23255814      -0.23255814       0.23255814 </v>
    </varray>
   </crystal>
   <varray name="positions" >
    <v>       0.00000000       0.00000000       0.00000000 </v>
   </varray>
  </structure>
  <varray name="forces" >
   <v>       0.00000000      -0.00000000      -0.00000000 </v>
  </varray>
  <varray name="stress" >
   <v>    -139.12129108       0.00000000       0.00000000 </v>
   <v>      -0.00000000    -139.12129108      -0.00000000 </v>
   <v>       0.00000000       0.00000000    -139.12129108 </v>
  </varray>
  <energy>
   <i name="e_fr_energy">     -4.58315356 </i>
   <i name="e_wo_entrp">     -4.57928760 </i>
   <i name="e_0_energy">     -4.58122058 </i>
  </energy>
  <time name="totalsc">    0.45    0.46</time>
  <eigenvalues>
   <array>
    <dimension dim="1">band</dimension>
    <dimension dim="2">kpoint</dimension>
    <dimension dim="3">spin</dimension>
    <field>eigene</field>
    <field>occ</field>
    <set>
     <set comment="spin 1">
      <set comment="kpoint 1">
       <r>   -5.3694    1.0000 </r>
       <r>   14.2509    0.0000 </r>
       <r>   14.2510    0.0000 </r>
       <r>   14.2510    0.0000 </r>
       <r>   17.3365    0.0000 </r>
       <r>   17.3366    0.0000 </r>
       <r>   17.3366    0.0000 </r>
       <r>   21.9053    0.0000 </r>
      </set>
      <set comment="kpoint 2">
       <r>   -5.1780    1.0000 </r>
       <r>   12.5691    0.0000 </r>
       <r>   13.9244    0.0000 </r>
       <r>   13.9245    0.0000 </r>
       <r>   17.4941    0.0000 </r>
       <r>   17.8553    0.0000 </r>
       <r>   17.8554    0.0000 </r>
       <r>   21.9392    0.0000 </r>
      </set>
      <set comment="kpoint 3">
       <r>   -4.6056    1.0000 </r>
       <r>    9.6637    0.0000 </r>
       <r>   13.3558    0.0000 </r>
       <r>   13.3559    0.0000 </r>
       <r>   17.3068    0.0000 </r>
       <r>   18.5126    0.0000 </r>
       <r>   18.5129    0.0000 </r>
       <r>   21.2757    0.0000 </r>
      </set>
      <set comment="kpoint 4">
       <r>   -3.6604    1.0000 </r>
       <r>    6.7480    0.0000 </r>
       <r>   12.9003    0.0000 </r>
       <r>   12.9004    0.0000 </r>
       <r>   17.0317    0.0000 </r>
       <r>   17.9374    0.0000 </r>
       <r>   17.9377    0.0000 </r>
       <r>   22.3834    0.0000 </r>
      </set>
      <set comment="kpoint 5">
       <r>   -2.3657    1.0000 </r>
       <r>    4.0821    1.0000 </r>
       <r>   12.6286    0.0000 </r>
       <r>   12.6287    0.0000 </r>
       <r>   16.8621    0.0000 </r>
       <r>   17.0849    0.0000 </r>
       <r>   17.0851    0.0000 </r>
       <r>   21.3088    0.0000 </r>
      </set>
      <set comment="kpoint 6">
       <r>   -0.8609    1.0000 </r>
       <r>    1.8823    1.0000 </r>
       <r>   12.5139    0.0000 </r>
       <r>   12.5139    0.0000 </r>
       <r>   16.5740    0.0000 </r>
       <r>   16.5743    0.0000 </r>
       <r>   16.8088    0.0000 </r>
       <r>   20.6979    0.0000 </r>
      </set>
      <set comment="kpoint 7">
       <r>   -5.1141    1.0000 </r>
       <r>   13.1418    0.0000 </r>
       <r>   13.1418    0.0000 </r>
       <r>   13.5505    0.0000 </r>
       <r>   16.1779    0.0000 </r>
       <r>   18.7508    0.0000 </r>
       <r>   18.7509    0.0000 </r>
       <r>   20.4274    0.0000 </r>
      </set>
      <set comment="kpoint 8">
       <r>   -4.6686    1.0000 </r>
       <r>   10.7520    0.0000 </r>
       <r>   12.4045    0.0000 </r>
       <r>   13.2946    0.0000 </r>
       <r>   16.1950    0.0000 </r>
       <r>   18.8501    0.0000 </r>
       <r>   19.4213    0.0000 </r>
       <r>   19.7593    0.0000 </r>
      </set>
      <set comment="kpoint 9">
       <r>   -3.8470    1.0000 </r>
       <r>    7.8376    0.0000 </r>
       <r>   11.9020    0.0000 </r>
       <r>   12.6815    0.0000 </r>
       <r>   16.2674    0.0000 </r>
       <r>   18.2951    0.0000 </r>
       <r>   19.5829    0.0000 </r>
       <r>   20.0144    0.0000 </r>
      </set>
      <set comment="kpoint 10">
       <r>   -2.6653    1.0000 </r>
       <r>    5.0858    1.0000 </r>
       <r>   11.6825    0.0000 </r>
       <r>   12.0405    0.0000 </r>
       <r>   15.7134    0.0000 </r>
       <r>   18.2196    0.0000 </r>
       <r>   18.6301    0.0000 </r>
       <r>   21.6538    0.0000 </r>
      </set>
      <set comment="kpoint 11">
       <r>   -1.1906    1.0000 </r>
       <r>    2.6917    1.0000 </r>
       <r>   11.4566    0.0000 </r>
       <r>   11.7462    0.0000 </r>
       <r>   15.4784    0.0000 </r>
       <r>   17.7710    0.0000 </r>
       <r>   18.1032    0.0000 </r>
       <r>   22.2968    0.0000 </r>
      </set>
      <set comment="kpoint 12">
       <r>   -0.3274    1.0000 </r>
       <r>    1.5976    1.0000 </r>
       <r>   11.0045    0.0000 </r>
       <r>   12.0685    0.0000 </r>
       <r>   15.7357    0.0000 </r>
       <r>   17.2595    0.0000 </r>
       <r>   17.9864    0.0000 </r>
       <r>   22.2142    0.0000 </r>
      </set>
      <set comment="kpoint 13">
       <r>   -1.7035    1.0000 </r>
       <r>    3.4366    1.0000 </r>
       <r>   10.7693    0.0000 </r>
       <r>   12.5902    0.0000 </r>
       <r>   16.4322    0.0000 </r>
       <r>   17.1641    0.0000 </r>
       <r>   17.9153    0.0000 </r>
       <r>   22.5969    0.0000 </r>
      </set>
      <set comment="kpoint 14">
       <r>   -3.0978    1.0000 </r>
       <r>    5.9765    1.0000 </r>
       <r>   10.8063    0.0000 </r>
       <r>   13.2250    0.0000 </r>
       <r>   17.4531    0.0000 </r>
       <r>   17.5428    0.0000 </r>
       <r>   17.9559    0.0000 </r>
       <r>   21.7018    0.0000 </r>
      </set>
      <set comment="kpoint 15">
       <r>   -4.1623    1.0000 </r>
       <r>    8.8088    0.0000 </r>
       <r>   11.1419    0.0000 </r>
       <r>   13.8549    0.0000 </r>
       <r>   17.9332    0.0000 </r>
       <r>   18.1546    0.0000 </r>
       <r>   18.6554    0.0000 </r>
       <r>   20.0349    0.0000 </r>
      </set>
      <set comment="kpoint 16">
       <r>   -4.8596    1.0000 </r>
       <r>   11.5827    0.0000 </r>
       <r>   11.9089    0.0000 </r>
       <r>   14.2357    0.0000 </r>
       <r>   17.7139    0.0000 </r>
       <r>   17.8350    0.0000 </r>
       <r>   18.8916    0.0000 </r>
       <r>   20.4474    0.0000 </r>
      </set>
      <set comment="kpoint 17">
       <r>   -4.3506    1.0000 </r>
       <r>   11.5458    0.0000 </r>
       <r>   11.5459    0.0000 </r>
       <r>   11.8422    0.0000 </r>
       <r>   14.4045    0.0000 </r>
       <r>   16.9387    0.0000 </r>
       <r>   21.1936    0.0000 </r>
       <r>   21.1937    0.0000 </r>
      </set>
      <set comment="kpoint 18">
       <r>   -3.6551    1.0000 </r>
       <r>    9.1286    0.0000 </r>
       <r>   10.9468    0.0000 </r>
       <r>   11.3172    0.0000 </r>
       <r>   14.4440    0.0000 </r>
       <r>   16.0851    0.0000 </r>
       <r>   21.7031    0.0000 </r>
       <r>   21.8330    0.0000 </r>
      </set>
      <set comment="kpoint 19">
       <r>   -2.5936    1.0000 </r>
       <r>    6.3932    0.4386 </r>
       <r>   10.3349    0.0000 </r>
       <r>   10.6519    0.0000 </r>
       <r>   14.1466    0.0000 </r>
       <r>   17.4213    0.0000 </r>
       <r>   20.8752    0.0000 </r>
       <r>   21.8359    0.0000 </r>
      </set>
      <set comment="kpoint 20">
       <r>   -1.2039    1.0000 </r>
       <r>    3.8941    1.0000 </r>
       <r>    9.3940    0.0000 </r>
       <r>   10.6753    0.0000 </r>
       <r>   13.9959    0.0000 </r>
       <r>   19.2184    0.0000 </r>
       <r>   19.9369    0.0000 </r>
       <r>   22.0358    0.0000 </r>
      </set>
      <set comment="kpoint 21">
       <r>    0.1635    1.0000 </r>
       <r>    2.0755    1.0000 </r>
       <r>    8.6602    0.0000 </r>
       <r>   11.0075    0.0000 </r>
       <r>   14.2833    0.0000 </r>
       <r>   19.2107    0.0000 </r>
       <r>   19.9491    0.0000 </r>
       <r>   23.3278    0.0000 </r>
      </set>
      <set comment="kpoint 22">
       <r>   -0.7006    1.0000 </r>
       <r>    3.1732    1.0000 </r>
       <r>    8.2110    0.0000 </r>
       <r>   11.6267    0.0000 </r>
       <r>   14.9859    0.0000 </r>
       <r>   18.8201    0.0000 </r>
       <r>   19.8884    0.0000 </r>
       <r>   23.7770    0.0000 </r>
      </set>
      <set comment="kpoint 23">
       <r>   -2.1680    1.0000 </r>
       <r>    5.5517    1.0000 </r>
       <r>    8.0848    0.0000 </r>
       <r>   12.4691    0.0000 </r>
       <r>   16.0555    0.0000 </r>
       <r>   18.8008    0.0000 </r>
       <r>   19.6426    0.0000 </r>
       <r>   21.2978    0.0000 </r>
      </set>
      <set comment="kpoint 24">
       <r>   -3.3445    1.0000 </r>
       <r>    8.1433    0.0000 </r>
       <r>    8.4203    0.0000 </r>
       <r>   13.3715    0.0000 </r>
       <r>   17.3892    0.0000 </r>
       <r>   19.0458    0.0000 </r>
       <r>   19.1395    0.0000 </r>
       <r>   19.3080    0.0000 </r>
      </set>
      <set comment="kpoint 25">
       <r>   -3.0867    1.0000 </r>
       <r>    9.4043    0.0000 </r>
       <r>   10.2443    0.0000 </r>
       <r>   10.2443    0.0000 </r>
       <r>   12.9418    0.0000 </r>
       <r>   14.2502    0.0000 </r>
       <r>   23.7699    0.0000 </r>
       <r>   23.7700    0.0000 </r>
      </set>
      <set comment="kpoint 26">
       <r>   -2.1495    1.0000 </r>
       <r>    7.5539    0.0000 </r>
       <r>    8.9054    0.0000 </r>
       <r>    9.8494    0.0000 </r>
       <r>   12.9415    0.0000 </r>
       <r>   14.4545    0.0000 </r>
       <r>   23.4534    0.0000 </r>
       <r>   24.3355    0.0000 </r>
      </set>
      <set comment="kpoint 27">
       <r>   -0.8687    1.0000 </r>
       <r>    5.2987    1.0000 </r>
       <r>    7.4701    0.0000 </r>
       <r>    9.7804    0.0000 </r>
       <r>   12.8388    0.0000 </r>
       <r>   16.5679    0.0000 </r>
       <r>   22.5053    0.0000 </r>
       <r>   24.0311    0.0000 </r>
      </set>
      <set comment="kpoint 28">
       <r>    0.6111    1.0000 </r>
       <r>    3.2511    1.0000 </r>
       <r>    6.4436    0.1930 </r>
       <r>   10.0369    0.0000 </r>
       <r>   13.0797    0.0000 </r>
       <r>   19.0822    0.0000 </r>
       <r>   21.6742    0.0000 </r>
       <r>   23.4365    0.0000 </r>
      </set>
      <set comment="kpoint 29">
       <r>    0.5765    1.0000 </r>
       <r>    3.3262    1.0000 </r>
       <r>    5.7871    1.0000 </r>
       <r>   10.6079    0.0000 </r>
       <r>   13.7188    0.0000 </r>
       <r>   21.0775    0.0000 </r>
       <r>   21.3500    0.0000 </r>
       <r>   22.8092    0.0000 </r>
      </set>
      <set comment="kpoint 30">
       <r>   -0.8972    1.0000 </r>
       <r>    5.4130    1.0000 </r>
       <r>    5.5711    1.0000 </r>
       <r>   11.4568    0.0000 </r>
       <r>   14.7330    0.0000 </r>
       <r>   20.4692    0.0000 </r>
       <r>   21.2761    0.0000 </r>
       <r>   21.7046    0.0000 </r>
      </set>
      <set comment="kpoint 31">
       <r>   -1.3387    1.0000 </r>
       <r>    6.4718    0.1029 </r>
       <r>    9.3505    0.0000 </r>
       <r>    9.3506    0.0000 </r>
       <r>   11.9350    0.0000 </r>
       <r>   12.7116    0.0000 </r>
       <r>   25.9534    0.0000 </r>
       <r>   26.1872    0.0000 </r>
      </set>
      <set comment="kpoint 32">
       <r>   -0.1792    1.0000 </r>
       <r>    5.0350    1.0000 </r>
       <r>    7.6927    0.0000 </r>
       <r>    9.1780    0.0000 </r>
       <r>   12.0548    0.0000 </r>
       <r>   13.6249    0.0000 </r>
       <r>   25.2411    0.0000 </r>
       <r>   26.5146    0.0000 </r>
      </set>
      <set comment="kpoint 33">
       <r>    1.2418    1.0000 </r>
       <r>    3.8175    1.0000 </r>
       <r>    5.5996    1.0000 </r>
       <r>    9.3366    0.0000 </r>
       <r>   12.2385    0.0000 </r>
       <r>   16.1202    0.0000 </r>
       <r>   24.3355    0.0000 </r>
       <r>   25.7197    0.0000 </r>
      </set>
      <set comment="kpoint 34">
       <r>    1.8142    1.0000 </r>
       <r>    3.6258    1.0000 </r>
       <r>    4.2352    1.0000 </r>
       <r>    9.8210    0.0000 </r>
       <r>   12.7924    0.0000 </r>
       <r>   18.9568    0.0000 </r>
       <r>   23.2109    0.0000 </r>
       <r>   24.3031    0.0000 </r>
      </set>
      <set comment="kpoint 35">
       <r>    0.8463    1.0000 </r>
       <r>    3.5743    1.0000 </r>
       <r>    8.8988    0.0000 </r>
       <r>    8.8988    0.0000 </r>
       <r>   11.4297    0.0000 </r>
       <r>   12.0388    0.0000 </r>
       <r>   27.1611    0.0000 </r>
       <r>   28.2198    0.0000 </r>
      </set>
      <set comment="kpoint 36">
       <r>    1.8857    1.0000 </r>
       <r>    2.6451    1.0000 </r>
       <r>    7.3936    0.0000 </r>
       <r>    8.9519    0.0000 </r>
       <r>   11.7629    0.0000 </r>
       <r>   13.3566    0.0000 </r>
       <r>   26.4438    0.0000 </r>
       <r>   27.6765    0.0000 </r>
      </set>
      <set comment="kpoint 37">
       <r>   -4.0981    1.0000 </r>
       <r>    9.8617    0.0000 </r>
       <r>   10.2020    0.0000 </r>
       <r>   13.1229    0.0000 </r>
       <r>   16.1726    0.0000 </r>
       <r>   17.6080    0.0000 </r>
       <r>   19.9633    0.0000 </r>
       <r>   20.5076    0.0000 </r>
      </set>
      <set comment="kpoint 38">
       <r>   -3.1562    1.0000 </r>
       <r>    7.1772    0.0000 </r>
       <r>    9.6013    0.0000 </r>
       <r>   12.3470    0.0000 </r>
       <r>   16.2269    0.0000 </r>
       <r>   17.8654    0.0000 </r>
       <r>   19.3826    0.0000 </r>
       <r>   20.9959    0.0000 </r>
      </set>
      <set comment="kpoint 39">
       <r>   -1.8662    1.0000 </r>
       <r>    4.5479    1.0000 </r>
       <r>    9.4441    0.0000 </r>
       <r>   11.4582    0.0000 </r>
       <r>   15.9154    0.0000 </r>
       <r>   17.7419    0.0000 </r>
       <r>   19.8552    0.0000 </r>
       <r>   21.7508    0.0000 </r>
      </set>
      <set comment="kpoint 40">
       <r>   -0.3675    1.0000 </r>
       <r>    2.3624    1.0000 </r>
       <r>    9.4925    0.0000 </r>
       <r>   10.8393    0.0000 </r>
       <r>   15.8597    0.0000 </r>
       <r>   17.1746    0.0000 </r>
       <r>   20.1400    0.0000 </r>
       <r>   23.5409    0.0000 </r>
      </set>
      <set comment="kpoint 41">
       <r>   -2.8390    1.0000 </r>
       <r>    8.3089    0.0000 </r>
       <r>    8.8266    0.0000 </r>
       <r>   10.6894    0.0000 </r>
       <r>   14.8096    0.0000 </r>
       <r>   15.4250    0.0000 </r>
       <r>   21.3485    0.0000 </r>
       <r>   23.3972    0.0000 </r>
      </set>
      <set comment="kpoint 42">
       <r>   -1.6658    1.0000 </r>
       <r>    5.9301    1.0000 </r>
       <r>    8.2060    0.0000 </r>
       <r>    9.6859    0.0000 </r>
       <r>   14.8315    0.0000 </r>
       <r>   17.0131    0.0000 </r>
       <r>   20.4353    0.0000 </r>
       <r>   23.7308    0.0000 </r>
      </set>
      <set comment="kpoint 43">
       <r>   -0.2042    1.0000 </r>
       <r>    3.6133    1.0000 </r>
       <r>    7.7381    0.0000 </r>
       <r>    9.2546    0.0000 </r>
       <r>   14.9233    0.0000 </r>
       <r>   18.7265    0.0000 </r>
       <r>   20.2127    0.0000 </r>
       <r>   23.3883    0.0000 </r>
      </set>
      <set comment="kpoint 44">
       <r>    0.6396    1.0000 </r>
       <r>    2.5565    1.0000 </r>
       <r>    7.2095    0.0000 </r>
       <r>    9.5380    0.0000 </r>
       <r>   15.3511    0.0000 </r>
       <r>   18.5587    0.0000 </r>
       <r>   21.9015    0.0000 </r>
       <r>   22.4972    0.0000 </r>
      </set>
      <set comment="kpoint 45">
       <r>   -0.7215    1.0000 </r>
       <r>    4.3738    1.0000 </r>
       <r>    6.8883    0.0000 </r>
       <r>   10.2762    0.0000 </r>
       <r>   16.0630    0.0000 </r>
       <r>   18.3241    0.0000 </r>
       <r>   20.4129    0.0000 </r>
       <r>   22.9468    0.0000 </r>
      </set>
      <set comment="kpoint 46">
       <r>   -2.1012    1.0000 </r>
       <r>    6.7297    0.0000 </r>
       <r>    7.0058    0.0000 </r>
       <r>   11.3106    0.0000 </r>
       <r>   16.8512    0.0000 </r>
       <r>   17.9515    0.0000 </r>
       <r>   18.8947    0.0000 </r>
       <r>   22.4810    0.0000 </r>
      </set>
      <set comment="kpoint 47">
       <r>   -1.1004    1.0000 </r>
       <r>    6.3814    0.5050 </r>
       <r>    7.8866    0.0000 </r>
       <r>    8.5577    0.0000 </r>
       <r>   13.8597    0.0000 </r>
       <r>   14.2097    0.0000 </r>
       <r>   23.0225    0.0000 </r>
       <r>   26.0689    0.0000 </r>
      </set>
      <set comment="kpoint 48">
       <r>    0.2668    1.0000 </r>
       <r>    4.8210    1.0000 </r>
       <r>    6.2845    0.9167 </r>
       <r>    8.2128    0.0000 </r>
       <r>   14.0574    0.0000 </r>
       <r>   16.3868    0.0000 </r>
       <r>   22.1420    0.0000 </r>
       <r>   25.5116    0.0000 </r>
      </set>
      <set comment="kpoint 49">
       <r>    1.5644    1.0000 </r>
       <r>    3.3938    1.0000 </r>
       <r>    5.1779    1.0000 </r>
       <r>    8.5318    0.0000 </r>
       <r>   14.4352    0.0000 </r>
       <r>   18.9978    0.0000 </r>
       <r>   21.4857    0.0000 </r>
       <r>   23.3888    0.0000 </r>
      </set>
      <set comment="kpoint 50">
       <r>    0.6930    1.0000 </r>
       <r>    4.5556    1.0000 </r>
       <r>    4.6009    1.0000 </r>
       <r>    9.2430    0.0000 </r>
       <r>   15.1462    0.0000 </r>
       <r>   20.4067    0.0000 </r>
       <r>   20.7158    0.0000 </r>
       <r>   22.4127    0.0000 </r>
      </set>
      <set comment="kpoint 51">
       <r>    1.0591    1.0000 </r>
       <r>    3.7561    1.0000 </r>
       <r>    7.4124    0.0000 </r>
       <r>    7.7642    0.0000 </r>
       <r>   13.3801    0.0000 </r>
       <r>   13.6551    0.0000 </r>
       <r>   24.9193    0.0000 </r>
       <r>   26.6971    0.0000 </r>
      </set>
      <set comment="kpoint 52">
       <r>    2.1482    1.0000 </r>
       <r>    3.1359    1.0000 </r>
       <r>    5.5249    1.0000 </r>
       <r>    7.8896    0.0000 </r>
       <r>   13.8025    0.0000 </r>
       <r>   16.1663    0.0000 </r>
       <r>   24.0819    0.0000 </r>
       <r>   24.2398    0.0000 </r>
      </set>
      <set comment="kpoint 53">
       <r>   -0.3994    1.0000 </r>
       <r>    5.5947    1.0000 </r>
       <r>    6.0451    1.0000 </r>
       <r>    8.4009    0.0000 </r>
       <r>   16.6839    0.0000 </r>
       <r>   17.0744    0.0000 </r>
       <r>   19.5934    0.0000 </r>
       <r>   25.0966    0.0000 </r>
      </set>
      <set comment="kpoint 54">
       <r>    1.0604    1.0000 </r>
       <r>    3.7363    1.0000 </r>
       <r>    5.9057    1.0000 </r>
       <r>    7.5980    0.0000 </r>
       <r>   16.8075    0.0000 </r>
       <r>   18.3707    0.0000 </r>
       <r>   20.0605    0.0000 </r>
       <r>   22.9018    0.0000 </r>
      </set>
      <set comment="kpoint 55">
       <r>    1.6405    1.0000 </r>
       <r>    4.1674    1.0000 </r>
       <r>    5.5621    1.0000 </r>
       <r>    6.5020    0.0453 </r>
       <r>   16.4163    0.0000 </r>
       <r>   16.6239    0.0000 </r>
       <r>   21.3292    0.0000 </r>
       <r>   23.5027    0.0000 </r>
      </set>
      <set comment="kpoint 56">
       <r>    2.2286    1.0000 </r>
       <r>    4.1125    1.0000 </r>
       <r>    4.4647    1.0000 </r>
       <r>    6.6101    0.0006 </r>
       <r>   16.8662    0.0000 </r>
       <r>   19.0392    0.0000 </r>
       <r>   20.3085    0.0000 </r>
       <r>   21.4285    0.0000 </r>
      </set>
     </set>
    </set>
   </array>
  </eigenvalues>
  <separator name="orbital magnetization" >
   <v name="MAGDIPOLOUT">      0.00000000      0.00000000      0.00000000</v>
  </separator>
  <dos>
   <i name="efermi">      6.38230919 </i>
   <total>
    <array>
     <dimension dim="1">gridpoints</dimension>
     <dimension dim="2">spin</dimension>
     <field>energy</field>
     <field>total</field>
     <field>integrated</field>
     <set>
      <set comment="spin 1">
       <r>    -7.0489     0.0000     0.0000 </r>
       <r>    -6.9257     0.0000     0.0000 </r>
       <r>    -6.8026     0.0000     0.0000 </r>
       <r>    -6.6794     0.0000     0.0000 </r>
       <r>    -6.5562     0.0000     0.0000 </r>
       <r>    -6.4331     0.0000     0.0000 </r>
       <r>    -6.3099     0.0000     0.0000 </r>
       <r>    -6.1868     0.0000     0.0000 </r>
       <r>    -6.0636     0.0000     0.0000 </r>
       <r>    -5.9404     0.0000     0.0000 </r>
       <r>    -5.8173     0.0000     0.0000 </r>
       <r>    -5.6941     0.0000     0.0000 </r>
       <r>    -5.5710     0.0000     0.0000 </r>
       <r>    -5.4478     0.0016     0.0002 </r>
       <r>    -5.3246     0.0093     0.0013 </r>
       <r>    -5.2015     0.0452     0.0069 </r>
       <r>    -5.0783     0.0969     0.0188 </r>
       <r>    -4.9551     0.0420     0.0240 </r>
       <r>    -4.8320     0.0866     0.0347 </r>
       <r>    -4.7088     0.1359     0.0514 </r>
       <r>    -4.5857     0.2292     0.0796 </r>
       <r>    -4.4625     0.0747     0.0888 </r>
       <r>    -4.3393     0.0416     0.0940 </r>
       <r>    -4.2162     0.1072     0.1072 </r>
       <r>    -4.0930     0.3226     0.1469 </r>
       <r>    -3.9699     0.1868     0.1699 </r>
       <r>    -3.8467     0.1474     0.1881 </r>
       <r>    -3.7235     0.1996     0.2127 </r>
       <r>    -3.6004     0.2517     0.2436 </r>
       <r>    -3.4772     0.0858     0.2542 </r>
       <r>    -3.3541     0.0647     0.2622 </r>
       <r>    -3.2309     0.1671     0.2828 </r>
       <r>    -3.1077     0.5118     0.3458 </r>
       <r>    -2.9846     0.3322     0.3867 </r>
       <r>    -2.8614     0.1307     0.4028 </r>
       <r>    -2.7383     0.2098     0.4286 </r>
       <r>    -2.6151     0.3065     0.4664 </r>
       <r>    -2.4919     0.2310     0.4948 </r>
       <r>    -2.3688     0.0683     0.5033 </r>
       <r>    -2.2456     0.1168     0.5176 </r>
       <r>    -2.1225     0.4517     0.5733 </r>
       <r>    -1.9993     0.3479     0.6161 </r>
       <r>    -1.8761     0.2746     0.6500 </r>
       <r>    -1.7530     0.4254     0.7023 </r>
       <r>    -1.6298     0.5532     0.7705 </r>
       <r>    -1.5067     0.2153     0.7970 </r>
       <r>    -1.3835     0.0291     0.8006 </r>
       <r>    -1.2603     0.1547     0.8196 </r>
       <r>    -1.1372     0.4541     0.8756 </r>
       <r>    -1.0140     0.3002     0.9125 </r>
       <r>    -0.8909     0.2479     0.9431 </r>
       <r>    -0.7677     0.4739     1.0014 </r>
       <r>    -0.6445     0.5705     1.0717 </r>
       <r>    -0.5214     0.1626     1.0917 </r>
       <r>    -0.3982     0.3723     1.1376 </r>
       <r>    -0.2750     0.7638     1.2317 </r>
       <r>    -0.1519     0.6553     1.3124 </r>
       <r>    -0.0287     0.2317     1.3409 </r>
       <r>     0.0944     0.0601     1.3483 </r>
       <r>     0.2176     0.3178     1.3874 </r>
       <r>     0.3408     0.4201     1.4392 </r>
       <r>     0.4639     0.1124     1.4530 </r>
       <r>     0.5871     0.4007     1.5024 </r>
       <r>     0.7102     0.7977     1.6006 </r>
       <r>     0.8334     0.2644     1.6332 </r>
       <r>     0.9566     0.1090     1.6466 </r>
       <r>     1.0797     0.4804     1.7058 </r>
       <r>     1.2029     0.4055     1.7557 </r>
       <r>     1.3260     0.1926     1.7794 </r>
       <r>     1.4492     0.0701     1.7881 </r>
       <r>     1.5724     0.4378     1.8420 </r>
       <r>     1.6955     0.5983     1.9157 </r>
       <r>     1.8187     0.2171     1.9424 </r>
       <r>     1.9418     0.2256     1.9702 </r>
       <r>     2.0650     0.2128     1.9964 </r>
       <r>     2.1882     0.4068     2.0465 </r>
       <r>     2.3113     0.4047     2.0963 </r>
       <r>     2.4345     0.4208     2.1482 </r>
       <r>     2.5576     0.3851     2.1956 </r>
       <r>     2.6808     0.4733     2.2539 </r>
       <r>     2.8040     0.2139     2.2802 </r>
       <r>     2.9271     0.0188     2.2825 </r>
       <r>     3.0503     0.0454     2.2881 </r>
       <r>     3.1734     0.3516     2.3314 </r>
       <r>     3.2966     0.5452     2.3986 </r>
       <r>     3.4198     0.6976     2.4845 </r>
       <r>     3.5429     0.5171     2.5482 </r>
       <r>     3.6661     0.6440     2.6275 </r>
       <r>     3.7892     0.8215     2.7287 </r>
       <r>     3.9124     0.5474     2.7961 </r>
       <r>     4.0356     0.2169     2.8228 </r>
       <r>     4.1587     0.3870     2.8705 </r>
       <r>     4.2819     0.3776     2.9170 </r>
       <r>     4.4051     0.4655     2.9743 </r>
       <r>     4.5282     0.7227     3.0633 </r>
       <r>     4.6514     0.7247     3.1526 </r>
       <r>     4.7745     0.2806     3.1871 </r>
       <r>     4.8977     0.3661     3.2322 </r>
       <r>     5.0209     0.2547     3.2636 </r>
       <r>     5.1440     0.5148     3.3270 </r>
       <r>     5.2672     0.5111     3.3899 </r>
       <r>     5.3903     0.2972     3.4265 </r>
       <r>     5.5135     0.4794     3.4856 </r>
       <r>     5.6367     0.9535     3.6030 </r>
       <r>     5.7598     0.3936     3.6515 </r>
       <r>     5.8830     0.5538     3.7197 </r>
       <r>     6.0061     0.9502     3.8367 </r>
       <r>     6.1293     0.4027     3.8863 </r>
       <r>     6.2525     0.2401     3.9159 </r>
       <r>     6.3756     0.6409     3.9948 </r>
       <r>     6.4988     0.7225     4.0838 </r>
       <r>     6.6219     0.4307     4.1369 </r>
       <r>     6.7451     0.3440     4.1793 </r>
       <r>     6.8683     0.3906     4.2274 </r>
       <r>     6.9914     0.4458     4.2823 </r>
       <r>     7.1146     0.3534     4.3258 </r>
       <r>     7.2377     0.7144     4.4138 </r>
       <r>     7.3609     0.4350     4.4673 </r>
       <r>     7.4841     0.5053     4.5296 </r>
       <r>     7.6072     0.7019     4.6160 </r>
       <r>     7.7304     0.8536     4.7212 </r>
       <r>     7.8535     0.8908     4.8309 </r>
       <r>     7.9767     0.5376     4.8971 </r>
       <r>     8.0999     0.3474     4.9399 </r>
       <r>     8.2230     0.9907     5.0619 </r>
       <r>     8.3462     0.8685     5.1688 </r>
       <r>     8.4694     0.5320     5.2344 </r>
       <r>     8.5925     0.6665     5.3164 </r>
       <r>     8.7157     0.4269     5.3690 </r>
       <r>     8.8388     0.4706     5.4270 </r>
       <r>     8.9620     0.5604     5.4960 </r>
       <r>     9.0852     0.2723     5.5295 </r>
       <r>     9.2083     0.5977     5.6032 </r>
       <r>     9.3315     0.9428     5.7193 </r>
       <r>     9.4546     1.1019     5.8550 </r>
       <r>     9.5778     1.2863     6.0134 </r>
       <r>     9.7010     0.9845     6.1347 </r>
       <r>     9.8241     0.7396     6.2258 </r>
       <r>     9.9473     0.5226     6.2901 </r>
       <r>    10.0704     0.2459     6.3204 </r>
       <r>    10.1936     0.3236     6.3603 </r>
       <r>    10.3168     0.6972     6.4461 </r>
       <r>    10.4399     0.3559     6.4900 </r>
       <r>    10.5631     0.1599     6.5097 </r>
       <r>    10.6862     0.7324     6.5999 </r>
       <r>    10.8094     1.0749     6.7323 </r>
       <r>    10.9326     0.8322     6.8347 </r>
       <r>    11.0557     0.6107     6.9100 </r>
       <r>    11.1789     0.3442     6.9523 </r>
       <r>    11.3020     0.3431     6.9946 </r>
       <r>    11.4252     0.6599     7.0759 </r>
       <r>    11.5484     0.8206     7.1770 </r>
       <r>    11.6715     0.6084     7.2519 </r>
       <r>    11.7947     0.5527     7.3200 </r>
       <r>    11.9178     0.4611     7.3767 </r>
       <r>    12.0410     0.6114     7.4520 </r>
       <r>    12.1642     0.5447     7.5191 </r>
       <r>    12.2873     0.3655     7.5641 </r>
       <r>    12.4105     0.6479     7.6439 </r>
       <r>    12.5336     0.6322     7.7218 </r>
       <r>    12.6568     0.6057     7.7964 </r>
       <r>    12.7800     0.4664     7.8539 </r>
       <r>    12.9031     0.4926     7.9145 </r>
       <r>    13.0263     0.4619     7.9714 </r>
       <r>    13.1495     0.5136     8.0347 </r>
       <r>    13.2726     0.5606     8.1037 </r>
       <r>    13.3958     0.6799     8.1874 </r>
       <r>    13.5189     0.3344     8.2286 </r>
       <r>    13.6421     0.3720     8.2744 </r>
       <r>    13.7653     0.5887     8.3469 </r>
       <r>    13.8884     0.6857     8.4314 </r>
       <r>    14.0116     0.6428     8.5106 </r>
       <r>    14.1347     0.6795     8.5942 </r>
       <r>    14.2579     0.6545     8.6749 </r>
       <r>    14.3811     0.5990     8.7486 </r>
       <r>    14.5042     0.7916     8.8461 </r>
       <r>    14.6274     0.2378     8.8754 </r>
       <r>    14.7505     0.2179     8.9022 </r>
       <r>    14.8737     0.7398     8.9933 </r>
       <r>    14.9969     0.7211     9.0821 </r>
       <r>    15.1200     0.3119     9.1206 </r>
       <r>    15.2432     0.2123     9.1467 </r>
       <r>    15.3663     0.4048     9.1966 </r>
       <r>    15.4895     0.5571     9.2652 </r>
       <r>    15.6127     0.2206     9.2923 </r>
       <r>    15.7358     0.3309     9.3331 </r>
       <r>    15.8590     0.6293     9.4106 </r>
       <r>    15.9821     0.7960     9.5086 </r>
       <r>    16.1053     1.0980     9.6439 </r>
       <r>    16.2285     1.4243     9.8193 </r>
       <r>    16.3516     0.9549     9.9369 </r>
       <r>    16.4748     0.8098    10.0366 </r>
       <r>    16.5979     0.6053    10.1112 </r>
       <r>    16.7211     0.5951    10.1845 </r>
       <r>    16.8443     0.7973    10.2827 </r>
       <r>    16.9674     0.7927    10.3803 </r>
       <r>    17.0906     0.8506    10.4850 </r>
       <r>    17.2137     0.9080    10.5969 </r>
       <r>    17.3369     0.5799    10.6683 </r>
       <r>    17.4601     0.5718    10.7387 </r>
       <r>    17.5832     0.5790    10.8100 </r>
       <r>    17.7064     0.5692    10.8801 </r>
       <r>    17.8296     1.0162    11.0053 </r>
       <r>    17.9527     1.4429    11.1830 </r>
       <r>    18.0759     0.9403    11.2988 </r>
       <r>    18.1990     0.5699    11.3690 </r>
       <r>    18.3222     0.8289    11.4710 </r>
       <r>    18.4454     0.8178    11.5718 </r>
       <r>    18.5685     0.6221    11.6484 </r>
       <r>    18.6917     0.8737    11.7560 </r>
       <r>    18.8148     1.0201    11.8816 </r>
       <r>    18.9380     0.9904    12.0036 </r>
       <r>    19.0612     0.9760    12.1238 </r>
       <r>    19.1843     0.7243    12.2130 </r>
       <r>    19.3075     0.5703    12.2833 </r>
       <r>    19.4306     0.6337    12.3613 </r>
       <r>    19.5538     0.4767    12.4200 </r>
       <r>    19.6770     0.5631    12.4894 </r>
       <r>    19.8001     0.4946    12.5503 </r>
       <r>    19.9233     0.9720    12.6700 </r>
       <r>    20.0464     1.2831    12.8280 </r>
       <r>    20.1696     1.0898    12.9623 </r>
       <r>    20.2928     0.7623    13.0561 </r>
       <r>    20.4159     1.0123    13.1808 </r>
       <r>    20.5391     1.0999    13.3163 </r>
       <r>    20.6622     0.2982    13.3530 </r>
       <r>    20.7854     0.2724    13.3866 </r>
       <r>    20.9086     0.2918    13.4225 </r>
       <r>    21.0317     0.5082    13.4851 </r>
       <r>    21.1549     0.4162    13.5363 </r>
       <r>    21.2780     0.5491    13.6040 </r>
       <r>    21.4012     1.0425    13.7324 </r>
       <r>    21.5244     0.7462    13.8243 </r>
       <r>    21.6475     0.6187    13.9005 </r>
       <r>    21.7707     1.2036    14.0487 </r>
       <r>    21.8939     1.0211    14.1745 </r>
       <r>    22.0170     0.6155    14.2503 </r>
       <r>    22.1402     0.5137    14.3135 </r>
       <r>    22.2633     0.5719    14.3840 </r>
       <r>    22.3865     0.4835    14.4435 </r>
       <r>    22.5097     0.8759    14.5514 </r>
       <r>    22.6328     0.6621    14.6330 </r>
       <r>    22.7560     0.1951    14.6570 </r>
       <r>    22.8791     0.4941    14.7178 </r>
       <r>    23.0023     0.8347    14.8206 </r>
       <r>    23.1255     0.3444    14.8631 </r>
       <r>    23.2486     0.1839    14.8857 </r>
       <r>    23.3718     0.8677    14.9926 </r>
       <r>    23.4949     1.4839    15.1753 </r>
       <r>    23.6181     0.7772    15.2710 </r>
       <r>    23.7413     0.5281    15.3361 </r>
       <r>    23.8644     0.5000    15.3977 </r>
       <r>    23.9876     0.1640    15.4179 </r>
       <r>    24.1107     0.3535    15.4614 </r>
       <r>    24.2339     0.3269    15.5017 </r>
       <r>    24.3571     0.5558    15.5701 </r>
       <r>    24.4802     0.2566    15.6017 </r>
       <r>    24.6034     0.0129    15.6033 </r>
       <r>    24.7265     0.0010    15.6034 </r>
       <r>    24.8497     0.0467    15.6092 </r>
       <r>    24.9729     0.1912    15.6327 </r>
       <r>    25.0960     0.2035    15.6578 </r>
       <r>    25.2192     0.2419    15.6876 </r>
       <r>    25.3423     0.1768    15.7093 </r>
       <r>    25.4655     0.1680    15.7300 </r>
       <r>    25.5887     0.3637    15.7748 </r>
       <r>    25.7118     0.2034    15.7999 </r>
       <r>    25.8350     0.1492    15.8183 </r>
       <r>    25.9581     0.0672    15.8265 </r>
       <r>    26.0813     0.1867    15.8495 </r>
       <r>    26.2045     0.1593    15.8692 </r>
       <r>    26.3276     0.0444    15.8746 </r>
       <r>    26.4508     0.1260    15.8901 </r>
       <r>    26.5740     0.2548    15.9215 </r>
       <r>    26.6971     0.1965    15.9457 </r>
       <r>    26.8203     0.1359    15.9625 </r>
       <r>    26.9434     0.0119    15.9639 </r>
       <r>    27.0666     0.0066    15.9648 </r>
       <r>    27.1898     0.0415    15.9699 </r>
       <r>    27.3129     0.0239    15.9728 </r>
       <r>    27.4361     0.0012    15.9730 </r>
       <r>    27.5592     0.0071    15.9738 </r>
       <r>    27.6824     0.0710    15.9826 </r>
       <r>    27.8056     0.0633    15.9904 </r>
       <r>    27.9287     0.0049    15.9910 </r>
       <r>    28.0519     0.0007    15.9911 </r>
       <r>    28.1750     0.0186    15.9934 </r>
       <r>    28.2982     0.0441    15.9988 </r>
       <r>    28.4214     0.0096    16.0000 </r>
       <r>    28.5445     0.0002    16.0000 </r>
       <r>    28.6677     0.0000    16.0000 </r>
       <r>    28.7908     0.0000    16.0000 </r>
       <r>    28.9140     0.0000    16.0000 </r>
       <r>    29.0372     0.0000    16.0000 </r>
       <r>    29.1603     0.0000    16.0000 </r>
       <r>    29.2835     0.0000    16.0000 </r>
       <r>    29.4066     0.0000    16.0000 </r>
       <r>    29.5298     0.0000    16.0000 </r>
       <r>    29.6530     0.0000    16.0000 </r>
       <r>    29.7761     0.0000    16.0000 </r>
       <r>    29.8993     0.0000    16.0000 </r>
      </set>
     </set>
    </array>
   </total>
  </dos>
 </calculation>
 <structure name="finalpos" >
  <crystal>
   <varray name="basis" >
    <v>       2.15000000       2.15000000       0.00000000 </v>
    <v>       0.00000000       2.15000000       2.15000000 </v>
    <v>       2.15000000       0.00000000       2.15000000 </v>
   </varray>
   <i name="volume">     19.87675000 </i>
   <varray name="rec_basis" >
    <v>       0.23255814       0.23255814      -0.23255814 </v>
    <v>      -0.23255814       0.23255814       0.23255814 </v>
    <v>       0.23255814      -0.23255814       0.23255814 </v>
   </varray>
  </crystal>
  <varray name="positions" >
   <v>       0.00000000       0.00000000       0.00000000 </v>
  </varray>
 </structure>
</modeling>
