fcc Ni                                  
   3.70000000000000     
     0.500000    0.500000    0.000000
     0.000000    0.500000    0.500000
     0.500000    0.000000    0.500000
   Ni
     1
Direct
  0.000000  0.000000  0.000000
 
   24   24   24
  176.13      167.42      143.64      110.82      76.281      46.298      24.572      11.849      6.3200      4.6261    
  3.7697      3.2691      3.1089      3.2691      3.7697      4.6261      6.3200      11.849      24.572      46.298    
  76.281      110.82      143.64      167.42      167.42      151.20      123.02      89.659      57.953      32.832    
  16.430      8.1051      5.1529      4.1114      3.4438      3.1255      3.1255      3.4438      4.1114      5.1529    
  8.1051      16.430      32.832      57.953      89.659      123.02      151.20      167.42      143.64      123.02    
  94.570      64.734      39.013      20.638      10.157      5.7975      4.4245      3.6271      3.1698      3.0247    
  3.1698      3.6271      4.4245      5.7976      10.157      20.638      39.013      64.734      94.570      123.02    
  143.64      151.20      110.82      89.659      64.734      41.307      23.163      11.810      6.4608      4.6710    
  3.7919      3.2281      2.9657      2.9657      3.2281      3.7919      4.6710      6.4608      11.810      23.163    
  41.307      64.734      89.659      110.82      123.02      123.02      76.281      57.953      39.013      23.163    
  12.445      6.8910      4.8360      3.9145      3.2838      2.9383      2.8309      2.9383      3.2838      3.9145    
  4.8360      6.8910      12.445      23.163      39.013      57.953      76.281      89.659      94.570      89.659    
  46.298      32.832      20.638      11.810      6.8910      4.8974      3.9793      3.3229      2.9293      2.7523    
  2.7523      2.9293      3.3229      3.9793      4.8974      6.8910      11.810      20.638      32.832      46.298    
  57.953      64.734      64.734      57.953      24.572      16.430      10.157      6.4608      4.8360      3.9793    
  3.3369      2.9277      2.7136      2.6484      2.7136      2.9277      3.3369      3.9793      4.8360      6.4608    
  10.157      16.430      24.572      32.832      39.013      41.307      39.013      32.832      11.849      8.1051    
  5.7975      4.6710      3.9145      3.3229      2.9277      2.7023      2.6036      2.6036      2.7023      2.9277    
  3.3229      3.9145      4.6711      5.7976      8.1051      11.848      16.430      20.638      23.163      23.163    
  20.638      16.430      6.3200      5.1529      4.4245      3.7919      3.2838      2.9293      2.7136      2.6036    
  2.5705      2.6036      2.7136      2.9293      3.2838      3.7919      4.4245      5.1529      6.3200      8.1051    
  10.157      11.810      12.445      11.810      10.157      8.1051      4.6261      4.1114      3.6271      3.2281    
  2.9383      2.7523      2.6484      2.6036      2.6036      2.6484      2.7523      2.9383      3.2281      3.6271    
  4.1114      4.6261      5.1529      5.7976      6.4608      6.8910      6.8910      6.4608      5.7976      5.1529    
  3.7697      3.4438      3.1698      2.9657      2.8309      2.7523      2.7136      2.7023      2.7136      2.7523    
  2.8308      2.9657      3.1698      3.4438      3.7697      4.1114      4.4245      4.6711      4.8360      4.8974    
  4.8360      4.6710      4.4245      4.1114      3.2691      3.1255      3.0247      2.9657      2.9383      2.9293    
  2.9277      2.9277      2.9293      2.9383      2.9657      3.0247      3.1255      3.2691      3.4438      3.6271    
  3.7919      3.9145      3.9793      3.9793      3.9145      3.7919      3.6271      3.4438      3.1089      3.1255    
  3.1698      3.2281      3.2838      3.3229      3.3369      3.3229      3.2838      3.2281      3.1698      3.1255    
  3.1089      3.1255      3.1698      3.2281      3.2838      3.3229      3.3369      3.3229      3.2838      3.2281    
  3.1698      3.1255      3.2691      3.4438      3.6271      3.7919      3.9145      3.9793      3.9793      3.9145    
  3.7919      3.6271      3.4438      3.2691      3.1255      3.0247      2.9657      2.9383      2.9293      2.9277    
  2.9277      2.9293      2.9383      2.9657      3.0247      3.1255      3.7697      4.1114      4.4245      4.6710    
  4.8360      4.8974      4.8360      4.6711      4.4245      4.1114      3.7697      3.4438      3.1698      2.9657    
  2.8308      2.7523      2.7136      2.7023      2.7136      2.7523      2.8309      2.9657      3.1698      3.4438    
  4.6261      5.1529      5.7976      6.4608      6.8910      6.8910      6.4608      5.7976      5.1529      4.6261    
  4.1114      3.6271      3.2281      2.9383      2.7523      2.6484      2.6036      2.6036      2.6484      2.7523    
  2.9383      3.2281      3.6271      4.1114      6.3200      8.1051      10.157      11.810      12.445      11.810    
  10.157      8.1051      6.3200      5.1529      4.4245      3.7919      3.2838      2.9293      2.7136      2.6036    
  2.5705      2.6036      2.7136      2.9293      3.2838      3.7919      4.4245      5.1529      11.849      16.430    
  20.638      23.163      23.163      20.638      16.430      11.848      8.1051      5.7976      4.6711      3.9145    
  3.3229      2.9277      2.7023      2.6036      2.6036      2.7023      2.9277      3.3229      3.9145      4.6710    
  5.7975      8.1051      24.572      32.832      39.013      41.307      39.013      32.832      24.572      16.430    
  10.157      6.4608      4.8360      3.9793      3.3369      2.9277      2.7136      2.6484      2.7136      2.9277    
  3.3369      3.9793      4.8360      6.4608      10.157      16.430      46.298      57.953      64.734      64.734    
  57.953      46.298      32.832      20.638      11.810      6.8910      4.8974      3.9793      3.3229      2.9293    
  2.7523      2.7523      2.9293      3.3229      3.9793      4.8974      6.8910      11.810      20.638      32.832    
  76.281      89.659      94.570      89.659      76.281      57.953      39.013      23.163      12.445      6.8910    
  4.8360      3.9145      3.2838      2.9383      2.8309      2.9383      3.2838      3.9145      4.8360      6.8910    
  12.445      23.163      39.013      57.953      110.82      123.02      123.02      110.82      89.659      64.734    
  41.307      23.163      11.810      6.4608      4.6710      3.7919      3.2281      2.9657      2.9657      3.2281    
  3.7919      4.6710      6.4608      11.810      23.163      41.307      64.734      89.659      143.64      151.20    
  143.64      123.02      94.570      64.734      39.013      20.638      10.157      5.7976      4.4245      3.6271    
  3.1698      3.0247      3.1698      3.6271      4.4245      5.7975      10.157      20.638      39.013      64.734    
  94.570      123.02      167.42      167.42      151.20      123.02      89.659      57.953      32.832      16.430    
  8.1051      5.1529      4.1114      3.4438      3.1255      3.1255      3.4438      4.1114      5.1529      8.1051    
  16.430      32.832      57.953      89.659      123.02      151.20      167.42      151.20      123.02      89.659    
  57.953      32.832      16.430      8.1051      5.1529      4.1114      3.4438      3.1255      3.1255      3.4438    
  4.1114      5.1529      8.1051      16.430      32.832      57.953      89.659      123.02      151.20      167.42    
  151.20      129.44      99.493      68.135      41.115      21.765      10.643      5.9502      4.4912      3.6772    
  3.2070      3.0574      3.2070      3.6771      4.4912      5.9502      10.644      21.765      41.115      68.135    
  99.493      129.44      151.20      159.17      123.02      99.493      71.864      45.935      25.795      13.049    
  6.8958      4.8122      3.8975      3.3039      3.0252      3.0252      3.3039      3.8975      4.8122      6.8958    
  13.049      25.795      45.935      71.864      99.493      123.02      136.62      136.62      89.659      68.135    
  45.935      27.295      14.514      7.6850      5.0774      4.0750      3.3971      3.0201      2.9020      3.0201    
  3.3971      4.0750      5.0774      7.6850      14.514      27.295      45.935      68.135      89.659      105.42    
  111.22      105.42      57.953      41.115      25.795      14.514      7.9932      5.2420      4.1887      3.4692    
  3.0288      2.8287      2.8287      3.0288      3.4692      4.1887      5.2420      7.9932      14.514      25.795    
  41.115      57.953      72.535      81.038      81.038      72.535      32.832      21.765      13.049      7.6850    
  5.2420      4.2277      3.5081      3.0393      2.7909      2.7148      2.7909      3.0393      3.5081      4.2277    
  5.2420      7.6849      13.049      21.765      32.832      43.963      52.277      55.362      52.277      43.963    
  16.430      10.643      6.8958      5.0774      4.1887      3.5081      3.0437      2.7757      2.6577      2.6577    
  2.7757      3.0437      3.5081      4.1887      5.0774      6.8958      10.643      16.430      23.302      29.523    
  33.234      33.234      29.523      23.302      8.1051      5.9502      4.8122      4.0750      3.4692      3.0393    
  2.7757      2.6407      2.6001      2.6407      2.7757      3.0393      3.4692      4.0750      4.8122      5.9502    
  8.1051      11.286      14.804      17.577      18.631      17.577      14.804      11.286      5.1529      4.4912    
  3.8975      3.3971      3.0288      2.7909      2.6577      2.6001      2.6001      2.6577      2.7909      3.0288    
  3.3971      3.8975      4.4912      5.1529      6.1379      7.4948      8.8698      9.7427      9.7427      8.8698    
  7.4948      6.1379      4.1114      3.6772      3.3039      3.0201      2.8287      2.7148      2.6577      2.6407    
  2.6577      2.7148      2.8286      3.0200      3.3039      3.6772      4.1114      4.5557      4.9729      5.4031    
  5.7670      5.9125      5.7670      5.4031      4.9729      4.5557      3.4438      3.2070      3.0252      2.9020    
  2.8287      2.7909      2.7757      2.7757      2.7909      2.8286      2.9020      3.0252      3.2070      3.4438    
  3.7159      3.9905      4.2311      4.4072      4.4995      4.4995      4.4072      4.2311      3.9905      3.7159    
  3.1255      3.0574      3.0252      3.0201      3.0288      3.0393      3.0437      3.0393      3.0288      3.0200    
  3.0252      3.0574      3.1255      3.2287      3.3550      3.4842      3.5945      3.6678      3.6934      3.6678    
  3.5945      3.4842      3.3550      3.2287      3.1255      3.2070      3.3039      3.3971      3.4692      3.5081    
  3.5081      3.4692      3.3971      3.3039      3.2070      3.1255      3.0733      3.0549      3.0641      3.0881    
  3.1130      3.1282      3.1282      3.1130      3.0881      3.0641      3.0549      3.0733      3.4438      3.6771    
  3.8975      4.0750      4.1887      4.2277      4.1887      4.0750      3.8975      3.6772      3.4438      3.2287    
  3.0549      2.9319      2.8559      2.8153      2.7971      2.7921      2.7971      2.8153      2.8559      2.9319    
  3.0549      3.2287      4.1114      4.4912      4.8122      5.0774      5.2420      5.2420      5.0774      4.8122    
  4.4912      4.1114      3.7159      3.3550      3.0641      2.8559      2.7235      2.6500      2.6184      2.6184    
  2.6500      2.7235      2.8559      3.0641      3.3550      3.7159      5.1529      5.9502      6.8958      7.6850    
  7.9932      7.6849      6.8958      5.9502      5.1529      4.5557      3.9905      3.4842      3.0881      2.8153    
  2.6500      2.5658      2.5405      2.5658      2.6500      2.8153      3.0881      3.4842      3.9905      4.5557    
  8.1051      10.644      13.049      14.514      14.514      13.049      10.643      8.1051      6.1379      4.9729    
  4.2311      3.5945      3.1130      2.7971      2.6184      2.5405      2.5405      2.6184      2.7971      3.1130    
  3.5945      4.2311      4.9729      6.1379      16.430      21.765      25.795      27.295      25.795      21.765    
  16.430      11.286      7.4948      5.4031      4.4072      3.6678      3.1282      2.7921      2.6184      2.5658    
  2.6184      2.7921      3.1282      3.6678      4.4072      5.4031      7.4948      11.286      32.832      41.115    
  45.935      45.935      41.115      32.832      23.302      14.804      8.8698      5.7670      4.4995      3.6934    
  3.1282      2.7971      2.6500      2.6500      2.7971      3.1282      3.6934      4.4995      5.7670      8.8698    
  14.804      23.302      57.953      68.135      71.864      68.135      57.953      43.963      29.523      17.577    
  9.7427      5.9125      4.4995      3.6678      3.1130      2.8153      2.7235      2.8153      3.1130      3.6678    
  4.4995      5.9125      9.7427      17.577      29.523      43.963      89.659      99.493      99.493      89.659    
  72.535      52.277      33.234      18.631      9.7427      5.7670      4.4072      3.5945      3.0881      2.8559    
  2.8559      3.0881      3.5945      4.4072      5.7670      9.7427      18.631      33.234      52.277      72.535    
  123.02      129.44      123.02      105.42      81.038      55.362      33.234      17.577      8.8698      5.4031    
  4.2311      3.4842      3.0641      2.9319      3.0641      3.4842      4.2311      5.4031      8.8698      17.577    
  33.234      55.362      81.038      105.42      151.20      151.20      136.62      111.22      81.038      52.277    
  29.523      14.804      7.4948      4.9729      3.9905      3.3550      3.0549      3.0549      3.3550      3.9905    
  4.9729      7.4948      14.804      29.523      52.277      81.038      111.22      136.62      167.42      159.17    
  136.62      105.42      72.535      43.963      23.302      11.286      6.1379      4.5557      3.7159      3.2287    
  3.0733      3.2287      3.7159      4.5557      6.1379      11.286      23.302      43.963      72.535      105.42    
  136.62      159.17      143.64      123.02      94.570      64.734      39.013      20.638      10.157      5.7976    
  4.4245      3.6271      3.1698      3.0247      3.1698      3.6271      4.4245      5.7976      10.157      20.638    
  39.013      64.734      94.570      123.02      143.64      151.20      123.02      99.493      71.864      45.935    
  25.795      13.049      6.8958      4.8122      3.8975      3.3039      3.0252      3.0252      3.3039      3.8975    
  4.8122      6.8958      13.049      25.795      45.935      71.864      99.493      123.02      136.62      136.62    
  94.570      71.864      48.468      28.814      15.287      7.9901      5.1684      4.1306      3.4368      3.0488    
  2.9270      3.0488      3.4368      4.1306      5.1684      7.9901      15.287      28.814      48.468      71.864    
  94.570      111.22      117.35      111.22      64.734      45.935      28.814      16.128      8.6766      5.4552    
  4.2987      3.5477      3.0824      2.8697      2.8697      3.0824      3.5477      4.2987      5.4552      8.6766    
  16.128      28.814      45.935      64.734      81.038      90.560      90.560      81.038      39.013      25.795    
  15.287      8.6766      5.5680      4.3857      3.6202      3.1129      2.8415      2.7580      2.8415      3.1129    
  3.6202      4.3857      5.5680      8.6766      15.287      25.795      39.013      52.277      62.188      65.869    
  62.188      52.277      20.638      13.049      7.9901      5.4552      4.3857      3.6453      3.1305      2.8302    
  2.6972      2.6972      2.8302      3.1305      3.6453      4.3857      5.4552      7.9901      13.049      20.638    
  29.523      37.523      42.286      42.286      37.523      29.523      10.157      6.8958      5.1684      4.2987    
  3.6202      3.1305      2.8275      2.6716      2.6245      2.6716      2.8275      3.1305      3.6202      4.2987    
  5.1684      6.8958      10.157      14.804      19.834      23.757      25.242      23.757      19.834      14.804    
  5.7976      4.8122      4.1306      3.5477      3.1129      2.8302      2.6716      2.6029      2.6029      2.6716    
  2.8302      3.1129      3.5477      4.1306      4.8122      5.7976      7.4948      9.7873      12.047      13.460    
  13.460      12.047      9.7873      7.4948      4.4245      3.8975      3.4368      3.0824      2.8415      2.6972    
  2.6245      2.6029      2.6245      2.6972      2.8415      3.0824      3.4368      3.8975      4.4245      4.9729    
  5.6673      6.5089      7.2322      7.5195      7.2322      6.5089      5.6673      4.9729      3.6271      3.3039    
  3.0488      2.8697      2.7580      2.6972      2.6716      2.6716      2.6972      2.7580      2.8696      3.0488    
  3.3039      3.6271      3.9905      4.3509      4.6627      4.9084      5.0583      5.0583      4.9084      4.6627    
  4.3508      3.9905      3.1698      3.0252      2.9270      2.8697      2.8415      2.8302      2.8275      2.8302    
  2.8415      2.8696      2.9270      3.0252      3.1698      3.3550      3.5621      3.7640      3.9317      4.0419    
  4.0802      4.0419      3.9317      3.7640      3.5621      3.3550      3.0247      3.0252      3.0488      3.0824    
  3.1129      3.1305      3.1305      3.1129      3.0824      3.0488      3.0252      3.0247      3.0549      3.1140    
  3.1909      3.2690      3.3316      3.3661      3.3661      3.3316      3.2690      3.1909      3.1140      3.0549    
  3.1698      3.3039      3.4368      3.5477      3.6202      3.6453      3.6202      3.5477      3.4368      3.3039    
  3.1698      3.0549      2.9724      2.9250      2.9060      2.9039      2.9076      2.9097      2.9076      2.9039    
  2.9060      2.9250      2.9724      3.0549      3.6271      3.8975      4.1306      4.2987      4.3857      4.3857    
  4.2987      4.1306      3.8975      3.6271      3.3550      3.1140      2.9250      2.7931      2.7113      2.6668    
  2.6479      2.6479      2.6668      2.7113      2.7931      2.9250      3.1140      3.3550      4.4245      4.8122    
  5.1684      5.4552      5.5680      5.4552      5.1684      4.8122      4.4245      3.9905      3.5621      3.1909    
  2.9060      2.7113      2.5933      2.5329      2.5147      2.5329      2.5933      2.7113      2.9060      3.1909    
  3.5621      3.9905      5.7976      6.8958      7.9901      8.6766      8.6766      7.9901      6.8958      5.7976    
  4.9729      4.3509      3.7640      3.2690      2.9039      2.6668      2.5329      2.4746      2.4746      2.5329    
  2.6668      2.9039      3.2690      3.7640      4.3508      4.9729      10.157      13.049      15.287      16.128    
  15.287      13.049      10.157      7.4948      5.6673      4.6627      3.9317      3.3316      2.9076      2.6479    
  2.5147      2.4746      2.5147      2.6479      2.9076      3.3316      3.9317      4.6627      5.6673      7.4948    
  20.638      25.795      28.814      28.814      25.795      20.638      14.804      9.7873      6.5089      4.9084    
  4.0419      3.3661      2.9097      2.6479      2.5329      2.5329      2.6479      2.9097      3.3661      4.0419    
  4.9084      6.5089      9.7873      14.804      39.013      45.935      48.468      45.935      39.013      29.523    
  19.834      12.047      7.2322      5.0583      4.0802      3.3661      2.9076      2.6668      2.5933      2.6668    
  2.9076      3.3661      4.0802      5.0583      7.2322      12.047      19.834      29.523      64.734      71.864    
  71.864      64.734      52.277      37.523      23.757      13.460      7.5195      5.0583      4.0419      3.3316    
  2.9039      2.7113      2.7113      2.9039      3.3316      4.0419      5.0583      7.5195      13.460      23.757    
  37.523      52.277      94.570      99.493      94.570      81.038      62.188      42.286      25.242      13.460    
  7.2322      4.9084      3.9317      3.2690      2.9060      2.7931      2.9060      3.2690      3.9317      4.9084    
  7.2322      13.460      25.242      42.286      62.188      81.038      123.02      123.02      111.22      90.560    
  65.869      42.286      23.757      12.047      6.5089      4.6627      3.7640      3.1909      2.9250      2.9250    
  3.1909      3.7640      4.6627      6.5089      12.047      23.757      42.286      65.869      90.560      111.22    
  143.64      136.62      117.35      90.560      62.188      37.523      19.834      9.7873      5.6673      4.3508    
  3.5621      3.1140      2.9724      3.1140      3.5621      4.3508      5.6673      9.7873      19.834      37.523    
  62.188      90.560      117.35      136.62      151.20      136.62      111.22      81.038      52.277      29.523    
  14.804      7.4948      4.9729      3.9905      3.3550      3.0549      3.0549      3.3550      3.9905      4.9729    
  7.4948      14.804      29.523      52.277      81.038      111.22      136.62      151.20      110.82      89.659    
  64.734      41.307      23.163      11.810      6.4608      4.6710      3.7919      3.2281      2.9657      2.9657    
  3.2281      3.7919      4.6710      6.4608      11.810      23.163      41.307      64.734      89.659      110.82    
  123.02      123.02      89.659      68.135      45.935      27.295      14.514      7.6850      5.0774      4.0750    
  3.3971      3.0201      2.9020      3.0201      3.3971      4.0750      5.0774      7.6850      14.514      27.295    
  45.935      68.135      89.659      105.42      111.22      105.42      64.734      45.935      28.814      16.128    
  8.6766      5.4552      4.2987      3.5477      3.0824      2.8697      2.8697      3.0824      3.5477      4.2987    
  5.4552      8.6766      16.128      28.814      45.935      64.734      81.038      90.560      90.560      81.038    
  41.307      27.295      16.128      9.0574      5.6952      4.4397      3.6591      3.1386      2.8591      2.7730    
  2.8591      3.1386      3.6591      4.4397      5.6952      9.0574      16.128      27.295      41.307      55.362    
  65.869      69.772      65.869      55.362      23.163      14.514      8.6766      5.6952      4.4876      3.7180    
  3.1768      2.8593      2.7181      2.7181      2.8593      3.1768      3.7180      4.4876      5.6952      8.6766    
  14.514      23.163      33.234      42.286      47.675      47.675      42.286      33.234      11.810      7.6850    
  5.4552      4.4397      3.7180      3.1903      2.8616      2.6918      2.6405      2.6918      2.8616      3.1903    
  3.7180      4.4397      5.4552      7.6850      11.810      17.577      23.757      28.555      30.369      28.555    
  23.757      17.577      6.4608      5.0774      4.2987      3.6591      3.1768      2.8616      2.6842      2.6073    
  2.6073      2.6842      2.8616      3.1768      3.6591      4.2987      5.0774      6.4608      8.8698      12.047    
  15.130      17.040      17.040      15.130      12.047      8.8698      4.6710      4.0750      3.5477      3.1386    
  2.8593      2.6918      2.6073      2.5821      2.6073      2.6918      2.8593      3.1386      3.5477      4.0750    
  4.6711      5.4031      6.5089      7.8599      9.0032      9.4532      9.0033      7.8599      6.5089      5.4031    
  3.7919      3.3971      3.0824      2.8591      2.7181      2.6405      2.6073      2.6073      2.6405      2.7181    
  2.8591      3.0824      3.3971      3.7919      4.2311      4.6627      5.0843      5.4979      5.7700      5.7700    
  5.4979      5.0843      4.6627      4.2311      3.2281      3.0201      2.8697      2.7730      2.7181      2.6918    
  2.6842      2.6918      2.7181      2.7730      2.8696      3.0200      3.2281      3.4842      3.7640      4.0328    
  4.2547      4.4000      4.4505      4.4000      4.2547      4.0328      3.7640      3.4842      2.9657      2.9020    
  2.8697      2.8591      2.8593      2.8616      2.8616      2.8593      2.8591      2.8696      2.9020      2.9657    
  3.0641      3.1909      3.3305      3.4616      3.5629      3.6179      3.6179      3.5629      3.4616      3.3305    
  3.1909      3.0641      2.9657      3.0201      3.0824      3.1386      3.1768      3.1903      3.1768      3.1386    
  3.0824      3.0200      2.9657      2.9319      2.9250      2.9427      2.9756      3.0111      3.0375      3.0472    
  3.0375      3.0111      2.9756      2.9427      2.9250      2.9319      3.2281      3.3971      3.5477      3.6591    
  3.7180      3.7180      3.6591      3.5477      3.3971      3.2281      3.0641      2.9250      2.8217      2.7548    
  2.7172      2.6991      2.6922      2.6922      2.6991      2.7172      2.7548      2.8217      2.9250      3.0641    
  3.7919      4.0750      4.2987      4.4397      4.4876      4.4397      4.2987      4.0750      3.7919      3.4842    
  3.1909      2.9427      2.7548      2.6270      2.5492      2.5089      2.4967      2.5089      2.5492      2.6270    
  2.7548      2.9427      3.1909      3.4842      4.6710      5.0774      5.4552      5.6952      5.6952      5.4552    
  5.0774      4.6711      4.2311      3.7640      3.3305      2.9756      2.7172      2.5492      2.4534      2.4112    
  2.4112      2.4534      2.5492      2.7172      2.9756      3.3305      3.7640      4.2311      6.4608      7.6850    
  8.6766      9.0574      8.6766      7.6850      6.4608      5.4031      4.6627      4.0328      3.4616      3.0111    
  2.6991      2.5089      2.4112      2.3817      2.4112      2.5089      2.6991      3.0111      3.4616      4.0328    
  4.6627      5.4031      11.810      14.514      16.128      16.128      14.514      11.810      8.8698      6.5089    
  5.0843      4.2547      3.5629      3.0375      2.6922      2.4967      2.4112      2.4112      2.4967      2.6922    
  3.0375      3.5629      4.2547      5.0843      6.5089      8.8698      23.163      27.295      28.814      27.295    
  23.163      17.577      12.047      7.8599      5.4979      4.4000      3.6179      3.0472      2.6922      2.5089    
  2.4534      2.5089      2.6922      3.0472      3.6179      4.4000      5.4979      7.8599      12.047      17.577    
  41.307      45.935      45.935      41.307      33.234      23.757      15.130      9.0032      5.7700      4.4505    
  3.6179      3.0375      2.6991      2.5492      2.5492      2.6991      3.0375      3.6179      4.4505      5.7700    
  9.0032      15.130      23.757      33.234      64.734      68.135      64.734      55.362      42.286      28.555    
  17.040      9.4532      5.7700      4.4000      3.5629      3.0111      2.7172      2.6270      2.7172      3.0111    
  3.5629      4.4000      5.7700      9.4532      17.040      28.555      42.286      55.362      89.659      89.659    
  81.038      65.869      47.675      30.369      17.040      9.0033      5.4979      4.2547      3.4616      2.9756    
  2.7548      2.7548      2.9756      3.4616      4.2547      5.4979      9.0032      17.040      30.369      47.675    
  65.869      81.038      110.82      105.42      90.560      69.772      47.675      28.555      15.130      7.8599    
  5.0843      4.0328      3.3305      2.9427      2.8217      2.9427      3.3305      4.0328      5.0843      7.8599    
  15.130      28.555      47.675      69.772      90.560      105.42      123.02      111.22      90.560      65.869    
  42.286      23.757      12.047      6.5089      4.6627      3.7640      3.1909      2.9250      2.9250      3.1909    
  3.7640      4.6627      6.5089      12.047      23.757      42.286      65.869      90.560      111.22      123.02    
  123.02      105.42      81.038      55.362      33.234      17.577      8.8698      5.4031      4.2311      3.4842    
  3.0641      2.9319      3.0641      3.4842      4.2311      5.4031      8.8698      17.577      33.234      55.362    
  81.038      105.42      123.02      129.44      76.281      57.953      39.013      23.163      12.445      6.8910    
  4.8360      3.9145      3.2838      2.9383      2.8309      2.9383      3.2838      3.9145      4.8360      6.8910    
  12.445      23.163      39.013      57.953      76.281      89.659      94.570      89.659      57.953      41.115    
  25.795      14.514      7.9932      5.2420      4.1887      3.4692      3.0288      2.8287      2.8287      3.0288    
  3.4692      4.1887      5.2420      7.9932      14.514      25.795      41.115      57.953      72.535      81.038    
  81.038      72.535      39.013      25.795      15.287      8.6766      5.5680      4.3857      3.6202      3.1129    
  2.8415      2.7580      2.8415      3.1129      3.6202      4.3857      5.5680      8.6766      15.287      25.795    
  39.013      52.277      62.188      65.869      62.188      52.277      23.163      14.514      8.6766      5.6952    
  4.4876      3.7180      3.1768      2.8593      2.7181      2.7181      2.8593      3.1768      3.7180      4.4876    
  5.6952      8.6766      14.514      23.163      33.234      42.286      47.675      47.675      42.286      33.234    
  12.445      7.9932      5.5680      4.4876      3.7517      3.2111      2.8735      2.6988      2.6460      2.6988    
  2.8735      3.2111      3.7517      4.4876      5.5680      7.9932      12.445      18.631      25.242      30.369    
  32.306      30.369      25.242      18.631      6.8910      5.2420      4.3857      3.7180      3.2111      2.8787    
  2.6915      2.6102      2.6102      2.6915      2.8788      3.2111      3.7180      4.3857      5.2420      6.8910    
  9.7427      13.460      17.040      19.253      19.253      17.040      13.460      9.7427      4.8360      4.1887    