fcc Ni                                  
   3.70000000000000     
     0.500000    0.500000    0.000000
     0.000000    0.500000    0.500000
     0.500000    0.000000    0.500000
   Ni
     1
Direct
  0.000000  0.000000  0.000000
 
   24   24   24
 0.17613101138E+03 0.16742342806E+03 0.14364331114E+03 0.11081567322E+03 0.76280835890E+02
 0.46298219523E+02 0.24572362242E+02 0.11848515132E+02 0.63200161253E+01 0.46261132956E+01
 0.37697393077E+01 0.32690911719E+01 0.31089466047E+01 0.32690911719E+01 0.37697393077E+01
 0.46261132956E+01 0.63200161253E+01 0.11848515132E+02 0.24572362242E+02 0.46298219523E+02
 0.76280835890E+02 0.11081567322E+03 0.14364331114E+03 0.16742342806E+03 0.16742342806E+03
 0.15119755211E+03 0.12301669404E+03 0.89658869038E+02 0.57952643276E+02 0.32831986301E+02
 0.16429996224E+02 0.81050954066E+01 0.51528840171E+01 0.41113640377E+01 0.34438416933E+01
 0.31254922965E+01 0.31254915357E+01 0.34438403586E+01 0.41113640772E+01 0.51528875051E+01
 0.81051034649E+01 0.16430008960E+02 0.32832002239E+02 0.57952660001E+02 0.89658884089E+02
 0.12301670557E+03 0.15119755955E+03 0.16742343067E+03 0.14364331114E+03 0.12301669404E+03
 0.94569968332E+02 0.64733917648E+02 0.39013167159E+02 0.20638440174E+02 0.10157214265E+02
 0.57975498461E+01 0.44245243845E+01 0.36271034201E+01 0.31697869701E+01 0.30247077076E+01
 0.31697850174E+01 0.36271014604E+01 0.44245250134E+01 0.57975553876E+01 0.10157226302E+02
 0.20638459141E+02 0.39013191277E+02 0.64733943517E+02 0.94569992174E+02 0.12301671242E+03
 0.14364332127E+03 0.15119755955E+03 0.11081567322E+03 0.89658869038E+02 0.64733917648E+02
 0.41306602570E+02 0.23163150428E+02 0.11810466376E+02 0.64607550726E+01 0.46710399839E+01
 0.37918568999E+01 0.32281021176E+01 0.29657033773E+01 0.29657024762E+01 0.32280999368E+01
 0.37918546059E+01 0.46710387478E+01 0.64607568834E+01 0.11810473964E+02 0.23163165728E+02
 0.41306624788E+02 0.64733943510E+02 0.89658893874E+02 0.11081569152E+03 0.12301671242E+03
 0.12301670557E+03 0.76280835890E+02 0.57952643276E+02 0.39013167159E+02 0.23163150428E+02
 0.12444809587E+02 0.68910431596E+01 0.48360407827E+01 0.39144565351E+01 0.32838200084E+01
 0.29382950175E+01 0.28308573117E+01 0.29382945084E+01 0.32838187795E+01 0.39144538508E+01
 0.48360363940E+01 0.68910390483E+01 0.12444809345E+02 0.23163156547E+02 0.39013179578E+02
 0.57952659344E+02 0.76280851351E+02 0.89658893874E+02 0.94569992174E+02 0.89658884089E+02
 0.46298219523E+02 0.32831986301E+02 0.20638440174E+02 0.11810466376E+02 0.68910431596E+01
 0.48973650278E+01 0.39793159721E+01 0.33229203535E+01 0.29292749367E+01 0.27522729478E+01
 0.27522732371E+01 0.29292758849E+01 0.33229212453E+01 0.39793153020E+01 0.48973617046E+01
 0.68910380121E+01 0.11810460982E+02 0.20638435204E+02 0.32831982360E+02 0.46298217236E+02
 0.57952659344E+02 0.64733943510E+02 0.64733943517E+02 0.57952660001E+02 0.24572362242E+02
 0.16429996224E+02 0.10157214265E+02 0.64607550726E+01 0.48360407827E+01 0.39793159721E+01
 0.33368688349E+01 0.29277044033E+01 0.27136025339E+01 0.26484204682E+01 0.27136029040E+01
 0.29277066547E+01 0.33368736298E+01 0.39793219198E+01 0.48360453180E+01 0.64607549572E+01
 0.10157206698E+02 0.16429979936E+02 0.24572340697E+02 0.32831982360E+02 0.39013179578E+02
 0.41306624788E+02 0.39013191277E+02 0.32832002239E+02 0.11848515132E+02 0.81050954066E+01
 0.57975498461E+01 0.46710399839E+01 0.39144565351E+01 0.33229203535E+01 0.29277044033E+01
 0.27022605916E+01 0.26035834311E+01 0.26035821050E+01 0.27022588046E+01 0.29277067207E+01
 0.33229292313E+01 0.39144703851E+01 0.46710536194E+01 0.57975555518E+01 0.81050872442E+01
 0.11848492880E+02 0.16429979936E+02 0.20638435204E+02 0.23163156547E+02 0.23163165728E+02
 0.20638459141E+02 0.16430008960E+02 0.63200161253E+01 0.51528840171E+01 0.44245243845E+01
 0.37918568999E+01 0.32838200084E+01 0.29292749367E+01 0.27136025339E+01 0.26035834311E+01
 0.25705358808E+01 0.26035776324E+01 0.27135963647E+01 0.29292748097E+01 0.32838291938E+01
 0.37918731711E+01 0.44245414950E+01 0.51528931544E+01 0.63200115575E+01 0.81050872442E+01
 0.10157206698E+02 0.11810460982E+02 0.12444809345E+02 0.11810473964E+02 0.10157226302E+02
 0.81051034649E+01 0.46261132956E+01 0.41113640377E+01 0.36271034201E+01 0.32281021176E+01
 0.29382950175E+01 0.27522729478E+01 0.26484204682E+01 0.26035821050E+01 0.26035776324E+01
 0.26484096621E+01 0.27522618846E+01 0.29382892596E+01 0.32281047705E+01 0.36271136315E+01
 0.41113776711E+01 0.46261249938E+01 0.51528931544E+01 0.57975555518E+01 0.64607549572E+01
 0.68910380121E+01 0.68910390483E+01 0.64607568834E+01 0.57975553876E+01 0.51528875051E+01
 0.37697393077E+01 0.34438416933E+01 0.31697869701E+01 0.29657033773E+01 0.28308573117E+01
 0.27522732371E+01 0.27136029040E+01 0.27022588046E+01 0.27135963647E+01 0.27522618846E+01
 0.28308438774E+01 0.29656908478E+01 0.31697788903E+01 0.34438410011E+01 0.37697465545E+01
 0.41113776711E+01 0.44245414950E+01 0.46710536194E+01 0.48360453180E+01 0.48973617046E+01
 0.48360363940E+01 0.46710387478E+01 0.44245250134E+01 0.41113640772E+01 0.32690911719E+01
 0.31254922965E+01 0.30247077076E+01 0.29657024762E+01 0.29382945084E+01 0.29292758849E+01
 0.29277066547E+01 0.29277067207E+01 0.29292748097E+01 0.29382892596E+01 0.29656908478E+01
 0.30246906635E+01 0.31254748846E+01 0.32690804034E+01 0.34438410011E+01 0.36271136315E+01
 0.37918731711E+01 0.39144703851E+01 0.39793219198E+01 0.39793153020E+01 0.39144538508E+01
 0.37918546059E+01 0.36271014604E+01 0.34438403586E+01 0.31089466047E+01 0.31254915357E+01
 0.31697850174E+01 0.32280999368E+01 0.32838187795E+01 0.33229212453E+01 0.33368736298E+01
 0.33229292313E+01 0.32838291938E+01 0.32281047705E+01 0.31697788903E+01 0.31254748846E+01
 0.31089255823E+01 0.31254748846E+01 0.31697788903E+01 0.32281047705E+01 0.32838291938E+01
 0.33229292313E+01 0.33368736298E+01 0.33229212453E+01 0.32838187795E+01 0.32280999368E+01
 0.31697850174E+01 0.31254915357E+01 0.32690911719E+01 0.34438403586E+01 0.36271014604E+01
 0.37918546059E+01 0.39144538508E+01 0.39793153020E+01 0.39793219198E+01 0.39144703851E+01
 0.37918731711E+01 0.36271136315E+01 0.34438410011E+01 0.32690804034E+01 0.31254748846E+01
 0.30246906635E+01 0.29656908478E+01 0.29382892596E+01 0.29292748097E+01 0.29277067207E+01
 0.29277066547E+01 0.29292758849E+01 0.29382945084E+01 0.29657024762E+01 0.30247077076E+01
 0.31254922965E+01 0.37697393077E+01 0.41113640772E+01 0.44245250134E+01 0.46710387478E+01
 0.48360363940E+01 0.48973617046E+01 0.48360453180E+01 0.46710536194E+01 0.44245414950E+01
 0.41113776711E+01 0.37697465545E+01 0.34438410011E+01 0.31697788903E+01 0.29656908478E+01
 0.28308438774E+01 0.27522618846E+01 0.27135963647E+01 0.27022588046E+01 0.27136029040E+01
 0.27522732371E+01 0.28308573117E+01 0.29657033773E+01 0.31697869701E+01 0.34438416933E+01
 0.46261132956E+01 0.51528875051E+01 0.57975553876E+01 0.64607568834E+01 0.68910390483E+01
 0.68910380121E+01 0.64607549572E+01 0.57975555518E+01 0.51528931544E+01 0.46261249938E+01
 0.41113776711E+01 0.36271136315E+01 0.32281047705E+01 0.29382892596E+01 0.27522618846E+01
 0.26484096621E+01 0.26035776324E+01 0.26035821050E+01 0.26484204682E+01 0.27522729478E+01
 0.29382950175E+01 0.32281021176E+01 0.36271034201E+01 0.41113640377E+01 0.63200161253E+01
 0.81051034649E+01 0.10157226302E+02 0.11810473964E+02 0.12444809345E+02 0.11810460982E+02
 0.10157206698E+02 0.81050872442E+01 0.63200115575E+01 0.51528931544E+01 0.44245414950E+01
 0.37918731711E+01 0.32838291938E+01 0.29292748097E+01 0.27135963647E+01 0.26035776324E+01
 0.25705358808E+01 0.26035834311E+01 0.27136025339E+01 0.29292749367E+01 0.32838200084E+01
 0.37918568999E+01 0.44245243845E+01 0.51528840171E+01 0.11848515132E+02 0.16430008960E+02
 0.20638459141E+02 0.23163165728E+02 0.23163156547E+02 0.20638435204E+02 0.16429979936E+02
 0.11848492880E+02 0.81050872442E+01 0.57975555518E+01 0.46710536194E+01 0.39144703851E+01
 0.33229292313E+01 0.29277067207E+01 0.27022588046E+01 0.26035821050E+01 0.26035834311E+01
 0.27022605916E+01 0.29277044033E+01 0.33229203535E+01 0.39144565351E+01 0.46710399839E+01
 0.57975498461E+01 0.81050954066E+01 0.24572362242E+02 0.32832002239E+02 0.39013191277E+02
 0.41306624788E+02 0.39013179578E+02 0.32831982360E+02 0.24572340697E+02 0.16429979936E+02
 0.10157206698E+02 0.64607549572E+01 0.48360453180E+01 0.39793219198E+01 0.33368736298E+01
 0.29277066547E+01 0.27136029040E+01 0.26484204682E+01 0.27136025339E+01 0.29277044033E+01
 0.33368688349E+01 0.39793159721E+01 0.48360407827E+01 0.64607550726E+01 0.10157214265E+02
 0.16429996224E+02 0.46298219523E+02 0.57952660001E+02 0.64733943517E+02 0.64733943510E+02
 0.57952659344E+02 0.46298217236E+02 0.32831982360E+02 0.20638435204E+02 0.11810460982E+02
 0.68910380121E+01 0.48973617046E+01 0.39793153020E+01 0.33229212453E+01 0.29292758849E+01
 0.27522732371E+01 0.27522729478E+01 0.29292749367E+01 0.33229203535E+01 0.39793159721E+01
 0.48973650278E+01 0.68910431596E+01 0.11810466376E+02 0.20638440174E+02 0.32831986301E+02
 0.76280835890E+02 0.89658884089E+02 0.94569992174E+02 0.89658893874E+02 0.76280851351E+02
 0.57952659344E+02 0.39013179578E+02 0.23163156547E+02 0.12444809345E+02 0.68910390483E+01
 0.48360363940E+01 0.39144538508E+01 0.32838187795E+01 0.29382945084E+01 0.28308573117E+01
 0.29382950175E+01 0.32838200084E+01 0.39144565351E+01 0.48360407827E+01 0.68910431596E+01
 0.12444809587E+02 0.23163150428E+02 0.39013167159E+02 0.57952643276E+02 0.11081567322E+03
 0.12301670557E+03 0.12301671242E+03 0.11081569152E+03 0.89658893874E+02 0.64733943510E+02
 0.41306624788E+02 0.23163165728E+02 0.11810473964E+02 0.64607568834E+01 0.46710387478E+01
 0.37918546059E+01 0.32280999368E+01 0.29657024762E+01 0.29657033773E+01 0.32281021176E+01
 0.37918568999E+01 0.46710399839E+01 0.64607550726E+01 0.11810466376E+02 0.23163150428E+02
 0.41306602570E+02 0.64733917648E+02 0.89658869038E+02 0.14364331114E+03 0.15119755955E+03
 0.14364332127E+03 0.12301671242E+03 0.94569992174E+02 0.64733943517E+02 0.39013191277E+02
 0.20638459141E+02 0.10157226302E+02 0.57975553876E+01 0.44245250134E+01 0.36271014604E+01
 0.31697850174E+01 0.30247077076E+01 0.31697869701E+01 0.36271034201E+01 0.44245243845E+01
 0.57975498461E+01 0.10157214265E+02 0.20638440174E+02 0.39013167159E+02 0.64733917648E+02
 0.94569968332E+02 0.12301669404E+03 0.16742342806E+03 0.16742343067E+03 0.15119755955E+03
 0.12301670557E+03 0.89658884089E+02 0.57952660001E+02 0.32832002239E+02 0.16430008960E+02
 0.81051034649E+01 0.51528875051E+01 0.41113640772E+01 0.34438403586E+01 0.31254915357E+01
 0.31254922965E+01 0.34438416933E+01 0.41113640377E+01 0.51528840171E+01 0.81050954066E+01
 0.16429996224E+02 0.32831986301E+02 0.57952643276E+02 0.89658869038E+02 0.12301669404E+03
 0.15119755211E+03 0.16742342787E+03 0.15119755180E+03 0.12301669383E+03 0.89658868954E+02
 0.57952643192E+02 0.32831986279E+02 0.16429996414E+02 0.81050957208E+01 0.51528842246E+01
 0.41113641218E+01 0.34438417775E+01 0.31254923191E+01 0.31254913448E+01 0.34438400444E+01
 0.41113638698E+01 0.51528874209E+01 0.81051033807E+01 0.16430008938E+02 0.32832002430E+02
 0.57952660315E+02 0.89658884296E+02 0.12301670566E+03 0.15119755963E+03 0.16742343070E+03
 0.15119755180E+03 0.12944205195E+03 0.99492557296E+02 0.68135065331E+02 0.41115419733E+02
 0.21765247350E+02 0.10643499820E+02 0.59501780467E+01 0.44911623158E+01 0.36771508287E+01
 0.32070067094E+01 0.30573952208E+01 0.32070047183E+01 0.36771489721E+01 0.44911630509E+01
 0.59501833724E+01 0.10643511349E+02 0.21765265866E+02 0.41115443449E+02 0.68135090813E+02
 0.99492580664E+02 0.12944207013E+03 0.15119756202E+03 0.15917390993E+03 0.12301669383E+03
 0.99492557296E+02 0.71863780640E+02 0.45934773736E+02 0.25794974091E+02 0.13049357446E+02
 0.68957931303E+01 0.48122206334E+01 0.38974551945E+01 0.33038562420E+01 0.30251724315E+01
 0.30251718388E+01 0.33038547358E+01 0.38974530988E+01 0.48122181707E+01 0.68957919907E+01
 0.13049361212E+02 0.25794986192E+02 0.45934794427E+02 0.71863806913E+02 0.99492583996E+02
 0.12301671407E+03 0.13661848537E+03 0.13661847778E+03 0.89658868954E+02 0.68135065331E+02
 0.45934773736E+02 0.27294586007E+02 0.14514458435E+02 0.76849676107E+01 0.50773678422E+01
 0.40750195762E+01 0.33971271268E+01 0.30200545438E+01 0.29020084519E+01 0.30200554941E+01
 0.33971268197E+01 0.40750145860E+01 0.50773565055E+01 0.76849532560E+01 0.14514448250E+02
 0.27294586768E+02 0.45934787419E+02 0.68135088495E+02 0.89658893705E+02 0.10542048406E+03
 0.11121936015E+03 0.10542046794E+03 0.57952643192E+02 0.41115419733E+02 0.25794974091E+02
 0.14514458435E+02 0.79931802699E+01 0.52419784671E+01 0.41887262751E+01 0.34692353613E+01
 0.30288313071E+01 0.28286630954E+01 0.28286650653E+01 0.30288352912E+01 0.34692360538E+01
 0.41887181986E+01 0.52419603780E+01 0.79931576495E+01 0.14514439968E+02 0.25794966710E+02
 0.41115425183E+02 0.57952657293E+02 0.72535413933E+02 0.81038289361E+02 0.81038283193E+02
 0.72535399314E+02 0.32831986279E+02 0.21765247350E+02 0.13049357446E+02 0.76849676107E+01
 0.52419784671E+01 0.42276603134E+01 0.35081194888E+01 0.30393249757E+01 0.27908860544E+01
 0.27147953694E+01 0.27908910448E+01 0.30393318111E+01 0.35081227295E+01 0.42276554144E+01
 0.52419648789E+01 0.76849493909E+01 0.13049339969E+02 0.21765234586E+02 0.32831979988E+02
 0.43963170654E+02 0.52276916585E+02 0.55361877784E+02 0.52276915504E+02 0.43963171562E+02
 0.16429996414E+02 0.10643499820E+02 0.68957931303E+01 0.50773678422E+01 0.41887262751E+01
 0.35081194888E+01 0.30436928664E+01 0.27757077687E+01 0.26576723384E+01 0.26576743179E+01
 0.27757134901E+01 0.30437014395E+01 0.35081282409E+01 0.41887322094E+01 0.50773684611E+01
 0.68957870218E+01 0.10643486898E+02 0.16429978500E+02 0.23301723587E+02 0.29523268758E+02
 0.33233973877E+02 0.33233978600E+02 0.29523281957E+02 0.23301741770E+02 0.81050957208E+01
 0.59501780467E+01 0.48122206334E+01 0.40750195762E+01 0.34692353613E+01 0.30393249757E+01
 0.27757077687E+01 0.26407049584E+01 0.26000642441E+01 0.26407045195E+01 0.27757098275E+01
 0.30393326581E+01 0.34692490641E+01 0.40750360917E+01 0.48122341403E+01 0.59501818344E+01
 0.81050870060E+01 0.11285678295E+02 0.14804007076E+02 0.17576780253E+02 0.18630742447E+02
 0.17576793311E+02 0.14804027493E+02 0.11285696805E+02 0.51528842246E+01 0.44911623158E+01
 0.38974551945E+01 0.33971271268E+01 0.30288313071E+01 0.27908860544E+01 0.26576723384E+01
 0.26000642441E+01 0.26000607958E+01 0.26576647420E+01 0.27908805315E+01 0.30288336797E+01
 0.33971392071E+01 0.38974732970E+01 0.44911795547E+01 0.51528932165E+01 0.61379246410E+01
 0.74948341194E+01 0.88698040916E+01 0.97426745737E+01 0.97426790412E+01 0.88698147262E+01
 0.74948440593E+01 0.61379268912E+01 0.41113641218E+01 0.36771508287E+01 0.33038562420E+01
 0.30200545438E+01 0.28286630954E+01 0.27147953694E+01 0.26576743179E+01 0.26407045195E+01
 0.26576647420E+01 0.27147805031E+01 0.28286494567E+01 0.30200476864E+01 0.33038587101E+01
 0.36771607987E+01 0.41113773768E+01 0.45557037145E+01 0.49728757700E+01 0.54030720268E+01
 0.57670244635E+01 0.59125035403E+01 0.57670231758E+01 0.54030680306E+01 0.49728675691E+01
 0.45556914559E+01 0.34438417775E+01 0.32070067094E+01 0.30251724315E+01 0.29020084519E+01
 0.28286650653E+01 0.27908910448E+01 0.27757134901E+01 0.27757098275E+01 0.27908805315E+01
 0.28286494567E+01 0.29019909495E+01 0.30251568998E+01 0.32069969676E+01 0.34438403949E+01
 0.37159038661E+01 0.39904897607E+01 0.42310934003E+01 0.44072187081E+01 0.44995488374E+01
 0.44995441438E+01 0.44072062315E+01 0.42310773842E+01 0.39904757698E+01 0.37158965366E+01
 0.31254923191E+01 0.30573952208E+01 0.30251718388E+01 0.30200554941E+01 0.30288352912E+01
 0.30393318111E+01 0.30437014395E+01 0.30393326581E+01 0.30288336797E+01 0.30200476864E+01
 0.30251568998E+01 0.30573757696E+01 0.31254742274E+01 0.32286669118E+01 0.33549577351E+01
 0.34842305266E+01 0.35944925731E+01 0.36678330012E+01 0.36934380430E+01 0.36678227780E+01
 0.35944773057E+01 0.34842183444E+01 0.33549557059E+01 0.32286768563E+01 0.31254913448E+01
 0.32070047183E+01 0.33038547358E+01 0.33971268197E+01 0.34692360538E+01 0.35081227295E+01
 0.35081282409E+01 0.34692490641E+01 0.33971392071E+01 0.33038587101E+01 0.32069969676E+01
 0.31254742274E+01 0.30733250931E+01 0.30548752644E+01 0.30640681201E+01 0.30881003872E+01
 0.31130110446E+01 0.31281669151E+01 0.31281636238E+01 0.31130034998E+01 0.30880948201E+01
 0.30640709917E+01 0.30548885747E+01 0.30733444991E+01 0.34438400444E+01 0.36771489721E+01
 0.38974530988E+01 0.40750145860E+01 0.41887181986E+01 0.42276554144E+01 0.41887322094E+01
 0.40750360917E+01 0.38974732970E+01 0.36771607987E+01 0.34438403949E+01 0.32286669118E+01
 0.30548752644E+01 0.29319030415E+01 0.28559126664E+01 0.28152520520E+01 0.27970625350E+01
 0.27920955191E+01 0.27970628349E+01 0.28152542440E+01 0.28559191981E+01 0.29319148305E+01
 0.30548892394E+01 0.32286765196E+01 0.41113638698E+01 0.44911630509E+01 0.48122181707E+01
 0.50773565055E+01 0.52419603780E+01 0.52419648789E+01 0.50773684611E+01 0.48122341403E+01
 0.44911795547E+01 0.41113773768E+01 0.37159038661E+01 0.33549577351E+01 0.30640681201E+01
 0.28559126664E+01 0.27235350048E+01 0.26500308793E+01 0.26183903032E+01 0.26183928742E+01
 0.26500375424E+01 0.27235433771E+01 0.28559205901E+01 0.30640732052E+01 0.33549570736E+01
 0.37158962450E+01 0.51528874209E+01 0.59501833724E+01 0.68957919907E+01 0.76849532560E+01
 0.79931576495E+01 0.76849493909E+01 0.68957870218E+01 0.59501818344E+01 0.51528932165E+01
 0.45557037145E+01 0.39904897607E+01 0.34842305266E+01 0.30881003872E+01 0.28152520520E+01
 0.26500308793E+01 0.25658205602E+01 0.25405359330E+01 0.25658270688E+01 0.26500392691E+01
 0.28152567932E+01 0.30880980276E+01 0.34842208812E+01 0.39904761051E+01 0.45556912876E+01
 0.81051033807E+01 0.10643511349E+02 0.13049361212E+02 0.14514448250E+02 0.14514439968E+02
 0.13049339969E+02 0.10643486898E+02 0.81050870060E+01 0.61379246410E+01 0.49728757700E+01
 0.42310934003E+01 0.35944925731E+01 0.31130110446E+01 0.27970625350E+01 0.26183903032E+01
 0.25405359330E+01 0.25405392515E+01 0.26183970201E+01 0.27970661845E+01 0.31130065059E+01
 0.35944798670E+01 0.42310772690E+01 0.49728646294E+01 0.61379265995E+01 0.16430008938E+02
 0.21765265866E+02 0.25794986192E+02 0.27294586768E+02 0.25794966710E+02 0.21765234586E+02
 0.16429978500E+02 0.11285678295E+02 0.74948341194E+01 0.54030720268E+01 0.44072187081E+01
 0.36678330012E+01 0.31281669151E+01 0.27920955191E+01 0.26183928742E+01 0.25658270688E+01
 0.26183970201E+01 0.27920991857E+01 0.31281648650E+01 0.36678238224E+01 0.44072055857E+01
 0.54030624958E+01 0.74948363459E+01 0.11285696468E+02 0.32832002430E+02 0.41115443449E+02
 0.45934794427E+02 0.45934787419E+02 0.41115425183E+02 0.32831979988E+02 0.23301723587E+02
 0.14804007076E+02 0.88698040916E+01 0.57670244635E+01 0.44995488374E+01 0.36934380430E+01
 0.31281636238E+01 0.27970628349E+01 0.26500375424E+01 0.26500392691E+01 0.27970661845E+01
 0.31281648650E+01 0.36934348557E+01 0.44995418462E+01 0.57670174111E+01 0.88698022600E+01
 0.14804015110E+02 0.23301741770E+02 0.57952660315E+02 0.68135090813E+02 0.71863806913E+02
 0.68135088495E+02 0.57952657293E+02 0.43963170654E+02 0.29523268758E+02 0.17576780253E+02
 0.97426745737E+01 0.59125035403E+01 0.44995441438E+01 0.36678227780E+01 0.31130034998E+01
 0.28152542440E+01 0.27235433771E+01 0.28152567932E+01 0.31130065059E+01 0.36678238224E+01
 0.44995418462E+01 0.59124981291E+01 0.97426675267E+01 0.17576774454E+02 0.29523266406E+02
 0.43963171899E+02 0.89658884296E+02 0.99492580664E+02 0.99492583996E+02 0.89658893705E+02
 0.72535413933E+02 0.52276916585E+02 0.33233973877E+02 0.18630742447E+02 0.97426790412E+01
 0.57670231758E+01 0.44072062315E+01 0.35944773057E+01 0.30880948201E+01 0.28559191981E+01
 0.28559205901E+01 0.30880980276E+01 0.35944798670E+01 0.44072055857E+01 0.57670174111E+01
 0.97426675267E+01 0.18630726269E+02 0.33233955483E+02 0.52276898977E+02 0.72535399606E+02
 0.12301670566E+03 0.12944207013E+03 0.12301671407E+03 0.10542048406E+03 0.81038289361E+02
 0.55361877784E+02 0.33233978600E+02 0.17576793311E+02 0.88698147262E+01 0.54030680306E+01
 0.42310773842E+01 0.34842183444E+01 0.30640709917E+01 0.29319148305E+01 0.30640732052E+01
 0.34842208812E+01 0.42310772690E+01 0.54030624958E+01 0.88698022600E+01 0.17576774454E+02
 0.33233955483E+02 0.55361853863E+02 0.81038267953E+02 0.10542046811E+03 0.15119755963E+03
 0.15119756202E+03 0.13661848537E+03 0.11121936015E+03 0.81038283193E+02 0.52276915504E+02
 0.29523281957E+02 0.14804027493E+02 0.74948440593E+01 0.49728675691E+01 0.39904757698E+01
 0.33549557059E+01 0.30548885747E+01 0.30548892394E+01 0.33549570736E+01 0.39904761051E+01
 0.49728646294E+01 0.74948363459E+01 0.14804015110E+02 0.29523266406E+02 0.52276898977E+02
 0.81038267953E+02 0.11121934820E+03 0.13661847807E+03 0.16742343070E+03 0.15917390993E+03
 0.13661847778E+03 0.10542046794E+03 0.72535399314E+02 0.43963171562E+02 0.23301741770E+02
 0.11285696805E+02 0.61379268912E+01 0.45556914559E+01 0.37158965366E+01 0.32286768563E+01
 0.30733444991E+01 0.32286765196E+01 0.37158962450E+01 0.45556912876E+01 0.61379265995E+01
 0.11285696468E+02 0.23301741770E+02 0.43963171899E+02 0.72535399606E+02 0.10542046811E+03
 0.13661847807E+03 0.15917391027E+03 0.14364331071E+03 0.12301669360E+03 0.94569968248E+02
 0.64733917794E+02 0.39013167243E+02 0.20638440320E+02 0.10157214686E+02 0.57975502835E+01
 0.44245244687E+01 0.36271032743E+01 0.31697868859E+01 0.30247075618E+01 0.31697845965E+01
 0.36271010230E+01 0.44245249293E+01 0.57975555335E+01 0.10157226386E+02 0.20638459287E+02
 0.39013191698E+02 0.64733943955E+02 0.94569992258E+02 0.12301671228E+03 0.14364332118E+03
 0.15119755940E+03 0.12301669360E+03 0.99492557173E+02 0.71863780764E+02 0.45934773966E+02
 0.25794974259E+02 0.13049357614E+02 0.68957933603E+01 0.48122207566E+01 0.38974550712E+01
 0.33038560119E+01 0.30251722631E+01 0.30251716704E+01 0.33038545058E+01 0.38974529756E+01
 0.48122182940E+01 0.68957922207E+01 0.13049361380E+02 0.25794986360E+02 0.45934794657E+02
 0.71863807036E+02 0.99492583872E+02 0.12301671384E+03 0.13661848521E+03 0.13661847761E+03
 0.94569968248E+02 0.71863780764E+02 0.48467931554E+02 0.28813936675E+02 0.15287173462E+02
 0.79901162108E+01 0.51683871099E+01 0.41305953551E+01 0.34368185087E+01 0.30487613213E+01
 0.29269751799E+01 0.30487629975E+01 0.34368187393E+01 0.41305895912E+01 0.51683730503E+01
 0.79900975385E+01 0.15287158455E+02 0.28813933725E+02 0.48467943670E+02 0.71863804642E+02
 0.94569994807E+02 0.11121936540E+03 0.11735001736E+03 0.11121934803E+03 0.64733917794E+02
 0.45934773966E+02 0.28813936675E+02 0.16128209042E+02 0.86766240752E+01 0.54552371258E+01
 0.42986637028E+01 0.35476550548E+01 0.30824326685E+01 0.28696652157E+01 0.28696682686E+01
 0.30824383991E+01 0.35476551276E+01 0.42986500374E+01 0.54552083439E+01 0.86765881118E+01
 0.16128178984E+02 0.28813923653E+02 0.45934780997E+02 0.64733938500E+02 0.81038289531E+02
 0.90560039059E+02 0.90560030014E+02 0.81038268015E+02 0.39013167243E+02 0.25794974259E+02
 0.15287173462E+02 0.86766240752E+01 0.55680056636E+01 0.43857445663E+01 0.36201960239E+01
 0.31128831288E+01 0.28414725064E+01 0.27579802139E+01 0.28414806586E+01 0.31128921238E+01
 0.36201952353E+01 0.43857268944E+01 0.55679726007E+01 0.86765858960E+01 0.15287142933E+02
 0.25794960387E+02 0.39013170578E+02 0.52276911585E+02 0.62188125141E+02 0.65868866256E+02
 0.62188114551E+02 0.52276898854E+02 0.20638440320E+02 0.13049357614E+02 0.79901162108E+01
 0.54552371258E+01 0.43857445663E+01 0.36453066343E+01 0.31304628861E+01 0.28302362723E+01
 0.26972430124E+01 0.26972478321E+01 0.28302478302E+01 0.31304739507E+01 0.36453092990E+01
 0.43857348455E+01 0.54552169083E+01 0.79900922379E+01 0.13049337279E+02 0.20638428172E+02
 0.29523262646E+02 0.37522650531E+02 0.42286046084E+02 0.42286045085E+02 0.37522649497E+02
 0.29523266238E+02 0.10157214686E+02 0.68957933603E+01 0.51683871099E+01 0.42986637028E+01
 0.36201960239E+01 0.31304628861E+01 0.28274797939E+01 0.26715778705E+01 0.26245257318E+01
 0.26715840189E+01 0.28274904508E+01 0.31304753456E+01 0.36202069313E+01 0.42986703502E+01
 0.51683876446E+01 0.68957877234E+01 0.10157204566E+02 0.14804003262E+02 0.19834277363E+02
 0.23756956804E+02 0.25241912279E+02 0.23756962940E+02 0.19834287936E+02 0.14804015340E+02
 0.57975502835E+01 0.48122207566E+01 0.41305953551E+01 0.35476550548E+01 0.31128831288E+01
 0.28302362723E+01 0.26715778705E+01 0.26028503232E+01 0.26028501477E+01 0.26715786927E+01
 0.28302408668E+01 0.31128941119E+01 0.35476719015E+01 0.41306140716E+01 0.48122355224E+01
 0.57975561714E+01 0.74948332359E+01 0.97872514503E+01 0.12047271640E+02 0.13459654238E+02
 0.13459658389E+02 0.12047281678E+02 0.97872612851E+01 0.74948368059E+01 0.44245244687E+01
 0.38974550712E+01 0.34368185087E+01 0.30824326685E+01 0.28414725064E+01 0.26972430124E+01
 0.26245257318E+01 0.26028501477E+01 0.26245188855E+01 0.26972335744E+01 0.28414670374E+01
 0.30824363992E+01 0.34368319677E+01 0.38974734717E+01 0.44245416398E+01 0.49728755800E+01
 0.56673433580E+01 0.65088877476E+01 0.72321705239E+01 0.75195338758E+01 0.72321737080E+01
 0.65088902555E+01 0.56673405125E+01 0.49728647977E+01 0.36271032743E+01 0.33038560119E+01
 0.30487613213E+01 0.28696652157E+01 0.27579802139E+01 0.26972478321E+01 0.26715840189E+01
 0.26715786927E+01 0.26972335744E+01 0.27579621100E+01 0.28696499535E+01 0.30487539516E+01
 0.33038579404E+01 0.36271122426E+01 0.39904886420E+01 0.43508622700E+01 0.46627108181E+01
 0.49084446994E+01 0.50583124466E+01 0.50583106900E+01 0.49084389180E+01 0.46627007578E+01
 0.43508493960E+01 0.39904760435E+01 0.31697868859E+01 0.30251722631E+01 0.29269751799E+01
 0.28696682686E+01 0.28414806586E+01 0.28302478302E+01 0.28274904508E+01 0.28302408668E+01
 0.28414670374E+01 0.28696499535E+01 0.29269559617E+01 0.30251559913E+01 0.31697769100E+01
 0.33549558858E+01 0.35621400417E+01 0.37639990447E+01 0.39317284175E+01 0.40419253333E+01
 0.40802265562E+01 0.40419173754E+01 0.39317152855E+01 0.37639858742E+01 0.35621324983E+01
 0.33549571969E+01 0.30247075618E+01 0.30251716704E+01 0.30487629975E+01 0.30824383991E+01
 0.31128921238E+01 0.31304739507E+01 0.31304753456E+01 0.31128941119E+01 0.30824363992E+01
 0.30487539516E+01 0.30251559913E+01 0.30246887098E+01 0.30548733665E+01 0.31139565571E+01
 0.31908799060E+01 0.32690174763E+01 0.33316012187E+01 0.33660881094E+01 0.33660839042E+01
 0.33315907527E+01 0.32690066814E+01 0.31908761464E+01 0.31139637471E+01 0.30548894078E+01
 0.31697845964E+01 0.33038545058E+01 0.34368187393E+01 0.35476551276E+01 0.36201952353E+01
 0.36453092990E+01 0.36202069313E+01 0.35476719015E+01 0.34368319677E+01 0.33038579404E+01
 0.31697769100E+01 0.30548733665E+01 0.29723654194E+01 0.29249564244E+01 0.29059669418E+01
 0.29039041853E+01 0.29076244774E+01 0.29097035063E+01 0.29076198227E+01 0.29038984799E+01
 0.29059659864E+01 0.29249641063E+01 0.29723801598E+01 0.30548883447E+01 0.36271010230E+01
 0.38974529756E+01 0.41305895912E+01 0.42986500374E+01 0.43857268944E+01 0.43857348455E+01
 0.42986703502E+01 0.41306140716E+01 0.38974734717E+01 0.36271122426E+01 0.33549558858E+01
 0.31139565571E+01 0.29249564244E+01 0.27931187520E+01 0.27112774091E+01 0.26667872489E+01
 0.26479181601E+01 0.26479177014E+01 0.26667865720E+01 0.27112785780E+01 0.27931238204E+01
 0.29249648018E+01 0.31139634555E+01 0.33549552459E+01 0.44245249293E+01 0.48122182940E+01
 0.51683730503E+01 0.54552083439E+01 0.55679726007E+01 0.54552169083E+01 0.51683876446E+01
 0.48122355224E+01 0.44245416398E+01 0.39904886420E+01 0.35621400417E+01 0.31908799060E+01
 0.29059669418E+01 0.27112774091E+01 0.25933342446E+01 0.25329430435E+01 0.25147355089E+01
 0.25329455581E+01 0.25933378997E+01 0.27112806927E+01 0.29059686119E+01 0.31908778524E+01
 0.35621324983E+01 0.39904756015E+01 0.57975555335E+01 0.68957922207E+01 0.79900975385E+01
 0.86765881118E+01 0.86765858960E+01 0.79900922379E+01 0.68957877234E+01 0.57975561714E+01
 0.49728755800E+01 0.43508622700E+01 0.37639990447E+01 0.32690174763E+01 0.29039041853E+01
 0.26667872489E+01 0.25329430435E+01 0.24745782961E+01 0.24745809043E+01 0.25329487764E+01
 0.26667915464E+01 0.29039032462E+01 0.32690099653E+01 0.37639869622E+01 0.43508496876E+01
 0.49728676307E+01 0.10157226386E+02 0.13049361380E+02 0.15287158455E+02 0.16128178984E+02
 0.15287142933E+02 0.13049337279E+02 0.10157204566E+02 0.74948332359E+01 0.56673433580E+01
 0.46627108181E+01 0.39317284175E+01 0.33316012187E+01 0.29076244774E+01 0.26479181601E+01
 0.25147355089E+01 0.24745809043E+01 0.25147412989E+01 0.26479248133E+01 0.29076259215E+01
 0.33315944725E+01 0.39317157923E+01 0.46626988198E+01 0.56673405125E+01 0.74948439361E+01
 0.20638459287E+02 0.25794986360E+02 0.28813933725E+02 0.28813923653E+02 0.25794960387E+02
 0.20638428172E+02 0.14804003262E+02 0.97872514503E+01 0.65088877476E+01 0.49084446994E+01
 0.40419253333E+01 0.33660881094E+01 0.29097035063E+01 0.26479177014E+01 0.25329455581E+01
 0.25329487764E+01 0.26479248133E+01 0.29097084285E+01 0.33660860699E+01 0.40419160607E+01
 0.49084336517E+01 0.65088835977E+01 0.97872609934E+01 0.14804027324E+02 0.39013191698E+02
 0.45934794657E+02 0.48467943670E+02 0.45934780997E+02 0.39013170578E+02 0.29523262646E+02
 0.19834277363E+02 0.12047271640E+02 0.72321705239E+01 0.50583124466E+01 0.40802265562E+01
 0.33660839042E+01 0.29076198227E+01 0.26667865720E+01 0.25933378997E+01 0.26667915464E+01
 0.29076259215E+01 0.33660860699E+01 0.40802219548E+01 0.50583029722E+01 0.72321620391E+01
 0.12047270847E+02 0.19834287936E+02 0.29523282187E+02 0.64733943955E+02 0.71863807036E+02
 0.71863804642E+02 0.64733938500E+02 0.52276911585E+02 0.37522650531E+02 0.23756956804E+02
 0.13459654238E+02 0.75195338758E+01 0.50583106900E+01 0.40419173754E+01 0.33315907527E+01
 0.29038984799E+01 0.27112785780E+01 0.27112806927E+01 0.29039032462E+01 0.33315944725E+01
 0.40419160607E+01 0.50583029722E+01 0.75195218515E+01 0.13459642557E+02 0.23756949751E+02