   1   1   1   0
  0.1266325E+02  0.2616295E-09  0.2616295E-09  0.2616295E-09  0.5000000E-15
  1.000000000000000E-004
  CAR 
 fcc Ni                                  
     51.09678191     -3.12808685  301      7.37892121      1.00000000
     -3.128  0.0000E+00  0.0000E+00  0.0000E+00  0.0000E+00
     -2.947  0.0000E+00  0.0000E+00  0.0000E+00  0.0000E+00
     -2.767  0.0000E+00  0.0000E+00  0.0000E+00  0.0000E+00
     -2.586  0.0000E+00  0.0000E+00  0.0000E+00  0.0000E+00
     -2.405  0.0000E+00 -0.1176E-34  0.0000E+00 -0.2126E-35
     -2.224 -0.2512E-30 -0.3195E-28 -0.4540E-31 -0.5776E-29
     -2.044 -0.2300E-24 -0.1672E-22 -0.4157E-25 -0.3022E-23
     -1.863 -0.4048E-19 -0.1679E-17 -0.7316E-20 -0.3035E-18
     -1.682 -0.1316E-14 -0.3095E-13 -0.2379E-15 -0.5594E-14
     -1.501 -0.8277E-11 -0.1100E-09 -0.1496E-11 -0.1990E-10
     -1.321 -0.9622E-08 -0.7152E-07 -0.1741E-08 -0.1295E-07
     -1.140 -0.1973E-05 -0.7946E-05 -0.3583E-06 -0.1449E-05
     -0.959 -0.6117E-04 -0.1158E-03 -0.1141E-04 -0.2238E-04
     -0.778 -0.5958E-04  0.2231E-03 -0.2218E-04  0.1794E-04
     -0.598  0.9699E-03  0.1378E-02  0.1531E-03  0.2670E-03
     -0.417  0.6808E-02  0.1476E-01  0.1384E-02  0.2935E-02
     -0.236  0.3341E-01  0.3569E-01  0.7423E-02  0.9386E-02
     -0.055  0.2062E-01  0.1256E-01  0.1115E-01  0.1166E-01
      0.125  0.1682E-01  0.2484E-01  0.1419E-01  0.1615E-01
      0.306  0.3818E-01  0.4792E-01  0.2109E-01  0.2481E-01
      0.487  0.8064E-01  0.8525E-01  0.3567E-01  0.4021E-01
      0.668  0.4959E-01  0.2620E-01  0.4463E-01  0.4495E-01
      0.848  0.4469E-02  0.6296E-02  0.4544E-01  0.4609E-01
      1.029  0.2745E-01  0.4613E-01  0.5040E-01  0.5443E-01
      1.210  0.1127E+00  0.1236E+00  0.7077E-01  0.7677E-01
      1.391  0.8230E-01  0.5844E-01  0.8564E-01  0.8733E-01
      1.571  0.5663E-01  0.6337E-01  0.9588E-01  0.9879E-01
      1.752  0.9142E-01  0.9443E-01  0.1124E+00  0.1159E+00
      1.933  0.7503E-01  0.6106E-01  0.1260E+00  0.1269E+00
      2.114  0.9136E-02  0.7300E-02  0.1276E+00  0.1282E+00
      2.294  0.8819E-01  0.8856E-01  0.1436E+00  0.1442E+00
      2.475  0.2211E+00  0.2188E+00  0.1835E+00  0.1838E+00
      2.656  0.1067E+00  0.9116E-01  0.2028E+00  0.2002E+00
      2.837  0.1524E+00  0.1134E+00  0.2304E+00  0.2207E+00
      3.017  0.1105E+00  0.1382E+00  0.2503E+00  0.2457E+00
      3.198  0.9152E-01  0.5691E-01  0.2669E+00  0.2560E+00
      3.379  0.3707E+00  0.1082E+00  0.3339E+00  0.2756E+00
      3.560  0.4727E+00  0.2973E+00  0.4193E+00  0.3293E+00
      3.740  0.5910E+00  0.3607E+00  0.5261E+00  0.3945E+00
      3.921  0.5952E+00  0.3784E+00  0.6337E+00  0.4629E+00
      4.102  0.8740E+00  0.4253E+00  0.7917E+00  0.5398E+00
      4.283  0.1230E+01  0.4962E+00  0.1014E+01  0.6295E+00
      4.463  0.1096E+01  0.6774E+00  0.1212E+01  0.7519E+00
      4.644  0.1052E+01  0.7361E+00  0.1402E+01  0.8850E+00
      4.825  0.1049E+01  0.1000E+01  0.1592E+01  0.1066E+01
      5.006  0.1377E+01  0.9929E+00  0.1841E+01  0.1245E+01
      5.186  0.1551E+01  0.1052E+01  0.2121E+01  0.1435E+01
      5.367  0.1723E+01  0.9144E+00  0.2433E+01  0.1601E+01
      5.548  0.2078E+01  0.1277E+01  0.2808E+01  0.1831E+01
      5.729  0.1799E+01  0.1404E+01  0.3133E+01  0.2085E+01
      5.909  0.1234E+01  0.1570E+01  0.3356E+01  0.2369E+01
      6.090  0.1373E+01  0.1823E+01  0.3604E+01  0.2698E+01
      6.271  0.1880E+01  0.1857E+01  0.3944E+01  0.3034E+01
      6.452  0.1552E+01  0.1398E+01  0.4225E+01  0.3287E+01
      6.632  0.1943E+01  0.1276E+01  0.4576E+01  0.3517E+01
      6.813  0.2575E+01  0.1580E+01  0.5041E+01  0.3803E+01
      6.994  0.1364E+01  0.1681E+01  0.5288E+01  0.4107E+01
      7.175  0.6111E-02  0.1227E+01  0.5289E+01  0.4328E+01
      7.355  0.6063E-02  0.1800E+01  0.5290E+01  0.4654E+01
      7.536  0.2336E+00  0.2322E+01  0.5333E+01  0.5073E+01
      7.717  0.3962E+00  0.1155E+01  0.5404E+01  0.5282E+01
      7.898  0.1851E+00  0.8160E-01  0.5438E+01  0.5297E+01
      8.078  0.8729E-01  0.2047E+00  0.5453E+01  0.5334E+01
      8.259  0.9391E-01  0.4089E+00  0.5470E+01  0.5408E+01
      8.440  0.1365E+00  0.2342E+00  0.5495E+01  0.5450E+01
      8.621  0.8594E-01  0.1440E+00  0.5511E+01  0.5476E+01
      8.801  0.1269E+00  0.1477E+00  0.5533E+01  0.5503E+01
      8.982  0.3185E+00  0.7146E-01  0.5591E+01  0.5516E+01
      9.163  0.1807E+00  0.1061E+00  0.5624E+01  0.5535E+01
      9.344  0.9737E-01  0.3333E+00  0.5641E+01  0.5595E+01
      9.524  0.1396E+00  0.1706E+00  0.5667E+01  0.5626E+01
      9.705  0.1298E+00  0.1064E+00  0.5690E+01  0.5645E+01
      9.886  0.1851E+00  0.1757E+00  0.5723E+01  0.5677E+01
     10.067  0.7563E-01  0.1977E+00  0.5737E+01  0.5713E+01
     10.247  0.7026E-01  0.1707E+00  0.5750E+01  0.5744E+01
     10.428  0.3437E-01  0.7090E-01  0.5756E+01  0.5757E+01
     10.609  0.6750E-01 -0.5171E-02  0.5768E+01  0.5756E+01
     10.790  0.2632E+00  0.4296E-01  0.5816E+01  0.5763E+01
     10.970  0.2461E+00  0.2469E+00  0.5860E+01  0.5808E+01
     11.151  0.2591E-01  0.2537E+00  0.5865E+01  0.5854E+01
     11.332  0.3787E-01  0.5888E-01  0.5872E+01  0.5865E+01
     11.513  0.1297E+00  0.2145E-01  0.5895E+01  0.5868E+01
     11.693  0.6808E-01  0.1307E+00  0.5908E+01  0.5892E+01
     11.874  0.1212E+00  0.1184E+00  0.5929E+01  0.5913E+01
     12.055  0.4570E-01  0.1056E+00  0.5938E+01  0.5932E+01
     12.236  0.1533E+00  0.2949E-01  0.5965E+01  0.5938E+01
     12.416  0.1709E+00  0.1157E+00  0.5996E+01  0.5959E+01
     12.597  0.7191E-01  0.1469E+00  0.6009E+01  0.5985E+01
     12.778  0.1097E+00  0.8374E-01  0.6029E+01  0.6000E+01
     12.959  0.2387E+00  0.9718E-01  0.6072E+01  0.6018E+01
     13.139  0.1429E+00  0.2192E+00  0.6098E+01  0.6058E+01
     13.320  0.2562E-01  0.2032E+00  0.6103E+01  0.6094E+01
     13.501  0.4306E-01  0.5420E-01  0.6111E+01  0.6104E+01
     13.682  0.1847E+00  0.1893E-01  0.6144E+01  0.6108E+01
     13.862  0.3098E+00  0.2172E+00  0.6200E+01  0.6147E+01
     14.043  0.2341E+00  0.3425E+00  0.6242E+01  0.6209E+01
     14.224  0.3849E-01  0.1819E+00  0.6249E+01  0.6242E+01
     14.405  0.1253E+00  0.4620E-01  0.6272E+01  0.6250E+01
     14.585  0.2886E+00  0.1546E+00  0.6324E+01  0.6278E+01
     14.766  0.9994E-01  0.2608E+00  0.6342E+01  0.6325E+01
     14.947  0.6547E-01  0.1025E+00  0.6354E+01  0.6344E+01
     15.128  0.1001E+00  0.7851E-01  0.6372E+01  0.6358E+01
     15.308  0.2209E-01  0.8450E-01  0.6376E+01  0.6373E+01
     15.489  0.5687E-01  0.1162E-01  0.6386E+01  0.6375E+01
     15.670  0.2035E+00  0.7262E-01  0.6423E+01  0.6388E+01
     15.851  0.1183E+00  0.2211E+00  0.6444E+01  0.6428E+01
     16.031  0.9660E-01  0.9442E-01  0.6462E+01  0.6445E+01
     16.212  0.2443E+00  0.1432E+00  0.6506E+01  0.6471E+01
     16.393  0.2475E+00  0.2684E+00  0.6551E+01  0.6520E+01
     16.574  0.2190E+00  0.2545E+00  0.6590E+01  0.6566E+01
     16.754  0.2034E+00  0.2011E+00  0.6627E+01  0.6602E+01
     16.935  0.2509E+00  0.2343E+00  0.6672E+01  0.6644E+01
     17.116  0.2095E+00  0.2306E+00  0.6710E+01  0.6686E+01
     17.297  0.2295E+00  0.2187E+00  0.6752E+01  0.6726E+01
     17.477  0.1704E+00  0.2217E+00  0.6783E+01  0.6766E+01
     17.658  0.4755E-01  0.1194E+00  0.6791E+01  0.6787E+01
     17.839  0.5114E-01  0.3640E-01  0.6800E+01  0.6794E+01
     18.020  0.2482E+00  0.1222E+00  0.6845E+01  0.6816E+01
     18.200  0.3121E+00  0.3128E+00  0.6902E+01  0.6872E+01
     18.381  0.1671E+00  0.2477E+00  0.6932E+01  0.6917E+01
     18.562  0.2908E+00  0.2089E+00  0.6984E+01  0.6955E+01
     18.743  0.2357E+00  0.3199E+00  0.7027E+01  0.7013E+01
     18.923  0.7194E-01  0.1123E+00  0.7040E+01  0.7033E+01
     19.104  0.1884E+00  0.1332E+00  0.7074E+01  0.7057E+01
     19.285  0.1359E+00  0.2030E+00  0.7099E+01  0.7094E+01
     19.466  0.5011E-01  0.4300E-01  0.7108E+01  0.7102E+01
     19.646  0.3142E+00  0.2112E+00  0.7165E+01  0.7140E+01
     19.827  0.3148E+00  0.3629E+00  0.7221E+01  0.7205E+01
     20.008  0.2606E+00  0.2380E+00  0.7269E+01  0.7248E+01
     20.189  0.2922E+00  0.3055E+00  0.7321E+01  0.7304E+01
     20.369  0.2155E+00  0.2585E+00  0.7360E+01  0.7350E+01
     20.550  0.1795E+00  0.1746E+00  0.7393E+01  0.7382E+01
     20.731  0.1834E+00  0.1981E+00  0.7426E+01  0.7418E+01
     20.912  0.1454E+00  0.1426E+00  0.7452E+01  0.7443E+01
     21.092  0.1658E+00  0.1756E+00  0.7482E+01  0.7475E+01
     21.273  0.2984E+00  0.2323E+00  0.7536E+01  0.7517E+01
     21.454  0.3287E+00  0.3550E+00  0.7596E+01  0.7581E+01
     21.635  0.1955E+00  0.2283E+00  0.7631E+01  0.7623E+01
     21.815  0.2747E+00  0.2615E+00  0.7681E+01  0.7670E+01
     21.996  0.1737E+00  0.1909E+00  0.7712E+01  0.7704E+01
     22.177  0.2491E+00  0.2390E+00  0.7757E+01  0.7748E+01
     22.358  0.2459E+00  0.2402E+00  0.7801E+01  0.7791E+01
     22.538  0.2017E+00  0.2093E+00  0.7838E+01  0.7829E+01
     22.719  0.1046E+00  0.1351E+00  0.7857E+01  0.7853E+01
     22.900  0.1391E+00  0.1044E+00  0.7882E+01  0.7872E+01
     23.081  0.2162E+00  0.2181E+00  0.7921E+01  0.7912E+01
     23.261  0.2604E+00  0.2611E+00  0.7968E+01  0.7959E+01
     23.442  0.2066E+00  0.2224E+00  0.8005E+01  0.7999E+01
     23.623  0.2706E+00  0.2414E+00  0.8054E+01  0.8043E+01
     23.804  0.3311E+00  0.3514E+00  0.8114E+01  0.8106E+01
     23.984  0.2150E+00  0.2340E+00  0.8153E+01  0.8148E+01
     24.165  0.7675E-01  0.8531E-01  0.8167E+01  0.8164E+01
     24.346  0.1342E+00  0.1157E+00  0.8191E+01  0.8185E+01
     24.527  0.1269E+00  0.1450E+00  0.8214E+01  0.8211E+01
     24.707  0.4772E-01  0.6523E-01  0.8223E+01  0.8223E+01
     24.888  0.5580E-01  0.3017E-01  0.8233E+01  0.8228E+01
     25.069  0.2710E+00  0.2232E+00  0.8282E+01  0.8269E+01
     25.250  0.2576E+00  0.2967E+00  0.8328E+01  0.8322E+01
     25.430  0.2292E+00  0.2413E+00  0.8370E+01  0.8366E+01
     25.611  0.2297E+00  0.2244E+00  0.8411E+01  0.8406E+01
     25.792  0.1377E+00  0.1382E+00  0.8436E+01  0.8431E+01
     25.973  0.1362E+00  0.1497E+00  0.8461E+01  0.8458E+01
     26.153  0.1986E+00  0.1849E+00  0.8497E+01  0.8492E+01
     26.334  0.1942E+00  0.1760E+00  0.8532E+01  0.8524E+01
     26.515  0.2284E+00  0.2488E+00  0.8573E+01  0.8569E+01
     26.696  0.1127E+00  0.1216E+00  0.8593E+01  0.8591E+01
     26.876  0.1414E+00  0.1466E+00  0.8619E+01  0.8617E+01
     27.057  0.2922E+00  0.2937E+00  0.8672E+01  0.8670E+01
     27.238  0.2732E+00  0.2526E+00  0.8721E+01  0.8716E+01
     27.419  0.2403E+00  0.2250E+00  0.8765E+01  0.8757E+01
     27.599  0.1514E+00  0.1814E+00  0.8792E+01  0.8789E+01
     27.780  0.3127E+00  0.3372E+00  0.8849E+01  0.8850E+01
     27.961  0.3227E+00  0.3157E+00  0.8907E+01  0.8907E+01
     28.142  0.1047E+00  0.8929E-01  0.8926E+01  0.8923E+01
     28.322  0.2171E+00  0.2344E+00  0.8965E+01  0.8966E+01
     28.503  0.3832E+00  0.4389E+00  0.9034E+01  0.9045E+01
     28.684  0.3976E+00  0.3638E+00  0.9106E+01  0.9111E+01
     28.865  0.2319E+00  0.2322E+00  0.9148E+01  0.9153E+01
     29.045  0.1835E+00  0.1859E+00  0.9181E+01  0.9186E+01
     29.226  0.2042E+00  0.1988E+00  0.9218E+01  0.9222E+01
     29.407  0.2990E+00  0.2478E+00  0.9272E+01  0.9267E+01
     29.588  0.4003E+00  0.3675E+00  0.9345E+01  0.9334E+01
     29.768  0.4600E+00  0.4904E+00  0.9428E+01  0.9422E+01
     29.949  0.3330E+00  0.3626E+00  0.9488E+01  0.9488E+01
     30.130  0.2688E+00  0.2567E+00  0.9536E+01  0.9534E+01
     30.311  0.4231E+00  0.4486E+00  0.9613E+01  0.9615E+01
     30.491  0.4121E+00  0.4459E+00  0.9687E+01  0.9696E+01
     30.672  0.2662E+00  0.2318E+00  0.9736E+01  0.9738E+01
     30.853  0.7489E-01  0.7388E-01  0.9749E+01  0.9751E+01
     31.034  0.1409E+00  0.1318E+00  0.9775E+01  0.9775E+01
     31.214  0.2163E+00  0.2434E+00  0.9814E+01  0.9819E+01
     31.395  0.2302E+00  0.1959E+00  0.9855E+01  0.9854E+01
     31.576  0.1708E+00  0.1168E+00  0.9886E+01  0.9875E+01
     31.757  0.1746E+00  0.2008E+00  0.9918E+01  0.9912E+01
     31.937  0.3038E+00  0.3519E+00  0.9973E+01  0.9975E+01
     32.118  0.1509E+00  0.1594E+00  0.1000E+02  0.1000E+02
     32.299  0.7115E-01  0.4629E-01  0.1001E+02  0.1001E+02
     32.480  0.4845E-01  0.6134E-01  0.1002E+02  0.1002E+02
     32.660  0.1124E+00  0.1086E+00  0.1004E+02  0.1004E+02
     32.841  0.1549E+00  0.1573E+00  0.1007E+02  0.1007E+02
     33.022  0.2103E+00  0.1910E+00  0.1011E+02  0.1011E+02
     33.203  0.1922E+00  0.1771E+00  0.1014E+02  0.1014E+02
     33.383  0.2277E+00  0.1919E+00  0.1018E+02  0.1017E+02
     33.564  0.3237E+00  0.3171E+00  0.1024E+02  0.1023E+02
     33.745  0.4332E+00  0.4726E+00  0.1032E+02  0.1032E+02
     33.926  0.2292E+00  0.2267E+00  0.1036E+02  0.1036E+02
     34.106  0.9497E-01  0.1299E+00  0.1038E+02  0.1038E+02
     34.287  0.2069E+00  0.2284E+00  0.1042E+02  0.1042E+02
     34.468  0.3152E+00  0.2662E+00  0.1047E+02  0.1047E+02
     34.649  0.3914E+00  0.3708E+00  0.1054E+02  0.1054E+02
     34.829  0.4134E+00  0.5033E+00  0.1062E+02  0.1063E+02
     35.010  0.3919E+00  0.4770E+00  0.1069E+02  0.1071E+02
     35.191  0.5461E+00  0.4673E+00  0.1079E+02  0.1080E+02
     35.372  0.1925E+00  0.1332E+00  0.1082E+02  0.1082E+02
     35.552  0.8851E-02  0.6280E-02  0.1082E+02  0.1082E+02
     35.733  0.2886E-01  0.4197E-01  0.1083E+02  0.1083E+02
     35.914  0.1277E+00  0.1776E+00  0.1085E+02  0.1086E+02
     36.095  0.1543E+00  0.1261E+00  0.1088E+02  0.1089E+02
     36.275  0.1436E+00  0.1355E+00  0.1091E+02  0.1091E+02
     36.456  0.2290E+00  0.2498E+00  0.1095E+02  0.1096E+02
     36.637  0.2779E+00  0.2537E+00  0.1100E+02  0.1100E+02
     36.818  0.2167E+00  0.2120E+00  0.1104E+02  0.1104E+02
     36.998  0.1591E+00  0.1704E+00  0.1107E+02  0.1107E+02
     37.179  0.1551E+00  0.1627E+00  0.1109E+02  0.1110E+02
     37.360  0.3561E+00  0.3098E+00  0.1116E+02  0.1116E+02
     37.541  0.4909E+00  0.5140E+00  0.1125E+02  0.1125E+02
     37.721  0.2089E+00  0.2159E+00  0.1129E+02  0.1129E+02
     37.902  0.1842E+00  0.2130E+00  0.1132E+02  0.1133E+02
     38.083  0.2146E+00  0.2115E+00  0.1136E+02  0.1136E+02
     38.264  0.7991E-01  0.5956E-01  0.1137E+02  0.1138E+02
     38.444  0.3206E-01  0.4672E-01  0.1138E+02  0.1138E+02
     38.625  0.2686E+00  0.3119E+00  0.1143E+02  0.1144E+02
     38.806  0.2920E+00  0.2019E+00  0.1148E+02  0.1148E+02
     38.987  0.2426E+00  0.2323E+00  0.1152E+02  0.1152E+02
     39.167  0.1914E+00  0.2328E+00  0.1156E+02  0.1156E+02
     39.348  0.6871E-01  0.9494E-01  0.1157E+02  0.1158E+02
     39.529  0.1622E+00  0.1901E+00  0.1160E+02  0.1161E+02
     39.710  0.1559E+00  0.6677E-01  0.1163E+02  0.1162E+02
     39.890  0.1494E+00  0.1652E+00  0.1165E+02  0.1165E+02
     40.071  0.1713E+00  0.2306E+00  0.1169E+02  0.1170E+02
     40.252  0.1223E+00  0.1009E+00  0.1171E+02  0.1171E+02
     40.433  0.6010E-01  0.6062E-01  0.1172E+02  0.1173E+02
     40.613  0.4669E-01  0.2081E-01  0.1173E+02  0.1173E+02
     40.794  0.8965E-01  0.1121E+00  0.1174E+02  0.1175E+02
     40.975  0.2572E+00  0.2383E+00  0.1179E+02  0.1179E+02
     41.156  0.9987E-01  0.8636E-01  0.1181E+02  0.1181E+02
     41.336 -0.5255E-02 -0.6452E-02  0.1181E+02  0.1181E+02
     41.517 -0.2510E-02 -0.2094E-02  0.1181E+02  0.1181E+02
     41.698 -0.3696E-03 -0.8871E-03  0.1181E+02  0.1181E+02
     41.879 -0.5068E-02 -0.6824E-02  0.1181E+02  0.1180E+02
     42.059  0.1252E-01  0.4023E-01  0.1181E+02  0.1181E+02
     42.240  0.1404E+00  0.1744E+00  0.1183E+02  0.1184E+02
     42.421  0.2168E+00  0.2207E+00  0.1187E+02  0.1188E+02
     42.602  0.1397E+00  0.9276E-01  0.1190E+02  0.1190E+02
     42.782  0.3448E-01  0.2541E-01  0.1190E+02  0.1190E+02
     42.963  0.1207E-01  0.4253E-02  0.1191E+02  0.1191E+02
     43.144 -0.1571E-02 -0.1362E-02  0.1191E+02  0.1191E+02
     43.325 -0.3157E-03 -0.9741E-04  0.1191E+02  0.1191E+02
     43.505 -0.9323E-04 -0.2386E-03  0.1191E+02  0.1191E+02
     43.686 -0.1959E-02 -0.2836E-02  0.1190E+02  0.1190E+02
     43.867  0.4376E-02  0.1489E-01  0.1191E+02  0.1191E+02
     44.048  0.6002E-01  0.6716E-01  0.1192E+02  0.1192E+02
     44.228  0.3712E-01  0.1959E-01  0.1192E+02  0.1192E+02
     44.409  0.8364E-02  0.3213E-01  0.1192E+02  0.1193E+02
     44.590  0.8097E-01  0.9884E-01  0.1194E+02  0.1195E+02
     44.771  0.9464E-01  0.8041E-01  0.1196E+02  0.1196E+02
     44.951  0.4370E-01  0.1787E-01  0.1196E+02  0.1196E+02
     45.132 -0.1715E-02 -0.3244E-02  0.1196E+02  0.1196E+02
     45.313 -0.1177E-02 -0.3530E-03  0.1196E+02  0.1196E+02
     45.494 -0.3157E-04 -0.5257E-05  0.1196E+02  0.1196E+02
     45.674 -0.3617E-04 -0.1233E-03  0.1196E+02  0.1196E+02
     45.855 -0.1253E-02 -0.2269E-02  0.1196E+02  0.1196E+02
     46.036 -0.4347E-03  0.7251E-02  0.1196E+02  0.1196E+02
     46.217  0.4881E-01  0.6369E-01  0.1197E+02  0.1198E+02
     46.397  0.5327E-01  0.3460E-01  0.1198E+02  0.1198E+02
     46.578  0.9441E-03 -0.2674E-02  0.1198E+02  0.1198E+02
     46.759 -0.1496E-02 -0.7382E-03  0.1198E+02  0.1198E+02
     46.940 -0.4042E-03 -0.9532E-03  0.1198E+02  0.1198E+02
     47.120 -0.1324E-02  0.1865E-02  0.1198E+02  0.1198E+02
     47.301  0.1747E-01  0.2960E-01  0.1198E+02  0.1199E+02
     47.482  0.3175E-01  0.2080E-01  0.1199E+02  0.1199E+02
     47.663  0.3472E-02 -0.1296E-02  0.1199E+02  0.1199E+02
     47.843 -0.1835E-02 -0.3391E-03  0.1199E+02  0.1199E+02
     48.024  0.3669E-02  0.1300E-01  0.1199E+02  0.1199E+02
     48.205  0.1685E-01  0.1220E-01  0.1199E+02  0.1200E+02
     48.386  0.5117E-02 -0.1197E-03  0.1200E+02  0.1200E+02
     48.566  0.6048E-02  0.1192E-01  0.1200E+02  0.1200E+02
     48.747  0.1663E-01  0.1327E-01  0.1200E+02  0.1200E+02
     48.928  0.2993E-02  0.2217E-03  0.1200E+02  0.1200E+02
     49.109 -0.6649E-03 -0.3701E-03  0.1200E+02  0.1200E+02
     49.289 -0.4758E-04 -0.1235E-04  0.1200E+02  0.1200E+02
     49.470 -0.4291E-06 -0.6137E-07  0.1200E+02  0.1200E+02
     49.651 -0.6603E-09 -0.5369E-10  0.1200E+02  0.1200E+02
     49.832 -0.1857E-12 -0.8678E-14  0.1200E+02  0.1200E+02
     50.012 -0.1108E-16  0.0000E+00  0.1200E+02  0.1200E+02
     50.193  0.0000E+00  0.0000E+00  0.1200E+02  0.1200E+02
     50.374  0.0000E+00  0.0000E+00  0.1200E+02  0.1200E+02
     50.555  0.0000E+00  0.0000E+00  0.1200E+02  0.1200E+02
     50.735  0.0000E+00  0.0000E+00  0.1200E+02  0.1200E+02
     50.916  0.0000E+00  0.0000E+00  0.1200E+02  0.1200E+02
     51.097  0.0000E+00  0.0000E+00  0.1200E+02  0.1200E+02
     51.09678191     -3.12808685  301      7.37892121      1.00000000
     -3.128  0.0000E+00  0.0000E+00  0.0000E+00  0.0000E+00  0.0000E+00  0.0000E+00  0.0000E+00  0.0000E+00  0.0000E+00  0.0000E+00  0.0000E+00  0.0000E+00  0.0000E+00  0.0000E+00  0.0000E+00  0.0000E+00  0.0000E+00  0.0000E+00
     -2.947  0.0000E+00  0.0000E+00  0.0000E+00  0.0000E+00  0.0000E+00  0.0000E+00  0.0000E+00  0.0000E+00  0.0000E+00  0.0000E+00  0.0000E+00  0.0000E+00  0.0000E+00  0.0000E+00  0.0000E+00  0.0000E+00  0.0000E+00  0.0000E+00
     -2.767  0.0000E+00  0.0000E+00  0.0000E+00  0.0000E+00  0.0000E+00  0.0000E+00  0.0000E+00  0.0000E+00  0.0000E+00  0.0000E+00  0.0000E+00  0.0000E+00  0.0000E+00  0.0000E+00  0.0000E+00  0.0000E+00  0.0000E+00  0.0000E+00
     -2.586  0.0000E+00  0.0000E+00  0.0000E+00  0.0000E+00  0.0000E+00  0.0000E+00  0.0000E+00  0.0000E+00  0.0000E+00  0.0000E+00  0.0000E+00  0.0000E+00  0.0000E+00  0.0000E+00  0.0000E+00  0.0000E+00  0.0000E+00  0.0000E+00
     -2.405  0.0000E+00 -0.7274E-35  0.0000E+00 -0.1324E-49  0.0000E+00 -0.1324E-49  0.0000E+00 -0.1324E-49  0.0000E+00 -0.1260E-45  0.0000E+00 -0.1260E-45  0.0000E+00 -0.3808E-52  0.0000E+00 -0.1260E-45  0.0000E+00 -0.3808E-52
     -2.224 -0.1557E-30 -0.1976E-28 -0.1261E-45 -0.3596E-43 -0.1261E-45 -0.3596E-43 -0.1261E-45 -0.3596E-43 -0.5664E-41 -0.3422E-39 -0.5664E-41 -0.3422E-39 -0.5577E-46 -0.1034E-45 -0.5664E-41 -0.3422E-39 -0.5577E-46 -0.1034E-45
     -2.044 -0.1426E-24 -0.1034E-22 -0.1471E-35 -0.2547E-33 -0.1471E-35 -0.2547E-33 -0.1471E-35 -0.2547E-33 -0.5231E-35 -0.1856E-33 -0.5231E-35 -0.1856E-33 -0.5107E-40 -0.3119E-38 -0.5231E-35 -0.1856E-33 -0.5107E-40 -0.3119E-38
     -1.863 -0.2509E-19 -0.1038E-17 -0.3582E-29 -0.3557E-27 -0.3582E-29 -0.3557E-27 -0.3582E-29 -0.3557E-27 -0.1023E-29 -0.2708E-28 -0.1023E-29 -0.2708E-28 -0.9573E-34 -0.1023E-31 -0.1023E-29 -0.2708E-28 -0.9573E-34 -0.1023E-31
     -1.682 -0.8157E-15 -0.1914E-13 -0.1680E-23 -0.9563E-22 -0.1680E-23 -0.9563E-22 -0.1680E-23 -0.9563E-22 -0.8120E-25 -0.2775E-23 -0.8120E-25 -0.2775E-23 -0.9751E-28 -0.6568E-26 -0.8120E-25 -0.2775E-23 -0.9751E-28 -0.6568E-26
     -1.501 -0.5130E-11 -0.6806E-10 -0.1514E-18 -0.4776E-17 -0.1514E-18 -0.4776E-17 -0.1514E-18 -0.4776E-17 -0.4820E-20 -0.1229E-18 -0.4820E-20 -0.1229E-18 -0.2095E-22 -0.8104E-21 -0.4820E-20 -0.1229E-18 -0.2095E-22 -0.8104E-21
     -1.321 -0.5964E-08 -0.4423E-07 -0.2507E-14 -0.4637E-13 -0.2507E-14 -0.4637E-13 -0.2507E-14 -0.4637E-13 -0.7662E-16 -0.1176E-14 -0.7662E-16 -0.1176E-14 -0.8359E-18 -0.1840E-16 -0.7662E-16 -0.1176E-14 -0.8359E-18 -0.1840E-16
     -1.140 -0.1223E-05 -0.4914E-05 -0.8048E-11 -0.8443E-10 -0.8048E-11 -0.8443E-10 -0.8048E-11 -0.8443E-10 -0.2429E-12 -0.2112E-11 -0.2429E-12 -0.2112E-11 -0.6455E-14 -0.8068E-13 -0.2429E-12 -0.2112E-11 -0.6455E-14 -0.8068E-13
     -0.959 -0.3790E-04 -0.7153E-04 -0.4779E-08 -0.2813E-07 -0.4779E-08 -0.2813E-07 -0.4779E-08 -0.2813E-07 -0.1407E-09 -0.6800E-09 -0.1407E-09 -0.6800E-09 -0.9245E-11 -0.6494E-10 -0.1407E-09 -0.6800E-09 -0.9245E-11 -0.6494E-10
     -0.778 -0.3542E-04  0.1428E-03 -0.4995E-06 -0.1586E-05 -0.4995E-06 -0.1586E-05 -0.4995E-06 -0.1586E-05 -0.1380E-07 -0.3504E-07 -0.1380E-07 -0.3504E-07 -0.2355E-08 -0.9043E-08 -0.1380E-07 -0.3504E-07 -0.2355E-08 -0.9043E-08
     -0.598  0.6231E-03  0.8791E-03 -0.7243E-05 -0.8865E-05 -0.7243E-05 -0.8865E-05 -0.7243E-05 -0.8865E-05 -0.1616E-06 -0.1216E-06 -0.1616E-06 -0.1216E-06 -0.9294E-07 -0.1716E-06 -0.1616E-06 -0.1216E-06 -0.9294E-07 -0.1716E-06
     -0.417  0.4143E-02  0.8891E-02  0.2553E-04  0.7843E-04  0.2553E-04  0.7843E-04  0.2553E-04  0.7843E-04  0.8547E-06  0.1669E-05  0.8547E-06  0.1669E-05 -0.1189E-06  0.5105E-06  0.8547E-06  0.1669E-05 -0.1189E-06  0.5105E-06
     -0.236  0.2010E-01  0.2140E-01  0.2019E-03  0.2197E-03  0.2019E-03  0.2197E-03  0.2019E-03  0.2197E-03  0.3437E-05  0.2232E-05  0.3437E-05  0.2232E-05  0.3740E-05  0.4580E-05  0.3437E-05  0.2232E-05  0.3740E-05  0.4580E-05
     -0.055  0.1239E-01  0.7467E-02  0.1294E-03  0.9732E-04  0.1294E-03  0.9732E-04  0.1294E-03  0.9732E-04  0.1197E-06  0.1343E-05  0.1197E-06  0.1343E-05  0.4329E-05  0.2688E-05  0.1197E-06  0.1343E-05  0.4329E-05  0.2688E-05
      0.125  0.9705E-02  0.1428E-01  0.2311E-03  0.3484E-03  0.2311E-03  0.3484E-03  0.2311E-03  0.3484E-03  0.1448E-04  0.1825E-04  0.1448E-04  0.1825E-04  0.3053E-05  0.4544E-05  0.1448E-04  0.1825E-04  0.3053E-05  0.4544E-05
      0.306  0.2179E-01  0.2699E-01  0.5913E-03  0.8299E-03  0.5913E-03  0.8299E-03  0.5913E-03  0.8299E-03  0.3690E-04  0.4517E-04  0.3690E-04  0.4517E-04  0.2472E-04  0.4282E-04  0.3690E-04  0.4517E-04  0.2472E-04  0.4282E-04
      0.487  0.4493E-01  0.4732E-01  0.1555E-02  0.1676E-02  0.1555E-02  0.1676E-02  0.1555E-02  0.1676E-02  0.1268E-03  0.1194E-03  0.1268E-03  0.1194E-03  0.1029E-03  0.8986E-04  0.1268E-03  0.1194E-03  0.1029E-03  0.8986E-04
      0.668  0.2755E-01  0.1451E-01  0.9743E-03  0.5247E-03  0.9743E-03  0.5247E-03  0.9743E-03  0.5247E-03  0.1043E-03  0.4693E-04  0.1043E-03  0.4693E-04  0.4457E-04  0.2096E-04  0.1043E-03  0.4693E-04  0.4457E-04  0.2096E-04
      0.848  0.2371E-02  0.3304E-02  0.1203E-03  0.1775E-03  0.1203E-03  0.1775E-03  0.1203E-03  0.1775E-03 -0.2438E-04 -0.2859E-04 -0.2438E-04 -0.2859E-04  0.5841E-04  0.7529E-04 -0.2438E-04 -0.2859E-04  0.5841E-04  0.7529E-04
      1.029  0.1422E-01  0.2368E-01  0.7996E-03  0.1407E-02  0.7996E-03  0.1407E-02  0.7996E-03  0.1407E-02  0.1016E-03  0.1975E-03  0.1016E-03  0.1975E-03  0.1280E-03  0.1355E-03  0.1016E-03  0.1975E-03  0.1280E-03  0.1355E-03
      1.210  0.5731E-01  0.6281E-01  0.3523E-02  0.3942E-02  0.3523E-02  0.3942E-02  0.3523E-02  0.3942E-02  0.6823E-03  0.5717E-03  0.6823E-03  0.5717E-03  0.3802E-03  0.3926E-03  0.6823E-03  0.5717E-03  0.3802E-03  0.3926E-03
      1.391  0.4155E-01  0.2930E-01  0.2646E-02  0.1946E-02  0.2646E-02  0.1946E-02  0.2646E-02  0.1946E-02  0.4630E-03  0.3000E-03  0.4630E-03  0.3000E-03  0.3769E-03  0.2356E-03  0.4630E-03  0.3000E-03  0.3769E-03  0.2356E-03
      1.571  0.2711E-01  0.3034E-01  0.2024E-02  0.2354E-02  0.2024E-02  0.2354E-02  0.2024E-02  0.2354E-02  0.7764E-03  0.6756E-03  0.7764E-03  0.6756E-03  0.2141E-03  0.2335E-03  0.7764E-03  0.6756E-03  0.2141E-03  0.2335E-03
      1.752  0.4249E-01  0.4393E-01  0.3454E-02  0.3732E-02  0.3454E-02  0.3732E-02  0.3454E-02  0.3732E-02  0.1133E-02  0.8013E-03  0.1133E-02  0.8013E-03  0.9669E-03  0.1008E-02  0.1133E-02  0.8013E-03  0.9669E-03  0.1008E-02
      1.933  0.3421E-01  0.2806E-01  0.2977E-02  0.2488E-02  0.2977E-02  0.2488E-02  0.2977E-02  0.2488E-02  0.6071E-03  0.3689E-03  0.6071E-03  0.3689E-03  0.1377E-02  0.9307E-03  0.6071E-03  0.3689E-03  0.1377E-02  0.9307E-03
      2.114  0.4322E-02  0.3364E-02  0.4072E-03  0.3504E-03  0.4072E-03  0.3504E-03  0.4072E-03  0.3504E-03 -0.1443E-05  0.5850E-04 -0.1443E-05  0.5850E-04  0.7656E-04 -0.1967E-04 -0.1443E-05  0.5850E-04  0.7656E-04 -0.1967E-04
      2.294  0.3606E-01  0.3692E-01  0.3990E-02  0.4223E-02  0.3990E-02  0.4223E-02  0.3990E-02  0.4223E-02  0.2515E-02  0.1780E-02  0.2515E-02  0.1780E-02  0.9631E-03  0.9141E-03  0.2515E-02  0.1780E-02  0.9631E-03  0.9141E-03
      2.475  0.8856E-01  0.8957E-01  0.9878E-02  0.1035E-01  0.9878E-02  0.1035E-01  0.9878E-02  0.1035E-01  0.6669E-02  0.4906E-02  0.6669E-02  0.4906E-02  0.3404E-02  0.2850E-02  0.6669E-02  0.4906E-02  0.3404E-02  0.2850E-02
      2.656  0.4041E-01  0.3610E-01  0.4785E-02  0.4412E-02  0.4785E-02  0.4412E-02  0.4785E-02  0.4412E-02  0.3220E-02  0.1674E-02  0.3220E-02  0.1674E-02  0.3194E-02  0.2282E-02  0.3220E-02  0.1674E-02  0.3194E-02  0.2282E-02
      2.837  0.5107E-01  0.4060E-01  0.6311E-02  0.5468E-02  0.6311E-02  0.5468E-02  0.6311E-02  0.5468E-02  0.8102E-02  0.3454E-02  0.8102E-02  0.3454E-02  0.5325E-02  0.3894E-02  0.8102E-02  0.3454E-02  0.5325E-02  0.3894E-02
      3.017  0.3670E-01  0.4827E-01  0.4640E-02  0.6346E-02  0.4640E-02  0.6346E-02  0.4640E-02  0.6346E-02  0.5751E-02  0.6318E-02  0.5751E-02  0.6318E-02  0.4109E-02  0.3324E-02  0.5751E-02  0.6318E-02  0.4109E-02  0.3324E-02
      3.198  0.2334E-01  0.1854E-01  0.3284E-02  0.2538E-02  0.3284E-02  0.2538E-02  0.3284E-02  0.2538E-02  0.5791E-02  0.2027E-02  0.5791E-02  0.2027E-02  0.8057E-02  0.3222E-02  0.5791E-02  0.2027E-02  0.8057E-02  0.3222E-02
      3.379  0.8577E-01  0.3064E-01  0.1122E-01  0.5448E-02  0.1122E-01  0.5448E-02  0.1122E-01  0.5448E-02  0.4673E-01  0.2935E-02  0.4673E-01  0.2935E-02  0.1097E-01  0.9228E-02  0.4673E-01  0.2935E-02  0.1097E-01  0.9228E-02
      3.560  0.9414E-01  0.8200E-01  0.1306E-01  0.1335E-01  0.1306E-01  0.1335E-01  0.1306E-01  0.1335E-01  0.5542E-01  0.2431E-01  0.5542E-01  0.2431E-01  0.3329E-01  0.8027E-02  0.5542E-01  0.2431E-01  0.3329E-01  0.8027E-02
      3.740  0.7719E-01  0.8674E-01  0.1190E-01  0.1327E-01  0.1190E-01  0.1327E-01  0.1190E-01  0.1327E-01  0.5124E-01  0.3600E-01  0.5124E-01  0.3600E-01  0.1052E+00  0.1568E-01  0.5124E-01  0.3600E-01  0.1052E+00  0.1568E-01
      3.921  0.5392E-01  0.6619E-01  0.7525E-02  0.1041E-01  0.7525E-02  0.1041E-01  0.7525E-02  0.1041E-01  0.7025E-01  0.3018E-01  0.7025E-01  0.3018E-01  0.1066E+00  0.5167E-01  0.7025E-01  0.3018E-01  0.1066E+00  0.5167E-01
      4.102  0.4777E-01  0.5246E-01  0.1112E-01  0.7400E-02  0.1112E-01  0.7400E-02  0.1112E-01  0.7400E-02  0.1414E+00  0.3455E-01  0.1414E+00  0.3455E-01  0.1250E+00  0.8197E-01  0.1414E+00  0.3455E-01  0.1250E+00  0.8197E-01
      4.283  0.4765E-01  0.5205E-01  0.1557E-01  0.8282E-02  0.1557E-01  0.8282E-02  0.1557E-01  0.8282E-02  0.2376E+00  0.5381E-01  0.2376E+00  0.5381E-01  0.1365E+00  0.8474E-01  0.2376E+00  0.5381E-01  0.1365E+00  0.8474E-01
      4.463  0.1350E-01  0.6354E-01  0.1396E-01  0.1650E-01  0.1396E-01  0.1650E-01  0.1396E-01  0.1650E-01  0.2142E+00  0.6136E-01  0.2142E+00  0.6136E-01  0.1397E+00  0.1271E+00  0.2142E+00  0.6136E-01  0.1397E+00  0.1271E+00
      4.644  0.4634E-02  0.4043E-01  0.1543E-01  0.1241E-01  0.1543E-01  0.1241E-01  0.1543E-01  0.1241E-01  0.2041E+00  0.1030E+00  0.2041E+00  0.1030E+00  0.1396E+00  0.1195E+00  0.2041E+00  0.1030E+00  0.1396E+00  0.1195E+00
      4.825  0.2586E-02  0.1989E-01  0.1545E-01  0.1253E-01  0.1545E-01  0.1253E-01  0.1545E-01  0.1253E-01  0.1892E+00  0.1839E+00  0.1892E+00  0.1839E+00  0.1636E+00  0.1346E+00  0.1892E+00  0.1839E+00  0.1636E+00  0.1346E+00
      5.006  0.7854E-02  0.8625E-02  0.2101E-01  0.1602E-01  0.2101E-01  0.1602E-01  0.2101E-01  0.1602E-01  0.2917E+00  0.2097E+00  0.2917E+00  0.2097E+00  0.1527E+00  0.9593E-01  0.2917E+00  0.2097E+00  0.1527E+00  0.9593E-01
      5.186  0.1259E-01  0.4458E-02  0.2245E-01  0.1709E-01  0.2245E-01  0.1709E-01  0.2245E-01  0.1709E-01  0.3257E+00  0.2022E+00  0.3257E+00  0.2022E+00  0.1818E+00  0.1362E+00  0.3257E+00  0.2022E+00  0.1818E+00  0.1362E+00
      5.367  0.1106E-01  0.2135E-02  0.1961E-01  0.1522E-01  0.1961E-01  0.1522E-01  0.1961E-01  0.1522E-01  0.3472E+00  0.1785E+00  0.3472E+00  0.1785E+00  0.2462E+00  0.1166E+00  0.3472E+00  0.1785E+00  0.2462E+00  0.1166E+00
      5.548  0.1011E-01  0.4989E-02  0.1950E-01  0.2322E-01  0.1950E-01  0.2322E-01  0.1950E-01  0.2322E-01  0.4334E+00  0.2664E+00  0.4334E+00  0.2664E+00  0.2937E+00  0.1366E+00  0.4334E+00  0.2664E+00  0.2937E+00  0.1366E+00
      5.729  0.1471E-01  0.8845E-02  0.1865E-01  0.2353E-01  0.1865E-01  0.2353E-01  0.1865E-01  0.2353E-01  0.3697E+00  0.3089E+00  0.3697E+00  0.3089E+00  0.2571E+00  0.1342E+00  0.3697E+00  0.3089E+00  0.2571E+00  0.1342E+00
      5.909  0.1012E-01  0.1168E-01  0.1209E-01  0.2428E-01  0.1209E-01  0.2428E-01  0.1209E-01  0.2428E-01  0.2198E+00  0.3138E+00  0.2198E+00  0.3138E+00  0.2311E+00  0.2077E+00  0.2198E+00  0.3138E+00  0.2311E+00  0.2077E+00