    1    1    1    2
  0.1266325E+02  0.2616295E-09  0.2616295E-09  0.2616295E-09  0.5000000E-15
  1.000000000000000E-004
  CAR 
 fcc Ni                                  
     10     56     12
 
  0.0000000E+00  0.0000000E+00  0.0000000E+00  0.7513148E-03
      1         -0.601947       -0.663320   1.000000   1.000000
      2          5.331504        6.026690   1.000000   1.000000
      3          5.331516        6.026697   1.000000   1.000000
      4          5.331516        6.026697   1.000000   1.000000
      5          6.269736        6.853647   1.000000   1.000646
      6          6.269736        6.853647   1.000000   1.000646
      7         29.838552       29.642496   0.000000   0.000000
      8         32.533326       32.514087   0.000000   0.000000
      9         32.533403       32.514150   0.000000   0.000000
     10         32.533403       32.514150   0.000000   0.000000
     11         35.197853       35.239070   0.000000   0.000000
     12         35.197891       35.239144   0.000000   0.000000
 
  0.9090909E-01  0.1365189E-17  0.1365189E-17  0.6010518E-02
      1         -0.313863       -0.374913   1.000000   1.000000
      2          5.271872        5.957502   1.000000   1.000000
      3          5.389181        6.085980   1.000000   1.000000
      4          5.389197        6.085993   1.000000   1.000000
      5          6.251311        6.833878   1.000000   1.000399
      6          6.251312        6.833881   1.000000   1.000399
      7         28.050923       28.007620   0.000000   0.000000
      8         30.684914       30.569733   0.000000   0.000000
      9         31.860438       31.872706   0.000000   0.000000
     10         31.860510       31.872779   0.000000   0.000000
     11         36.294132       36.289434   0.000000   0.000000
     12         36.294168       36.289460   0.000000   0.000000
 
  0.1818182E+00  0.5852880E-17  0.5852880E-17  0.6010518E-02
      1          0.518406        0.462002   1.000000   1.000000
      2          5.136283        5.791637   1.000000   1.000000
      3          5.494284        6.180903   1.000000   1.000000
      4          5.494310        6.180932   1.000000   1.000000
      5          6.243412        6.839543   1.000000   1.000460
      6          6.243417        6.839556   1.000000   1.000460
      7         23.629618       23.675558   0.000000   0.000000
      8         30.229881       30.078159   0.000000   0.000000
      9         30.897333       30.939647   0.000000   0.000000
     10         30.897391       30.939719   0.000000   0.000000
     11         36.573393       36.483926   0.000000   0.000000
     12         37.194282       37.138771   0.000000   0.000000
 
  0.2727273E+00  0.7995924E-18  0.7995924E-18  0.6010518E-02
      1          1.748490        1.727440   1.000000   1.000000
      2          5.110971        5.688202   1.000000   1.000000
      3          5.508623        6.152821   1.000000   1.000000
      4          5.508657        6.152860   1.000000   1.000000
      5          6.370477        7.015815   1.000000   1.013842
      6          6.370481        7.015830   1.000000   1.013844
      7         19.324529       19.426270   0.000000   0.000000
      8         29.592112       29.430760   0.000000   0.000000
      9         30.177690       30.237420   0.000000   0.000000
     10         30.177708       30.237467   0.000000   0.000000
     11         35.288304       35.281411   0.000000   0.000000
     12         35.288405       35.281512   0.000000   0.000000
 
  0.3636364E+00 -0.4253695E-17 -0.4253695E-17  0.6010518E-02
      1          2.875893        3.029145   1.000000   1.000000
      2          5.431687        6.001412   1.000000   1.000000
      3          5.431723        6.043043   1.000000   1.000000
      4          5.670274        6.043083   1.000000   1.000000
      5          6.601455        7.287574   1.000000   0.845419
      6          6.601473        7.287580   1.000000   0.845402
      7         15.496602       15.673794   0.000000   0.000000
      8         28.894951       28.722003   0.000000   0.000000
      9         29.747839       29.812625   0.000000   0.000000
     10         29.747896       29.812637   0.000000   0.000000
     11         33.629078       33.628062   0.000000   0.000000
     12         33.629307       33.628282   0.000000   0.000000
 
  0.4545455E+00 -0.1902143E-16  0.8734141E-17  0.6010518E-02
      1          3.300768        3.668374   1.000000   1.000000
      2          5.369188        5.965957   1.000000   1.000000
      3          5.369220        5.965994   1.000000   1.000000
      4          6.764736        7.020143   1.000062   1.014667
      5          6.764765        7.471282   1.000063   0.151597
      6          7.038768        7.471298   1.018514   0.151551
      7         12.615930       12.928801  -0.000000   0.000000
      8         28.470404       28.290458   0.000000   0.000000
      9         29.561062       29.623468   0.000000   0.000000
     10         29.561201       29.623547   0.000000   0.000000
     11         32.745003       32.745190   0.000000   0.000000
     12         32.745306       32.745470   0.000000   0.000000
 
  0.9090909E-01  0.9090909E-01 -0.1281330E-19  0.4507889E-02
      1         -0.218279       -0.279300   1.000000   1.000000
      2          5.217117        5.900980   1.000000   1.000000
      3          5.430413        6.128780   1.000000   1.000000
      4          5.430421        6.128784   1.000000   1.000000
      5          6.166486        6.742055   1.000000   1.000032
      6          6.315515        6.901013   1.000000   1.001870
      7         28.920194       28.794899   0.000000   0.000000
      8         30.048253       30.078731   0.000000   0.000000
      9         30.048293       30.078772   0.000000   0.000000
     10         31.176072       31.115852   0.000000   0.000000
     11         37.000159       36.979647   0.000000   0.000000
     12         37.457779       37.556509   0.000000   0.000000
 
  0.1818182E+00  0.9090909E-01  0.3967274E-17  0.1803156E-01
      1          0.432218        0.373818   1.000000   1.000000
      2          5.076991        5.742579   1.000000   1.000000
      3          5.537079        6.228398   1.000000   1.000000
      4          5.545520        6.241764   1.000000   1.000000
      5          6.082587        6.660897   1.000000   1.000002
      6          6.357260        6.951312   1.000000   1.004991
      7         25.323714       25.349398   0.000000   0.000000
      8         28.644079       28.687616   0.000000   0.000000
      9         29.125383       29.041410   0.000000   0.000000
     10         32.199950       32.124974   0.000000   0.000000
     11         34.579173       34.690616   0.000000   0.000000
     12         37.205911       37.210518   0.000000   0.000000
 
  0.2727273E+00  0.9090909E-01  0.6893714E-17  0.1803156E-01
      1          1.541777        1.503314   1.000000   1.000000
      2          4.963234        5.585607   1.000000   1.000000
      3          5.531857        6.161515   1.000000   1.000000
      4          5.608949        6.274051   1.000000   1.000000
      5          6.223067        6.854740   1.000000   1.000663
      6          6.467834        7.100822   1.000000   1.032114
      7         20.917258       20.995922   0.000000   0.000000
      8         27.719081       27.768900   0.000000   0.000000
      9         28.515673       28.424026   0.000000   0.000000
     10         31.460524       31.508077   0.000000   0.000000
     11         34.650744       34.616205   0.000000   0.000000
     12         36.977338       36.979861   0.000000   0.000000
 
  0.3636364E+00  0.9090909E-01  0.7995924E-18  0.1803156E-01
      1          2.763462        2.841068   1.000000   1.000000
      2          5.134686        5.625365   1.000000   1.000000
      3          5.398555        6.000753   1.000000   1.000000
      4          5.562129        6.189557   1.000000   1.000000
      5          6.654923        7.307618   1.000002   0.781502
      6          6.680331        7.333451   1.000005   0.686998
      7         16.890903       17.030103   0.000000   0.000000
      8         27.310091       27.359795   0.000000   0.000000
      9         27.858437       27.750531   0.000000   0.000000
     10         29.561567       29.639885   0.000000   0.000000
     11         35.126055       35.064852   0.000000   0.000000
     12         36.655709       36.647007   0.000000   0.000000
 
  0.4545455E+00  0.9090909E-01  0.1378743E-16  0.1803156E-01
      1          3.391027        3.720974   1.000000   1.000000
      2          5.283708        5.822162   1.000000   1.000000
      3          5.482934        6.088321   1.000000   1.000000
      4          5.798115        6.207402   1.000000   1.000000
      5          6.786268        7.490944   1.000115   0.098687
      6          7.596822        8.023607  -0.032096  -0.000025
      7         13.538973       13.782884   0.000000   0.000000
      8         26.931724       26.867991   0.000000   0.000000
      9         27.474786       27.522907   0.000000   0.000000
     10         28.641246       28.657994   0.000000   0.000000
     11         34.953299       34.905630   0.000000   0.000000
     12         35.196869       35.200749   0.000000   0.000000
 
 -0.4545455E+00  0.9090909E-01 -0.1599185E-17  0.1803156E-01
      1          3.487495        3.891481   1.000000   1.000000
      2          5.262797        5.818527   1.000000   1.000000
      3          5.450163        6.046886   1.000000   1.000000
      4          6.085601        6.499997   1.000000   1.000000
      5          6.752726        7.463092   1.000044   0.176412
      6          8.316468        8.557637  -0.000000  -0.000000
      7         12.221555       12.562389  -0.000000  -0.000000
      8         26.008841       25.994949   0.000000   0.000000
      9         28.282428       28.332980   0.000000   0.000000
     10         28.662803       28.612689   0.000000   0.000000
     11         34.206216       34.215871   0.000000   0.000000
     12         34.973569       34.937842   0.000000   0.000000
 
 -0.3636364E+00  0.9090909E-01  0.1138865E-16  0.1803156E-01
      1          3.272001        3.524397   1.000000   1.000000
      2          5.331298        5.889046   1.000000   1.000000
      3          5.489205        6.025512   1.000000   1.000000
      4          5.635389        6.090512   1.000000   1.000000
      5          6.551422        7.247863   1.000000   0.943285
      6          7.346442        7.900618   0.635443  -0.000704
      7         14.554860       14.756650   0.000000   0.000000
      8         25.527493       25.537013   0.000000   0.000000
      9         29.319477       29.237421   0.000000   0.000000
     10         29.742457       29.803621   0.000000   0.000000
     11         33.683838       33.691319   0.000000   0.000000
     12         35.075568       35.043931   0.000000   0.000000
 
 -0.2727273E+00  0.9090909E-01  0.4253695E-17  0.1803156E-01
      1          2.391227        2.408698   1.000000   1.000000
      2          5.055123        5.609695   1.000000   1.000000
      3          5.452357        6.060541   1.000000   1.000000
      4          5.578461        6.204147   1.000000   1.000000
      5          6.266073        6.927484   1.000000   1.003196
      6          6.775288        7.426902   1.000084   0.303312
      7         18.185014       18.302352   0.000000   0.000000
      8         25.545461       25.565797   0.000000   0.000000
      9         30.502793       30.407663   0.000000   0.000000
     10         31.780899       31.864663   0.000000   0.000000
     11         33.625119       33.613553   0.000000   0.000000
     12         34.843608       34.794432   0.000000   0.000000
 
 -0.1818182E+00  0.9090909E-01 -0.7995924E-18  0.1803156E-01
      1          1.133884        1.084597   1.000000   1.000000
      2          5.019858        5.661662   1.000000   1.000000
      3          5.527472        6.178848   1.000000   1.000000
      4          5.599347        6.286546   1.000000   1.000000
      5          6.090046        6.682500   1.000000   1.000005
      6          6.464279        7.092331   1.000000   1.030508
      7         22.359703       22.421951   0.000000   0.000000
      8         26.049073       26.067772   0.000000   0.000000
      9         31.870827       31.768601   0.000000   0.000000
     10         33.613875       33.664526   0.000000   0.000000
     11         34.271136       34.192234   0.000000   0.000000
     12         34.614835       34.621971   0.000000   0.000000
 
 -0.9090909E-01  0.9090909E-01 -0.2730378E-17  0.9015778E-02
      1          0.156398        0.096713   1.000000   1.000000
      2          5.164457        5.837151   1.000000   1.000000
      3          5.470968        6.169251   1.000000   1.000000
      4          5.481046        6.174132   1.000000   1.000000
      5          6.147973        6.722046   1.000000   1.000017
      6          6.316930        6.910599   1.000000   1.002281
      7         26.520640       26.519378   0.000000   0.000000
      8         27.330754       27.344096   0.000000   0.000000
      9         31.910376       31.809390   0.000000   0.000000
     10         33.637300       33.622841   0.000000   0.000000
     11         35.010111       34.927492   0.000000   0.000000
     12         35.605079       35.633822   0.000000   0.000000
 
  0.1818182E+00  0.1818182E+00 -0.6270631E-17  0.4507889E-02
      1          0.881327        0.825484   1.000000   1.000000
      2          4.907334        5.563468   1.000000   1.000000
      3          5.703556        6.413658   1.000000   1.000000
      4          5.703562        6.413661   1.000000   1.000000
      5          5.912218        6.460585   1.000000   1.000000
      6          6.432199        7.022830   1.000000   1.015194
      7         26.887490       26.931538   0.000000   0.000000
      8         26.887527       26.931581   0.000000   0.000000
      9         27.498009       27.456728   0.000000   0.000000
     10         28.799564       28.702682   0.000000   0.000000
     11         32.172318       32.345223   0.000000   0.000000
     12         40.828250       40.756006   0.000000   0.000000
 
  0.2727273E+00  0.1818182E+00  0.1885606E-17  0.1803156E-01
      1          1.794367        1.755999   1.000000   1.000000
      2          4.732478        5.367223   1.000000   1.000000
      3          5.616839        6.199946   1.000000   1.000000
      4          5.841327        6.537979   1.000000   1.000000
      5          6.138427        6.791276   1.000000   1.000131
      6          6.533040        7.148710   1.000000   1.034535
      7         22.883528       22.936652   0.000000   0.000000
      8         25.674214       25.716414   0.000000   0.000000
      9         27.132791       27.074371   0.000000   0.000000
     10         28.448090       28.475988   0.000000   0.000000
     11         31.699184       31.802187   0.000000   0.000000
     12         40.468672       40.369386   0.000000   0.000000
 
  0.3636364E+00  0.1818182E+00  0.3771212E-17  0.1803156E-01
      1          2.927008        2.970631   1.000000   1.000000
      2          4.672300        5.255178   1.000000   1.000000
      3          5.388895        5.957763   1.000000   1.000000
      4          5.849171        6.502643   1.000000   1.000000
      5          6.697936        7.366671   1.000008   0.551729
      6          6.822021        7.424820   1.000296   0.311344
      7         18.737076       18.834295   0.000000   0.000000
      8         25.064649       25.103037   0.000000   0.000000
      9         25.404428       25.398592   0.000000   0.000000
     10         27.890167       27.928443   0.000000   0.000000
     11         34.475714       34.513452   0.000000   0.000000
     12         39.545637       39.449810   0.000000   0.000000
 
  0.4545455E+00  0.1818182E+00  0.7995924E-18  0.1803156E-01
      1          3.681009        3.968964   1.000000   1.000000
      2          4.867613        5.310988   1.000000   1.000000
      3          5.293751        5.872075   1.000000   1.000000
      4          5.778997        6.400496   1.000000   1.000000
      5          6.812005        7.516159   1.000229   0.045041
      6          8.088439        8.521908  -0.000003  -0.000000
      7         15.055622       15.219147   0.000000   0.000000
      8         23.665747       23.692643   0.000000   0.000000
      9         25.119934       25.156263   0.000000   0.000000
     10         27.702234       27.710383   0.000000   0.000000
     11         37.823991       37.818112   0.000000   0.000000
     12         38.602422       38.590443   0.000000   0.000000
 
 -0.4545455E+00  0.1818182E+00  0.1316855E-16  0.1803156E-01
      1          3.873540        4.316731   1.000000   1.000000
      2          4.971610        5.399336   1.000000   1.000000
      3          5.460704        6.002346   1.000000   1.000000
      4          5.718676        6.321136   1.000000   1.000000
      5          6.757480        7.474941   1.000051   0.141027
      6          9.725533        9.938955  -0.000000  -0.000000
      7         12.473589       12.766198  -0.000000  -0.000000
      8         22.351525       22.394335   0.000000   0.000000
      9         25.878435       25.918320   0.000000   0.000000
     10         27.902626       27.881543   0.000000   0.000000
     11         37.448937       37.445752   0.000000   0.000000
     12         37.907735       37.838860   0.000000   0.000000
 
 -0.3636364E+00  0.1818182E+00 -0.1599185E-17  0.1803156E-01
      1          3.833186        4.196585   1.000000   1.000000
      2          5.069467        5.527159   1.000000   1.000000
      3          5.313634        5.833841   1.000000   1.000000
      4          5.713403        6.306926   1.000000   1.000000
      5          6.527299        7.241041   1.000000   0.956119
      6          8.796015        9.177301  -0.000000  -0.000000
      7         14.025000       14.230222   0.000000   0.000000
      8         21.553981       21.607216   0.000000   0.000000
      9         27.308610       27.357233   0.000000   0.000000
     10         28.556424       28.512005   0.000000   0.000000
     11         36.739470       36.743516   0.000000   0.000000
     12         37.203754       37.128416   0.000000   0.000000
 
 -0.2727273E+00  0.1818182E+00 -0.8734141E-17  0.1803156E-01
      1          3.316246        3.414864   1.000000   1.000000
      2          4.911625        5.474660   1.000000   1.000000
      3          5.253562        5.807664   1.000000   1.000000
      4          5.781392        6.374611   1.000000   1.000000
      5          6.194033        6.894079   1.000000   1.001614
      6          7.551202        8.141045  -0.004132  -0.000000
      7         17.485873       17.609508   0.000000   0.000000
      8         21.325772       21.385801   0.000000   0.000000
      9         29.332756       29.389346   0.000000   0.000000
     10         29.734571       29.674503   0.000000   0.000000
     11         36.021097       35.922510   0.000000   0.000000
     12         36.518325       36.528219   0.000000   0.000000
 
 -0.1818182E+00  0.1818182E+00 -0.1170576E-16  0.9015778E-02
      1          2.182551        2.159849   1.000000   1.000000
      2          4.872768        5.498142   1.000000   1.000000
      3          5.440936        6.039468   1.000000   1.000000
      4          5.827801        6.501215   1.000000   1.000000
      5          5.942465        6.552480   1.000000   1.000000
      6          6.869983        7.517112   1.000946   0.043325
      7         21.240391       21.327435   0.000000   0.000000
      8         21.922351       21.969597   0.000000   0.000000
      9         31.381130       31.311717   0.000000   0.000000
     10         31.826830       31.881553   0.000000   0.000000
     11         34.359031       34.244220   0.000000   0.000000
     12         36.757101       36.809652   0.000000   0.000000
 
  0.2727273E+00  0.2727273E+00  0.6553509E-17  0.4507889E-02
      1          2.425061        2.418922   1.000000   1.000000
      2          4.513068        5.136153   1.000000   1.000000
      3          5.845057        6.306875   1.000000   1.000000
      4          6.109604        6.840956   1.000000   1.000476
      5          6.109611        6.840959   1.000000   1.000476
      6          6.587883        7.185382   1.000000   1.021442
      7         24.169663       24.202251   0.000000   0.000000
      8         24.169699       24.202295   0.000000   0.000000
      9         24.811306       24.808274   0.000000   0.000000
     10         26.408152       26.430692   0.000000   0.000000
     11         29.219089       29.335976   0.000000   0.000000
     12         44.581941       44.463618   0.000000   0.000000
 
  0.3636364E+00  0.2727273E+00  0.1524298E-16  0.1803156E-01
      1          3.206285        3.300253   1.000000   1.000000
      2          4.366790        4.970532   1.000000   1.000000
      3          5.753701        6.251246   1.000000   1.000000
      4          6.226284        6.918159   1.000000   1.002659
      5          6.717195        7.368493   1.000015   0.544060
      6          6.835420        7.423389   1.000415   0.316901
      7         20.897220       20.949231   0.000000   0.000000
      8         22.537262       22.586744   0.000000   0.000000
      9         23.294242       23.317332   0.000000   0.000000
     10         26.911710       26.948423   0.000000   0.000000
     11         30.225984       30.294742   0.000000   0.000000
     12         44.017145       43.970999   0.000000   0.000000
 
  0.4545455E+00  0.2727273E+00  0.5852880E-17  0.1803156E-01
      1          3.808412        4.077169   1.000000   1.000000
      2          4.370378        4.924377   1.000000   1.000000
      3          5.567703        6.101352   1.000000   1.000000
      4          6.185985        6.829404   1.000000   1.000357
      5          6.836816        7.541834   1.000430   0.006320
      6          8.365780        8.758931  -0.000000  -0.000000
      7         17.137733       17.232713   0.000000   0.000000
      8         20.559926       20.632840   0.000000   0.000000
      9         23.139774       23.158849   0.000000   0.000000
     10         27.017375       27.053751   0.000000   0.000000
     11         33.477669       33.516160   0.000000   0.000000
     12         42.347684       42.314891   0.000000   0.000000
 
 -0.4545455E+00  0.2727273E+00  0.2238518E-16  0.1803156E-01
      1          4.114754        4.565846   1.000000   1.000000
      2          4.522440        4.961493   1.000000   1.000000
      3          5.399582        5.965489   1.000000   1.000000
      4          6.106631        6.717532   1.000000   1.000015
      5          6.776971        7.507771   1.000088   0.061117
      6         10.572338       10.805935  -0.000000  -0.000000
      7         13.854106       14.020544   0.000000   0.000000
      8         19.053950       19.142502   0.000000   0.000000
      9         23.743728       23.768146   0.000000   0.000000
     10         27.206011       27.225096   0.000000   0.000000
     11         37.493872       37.516752   0.000000   0.000000
     12         40.999596       40.971954   0.000000   0.000000
 
 -0.3636364E+00  0.2727273E+00  0.3454103E-17  0.1803156E-01
      1          4.277231        4.757858   1.000000   1.000000
      2          4.705029        5.097278   1.000000   1.000000
      3          5.168770        5.740657   1.000000   1.000000
      4          6.042008        6.623437   1.000000   1.000001
      5          6.549049        7.292639   1.000000   0.830135
      6         10.760598       11.004396  -0.000000  -0.000000
      7         13.782723       13.965236   0.000000   0.000000
      8         18.095966       18.193937   0.000000   0.000000
      9         25.061223       25.097847   0.000000   0.000000
     10         27.694551       27.689751   0.000000   0.000000
     11         40.041275       40.012522   0.000000   0.000000
     12         40.191933       40.095012   0.000000   0.000000
 
 -0.2727273E+00  0.2727273E+00 -0.1599185E-17  0.9015778E-02
      1          4.116305        4.378891   1.000000   1.000000
      2          4.888449        5.448699   1.000000   1.000000
      3          4.965760        5.472080   1.000000   1.000000
      4          5.980311        6.535903   1.000000   1.000000
      5          6.275384        7.026097   1.000000   1.015848
      6          8.828684        9.262919  -0.000000  -0.000000
      7         16.682737       16.813482   0.000000   0.000000
      8         18.118181       18.209910   0.000000   0.000000
      9         26.976563       27.025195   0.000000   0.000000
     10         28.563767       28.532678   0.000000   0.000000
     11         38.303203       38.186899   0.000000   0.000000
     12         39.156620       39.120981   0.000000   0.000000
 
  0.3636364E+00  0.3636364E+00  0.1937765E-16  0.4507889E-02
      1          3.440696        3.651169   1.000000   1.000000
      2          4.164767        4.759960   1.000000   1.000000
      3          6.544719        7.145715   1.000000   1.034883
      4          6.544725        7.304615   1.000000   0.791650
      5          6.733234        7.304616   1.000025   0.791647
      6          6.953068        7.337196   1.005150   0.672366
      7         19.986073       20.069795   0.000000   0.000000
      8         22.135307       22.142389   0.000000   0.000000
      9         22.135346       22.142437   0.000000   0.000000
     10         25.731225       25.796928   0.000000   0.000000
     11         28.272466       28.363053   0.000000   0.000000
     12         48.128176       48.021080   0.000000   0.000000
 
  0.4545455E+00  0.3636364E+00  0.1472256E-16  0.1803156E-01
      1          3.659204        3.965181   1.000000   1.000000
      2          4.093562        4.676203   1.000000   1.000000
      3          6.347417        6.957479   1.000000   1.005569
      4          6.586293        7.244500   1.000000   0.949755
      5          6.845808        7.561398   1.000535  -0.013484
      6          8.583838        8.809513  -0.000000  -0.000000
      7         17.952324       18.071694   0.000000   0.000000
      8         19.563094       19.601240   0.000000   0.000000
      9         21.719292       21.717760   0.000000   0.000000
     10         26.334629       26.393334   0.000000   0.000000
     11         29.532524       29.601903   0.000000   0.000000
     12         46.223171       46.171046   0.000000   0.000000
 
 -0.4545455E+00  0.3636364E+00  0.7878628E-16  0.1803156E-01
      1          3.912643        4.286066   1.000000   1.000000
      2          4.180059        4.734887   1.000000   1.000000
      3          5.954290        6.547472   1.000000   1.000000
      4          6.507369        7.118135   1.000000   1.034592
      5          6.811727        7.568445   1.000227  -0.018802
      6         10.774382       10.935113  -0.000000  -0.000000
      7         16.168167       16.258303   0.000000   0.000000
      8         16.595014       16.738072   0.000000   0.000000
      9         22.114526       22.118404   0.000000   0.000000
     10         26.689001       26.738940   0.000000   0.000000
     11         32.998025       33.040842   0.000000   0.000000
     12         44.524871       44.466217   0.000000   0.000000
 
 -0.3636364E+00  0.3636364E+00  0.8507391E-17  0.9015778E-02
      1          4.195977        4.652650   1.000000   1.000000
      2          4.392312        4.863867   1.000000   1.000000
      3          5.490873        6.067879   1.000000   1.000000
      4          6.344538        6.919364   1.000000   1.002724
      5          6.650707        7.423741   1.000002   0.315531
      6         12.955317       13.091248   0.000000   0.000000
      7         13.245036       13.390984   0.000000   0.000000
      8         16.147513       16.304997   0.000000   0.000000
      9         23.271163       23.290855   0.000000   0.000000
     10         27.070462       27.098124   0.000000   0.000000
     11         37.331260       37.359201   0.000000   0.000000
     12         42.730493       42.667149   0.000000   0.000000
 
  0.4545455E+00  0.4545455E+00  0.2828782E-18  0.4507889E-02
      1          3.577816        3.915866   1.000000   1.000000
      2          3.963138        4.542832   1.000000   1.000000
      3          6.822259        7.430098   1.000298   0.291115
      4          6.845944        7.628738   1.000537  -0.035370
      5          6.845949        7.628739   1.000537  -0.035370
      6          9.222547        9.196834  -0.000000  -0.000000
      7         16.107862       16.285827   0.000000   0.000000
      8         21.023132       21.007314   0.000000   0.000000
      9         21.023173       21.007364   0.000000   0.000000
     10         25.417272       25.504660   0.000000   0.000000
     11         27.962654       28.054854   0.000000   0.000000
     12         48.632015       48.572428   0.000000   0.000000
 
 -0.4545455E+00  0.4545455E+00 -0.1330495E-16  0.9015778E-02
      1          3.668737        4.023335   1.000000   1.000000
      2          3.993518        4.568920   1.000000   1.000000
      3          6.584784        7.273424   1.000000   0.884818
      4          6.764579        7.367463   1.000062   0.548398
      5          6.860325        7.645277   1.000757  -0.033938
      6         10.284106       10.308163  -0.000000  -0.000000
      7         15.429148       15.636649   0.000000   0.000000
      8         19.068295       19.094222   0.000000   0.000000
      9         21.161623       21.148190   0.000000   0.000000
     10         26.161330       26.228553   0.000000   0.000000