       N       E                     dE             d eps       ncg     rms          rms(c)
DAV:   1     0.181514640249E+02    0.18151E+02   -0.30558E+03  2972   0.604E+02
DAV:   2    -0.587817504484E+01   -0.24030E+02   -0.22641E+02  2876   0.116E+02
DAV:   3    -0.632718453636E+01   -0.44901E+00   -0.44768E+00  3120   0.184E+01
DAV:   4    -0.632948143095E+01   -0.22969E-02   -0.22967E-02  3040   0.118E+00
DAV:   5    -0.632951592587E+01   -0.34495E-04   -0.34495E-04  3108   0.140E-01    0.892E+00
DAV:   6    -0.584339544605E+01    0.48612E+00   -0.17251E+01  3216   0.474E+01    0.745E+00
DAV:   7    -0.534299301558E+01    0.50040E+00   -0.37332E+00  3192   0.197E+01    0.139E+00
DAV:   8    -0.533382754943E+01    0.91655E-02   -0.10703E-02  3152   0.772E-01    0.786E-01
DAV:   9    -0.533182756834E+01    0.20000E-02   -0.12356E-03  2708   0.237E-01    0.237E-01
DAV:  10    -0.533119907187E+01    0.62850E-03   -0.15236E-03  2756   0.254E-01    0.634E-02
DAV:  11    -0.533120181088E+01   -0.27390E-05   -0.16896E-05  1520   0.348E-02
   1 F= -.53312018E+01 E0= -.53294703E+01  d E =-.519459E-02  mag=     0.5863
