PROCAR lm decomposed
# of k-points:   56         # of bands:   12         # of ions:    1

 k-point     1 :    0.00000000 0.00000000 0.00000000     weight = 0.00075131

band     1 # energy   -0.60194666 # occ.  1.00000000
 
ion      s     py     pz     px    dxy    dyz    dz2    dxz  x2-y2    tot
    1  0.620  0.000  0.000  0.000  0.000  0.000  0.000  0.000  0.000  0.620
 
band     2 # energy    5.33150425 # occ.  1.00000000
 
ion      s     py     pz     px    dxy    dyz    dz2    dxz  x2-y2    tot
    1  0.000  0.000  0.000  0.000  0.322  0.322  0.000  0.322  0.000  0.965
 
band     3 # energy    5.33151568 # occ.  1.00000000
 
ion      s     py     pz     px    dxy    dyz    dz2    dxz  x2-y2    tot
    1  0.000  0.000  0.000  0.000  0.480  0.485  0.000  0.000  0.000  0.965
 
band     4 # energy    5.33151568 # occ.  1.00000000
 
ion      s     py     pz     px    dxy    dyz    dz2    dxz  x2-y2    tot
    1  0.000  0.000  0.000  0.000  0.164  0.158  0.000  0.643  0.000  0.965
 
band     5 # energy    6.26973577 # occ.  1.00000000
 
ion      s     py     pz     px    dxy    dyz    dz2    dxz  x2-y2    tot
    1  0.000  0.000  0.000  0.000  0.000  0.000  0.248  0.000  0.736  0.984
 
band     6 # energy    6.26973578 # occ.  1.00000000
 
ion      s     py     pz     px    dxy    dyz    dz2    dxz  x2-y2    tot
    1  0.000  0.000  0.000  0.000  0.000  0.000  0.736  0.000  0.248  0.984
 
band     7 # energy   29.83855184 # occ.  0.00000000
 
ion      s     py     pz     px    dxy    dyz    dz2    dxz  x2-y2    tot
    1  0.000  0.000  0.000  0.000  0.000  0.000  0.000  0.000  0.000  0.000
 
band     8 # energy   32.53332640 # occ.  0.00000000
 
ion      s     py     pz     px    dxy    dyz    dz2    dxz  x2-y2    tot
    1  0.000  0.145  0.145  0.145  0.000  0.000  0.000  0.000  0.000  0.434
 
band     9 # energy   32.53340326 # occ.  0.00000000
 
ion      s     py     pz     px    dxy    dyz    dz2    dxz  x2-y2    tot
    1  0.000  0.285  0.061  0.089  0.000  0.000  0.000  0.000  0.000  0.434
 
band    10 # energy   32.53340327 # occ.  0.00000000
 
ion      s     py     pz     px    dxy    dyz    dz2    dxz  x2-y2    tot
    1  0.000  0.005  0.229  0.201  0.000  0.000  0.000  0.000  0.000  0.434
 
band    11 # energy   35.19785263 # occ.  0.00000000
 
ion      s     py     pz     px    dxy    dyz    dz2    dxz  x2-y2    tot
    1  0.000  0.000  0.000  0.000  0.013  0.778  0.000  0.227  0.000  1.018
 
band    12 # energy   35.19789120 # occ.  0.00000000
 
ion      s     py     pz     px    dxy    dyz    dz2    dxz  x2-y2    tot
    1  0.000  0.000  0.000  0.000  0.447  0.092  0.000  0.479  0.000  1.018
 

 k-point     2 :    0.09090909 0.00000000 0.00000000     weight = 0.00601052

band     1 # energy   -0.31386263 # occ.  1.00000000
 
ion      s     py     pz     px    dxy    dyz    dz2    dxz  x2-y2    tot
    1  0.603  0.006  0.006  0.006  0.000  0.000  0.000  0.000  0.000  0.620
 
band     2 # energy    5.27187232 # occ.  1.00000000
 
ion      s     py     pz     px    dxy    dyz    dz2    dxz  x2-y2    tot
    1  0.000  0.001  0.001  0.001  0.320  0.320  0.000  0.320  0.000  0.962
 
band     3 # energy    5.38918148 # occ.  1.00000000
 
ion      s     py     pz     px    dxy    dyz    dz2    dxz  x2-y2    tot
    1  0.000  0.000  0.000  0.000  0.642  0.160  0.004  0.160  0.000  0.967
 
band     4 # energy    5.38919722 # occ.  1.00000000
 
ion      s     py     pz     px    dxy    dyz    dz2    dxz  x2-y2    tot
    1  0.000  0.000  0.000  0.000  0.000  0.481  0.000  0.481  0.004  0.967
 
band     5 # energy    6.25131143 # occ.  1.00000000
 
ion      s     py     pz     px    dxy    dyz    dz2    dxz  x2-y2    tot
    1  0.000  0.000  0.000  0.000  0.000  0.002  0.000  0.002  0.979  0.983
 
band     6 # energy    6.25131209 # occ.  1.00000000
 
ion      s     py     pz     px    dxy    dyz    dz2    dxz  x2-y2    tot
    1  0.000  0.000  0.000  0.000  0.003  0.001  0.979  0.001  0.000  0.983
 
band     7 # energy   28.05092274 # occ.  0.00000000
 
ion      s     py     pz     px    dxy    dyz    dz2    dxz  x2-y2    tot
    1  0.014  0.059  0.059  0.059  0.092  0.092  0.000  0.092  0.000  0.468
 
band     8 # energy   30.68491392 # occ.  0.00000000
 
ion      s     py     pz     px    dxy    dyz    dz2    dxz  x2-y2    tot
    1  0.024  0.056  0.056  0.056  0.000  0.000  0.000  0.000  0.000  0.193
 
band     9 # energy   31.86043767 # occ.  0.00000000
 
ion      s     py     pz     px    dxy    dyz    dz2    dxz  x2-y2    tot
    1  0.000  0.064  0.257  0.064  0.132  0.033  0.013  0.033  0.000  0.596
 
band    10 # energy   31.86050964 # occ.  0.00000000
 
ion      s     py     pz     px    dxy    dyz    dz2    dxz  x2-y2    tot
    1  0.000  0.193  0.000  0.193  0.000  0.099  0.000  0.099  0.013  0.596
 
band    11 # energy   36.29413232 # occ.  0.00000000
 
ion      s     py     pz     px    dxy    dyz    dz2    dxz  x2-y2    tot
    1  0.000  0.006  0.023  0.006  0.489  0.120  0.013  0.129  0.000  0.786
 
band    12 # energy   36.29416787 # occ.  0.00000000
 
ion      s     py     pz     px    dxy    dyz    dz2    dxz  x2-y2    tot
    1  0.000  0.017  0.000  0.017  0.002  0.372  0.000  0.364  0.013  0.786
 

 k-point     3 :    0.18181818 0.00000000 0.00000000     weight = 0.00601052

band     1 # energy    0.51840585 # occ.  1.00000000
 
ion      s     py     pz     px    dxy    dyz    dz2    dxz  x2-y2    tot
    1  0.552  0.020  0.020  0.020  0.003  0.003  0.000  0.003  0.000  0.623
 
band     2 # energy    5.13628321 # occ.  1.00000000
 
ion      s     py     pz     px    dxy    dyz    dz2    dxz  x2-y2    tot
    1  0.002  0.004  0.004  0.004  0.310  0.310  0.000  0.310  0.000  0.946
 
band     3 # energy    5.49428435 # occ.  1.00000000
 
ion      s     py     pz     px    dxy    dyz    dz2    dxz  x2-y2    tot
    1  0.000  0.000  0.001  0.000  0.592  0.148  0.078  0.148  0.000  0.967
 
band     4 # energy    5.49431041 # occ.  1.00000000
 
ion      s     py     pz     px    dxy    dyz    dz2    dxz  x2-y2    tot
    1  0.000  0.000  0.000  0.000  0.000  0.444  0.000  0.444  0.078  0.967
 
band     5 # energy    6.24341179 # occ.  1.00000000
 
ion      s     py     pz     px    dxy    dyz    dz2    dxz  x2-y2    tot
    1  0.000  0.000  0.000  0.000  0.000  0.039  0.000  0.039  0.901  0.981
 
band     6 # energy    6.24341727 # occ.  1.00000000
 
ion      s     py     pz     px    dxy    dyz    dz2    dxz  x2-y2    tot
    1  0.000  0.000  0.000  0.000  0.053  0.013  0.901  0.013  0.000  0.981
 
band     7 # energy   23.62961818 # occ.  0.00000000
 
ion      s     py     pz     px    dxy    dyz    dz2    dxz  x2-y2    tot
    1  0.062  0.094  0.094  0.094  0.100  0.100  0.000  0.100  0.000  0.645
 
band     8 # energy   30.22988126 # occ.  0.00000000
 
ion      s     py     pz     px    dxy    dyz    dz2    dxz  x2-y2    tot
    1  0.033  0.009  0.009  0.009  0.020  0.020  0.000  0.020  0.000  0.119
 
band     9 # energy   30.89733264 # occ.  0.00000000
 
ion      s     py     pz     px    dxy    dyz    dz2    dxz  x2-y2    tot
    1  0.000  0.065  0.259  0.065  0.192  0.048  0.030  0.048  0.000  0.707
 
band    10 # energy   30.89739075 # occ.  0.00000000
 
ion      s     py     pz     px    dxy    dyz    dz2    dxz  x2-y2    tot
    1  0.000  0.194  0.000  0.195  0.000  0.144  0.000  0.144  0.030  0.707
 
band    11 # energy   36.57339328 # occ.  0.00000000
 
ion      s     py     pz     px    dxy    dyz    dz2    dxz  x2-y2    tot
    1  0.003  0.068  0.068  0.068  0.004  0.004  0.000  0.004  0.000  0.217
 
band    12 # energy   37.19428167 # occ.  0.00000000
 
ion      s     py     pz     px    dxy    dyz    dz2    dxz  x2-y2    tot
    1  0.000  0.028  0.010  0.008  0.021  0.016  0.119  0.058  0.238  0.498
 

 k-point     4 :    0.27272727 0.00000000 0.00000000     weight = 0.00601052

band     1 # energy    1.74849040 # occ.  1.00000000
 
ion      s     py     pz     px    dxy    dyz    dz2    dxz  x2-y2    tot
    1  0.458  0.035  0.035  0.035  0.027  0.027  0.000  0.027  0.000  0.645
 
band     2 # energy    5.11097105 # occ.  1.00000000
 
ion      s     py     pz     px    dxy    dyz    dz2    dxz  x2-y2    tot
    1  0.017  0.019  0.019  0.019  0.277  0.277  0.000  0.277  0.000  0.904
 
band     3 # energy    5.50862282 # occ.  1.00000000
 
ion      s     py     pz     px    dxy    dyz    dz2    dxz  x2-y2    tot
    1  0.000  0.000  0.000  0.000  0.442  0.110  0.302  0.110  0.000  0.965
 
band     4 # energy    5.50865722 # occ.  1.00000000
 
ion      s     py     pz     px    dxy    dyz    dz2    dxz  x2-y2    tot
    1  0.000  0.000  0.000  0.000  0.000  0.331  0.000  0.331  0.302  0.965
 
band     5 # energy    6.37047738 # occ.  1.00000000
 
ion      s     py     pz     px    dxy    dyz    dz2    dxz  x2-y2    tot
    1  0.000  0.000  0.000  0.000  0.000  0.154  0.000  0.154  0.672  0.981
 
band     6 # energy    6.37048061 # occ.  1.00000000
 
ion      s     py     pz     px    dxy    dyz    dz2    dxz  x2-y2    tot
    1  0.000  0.000  0.001  0.000  0.205  0.051  0.672  0.051  0.000  0.981
 
band     7 # energy   19.32452890 # occ.  0.00000000
 
ion      s     py     pz     px    dxy    dyz    dz2    dxz  x2-y2    tot
    1  0.131  0.096  0.096  0.096  0.092  0.092  0.000  0.092  0.000  0.695
 
band     8 # energy   29.59211153 # occ.  0.00000000
 
ion      s     py     pz     px    dxy    dyz    dz2    dxz  x2-y2    tot
    1  0.023  0.000  0.000  0.000  0.023  0.023  0.000  0.023  0.000  0.094
 
band     9 # energy   30.17768999 # occ.  0.00000000
 
ion      s     py     pz     px    dxy    dyz    dz2    dxz  x2-y2    tot
    1  0.000  0.074  0.296  0.074  0.170  0.043  0.038  0.043  0.000  0.737
 
band    10 # energy   30.17770831 # occ.  0.00000000
 
ion      s     py     pz     px    dxy    dyz    dz2    dxz  x2-y2    tot
    1  0.000  0.222  0.000  0.222  0.000  0.128  0.000  0.128  0.038  0.737
 
band    11 # energy   35.28830424 # occ.  0.00000000
 
ion      s     py     pz     px    dxy    dyz    dz2    dxz  x2-y2    tot
    1  0.000  0.022  0.090  0.022  0.017  0.004  0.510  0.004  0.000  0.671
 
band    12 # energy   35.28840535 # occ.  0.00000000
 
ion      s     py     pz     px    dxy    dyz    dz2    dxz  x2-y2    tot
    1  0.000  0.068  0.000  0.068  0.000  0.013  0.000  0.013  0.510  0.671
 

 k-point     5 :    0.36363636-0.00000000-0.00000000     weight = 0.00601052

band     1 # energy    2.87589272 # occ.  1.00000000
 
ion      s     py     pz     px    dxy    dyz    dz2    dxz  x2-y2    tot
    1  0.290  0.024  0.024  0.024  0.127  0.127  0.000  0.127  0.000  0.744
 
band     2 # energy    5.43168733 # occ.  1.00000000
 
ion      s     py     pz     px    dxy    dyz    dz2    dxz  x2-y2    tot
    1  0.000  0.000  0.000  0.000  0.330  0.082  0.467  0.082  0.000  0.962
 
band     3 # energy    5.43172290 # occ.  1.00000000
 
ion      s     py     pz     px    dxy    dyz    dz2    dxz  x2-y2    tot
    1  0.000  0.000  0.000  0.000  0.000  0.247  0.000  0.247  0.467  0.962
 
band     4 # energy    5.67027447 # occ.  1.00000000
 
ion      s     py     pz     px    dxy    dyz    dz2    dxz  x2-y2    tot
    1  0.073  0.074  0.074  0.074  0.159  0.159  0.000  0.159  0.000  0.772
 
band     5 # energy    6.60145481 # occ.  1.00000028
 
ion      s     py     pz     px    dxy    dyz    dz2    dxz  x2-y2    tot
    1  0.000  0.000  0.000  0.000  0.321  0.080  0.505  0.080  0.000  0.987
 
band     6 # energy    6.60147336 # occ.  1.00000028
 
ion      s     py     pz     px    dxy    dyz    dz2    dxz  x2-y2    tot
    1  0.000  0.000  0.000  0.000  0.000  0.241  0.000  0.241  0.505  0.987
 
band     7 # energy   15.49660214 # occ.  0.00000000
 
ion      s     py     pz     px    dxy    dyz    dz2    dxz  x2-y2    tot
    1  0.232  0.076  0.076  0.076  0.093  0.093  0.000  0.093  0.000  0.738
 
band     8 # energy   28.89495114 # occ.  0.00000000
 
ion      s     py     pz     px    dxy    dyz    dz2    dxz  x2-y2    tot
    1  0.009  0.005  0.005  0.005  0.010  0.010  0.000  0.010  0.000  0.053
 
band     9 # energy   29.74783903 # occ.  0.00000000
 
ion      s     py     pz     px    dxy    dyz    dz2    dxz  x2-y2    tot
    1  0.000  0.268  0.000  0.268  0.000  0.071  0.000  0.071  0.026  0.704
 
band    10 # energy   29.74789588 # occ.  0.00000000
 
ion      s     py     pz     px    dxy    dyz    dz2    dxz  x2-y2    tot
    1  0.000  0.089  0.357  0.089  0.094  0.024  0.026  0.024  0.000  0.704
 
band    11 # energy   33.62907804 # occ.  0.00000000
 
ion      s     py     pz     px    dxy    dyz    dz2    dxz  x2-y2    tot
    1  0.000  0.014  0.056  0.014  0.095  0.024  0.533  0.024  0.000  0.760
 
band    12 # energy   33.62930742 # occ.  0.00000000
 
ion      s     py     pz     px    dxy    dyz    dz2    dxz  x2-y2    tot
    1  0.000  0.042  0.000  0.042  0.000  0.071  0.000  0.071  0.533  0.760
 

 k-point     6 :    0.45454545-0.00000000 0.00000000     weight = 0.00601052

band     1 # energy    3.30076843 # occ.  1.00000000
 
ion      s     py     pz     px    dxy    dyz    dz2    dxz  x2-y2    tot
    1  0.164  0.002  0.002  0.002  0.223  0.223  0.000  0.223  0.000  0.841
 
band     2 # energy    5.36918775 # occ.  1.00000000
 
ion      s     py     pz     px    dxy    dyz    dz2    dxz  x2-y2    tot
    1  0.000  0.000  0.000  0.000  0.287  0.072  0.530  0.072  0.000  0.961
 
band     3 # energy    5.36922011 # occ.  1.00000000
 
ion      s     py     pz     px    dxy    dyz    dz2    dxz  x2-y2    tot
    1  0.000  0.000  0.000  0.000  0.000  0.215  0.000  0.215  0.530  0.961
 
band     4 # energy    6.76473575 # occ.  1.00006247
 
ion      s     py     pz     px    dxy    dyz    dz2    dxz  x2-y2    tot
    1  0.000  0.000  0.000  0.000  0.367  0.092  0.440  0.092  0.000  0.991
 
band     5 # energy    6.76476537 # occ.  1.00006253
 
ion      s     py     pz     px    dxy    dyz    dz2    dxz  x2-y2    tot
    1  0.000  0.000  0.000  0.000  0.000  0.275  0.000  0.275  0.440  0.991
 
band     6 # energy    7.03876766 # occ.  1.01851397
 
ion      s     py     pz     px    dxy    dyz    dz2    dxz  x2-y2    tot
    1  0.039  0.163  0.163  0.163  0.026  0.026  0.000  0.026  0.000  0.605
 
band     7 # energy   12.61592985 # occ. -0.00000000
 
ion      s     py     pz     px    dxy    dyz    dz2    dxz  x2-y2    tot
    1  0.386  0.022  0.022  0.022  0.120  0.120  0.000  0.120  0.000  0.812
 
band     8 # energy   28.47040428 # occ.  0.00000000
 
ion      s     py     pz     px    dxy    dyz    dz2    dxz  x2-y2    tot
    1  0.001  0.008  0.008  0.008  0.001  0.001  0.000  0.001  0.000  0.029
 
band     9 # energy   29.56106235 # occ.  0.00000000
 
ion      s     py     pz     px    dxy    dyz    dz2    dxz  x2-y2    tot
    1  0.000  0.313  0.000  0.313  0.000  0.010  0.000  0.010  0.004  0.650
 
band    10 # energy   29.56120117 # occ.  0.00000000
 
ion      s     py     pz     px    dxy    dyz    dz2    dxz  x2-y2    tot
    1  0.000  0.104  0.417  0.104  0.013  0.003  0.004  0.003  0.000  0.650
 
band    11 # energy   32.74500313 # occ.  0.00000000
 
ion      s     py     pz     px    dxy    dyz    dz2    dxz  x2-y2    tot
    1  0.000  0.002  0.008  0.002  0.170  0.042  0.552  0.042  0.000  0.819
 
band    12 # energy   32.74530561 # occ.  0.00000000
 
ion      s     py     pz     px    dxy    dyz    dz2    dxz  x2-y2    tot
    1  0.000  0.006  0.000  0.006  0.000  0.127  0.000  0.127  0.552  0.819
 

 k-point     7 :    0.09090909 0.09090909-0.00000000     weight = 0.00450789

band     1 # energy   -0.21827862 # occ.  1.00000000
 
ion      s     py     pz     px    dxy    dyz    dz2    dxz  x2-y2    tot
    1  0.597  0.022  0.000  0.000  0.000  0.000  0.000  0.000  0.001  0.620
 
band     2 # energy    5.21711738 # occ.  1.00000000
 
ion      s     py     pz     px    dxy    dyz    dz2    dxz  x2-y2    tot
    1  0.000  0.000  0.000  0.000  0.000  0.000  0.000  0.962  0.000  0.962
 
band     3 # energy    5.43041343 # occ.  1.00000000
 
ion      s     py     pz     px    dxy    dyz    dz2    dxz  x2-y2    tot
    1  0.000  0.000  0.001  0.001  0.483  0.483  0.000  0.000  0.000  0.967
 
band     4 # energy    5.43042084 # occ.  1.00000000
 
ion      s     py     pz     px    dxy    dyz    dz2    dxz  x2-y2    tot
    1  0.000  0.000  0.001  0.001  0.483  0.483  0.000  0.000  0.000  0.967
 
band     5 # energy    6.16648558 # occ.  1.00000000
 
ion      s     py     pz     px    dxy    dyz    dz2    dxz  x2-y2    tot
    1  0.000  0.000  0.000  0.000  0.000  0.000  0.245  0.000  0.735  0.980
 
band     6 # energy    6.31551466 # occ.  1.00000000
 
ion      s     py     pz     px    dxy    dyz    dz2    dxz  x2-y2    tot
    1  0.000  0.000  0.000  0.000  0.000  0.000  0.739  0.000  0.246  0.985
 
band     7 # energy   28.92019354 # occ.  0.00000000
 
ion      s     py     pz     px    dxy    dyz    dz2    dxz  x2-y2    tot
    1  0.000  0.000  0.000  0.000  0.000  0.000  0.000  0.248  0.000  0.248
 
band     8 # energy   30.04825275 # occ.  0.00000000
 
ion      s     py     pz     px    dxy    dyz    dz2    dxz  x2-y2    tot
    1  0.000  0.000  0.199  0.199  0.133  0.133  0.000  0.000  0.000  0.664
 
band     9 # energy   30.04829305 # occ.  0.00000000
 
ion      s     py     pz     px    dxy    dyz    dz2    dxz  x2-y2    tot
    1  0.000  0.000  0.199  0.199  0.133  0.133  0.000  0.000  0.000  0.664
 
band    10 # energy   31.17607202 # occ.  0.00000000
 
ion      s     py     pz     px    dxy    dyz    dz2    dxz  x2-y2    tot
    1  0.057  0.238  0.000  0.000  0.000  0.000  0.013  0.000  0.040  0.347
 
band    11 # energy   37.00015861 # occ.  0.00000000
 
ion      s     py     pz     px    dxy    dyz    dz2    dxz  x2-y2    tot
    1  0.000  0.000  0.000  0.000  0.000  0.000  0.000  0.750  0.000  0.750
 
band    12 # energy   37.45777915 # occ.  0.00000000
 
ion      s     py     pz     px    dxy    dyz    dz2    dxz  x2-y2    tot
    1  0.010  0.516  0.000  0.000  0.000  0.000  0.046  0.000  0.138  0.710
 

 k-point     8 :    0.18181818 0.09090909 0.00000000     weight = 0.01803156

band     1 # energy    0.43221755 # occ.  1.00000000
 
ion      s     py     pz     px    dxy    dyz    dz2    dxz  x2-y2    tot
    1  0.557  0.048  0.005  0.005  0.002  0.002  0.001  0.000  0.002  0.622
 
band     2 # energy    5.07699112 # occ.  1.00000000
 
ion      s     py     pz     px    dxy    dyz    dz2    dxz  x2-y2    tot
    1  0.000  0.000  0.002  0.002  0.054  0.054  0.000  0.841  0.000  0.952
 
band     3 # energy    5.53707854 # occ.  1.00000000
 
ion      s     py     pz     px    dxy    dyz    dz2    dxz  x2-y2    tot
    1  0.000  0.001  0.001  0.001  0.404  0.403  0.012  0.108  0.036  0.966
 
band     4 # energy    5.54551958 # occ.  1.00000000
 
ion      s     py     pz     px    dxy    dyz    dz2    dxz  x2-y2    tot
    1  0.000  0.000  0.001  0.001  0.464  0.466  0.026  0.000  0.009  0.968
 
band     5 # energy    6.08258743 # occ.  1.00000000
 
ion      s     py     pz     px    dxy    dyz    dz2    dxz  x2-y2    tot
    1  0.002  0.001  0.000  0.000  0.021  0.021  0.231  0.005  0.692  0.974
 
band     6 # energy    6.35726039 # occ.  1.00000000
 
ion      s     py     pz     px    dxy    dyz    dz2    dxz  x2-y2    tot
    1  0.000  0.000  0.000  0.000  0.018  0.018  0.712  0.000  0.237  0.985
 
band     7 # energy   25.32371432 # occ.  0.00000000
 
ion      s     py     pz     px    dxy    dyz    dz2    dxz  x2-y2    tot
    1  0.036  0.041  0.116  0.116  0.087  0.087  0.001  0.135  0.003  0.621
 
band     8 # energy   28.64407895 # occ.  0.00000000
 
ion      s     py     pz     px    dxy    dyz    dz2    dxz  x2-y2    tot
    1  0.000  0.000  0.211  0.211  0.134  0.134  0.006  0.000  0.002  0.699
 
band     9 # energy   29.12538299 # occ.  0.00000000
 
ion      s     py     pz     px    dxy    dyz    dz2    dxz  x2-y2    tot
    1  0.040  0.059  0.005  0.005  0.004  0.004  0.008  0.194  0.024  0.343
 
band    10 # energy   32.19995043 # occ.  0.00000000
 
ion      s     py     pz     px    dxy    dyz    dz2    dxz  x2-y2    tot
    1  0.005  0.007  0.077  0.077  0.021  0.021  0.035  0.026  0.104  0.373
 
band    11 # energy   34.57917316 # occ.  0.00000000
 
ion      s     py     pz     px    dxy    dyz    dz2    dxz  x2-y2    tot
    1  0.040  0.515  0.028  0.028  0.006  0.006  0.024  0.023  0.072  0.743
 
band    12 # energy   37.20591111 # occ.  0.00000000
 
ion      s     py     pz     px    dxy    dyz    dz2    dxz  x2-y2    tot
    1  0.027  0.049  0.001  0.001  0.144  0.144  0.024  0.301  0.072  0.763
 

 k-point     9 :    0.27272727 0.09090909 0.00000000     weight = 0.01803156

band     1 # energy    1.54177709 # occ.  1.00000000
 
ion      s     py     pz     px    dxy    dyz    dz2    dxz  x2-y2    tot
    1  0.478  0.074  0.017  0.017  0.016  0.016  0.002  0.007  0.007  0.634
 
band     2 # energy    4.96323416 # occ.  1.00000000
 
ion      s     py     pz     px    dxy    dyz    dz2    dxz  x2-y2    tot
    1  0.005  0.005  0.009  0.009  0.093  0.093  0.001  0.714  0.002  0.931
 
band     3 # energy    5.53185740 # occ.  1.00000000
 
ion      s     py     pz     px    dxy    dyz    dz2    dxz  x2-y2    tot
    1  0.000  0.000  0.001  0.001  0.222  0.222  0.090  0.156  0.270  0.962
 
band     4 # energy    5.60894929 # occ.  1.00000000
 
ion      s     py     pz     px    dxy    dyz    dz2    dxz  x2-y2    tot
    1  0.000  0.000  0.002  0.002  0.378  0.379  0.155  0.000  0.052  0.967
 
band     5 # energy    6.22306736 # occ.  1.00000000
 
ion      s     py     pz     px    dxy    dyz    dz2    dxz  x2-y2    tot
    1  0.009  0.006  0.001  0.001  0.143  0.143  0.149  0.068  0.448  0.969
 
band     6 # energy    6.46783386 # occ.  1.00000000
 
ion      s     py     pz     px    dxy    dyz    dz2    dxz  x2-y2    tot
    1  0.000  0.000  0.000  0.000  0.105  0.105  0.580  0.000  0.193  0.985
 
band     7 # energy   20.91725832 # occ.  0.00000000
 
ion      s     py     pz     px    dxy    dyz    dz2    dxz  x2-y2    tot
    1  0.097  0.056  0.124  0.124  0.081  0.081  0.001  0.114  0.003  0.679
 
band     8 # energy   27.71908144 # occ.  0.00000000
 
ion      s     py     pz     px    dxy    dyz    dz2    dxz  x2-y2    tot
    1  0.000  0.000  0.227  0.227  0.114  0.114  0.020  0.000  0.007  0.708
 
band     9 # energy   28.51567339 # occ.  0.00000000
 
ion      s     py     pz     px    dxy    dyz    dz2    dxz  x2-y2    tot
    1  0.034  0.019  0.002  0.002  0.000  0.000  0.019  0.195  0.058  0.329
 
band    10 # energy   31.46052360 # occ.  0.00000000
 
ion      s     py     pz     px    dxy    dyz    dz2    dxz  x2-y2    tot
    1  0.049  0.354  0.003  0.003  0.001  0.001  0.049  0.062  0.147  0.668
 
band    11 # energy   34.65074411 # occ.  0.00000000
 
ion      s     py     pz     px    dxy    dyz    dz2    dxz  x2-y2    tot
    1  0.002  0.120  0.089  0.089  0.012  0.012  0.027  0.002  0.081  0.434
 
band    12 # energy   36.97733811 # occ.  0.00000000
 
ion      s     py     pz     px    dxy    dyz    dz2    dxz  x2-y2    tot
    1  0.010  0.034  0.064  0.064  0.077  0.077  0.029  0.223  0.086  0.664
 

 k-point    10 :    0.36363636 0.09090909 0.00000000     weight = 0.01803156

band     1 # energy    2.76346229 # occ.  1.00000000
 
ion      s     py     pz     px    dxy    dyz    dz2    dxz  x2-y2    tot
    1  0.333  0.072  0.018  0.018  0.088  0.088  0.004  0.070  0.012  0.703
 
band     2 # energy    5.13468645 # occ.  1.00000000
 
ion      s     py     pz     px    dxy    dyz    dz2    dxz  x2-y2    tot
    1  0.030  0.033  0.035  0.035  0.059  0.059  0.014  0.556  0.043  0.865
 
band     3 # energy    5.39855540 # occ.  1.00000000
 
ion      s     py     pz     px    dxy    dyz    dz2    dxz  x2-y2    tot
    1  0.001  0.000  0.000  0.000  0.118  0.118  0.127  0.215  0.379  0.957
 
band     4 # energy    5.56212941 # occ.  1.00000000
 
ion      s     py     pz     px    dxy    dyz    dz2    dxz  x2-y2    tot
    1  0.000  0.000  0.001  0.001  0.279  0.279  0.303  0.000  0.101  0.965
 
band     5 # energy    6.65492251 # occ.  1.00000193
 
ion      s     py     pz     px    dxy    dyz    dz2    dxz  x2-y2    tot
    1  0.000  0.000  0.000  0.000  0.208  0.208  0.429  0.000  0.143  0.988
 
band     6 # energy    6.68033090 # occ.  1.00000456
 
ion      s     py     pz     px    dxy    dyz    dz2    dxz  x2-y2    tot
    1  0.031  0.024  0.008  0.008  0.201  0.201  0.096  0.088  0.289  0.947
 
band     7 # energy   16.89090271 # occ.  0.00000000
 
ion      s     py     pz     px    dxy    dyz    dz2    dxz  x2-y2    tot
    1  0.184  0.048  0.111  0.111  0.075  0.075  0.001  0.111  0.003  0.718
 
band     8 # energy   27.31009102 # occ.  0.00000000
 
ion      s     py     pz     px    dxy    dyz    dz2    dxz  x2-y2    tot
    1  0.000  0.000  0.243  0.243  0.080  0.080  0.042  0.000  0.014  0.701
 
band     9 # energy   27.85843672 # occ.  0.00000000
 
ion      s     py     pz     px    dxy    dyz    dz2    dxz  x2-y2    tot
    1  0.006  0.008  0.002  0.002  0.001  0.001  0.038  0.116  0.113  0.287
 
band    10 # energy   29.56156724 # occ.  0.00000000
 
ion      s     py     pz     px    dxy    dyz    dz2    dxz  x2-y2    tot
    1  0.084  0.392  0.035  0.035  0.003  0.003  0.019  0.083  0.058  0.712
 
band    11 # energy   35.12605456 # occ.  0.00000000
 
ion      s     py     pz     px    dxy    dyz    dz2    dxz  x2-y2    tot
    1  0.000  0.029  0.005  0.005  0.048  0.048  0.079  0.093  0.238  0.546
 
band    12 # energy   36.65570913 # occ.  0.00000000
 
ion      s     py     pz     px    dxy    dyz    dz2    dxz  x2-y2    tot
    1  0.000  0.000  0.063  0.063  0.039  0.039  0.346  0.000  0.115  0.665
 

 k-point    11 :    0.45454545 0.09090909 0.00000000     weight = 0.01803156

band     1 # energy    3.39102699 # occ.  1.00000000
 
ion      s     py     pz     px    dxy    dyz    dz2    dxz  x2-y2    tot
    1  0.173  0.026  0.002  0.002  0.198  0.198  0.002  0.220  0.005  0.825
 
band     2 # energy    5.28370838 # occ.  1.00000000
 
ion      s     py     pz     px    dxy    dyz    dz2    dxz  x2-y2    tot
    1  0.000  0.001  0.003  0.003  0.089  0.089  0.154  0.146  0.461  0.946
 
band     3 # energy    5.48293382 # occ.  1.00000000
 
ion      s     py     pz     px    dxy    dyz    dz2    dxz  x2-y2    tot
    1  0.000  0.000  0.001  0.001  0.225  0.225  0.383  0.000  0.128  0.961
 
band     4 # energy    5.79811494 # occ.  1.00000000
 
ion      s     py     pz     px    dxy    dyz    dz2    dxz  x2-y2    tot
    1  0.024  0.058  0.055  0.055  0.014  0.014  0.031  0.494  0.092  0.836
 
band     5 # energy    6.78626813 # occ.  1.00011452
 
ion      s     py     pz     px    dxy    dyz    dz2    dxz  x2-y2    tot
    1  0.000  0.000  0.000  0.000  0.265  0.265  0.346  0.000  0.115  0.991
 
band     6 # energy    7.59682193 # occ. -0.03209573
 
ion      s     py     pz     px    dxy    dyz    dz2    dxz  x2-y2    tot
    1  0.059  0.096  0.060  0.060  0.142  0.142  0.055  0.037  0.166  0.816
 
band     7 # energy   13.53897254 # occ.  0.00000000
 
ion      s     py     pz     px    dxy    dyz    dz2    dxz  x2-y2    tot
    1  0.315  0.018  0.067  0.067  0.088  0.088  0.001  0.129  0.003  0.774
 
band     8 # energy   26.93172352 # occ.  0.00000000
 
ion      s     py     pz     px    dxy    dyz    dz2    dxz  x2-y2    tot
    1  0.008  0.145  0.004  0.004  0.011  0.011  0.048  0.034  0.143  0.407
 
band     9 # energy   27.47478597 # occ.  0.00000000
 
ion      s     py     pz     px    dxy    dyz    dz2    dxz  x2-y2    tot
    1  0.000  0.000  0.256  0.256  0.043  0.043  0.068  0.000  0.023  0.690
 
band    10 # energy   28.64124555 # occ.  0.00000000
 
ion      s     py     pz     px    dxy    dyz    dz2    dxz  x2-y2    tot
    1  0.073  0.230  0.068  0.068  0.004  0.004  0.000  0.084  0.001  0.531
 
band    11 # energy   34.95329901 # occ.  0.00000000
 
ion      s     py     pz     px    dxy    dyz    dz2    dxz  x2-y2    tot
    1  0.009  0.019  0.000  0.000  0.020  0.020  0.091  0.183  0.271  0.611
 
band    12 # energy   35.19686895 # occ.  0.00000000
 
ion      s     py     pz     px    dxy    dyz    dz2    dxz  x2-y2    tot
    1  0.000  0.000  0.062  0.062  0.089  0.089  0.331  0.000  0.111  0.743
 

 k-point    12 :   -0.45454545 0.09090909-0.00000000     weight = 0.01803156

band     1 # energy    3.48749474 # occ.  1.00000000
 
ion      s     py     pz     px    dxy    dyz    dz2    dxz  x2-y2    tot
    1  0.137  0.004  0.003  0.003  0.223  0.223  0.000  0.262  0.000  0.854
 
band     2 # energy    5.26279680 # occ.  1.00000000
 
ion      s     py     pz     px    dxy    dyz    dz2    dxz  x2-y2    tot
    1  0.000  0.000  0.002  0.002  0.063  0.063  0.147  0.227  0.442  0.948
 
band     3 # energy    5.45016316 # occ.  1.00000000
 
ion      s     py     pz     px    dxy    dyz    dz2    dxz  x2-y2    tot
    1  0.000  0.000  0.000  0.000  0.204  0.204  0.414  0.000  0.138  0.960
 
band     4 # energy    6.08560100 # occ.  1.00000000
 
ion      s     py     pz     px    dxy    dyz    dz2    dxz  x2-y2    tot
    1  0.001  0.052  0.053  0.053  0.101  0.101  0.055  0.278  0.165  0.859
 
band     5 # energy    6.75272634 # occ.  1.00004407
 
ion      s     py     pz     px    dxy    dyz    dz2    dxz  x2-y2    tot
    1  0.000  0.000  0.000  0.000  0.287  0.287  0.312  0.000  0.104  0.990
 
band     6 # energy    8.31646791 # occ. -0.00000000
 
ion      s     py     pz     px    dxy    dyz    dz2    dxz  x2-y2    tot
    1  0.007  0.126  0.131  0.131  0.012  0.012  0.040  0.134  0.120  0.711
 
band     7 # energy   12.22155537 # occ. -0.00000000
 
ion      s     py     pz     px    dxy    dyz    dz2    dxz  x2-y2    tot
    1  0.423  0.023  0.000  0.000  0.130  0.130  0.000  0.121  0.001  0.830
 
band     8 # energy   26.00884147 # occ.  0.00000000
 
ion      s     py     pz     px    dxy    dyz    dz2    dxz  x2-y2    tot