<?xml version="1.0" encoding="ISO-8859-1"?>
<modeling>
 <generator>
  <i name="program" type="string">vasp </i>
  <i name="version" type="string">6.3.0  </i>
  <i name="subversion" type="string">20Jan22 (build Feb 01 2022 16:52:37) complex                          parallel </i>
  <i name="platform" type="string">TETRA_NSC1 </i>
  <i name="date" type="string">2022 02 23 </i>
  <i name="time" type="string">15:19:31 </i>
 </generator>
 <incar>
  <i type="string" name="SYSTEM">fcc Ni</i>
  <i type="int" name="ISTART">     0</i>
  <i type="int" name="ISPIN">     2</i>
  <i type="int" name="ICHARG">     2</i>
  <i name="ENCUT">    270.00000000</i>
  <v name="MAGMOM">      1.00000000</v>
  <i type="int" name="ISMEAR">     1</i>
  <i name="SIGMA">      0.20000000</i>
  <i type="int" name="LORBIT">    11</i>
 </incar>
 <primitive_cell>
  <structure name="primitive_cell" >
   <crystal>
    <varray name="basis" >
     <v>       1.85000000       1.85000000       0.00000000 </v>
     <v>       0.00000000       1.85000000       1.85000000 </v>
     <v>       1.85000000       0.00000000       1.85000000 </v>
    </varray>
    <i name="volume">     12.66325000 </i>
    <varray name="rec_basis" >
     <v>       0.27027027       0.27027027      -0.27027027 </v>
     <v>      -0.27027027       0.27027027       0.27027027 </v>
     <v>       0.27027027      -0.27027027       0.27027027 </v>
    </varray>
   </crystal>
   <varray name="positions" >
    <v>       0.00000000       0.00000000       0.00000000 </v>
   </varray>
  </structure>
  <varray name="primitive_index" >
   <v type="int" >        1 </v>
  </varray>
 </primitive_cell>
 <kpoints>
  <generation param="Monkhorst-Pack">
   <v type="int" name="divisions">      11       11       11 </v>
   <v name="usershift">      0.00000000       0.00000000       0.00000000 </v>
   <v name="genvec1">      0.09090909       0.00000000       0.00000000 </v>
   <v name="genvec2">      0.00000000       0.09090909      -0.00000000 </v>
   <v name="genvec3">     -0.00000000      -0.00000000       0.09090909 </v>
   <v name="shift">      0.00000000       0.00000000       0.00000000 </v>
  </generation>
  <varray name="kpointlist" >
   <v>       0.00000000       0.00000000       0.00000000 </v>
   <v>       0.09090909       0.00000000       0.00000000 </v>
   <v>       0.18181818       0.00000000       0.00000000 </v>
   <v>       0.27272727       0.00000000       0.00000000 </v>
   <v>       0.36363636      -0.00000000      -0.00000000 </v>
   <v>       0.45454545      -0.00000000       0.00000000 </v>
   <v>       0.09090909       0.09090909      -0.00000000 </v>
   <v>       0.18181818       0.09090909       0.00000000 </v>
   <v>       0.27272727       0.09090909       0.00000000 </v>
   <v>       0.36363636       0.09090909       0.00000000 </v>
   <v>       0.45454545       0.09090909       0.00000000 </v>
   <v>      -0.45454545       0.09090909      -0.00000000 </v>
   <v>      -0.36363636       0.09090909       0.00000000 </v>
   <v>      -0.27272727       0.09090909       0.00000000 </v>
   <v>      -0.18181818       0.09090909      -0.00000000 </v>
   <v>      -0.09090909       0.09090909      -0.00000000 </v>
   <v>       0.18181818       0.18181818      -0.00000000 </v>
   <v>       0.27272727       0.18181818       0.00000000 </v>
   <v>       0.36363636       0.18181818       0.00000000 </v>
   <v>       0.45454545       0.18181818       0.00000000 </v>
   <v>      -0.45454545       0.18181818       0.00000000 </v>
   <v>      -0.36363636       0.18181818      -0.00000000 </v>
   <v>      -0.27272727       0.18181818      -0.00000000 </v>
   <v>      -0.18181818       0.18181818      -0.00000000 </v>
   <v>       0.27272727       0.27272727       0.00000000 </v>
   <v>       0.36363636       0.27272727       0.00000000 </v>
   <v>       0.45454545       0.27272727       0.00000000 </v>
   <v>      -0.45454545       0.27272727       0.00000000 </v>
   <v>      -0.36363636       0.27272727       0.00000000 </v>
   <v>      -0.27272727       0.27272727      -0.00000000 </v>
   <v>       0.36363636       0.36363636       0.00000000 </v>
   <v>       0.45454545       0.36363636       0.00000000 </v>
   <v>      -0.45454545       0.36363636       0.00000000 </v>
   <v>      -0.36363636       0.36363636       0.00000000 </v>
   <v>       0.45454545       0.45454545       0.00000000 </v>
   <v>      -0.45454545       0.45454545      -0.00000000 </v>
   <v>       0.27272727       0.18181818       0.09090909 </v>
   <v>       0.36363636       0.18181818       0.09090909 </v>
   <v>       0.45454545       0.18181818       0.09090909 </v>
   <v>      -0.45454545       0.18181818       0.09090909 </v>
   <v>       0.36363636       0.27272727       0.09090909 </v>
   <v>       0.45454545       0.27272727       0.09090909 </v>
   <v>      -0.45454545       0.27272727       0.09090909 </v>
   <v>      -0.36363636       0.27272727       0.09090909 </v>
   <v>      -0.27272727       0.27272727       0.09090909 </v>
   <v>      -0.18181818       0.27272727       0.09090909 </v>
   <v>       0.45454545       0.36363636       0.09090909 </v>
   <v>      -0.45454545       0.36363636       0.09090909 </v>
   <v>      -0.36363636       0.36363636       0.09090909 </v>
   <v>      -0.27272727       0.36363636       0.09090909 </v>
   <v>      -0.45454545       0.45454545       0.09090909 </v>
   <v>      -0.36363636       0.45454545       0.09090909 </v>
   <v>      -0.45454545       0.36363636       0.18181818 </v>
   <v>      -0.36363636       0.36363636       0.18181818 </v>
   <v>      -0.36363636       0.45454545       0.18181818 </v>
   <v>      -0.27272727       0.45454545       0.18181818 </v>
  </varray>
  <varray name="weights" >
   <v>       0.00075131 </v>
   <v>       0.00601052 </v>
   <v>       0.00601052 </v>
   <v>       0.00601052 </v>
   <v>       0.00601052 </v>
   <v>       0.00601052 </v>
   <v>       0.00450789 </v>
   <v>       0.01803156 </v>
   <v>       0.01803156 </v>
   <v>       0.01803156 </v>
   <v>       0.01803156 </v>
   <v>       0.01803156 </v>
   <v>       0.01803156 </v>
   <v>       0.01803156 </v>
   <v>       0.01803156 </v>
   <v>       0.00901578 </v>
   <v>       0.00450789 </v>
   <v>       0.01803156 </v>
   <v>       0.01803156 </v>
   <v>       0.01803156 </v>
   <v>       0.01803156 </v>
   <v>       0.01803156 </v>
   <v>       0.01803156 </v>
   <v>       0.00901578 </v>
   <v>       0.00450789 </v>
   <v>       0.01803156 </v>
   <v>       0.01803156 </v>
   <v>       0.01803156 </v>
   <v>       0.01803156 </v>
   <v>       0.00901578 </v>
   <v>       0.00450789 </v>
   <v>       0.01803156 </v>
   <v>       0.01803156 </v>
   <v>       0.00901578 </v>
   <v>       0.00450789 </v>
   <v>       0.00901578 </v>
   <v>       0.01803156 </v>
   <v>       0.03606311 </v>
   <v>       0.03606311 </v>
   <v>       0.03606311 </v>
   <v>       0.01803156 </v>
   <v>       0.03606311 </v>
   <v>       0.03606311 </v>
   <v>       0.03606311 </v>
   <v>       0.03606311 </v>
   <v>       0.01803156 </v>
   <v>       0.01803156 </v>
   <v>       0.03606311 </v>
   <v>       0.03606311 </v>
   <v>       0.01803156 </v>
   <v>       0.01803156 </v>
   <v>       0.01803156 </v>
   <v>       0.01803156 </v>
   <v>       0.03606311 </v>
   <v>       0.01803156 </v>
   <v>       0.01803156 </v>
  </varray>
 </kpoints>
 <parameters>
  <separator name="general" >
   <i type="string" name="SYSTEM">fcc Ni</i>
   <i type="logical" name="LCOMPAT"> F  </i>
  </separator>
  <separator name="electronic" >
   <i type="string" name="PREC">normal</i>
   <i name="ENMAX">    270.00000000</i>
   <i name="ENAUG">    544.56500000</i>
   <i name="EDIFF">      0.00010000</i>
   <i type="int" name="IALGO">    38</i>
   <i type="int" name="IWAVPR">    10</i>
   <i type="int" name="NBANDS">    12</i>
   <i type="int" name="NBANDSLOW">    -1</i>
   <i type="int" name="NBANDSHIGH">    -1</i>
   <i name="NELECT">     10.00000000</i>
   <i type="int" name="TURBO">     0</i>
   <i type="int" name="IRESTART">     0</i>
   <i type="int" name="NREBOOT">     0</i>
   <i type="int" name="NMIN">     0</i>
   <i name="EREF">      0.00000000</i>
   <separator name="electronic smearing" >
    <i type="int" name="ISMEAR">     1</i>
    <i name="SIGMA">      0.20000000</i>
    <i name="KSPACING">      0.50000000</i>
    <i type="logical" name="KGAMMA"> T  </i>
    <i type="logical" name="KBLOWUP"> T  </i>
   </separator>
   <separator name="electronic projectors" >
    <i type="logical" name="LREAL"> F  </i>
    <v name="ROPT">      0.00000000</v>
    <i type="int" name="LMAXPAW">  -100</i>
    <i type="int" name="LMAXMIX">     2</i>
    <i type="logical" name="NLSPLINE"> F  </i>
   </separator>
   <separator name="electronic startup" >
    <i type="int" name="ISTART">     0</i>
    <i type="int" name="ICHARG">     2</i>
    <i type="int" name="INIWAV">     1</i>
   </separator>
   <separator name="electronic spin" >
    <i type="int" name="ISPIN">     2</i>
    <i type="logical" name="LNONCOLLINEAR"> F  </i>
    <v name="MAGMOM">      1.00000000</v>
    <i name="NUPDOWN">     -1.00000000</i>
    <i type="logical" name="LSORBIT"> F  </i>
    <v name="SAXIS">      0.00000000      0.00000000      1.00000000</v>
    <i type="logical" name="LSPIRAL"> F  </i>
    <v name="QSPIRAL">      0.00000000      0.00000000      0.00000000</v>
    <i type="logical" name="LZEROZ"> F  </i>
   </separator>
   <separator name="electronic exchange-correlation" >
    <i type="logical" name="LASPH"> F  </i>
    <i type="logical" name="LMETAGGA"> F  </i>
   </separator>
   <separator name="electronic convergence" >
    <i type="int" name="NELM">    60</i>
    <i type="int" name="NELMDL">    -5</i>
    <i type="int" name="NELMIN">     2</i>
    <i name="ENINI">    270.00000000</i>
    <separator name="electronic convergence detail" >
     <i type="logical" name="LDIAG"> T  </i>
     <i type="logical" name="LSUBROT"> F  </i>
     <i name="WEIMIN">      0.00000000</i>
     <i name="EBREAK">      0.00000208</i>
     <i name="DEPER">      0.30000000</i>
     <i type="int" name="NRMM">     4</i>
     <i name="TIME">      0.40000000</i>
    </separator>
   </separator>
   <separator name="electronic mixer" >
    <i name="AMIX">      0.40000000</i>
    <i name="BMIX">      1.00000000</i>
    <i name="AMIN">      0.10000000</i>
    <i name="AMIX_MAG">      1.60000000</i>
    <i name="BMIX_MAG">      1.00000000</i>
    <separator name="electronic mixer details" >
     <i type="int" name="IMIX">     4</i>
     <i type="logical" name="MIXFIRST"> F  </i>
     <i type="int" name="MAXMIX">   -45</i>
     <i name="WC">    100.00000000</i>
     <i type="int" name="INIMIX">     1</i>
     <i type="int" name="MIXPRE">     1</i>
     <i type="int" name="MREMOVE">     5</i>
    </separator>
   </separator>
   <separator name="electronic dipolcorrection" >
    <i type="logical" name="LDIPOL"> F  </i>
    <i type="logical" name="LMONO"> F  </i>
    <i type="int" name="IDIPOL">     0</i>
    <i name="EPSILON">      1.00000000</i>
    <v name="DIPOL">   -100.00000000   -100.00000000   -100.00000000</v>
    <i name="EFIELD">      0.00000000</i>
   </separator>
  </separator>
  <separator name="grids" >
   <i type="int" name="NGX">    12</i>
   <i type="int" name="NGY">    12</i>
   <i type="int" name="NGZ">    12</i>
   <i type="int" name="NGXF">    24</i>
   <i type="int" name="NGYF">    24</i>
   <i type="int" name="NGZF">    24</i>
   <i type="logical" name="ADDGRID"> F  </i>
  </separator>
  <separator name="ionic" >
   <i type="int" name="NSW">     0</i>
   <i type="int" name="IBRION">    -1</i>
   <i type="int" name="MDALGO">     0</i>
   <i type="int" name="ISIF">     2</i>
   <i name="PSTRESS">      0.00000000</i>
   <i name="EDIFFG">      0.00100000</i>
   <i type="int" name="NFREE">     0</i>
   <i name="POTIM">      0.50000000</i>
   <i name="SMASS">     -3.00000000</i>
   <i name="SCALEE">      1.00000000</i>
  </separator>
  <separator name="ionic md" >
   <i name="TEBEG">      0.00010000</i>
   <i name="TEEND">      0.00010000</i>
   <i type="int" name="NBLOCK">     1</i>
   <i type="int" name="KBLOCK">     1</i>
   <i type="int" name="NPACO">   256</i>
   <i name="APACO">     10.00000000</i>
  </separator>
  <separator name="symmetry" >
   <i type="int" name="ISYM">     2</i>
   <i name="SYMPREC">      0.00001000</i>
  </separator>
  <separator name="dos" >
   <i type="int" name="LORBIT">    11</i>
   <v name="RWIGS">     -1.00000000</v>
   <i type="int" name="NEDOS">   301</i>
   <i name="EMIN">     10.00000000</i>
   <i name="EMAX">    -10.00000000</i>
   <i name="EFERMI">      0.00000000</i>
  </separator>
  <separator name="writing" >
   <i type="int" name="NWRITE">     2</i>
   <i type="logical" name="LWAVE"> T  </i>
   <i type="logical" name="LDOWNSAMPLE"> F  </i>
   <i type="logical" name="LCHARG"> T  </i>
   <i type="logical" name="LPARD"> F  </i>
   <i type="logical" name="LVTOT"> F  </i>
   <i type="logical" name="LVHAR"> F  </i>
   <i type="logical" name="LELF"> F  </i>
   <i type="logical" name="LOPTICS"> F  </i>
   <v name="STM">      0.00000000      0.00000000      0.00000000      0.00000000      0.00000000      0.00000000      0.00000000</v>
  </separator>
  <separator name="performance" >
   <i type="int" name="NPAR">     4</i>
   <i type="int" name="NSIM">     4</i>
   <i type="int" name="NBLK">    -1</i>
   <i type="logical" name="LPLANE"> T  </i>
   <i type="logical" name="LSCALAPACK"> T  </i>
   <i type="logical" name="LSCAAWARE"> F  </i>
   <i type="logical" name="LSCALU"> F  </i>
   <i type="logical" name="LASYNC"> F  </i>
   <i type="logical" name="LORBITALREAL"> F  </i>
  </separator>
  <separator name="miscellaneous" >
   <i type="int" name="IDIOT">     3</i>
   <i type="int" name="PHON_NSTRUCT">    -1</i>
   <i type="logical" name="LMUSIC"> F  </i>
   <v name="POMASS">     58.69000000</v>
   <v name="DARWINR">      0.00000000</v>
   <v name="DARWINV">      1.00000000</v>
   <i type="logical" name="LCORR"> T  </i>
  </separator>
  <i type="logical" name="GGA_COMPAT"> T  </i>
  <i type="logical" name="LBERRY"> F  </i>
  <i type="int" name="ICORELEVEL">     0</i>
  <i type="logical" name="LDAU"> F  </i>
  <i type="int" name="I_CONSTRAINED_M">     0</i>
  <separator name="electronic exchange-correlation" >
   <i type="string" name="GGA">--</i>
   <i type="int" name="VOSKOWN">     0</i>
   <i type="logical" name="LHFCALC"> F  </i>
   <i type="string" name="PRECFOCK"></i>
   <i type="logical" name="LSYMGRAD"> F  </i>
   <i type="logical" name="LHFONE"> F  </i>
   <i type="logical" name="LRHFCALC"> F  </i>
   <i type="logical" name="LTHOMAS"> F  </i>
   <i type="logical" name="LMODELHF"> F  </i>
   <i type="logical" name="LFOCKACE"> F  </i>
   <i name="ENCUT4O">     -1.00000000</i>
   <i type="int" name="EXXOEP">     0</i>
   <i type="int" name="FOURORBIT">     0</i>
   <i name="AEXX">      0.00000000</i>
   <i name="HFALPHA">      0.00000000</i>
   <i name="MCALPHA">      0.00000000</i>
   <i name="ALDAX">      1.00000000</i>
   <i name="AGGAX">      1.00000000</i>
   <i name="ALDAC">      1.00000000</i>
   <i name="AGGAC">      1.00000000</i>
   <i type="int" name="NKREDX">     1</i>
   <i type="int" name="NKREDY">     1</i>
   <i type="int" name="NKREDZ">     1</i>
   <i type="logical" name="SHIFTRED"> F  </i>
   <i type="logical" name="ODDONLY"> F  </i>
   <i type="logical" name="EVENONLY"> F  </i>
   <i type="int" name="LMAXFOCK">     0</i>
   <i type="int" name="NMAXFOCKAE">     0</i>
   <i type="logical" name="LFOCKAEDFT"> F  </i>
   <i name="HFSCREEN">      0.00000000</i>
   <i name="HFSCREENC">      0.00000000</i>
   <i type="int" name="NBANDSGWLOW">     0</i>
  </separator>
  <separator name="vdW DFT" >
   <i type="logical" name="LUSE_VDW"> F  </i>
   <i name="Zab_VDW">     -0.84910000</i>
   <i name="PARAM1">      0.12340000</i>
   <i name="PARAM2">      1.00000000</i>
   <i name="PARAM3">      0.00000000</i>
  </separator>
  <separator name="model GW" >
   <i type="int" name="MODEL_GW">     0</i>
   <i name="MODEL_EPS0">      7.59795000</i>
   <i name="MODEL_ALPHA">      1.00000000</i>
  </separator>
  <separator name="linear response parameters" >
   <i type="logical" name="LEPSILON"> F  </i>
   <i type="logical" name="LRPA"> F  </i>
   <i type="logical" name="LNABLA"> F  </i>
   <i type="logical" name="LVEL"> F  </i>
   <i name="CSHIFT">      0.10000000</i>
   <i name="OMEGAMAX">     -1.00000000</i>
   <i name="DEG_THRESHOLD">      0.00200000</i>
   <i name="RTIME">     -0.10000000</i>
   <i name="WPLASMAI">      0.00000000</i>
   <v name="DFIELD">      0.00000000      0.00000000      0.00000000</v>
   <v name="WPLASMA">      0.00000000      0.00000000      0.00000000      0.00000000      0.00000000      0.00000000      0.00000000      0.00000000      0.00000000</v>
  </separator>
  <separator name="orbital magnetization" >
   <i type="logical" name="NUCIND"> F  </i>
   <v name="MAGPOS">      0.00000000      0.00000000      0.00000000</v>
   <i type="logical" name="LNICSALL"> T  </i>
   <i type="logical" name="ORBITALMAG"> F  </i>
   <i type="logical" name="LMAGBLOCH"> F  </i>
   <i type="logical" name="LCHIMAG"> F  </i>
   <i type="logical" name="LGAUGE"> T  </i>
   <i type="int" name="MAGATOM">     0</i>
   <v name="MAGDIPOL">      0.00000000      0.00000000      0.00000000</v>
   <v name="AVECCONST">      0.00000000      0.00000000      0.00000000</v>
  </separator>
  <separator name="response functions" >
   <i type="logical" name="LFINITE_TEMPERATURE"> F  </i>
   <i type="logical" name="LADDER"> F  </i>
   <i type="logical" name="LRPAFORCE"> F  </i>
   <i type="logical" name="LFXC"> F  </i>
   <i type="logical" name="LHARTREE"> T  </i>
   <i type="int" name="IBSE">     0</i>
   <v type="int" name="KPOINT">    -1     0     0     0</v>
   <i type="logical" name="LTCTC"> F  </i>
   <i type="logical" name="LTCTE"> F  </i>
   <i type="logical" name="LTETE"> F  </i>
   <i type="logical" name="LTRIPLET"> F  </i>
   <i type="logical" name="LFXCEPS"> F  </i>
   <i type="logical" name="LFXHEG"> F  </i>
   <i type="int" name="NATURALO">     2</i>
   <i type="logical" name="LHOLEGF"> F  </i>
   <i type="logical" name="L2ORDER"> F  </i>
   <i type="logical" name="LDMP1"> F  </i>
   <i type="logical" name="LMP2LT"> F  </i>
   <i type="logical" name="LSMP2LT"> F  </i>
   <i type="logical" name="LGWLF"> F  </i>
   <i name="ENCUTGW">     -2.00000000</i>
   <i name="ENCUTGWSOFT">     -2.00000000</i>
   <i name="ENCUTLF">     -1.00000000</i>
   <i type="logical" name="LESF_SPLINES"> F  </i>
   <i type="int" name="LMAXMP2">    -1</i>
   <i name="SCISSOR">      0.00000000</i>
   <i type="int" name="NOMEGA">     0</i>
   <i type="int" name="NOMEGAR">     0</i>
   <i type="int" name="NBANDSGW">    -1</i>
   <i type="int" name="NBANDSO">    -1</i>
   <i type="int" name="NBANDSV">    -1</i>
   <i type="int" name="NELMGW">     1</i>
   <i type="int" name="NELMHF">     1</i>
   <i type="int" name="DIM">     3</i>
   <i type="int" name="IESPILON">     4</i>
   <i type="int" name="ANTIRES">     0</i>
   <i name="OMEGAMAX">    -30.00000000</i>
   <i name="OMEGAMIN">    -30.00000000</i>
   <i name="OMEGATL">   -200.00000000</i>
   <i type="int" name="OMEGAGRID">     0</i>
   <i name="CSHIFT">     -0.10000000</i>
   <i type="logical" name="LSELFENERGY"> F  </i>
   <i type="logical" name="LSPECTRAL"> F  </i>
   <i type="logical" name="LSPECTRALGW"> F  </i>
   <i type="logical" name="LSINGLES"> F  </i>
   <i type="logical" name="LFERMIGW"> F  </i>
   <i type="logical" name="ODDONLYGW"> F  </i>
   <i type="logical" name="EVENONLYGW"> F  </i>
   <i type="int" name="NKREDLFX">     1</i>
   <i type="int" name="NKREDLFY">     1</i>
   <i type="int" name="NKREDLFZ">     1</i>
   <i type="int" name="MAXMEM">  2800</i>
   <i type="int" name="TELESCOPE">     0</i>
   <i type="int" name="NTAUPAR">    -1</i>
   <i type="int" name="NOMEGAPAR">    -1</i>
   <i name="DAMP_NEWTON">      0.80000001</i>
   <i name="LAMBDA">      1.00000000</i>
  </separator>
  <separator name="External order field" >
   <i name="OFIELD_KAPPA">      0.00000000</i>
   <v name="OFIELD_K">      0.00000000      0.00000000      0.00000000</v>
   <i name="OFIELD_Q6_NEAR">      0.00000000</i>
   <i name="OFIELD_Q6_FAR">      0.00000000</i>
   <i name="OFIELD_A">      0.00000000</i>
  </separator>
  <separator name="optional k-points parameters" >
   <i type="int" name="KPOINTS_OPT_MODE">     1</i>
   <i type="logical" name="LKPOINTS_OPT"> F  </i>
  </separator>
 </parameters>
 <atominfo>
  <atoms>       1 </atoms>
  <types>       1 </types>
  <array name="atoms" >
   <dimension dim="1">ion</dimension>
   <field type="string">element</field>
   <field type="int">atomtype</field>
   <set>
    <rc><c>Ni</c><c>   1</c></rc>
   </set>
  </array>
  <array name="atomtypes" >
   <dimension dim="1">type</dimension>
   <field type="int">atomspertype</field>
   <field type="string">element</field>
   <field>mass</field>
   <field>valence</field>
   <field type="string">pseudopotential</field>
   <set>
    <rc><c>   1</c><c>Ni</c><c>     58.69000000</c><c>     10.00000000</c><c>  PAW_PBE Ni 02Aug2007                  </c></rc>
   </set>
  </array>
 </atominfo>
 <structure name="initialpos" >
  <crystal>
   <varray name="basis" >
    <v>       1.85000000       1.85000000       0.00000000 </v>
    <v>       0.00000000       1.85000000       1.85000000 </v>
    <v>       1.85000000       0.00000000       1.85000000 </v>
   </varray>
   <i name="volume">     12.66325000 </i>
   <varray name="rec_basis" >
    <v>       0.27027027       0.27027027      -0.27027027 </v>
    <v>      -0.27027027       0.27027027       0.27027027 </v>
    <v>       0.27027027      -0.27027027       0.27027027 </v>
   </varray>
  </crystal>
  <varray name="positions" >
   <v>       0.00000000       0.00000000       0.00000000 </v>
  </varray>
 </structure>
 <calculation>
  <scstep>
   <time name="dav">    0.17    0.17</time>
   <time name="total">    0.18    0.18</time>
   <energy>
    <i name="alphaZ">     40.27354826 </i>
    <i name="ewald">   -892.17618983 </i>
    <i name="hartreedc">   -267.84949076 </i>
    <i name="XCdc">     31.34181077 </i>
    <i name="pawpsdc">    962.83317360 </i>
    <i name="pawaedc">  -1029.67071227 </i>
    <i name="eentropy">      0.00035753 </i>
    <i name="bandstr">     95.76289205 </i>
    <i name="atom">   1077.63607467 </i>
    <i name="e_fr_energy">     18.15146402 </i>
    <i name="e_wo_entrp">     18.15110649 </i>
    <i name="e_0_energy">     18.15134485 </i>
   </energy>
  </scstep>
  <scstep>
   <time name="dav">    0.16    0.16</time>
   <time name="total">    0.16    0.16</time>
   <energy>
    <i name="e_fr_energy">     -5.87817504 </i>
    <i name="e_wo_entrp">     -5.87451009 </i>
    <i name="e_0_energy">     -5.87695339 </i>
   </energy>
  </scstep>
  <scstep>
   <time name="dav">    0.17    0.17</time>
   <time name="total">    0.17    0.17</time>
   <energy>
    <i name="e_fr_energy">     -6.32718454 </i>
    <i name="e_wo_entrp">     -6.32443808 </i>
    <i name="e_0_energy">     -6.32626905 </i>
   </energy>
  </scstep>
  <scstep>
   <time name="dav">    0.16    0.16</time>
   <time name="total">    0.16    0.17</time>
   <energy>
    <i name="e_fr_energy">     -6.32948143 </i>
    <i name="e_wo_entrp">     -6.32674235 </i>
    <i name="e_0_energy">     -6.32856840 </i>
   </energy>
  </scstep>
  <scstep>
   <time name="dav">    0.17    0.17</time>
   <time name="total">    0.17    0.17</time>
   <energy>
    <i name="e_fr_energy">     -6.32951593 </i>
    <i name="e_wo_entrp">     -6.32677691 </i>
    <i name="e_0_energy">     -6.32860292 </i>
   </energy>
  </scstep>
  <scstep>
   <time name="dav">    0.17    0.17</time>
   <time name="total">    0.18    0.19</time>
   <energy>
    <i name="e_fr_energy">     -5.84339545 </i>
    <i name="e_wo_entrp">     -5.83785389 </i>
    <i name="e_0_energy">     -5.84154826 </i>
   </energy>
  </scstep>
  <scstep>
   <time name="dav">    0.17    0.17</time>
   <time name="total">    0.18    0.18</time>
   <energy>
    <i name="e_fr_energy">     -5.34299302 </i>
    <i name="e_wo_entrp">     -5.33754380 </i>
    <i name="e_0_energy">     -5.34117661 </i>
   </energy>
  </scstep>
  <scstep>
   <time name="dav">    0.17    0.17</time>
   <time name="total">    0.18    0.18</time>
   <energy>
    <i name="e_fr_energy">     -5.33382755 </i>
    <i name="e_wo_entrp">     -5.32863079 </i>
    <i name="e_0_energy">     -5.33209530 </i>
   </energy>
  </scstep>
  <scstep>
   <time name="dav">    0.15    0.15</time>
   <time name="total">    0.16    0.16</time>
   <energy>
    <i name="e_fr_energy">     -5.33182757 </i>
    <i name="e_wo_entrp">     -5.32663821 </i>
    <i name="e_0_energy">     -5.33009778 </i>
   </energy>
  </scstep>
  <scstep>
   <time name="dav">    0.15    0.15</time>
   <time name="total">    0.16    0.16</time>
   <energy>
    <i name="e_fr_energy">     -5.33119907 </i>
    <i name="e_wo_entrp">     -5.32601134 </i>
    <i name="e_0_energy">     -5.32946983 </i>
   </energy>
  </scstep>
  <scstep>
   <time name="dav">    0.11    0.11</time>
   <time name="total">    0.12    0.12</time>
   <energy>
    <i name="alphaZ">     40.27354826 </i>
    <i name="ewald">   -892.17618983 </i>
    <i name="hartreedc">   -248.11576014 </i>
    <i name="XCdc">     30.34893307 </i>
    <i name="pawpsdc">   1070.07580925 </i>
    <i name="pawaedc">  -1137.86640815 </i>
    <i name="eentropy">     -0.00519459 </i>
    <i name="bandstr">     54.49798565 </i>
    <i name="atom">   1077.63607467 </i>
    <i name="e_fr_energy">     -5.33120181 </i>
    <i name="e_wo_entrp">     -5.32600722 </i>
    <i name="e_0_energy">     -5.32947028 </i>
   </energy>
  </scstep>
  <structure>
   <crystal>
    <varray name="basis" >
     <v>       1.85000000       1.85000000       0.00000000 </v>
     <v>       0.00000000       1.85000000       1.85000000 </v>
     <v>       1.85000000       0.00000000       1.85000000 </v>
    </varray>
    <i name="volume">     12.66325000 </i>
    <varray name="rec_basis" >
     <v>       0.27027027       0.27027027      -0.27027027 </v>
     <v>      -0.27027027       0.27027027       0.27027027 </v>
     <v>       0.27027027      -0.27027027       0.27027027 </v>
    </varray>
   </crystal>
   <varray name="positions" >
    <v>       0.00000000       0.00000000       0.00000000 </v>
   </varray>
  </structure>
  <varray name="forces" >
   <v>       0.00000000      -0.00000000       0.00000000 </v>
  </varray>
  <varray name="stress" >
   <v>    -245.15233006      -0.00000000      -0.00000000 </v>
   <v>      -0.00000000    -245.15233006       0.00000000 </v>
   <v>      -0.00000000       0.00000000    -245.15233006 </v>
  </varray>
  <energy>
   <i name="e_fr_energy">     -5.33120181 </i>
   <i name="e_wo_entrp">     -5.32600722 </i>
   <i name="e_0_energy">     -5.32947028 </i>
  </energy>
  <time name="totalsc">    1.94    1.95</time>
  <eigenvalues>
   <array>
    <dimension dim="1">band</dimension>
    <dimension dim="2">kpoint</dimension>
    <dimension dim="3">spin</dimension>
    <field>eigene</field>
    <field>occ</field>
    <set>
     <set comment="spin 1">
      <set comment="kpoint 1">
       <r>   -0.6019    1.0000 </r>
       <r>    5.3315    1.0000 </r>
       <r>    5.3315    1.0000 </r>
       <r>    5.3315    1.0000 </r>
       <r>    6.2697    1.0000 </r>
       <r>    6.2697    1.0000 </r>
       <r>   29.8386    0.0000 </r>
       <r>   32.5333    0.0000 </r>
       <r>   32.5334    0.0000 </r>
       <r>   32.5334    0.0000 </r>
       <r>   35.1979    0.0000 </r>
       <r>   35.1979    0.0000 </r>
      </set>
      <set comment="kpoint 2">
       <r>   -0.3139    1.0000 </r>
       <r>    5.2719    1.0000 </r>
       <r>    5.3892    1.0000 </r>
       <r>    5.3892    1.0000 </r>
       <r>    6.2513    1.0000 </r>
       <r>    6.2513    1.0000 </r>
       <r>   28.0509    0.0000 </r>
       <r>   30.6849    0.0000 </r>
       <r>   31.8604    0.0000 </r>
       <r>   31.8605    0.0000 </r>
       <r>   36.2941    0.0000 </r>
       <r>   36.2942    0.0000 </r>
      </set>
      <set comment="kpoint 3">
       <r>    0.5184    1.0000 </r>
       <r>    5.1363    1.0000 </r>
       <r>    5.4943    1.0000 </r>
       <r>    5.4943    1.0000 </r>
       <r>    6.2434    1.0000 </r>
       <r>    6.2434    1.0000 </r>
       <r>   23.6296    0.0000 </r>
       <r>   30.2299    0.0000 </r>
       <r>   30.8973    0.0000 </r>
       <r>   30.8974    0.0000 </r>
       <r>   36.5734    0.0000 </r>
       <r>   37.1943    0.0000 </r>
      </set>
      <set comment="kpoint 4">
       <r>    1.7485    1.0000 </r>
       <r>    5.1110    1.0000 </r>
       <r>    5.5086    1.0000 </r>
       <r>    5.5087    1.0000 </r>
       <r>    6.3705    1.0000 </r>
       <r>    6.3705    1.0000 </r>
       <r>   19.3245    0.0000 </r>
       <r>   29.5921    0.0000 </r>
       <r>   30.1777    0.0000 </r>
       <r>   30.1777    0.0000 </r>
       <r>   35.2883    0.0000 </r>
       <r>   35.2884    0.0000 </r>
      </set>
      <set comment="kpoint 5">
       <r>    2.8759    1.0000 </r>
       <r>    5.4317    1.0000 </r>
       <r>    5.4317    1.0000 </r>
       <r>    5.6703    1.0000 </r>
       <r>    6.6015    1.0000 </r>
       <r>    6.6015    1.0000 </r>
       <r>   15.4966    0.0000 </r>
       <r>   28.8950    0.0000 </r>
       <r>   29.7478    0.0000 </r>
       <r>   29.7479    0.0000 </r>
       <r>   33.6291    0.0000 </r>
       <r>   33.6293    0.0000 </r>
      </set>
      <set comment="kpoint 6">
       <r>    3.3008    1.0000 </r>
       <r>    5.3692    1.0000 </r>
       <r>    5.3692    1.0000 </r>
       <r>    6.7647    1.0001 </r>
       <r>    6.7648    1.0001 </r>
       <r>    7.0388    1.0185 </r>
       <r>   12.6159   -0.0000 </r>
       <r>   28.4704    0.0000 </r>
       <r>   29.5611    0.0000 </r>
       <r>   29.5612    0.0000 </r>
       <r>   32.7450    0.0000 </r>
       <r>   32.7453    0.0000 </r>
      </set>
      <set comment="kpoint 7">
       <r>   -0.2183    1.0000 </r>
       <r>    5.2171    1.0000 </r>
       <r>    5.4304    1.0000 </r>
       <r>    5.4304    1.0000 </r>
       <r>    6.1665    1.0000 </r>
       <r>    6.3155    1.0000 </r>
       <r>   28.9202    0.0000 </r>
       <r>   30.0483    0.0000 </r>
       <r>   30.0483    0.0000 </r>
       <r>   31.1761    0.0000 </r>
       <r>   37.0002    0.0000 </r>
       <r>   37.4578    0.0000 </r>
      </set>
      <set comment="kpoint 8">
       <r>    0.4322    1.0000 </r>
       <r>    5.0770    1.0000 </r>
       <r>    5.5371    1.0000 </r>
       <r>    5.5455    1.0000 </r>
       <r>    6.0826    1.0000 </r>
       <r>    6.3573    1.0000 </r>
       <r>   25.3237    0.0000 </r>
       <r>   28.6441    0.0000 </r>
       <r>   29.1254    0.0000 </r>
       <r>   32.2000    0.0000 </r>
       <r>   34.5792    0.0000 </r>
       <r>   37.2059    0.0000 </r>
      </set>
      <set comment="kpoint 9">
       <r>    1.5418    1.0000 </r>
       <r>    4.9632    1.0000 </r>
       <r>    5.5319    1.0000 </r>
       <r>    5.6089    1.0000 </r>
       <r>    6.2231    1.0000 </r>
       <r>    6.4678    1.0000 </r>
       <r>   20.9173    0.0000 </r>
       <r>   27.7191    0.0000 </r>
       <r>   28.5157    0.0000 </r>
       <r>   31.4605    0.0000 </r>
       <r>   34.6507    0.0000 </r>
       <r>   36.9773    0.0000 </r>
      </set>
      <set comment="kpoint 10">
       <r>    2.7635    1.0000 </r>
       <r>    5.1347    1.0000 </r>
       <r>    5.3986    1.0000 </r>
       <r>    5.5621    1.0000 </r>
       <r>    6.6549    1.0000 </r>
       <r>    6.6803    1.0000 </r>
       <r>   16.8909    0.0000 </r>
       <r>   27.3101    0.0000 </r>
       <r>   27.8584    0.0000 </r>
       <r>   29.5616    0.0000 </r>
       <r>   35.1261    0.0000 </r>
       <r>   36.6557    0.0000 </r>
      </set>
      <set comment="kpoint 11">
       <r>    3.3910    1.0000 </r>
       <r>    5.2837    1.0000 </r>
       <r>    5.4829    1.0000 </r>
       <r>    5.7981    1.0000 </r>
       <r>    6.7863    1.0001 </r>
       <r>    7.5968   -0.0321 </r>
       <r>   13.5390    0.0000 </r>
       <r>   26.9317    0.0000 </r>
       <r>   27.4748    0.0000 </r>
       <r>   28.6412    0.0000 </r>
       <r>   34.9533    0.0000 </r>
       <r>   35.1969    0.0000 </r>
      </set>
      <set comment="kpoint 12">
       <r>    3.4875    1.0000 </r>
       <r>    5.2628    1.0000 </r>
       <r>    5.4502    1.0000 </r>
       <r>    6.0856    1.0000 </r>
       <r>    6.7527    1.0000 </r>
       <r>    8.3165   -0.0000 </r>
       <r>   12.2216   -0.0000 </r>
       <r>   26.0088    0.0000 </r>
       <r>   28.2824    0.0000 </r>
       <r>   28.6628    0.0000 </r>
       <r>   34.2062    0.0000 </r>
       <r>   34.9736    0.0000 </r>
      </set>
      <set comment="kpoint 13">
       <r>    3.2720    1.0000 </r>
       <r>    5.3313    1.0000 </r>
       <r>    5.4892    1.0000 </r>
       <r>    5.6354    1.0000 </r>
       <r>    6.5514    1.0000 </r>
       <r>    7.3464    0.6354 </r>
       <r>   14.5549    0.0000 </r>
       <r>   25.5275    0.0000 </r>
       <r>   29.3195    0.0000 </r>
       <r>   29.7425    0.0000 </r>
       <r>   33.6838    0.0000 </r>
       <r>   35.0756    0.0000 </r>
      </set>
      <set comment="kpoint 14">
       <r>    2.3912    1.0000 </r>
       <r>    5.0551    1.0000 </r>
       <r>    5.4524    1.0000 </r>
       <r>    5.5785    1.0000 </r>
       <r>    6.2661    1.0000 </r>
       <r>    6.7753    1.0001 </r>
       <r>   18.1850    0.0000 </r>
       <r>   25.5455    0.0000 </r>
       <r>   30.5028    0.0000 </r>
       <r>   31.7809    0.0000 </r>
       <r>   33.6251    0.0000 </r>
       <r>   34.8436    0.0000 </r>
      </set>
      <set comment="kpoint 15">
       <r>    1.1339    1.0000 </r>
       <r>    5.0199    1.0000 </r>
       <r>    5.5275    1.0000 </r>
       <r>    5.5993    1.0000 </r>
       <r>    6.0900    1.0000 </r>
       <r>    6.4643    1.0000 </r>
       <r>   22.3597    0.0000 </r>
       <r>   26.0491    0.0000 </r>
       <r>   31.8708    0.0000 </r>
       <r>   33.6139    0.0000 </r>
       <r>   34.2711    0.0000 </r>
       <r>   34.6148    0.0000 </r>
      </set>
      <set comment="kpoint 16">
       <r>    0.1564    1.0000 </r>
       <r>    5.1645    1.0000 </r>
       <r>    5.4710    1.0000 </r>
       <r>    5.4810    1.0000 </r>
       <r>    6.1480    1.0000 </r>
       <r>    6.3169    1.0000 </r>
       <r>   26.5206    0.0000 </r>
       <r>   27.3308    0.0000 </r>
       <r>   31.9104    0.0000 </r>
       <r>   33.6373    0.0000 </r>
       <r>   35.0101    0.0000 </r>
       <r>   35.6051    0.0000 </r>
      </set>
      <set comment="kpoint 17">
       <r>    0.8813    1.0000 </r>
       <r>    4.9073    1.0000 </r>
       <r>    5.7036    1.0000 </r>
       <r>    5.7036    1.0000 </r>
       <r>    5.9122    1.0000 </r>
       <r>    6.4322    1.0000 </r>
       <r>   26.8875    0.0000 </r>
       <r>   26.8875    0.0000 </r>
       <r>   27.4980    0.0000 </r>
       <r>   28.7996    0.0000 </r>
       <r>   32.1723    0.0000 </r>
       <r>   40.8282    0.0000 </r>
      </set>
      <set comment="kpoint 18">
       <r>    1.7944    1.0000 </r>
       <r>    4.7325    1.0000 </r>
       <r>    5.6168    1.0000 </r>
       <r>    5.8413    1.0000 </r>
       <r>    6.1384    1.0000 </r>
       <r>    6.5330    1.0000 </r>
       <r>   22.8835    0.0000 </r>
       <r>   25.6742    0.0000 </r>
       <r>   27.1328    0.0000 </r>
       <r>   28.4481    0.0000 </r>
       <r>   31.6992    0.0000 </r>
       <r>   40.4687    0.0000 </r>
      </set>
      <set comment="kpoint 19">
       <r>    2.9270    1.0000 </r>
       <r>    4.6723    1.0000 </r>
       <r>    5.3889    1.0000 </r>
       <r>    5.8492    1.0000 </r>
       <r>    6.6979    1.0000 </r>
       <r>    6.8220    1.0003 </r>
       <r>   18.7371    0.0000 </r>
       <r>   25.0646    0.0000 </r>
       <r>   25.4044    0.0000 </r>
       <r>   27.8902    0.0000 </r>
       <r>   34.4757    0.0000 </r>
       <r>   39.5456    0.0000 </r>
      </set>
      <set comment="kpoint 20">
       <r>    3.6810    1.0000 </r>
       <r>    4.8676    1.0000 </r>
       <r>    5.2938    1.0000 </r>
       <r>    5.7790    1.0000 </r>
       <r>    6.8120    1.0002 </r>
       <r>    8.0884   -0.0000 </r>
       <r>   15.0556    0.0000 </r>
       <r>   23.6657    0.0000 </r>
       <r>   25.1199    0.0000 </r>
       <r>   27.7022    0.0000 </r>
       <r>   37.8240    0.0000 </r>
       <r>   38.6024    0.0000 </r>
      </set>
      <set comment="kpoint 21">
       <r>    3.8735    1.0000 </r>
       <r>    4.9716    1.0000 </r>
       <r>    5.4607    1.0000 </r>
       <r>    5.7187    1.0000 </r>
       <r>    6.7575    1.0001 </r>
       <r>    9.7255   -0.0000 </r>
       <r>   12.4736   -0.0000 </r>
       <r>   22.3515    0.0000 </r>
       <r>   25.8784    0.0000 </r>
       <r>   27.9026    0.0000 </r>
       <r>   37.4489    0.0000 </r>
       <r>   37.9077    0.0000 </r>
      </set>
      <set comment="kpoint 22">
       <r>    3.8332    1.0000 </r>
       <r>    5.0695    1.0000 </r>
       <r>    5.3136    1.0000 </r>
       <r>    5.7134    1.0000 </r>
       <r>    6.5273    1.0000 </r>
       <r>    8.7960   -0.0000 </r>
       <r>   14.0250    0.0000 </r>
       <r>   21.5540    0.0000 </r>
       <r>   27.3086    0.0000 </r>
       <r>   28.5564    0.0000 </r>
       <r>   36.7395    0.0000 </r>
       <r>   37.2038    0.0000 </r>
      </set>
      <set comment="kpoint 23">
       <r>    3.3162    1.0000 </r>
       <r>    4.9116    1.0000 </r>
       <r>    5.2536    1.0000 </r>
       <r>    5.7814    1.0000 </r>
       <r>    6.1940    1.0000 </r>
       <r>    7.5512   -0.0041 </r>
       <r>   17.4859    0.0000 </r>
       <r>   21.3258    0.0000 </r>
       <r>   29.3328    0.0000 </r>
       <r>   29.7346    0.0000 </r>
       <r>   36.0211    0.0000 </r>
       <r>   36.5183    0.0000 </r>
      </set>
      <set comment="kpoint 24">
       <r>    2.1826    1.0000 </r>
       <r>    4.8728    1.0000 </r>
       <r>    5.4409    1.0000 </r>
       <r>    5.8278    1.0000 </r>
       <r>    5.9425    1.0000 </r>
       <r>    6.8700    1.0009 </r>
       <r>   21.2404    0.0000 </r>
       <r>   21.9224    0.0000 </r>
       <r>   31.3811    0.0000 </r>
       <r>   31.8268    0.0000 </r>
       <r>   34.3590    0.0000 </r>
       <r>   36.7571    0.0000 </r>
      </set>
      <set comment="kpoint 25">
       <r>    2.4251    1.0000 </r>
       <r>    4.5131    1.0000 </r>
       <r>    5.8451    1.0000 </r>
       <r>    6.1096    1.0000 </r>
       <r>    6.1096    1.0000 </r>
       <r>    6.5879    1.0000 </r>
       <r>   24.1697    0.0000 </r>
       <r>   24.1697    0.0000 </r>
       <r>   24.8113    0.0000 </r>
       <r>   26.4082    0.0000 </r>
       <r>   29.2191    0.0000 </r>
       <r>   44.5819    0.0000 </r>
      </set>
      <set comment="kpoint 26">
       <r>    3.2063    1.0000 </r>
       <r>    4.3668    1.0000 </r>
       <r>    5.7537    1.0000 </r>
       <r>    6.2263    1.0000 </r>
       <r>    6.7172    1.0000 </r>
       <r>    6.8354    1.0004 </r>
       <r>   20.8972    0.0000 </r>
       <r>   22.5373    0.0000 </r>
       <r>   23.2942    0.0000 </r>
       <r>   26.9117    0.0000 </r>
       <r>   30.2260    0.0000 </r>
       <r>   44.0171    0.0000 </r>
      </set>
      <set comment="kpoint 27">
       <r>    3.8084    1.0000 </r>
       <r>    4.3704    1.0000 </r>
       <r>    5.5677    1.0000 </r>
       <r>    6.1860    1.0000 </r>
       <r>    6.8368    1.0004 </r>
       <r>    8.3658   -0.0000 </r>
       <r>   17.1377    0.0000 </r>
       <r>   20.5599    0.0000 </r>
       <r>   23.1398    0.0000 </r>
       <r>   27.0174    0.0000 </r>
       <r>   33.4777    0.0000 </r>
       <r>   42.3477    0.0000 </r>
      </set>
      <set comment="kpoint 28">
       <r>    4.1148    1.0000 </r>
       <r>    4.5224    1.0000 </r>
       <r>    5.3996    1.0000 </r>
       <r>    6.1066    1.0000 </r>
       <r>    6.7770    1.0001 </r>
       <r>   10.5723   -0.0000 </r>
       <r>   13.8541    0.0000 </r>
       <r>   19.0540    0.0000 </r>
       <r>   23.7437    0.0000 </r>
       <r>   27.2060    0.0000 </r>
       <r>   37.4939    0.0000 </r>
       <r>   40.9996    0.0000 </r>
      </set>
      <set comment="kpoint 29">
       <r>    4.2772    1.0000 </r>
       <r>    4.7050    1.0000 </r>
       <r>    5.1688    1.0000 </r>
       <r>    6.0420    1.0000 </r>
       <r>    6.5490    1.0000 </r>
       <r>   10.7606   -0.0000 </r>
       <r>   13.7827    0.0000 </r>
       <r>   18.0960    0.0000 </r>
       <r>   25.0612    0.0000 </r>
       <r>   27.6946    0.0000 </r>
       <r>   40.0413    0.0000 </r>
       <r>   40.1919    0.0000 </r>
      </set>
      <set comment="kpoint 30">
       <r>    4.1163    1.0000 </r>
       <r>    4.8884    1.0000 </r>
       <r>    4.9658    1.0000 </r>
       <r>    5.9803    1.0000 </r>
       <r>    6.2754    1.0000 </r>
       <r>    8.8287   -0.0000 </r>
       <r>   16.6827    0.0000 </r>
       <r>   18.1182    0.0000 </r>
       <r>   26.9766    0.0000 </r>
       <r>   28.5638    0.0000 </r>
       <r>   38.3032    0.0000 </r>
       <r>   39.1566    0.0000 </r>
      </set>
      <set comment="kpoint 31">
       <r>    3.4407    1.0000 </r>
       <r>    4.1648    1.0000 </r>
       <r>    6.5447    1.0000 </r>
       <r>    6.5447    1.0000 </r>
       <r>    6.7332    1.0000 </r>
       <r>    6.9531    1.0052 </r>
       <r>   19.9861    0.0000 </r>
       <r>   22.1353    0.0000 </r>
       <r>   22.1353    0.0000 </r>
       <r>   25.7312    0.0000 </r>
       <r>   28.2725    0.0000 </r>
       <r>   48.1282    0.0000 </r>
      </set>
      <set comment="kpoint 32">
       <r>    3.6592    1.0000 </r>
       <r>    4.0936    1.0000 </r>
       <r>    6.3474    1.0000 </r>
       <r>    6.5863    1.0000 </r>
       <r>    6.8458    1.0005 </r>
       <r>    8.5838   -0.0000 </r>
       <r>   17.9523    0.0000 </r>
       <r>   19.5631    0.0000 </r>
       <r>   21.7193    0.0000 </r>
       <r>   26.3346    0.0000 </r>
       <r>   29.5325    0.0000 </r>
       <r>   46.2232    0.0000 </r>
      </set>
      <set comment="kpoint 33">
       <r>    3.9126    1.0000 </r>
       <r>    4.1801    1.0000 </r>
       <r>    5.9543    1.0000 </r>
       <r>    6.5074    1.0000 </r>
       <r>    6.8117    1.0002 </r>
       <r>   10.7744   -0.0000 </r>
       <r>   16.1682    0.0000 </r>
       <r>   16.5950    0.0000 </r>
       <r>   22.1145    0.0000 </r>
       <r>   26.6890    0.0000 </r>
       <r>   32.9980    0.0000 </r>
       <r>   44.5249    0.0000 </r>
      </set>
      <set comment="kpoint 34">
       <r>    4.1960    1.0000 </r>
       <r>    4.3923    1.0000 </r>
       <r>    5.4909    1.0000 </r>
       <r>    6.3445    1.0000 </r>
       <r>    6.6507    1.0000 </r>
       <r>   12.9553    0.0000 </r>
       <r>   13.2450    0.0000 </r>
       <r>   16.1475    0.0000 </r>
       <r>   23.2712    0.0000 </r>
       <r>   27.0705    0.0000 </r>
       <r>   37.3313    0.0000 </r>
       <r>   42.7305    0.0000 </r>
      </set>
      <set comment="kpoint 35">
       <r>    3.5778    1.0000 </r>
       <r>    3.9631    1.0000 </r>
       <r>    6.8223    1.0003 </r>
       <r>    6.8459    1.0005 </r>
       <r>    6.8459    1.0005 </r>
       <r>    9.2225   -0.0000 </r>
       <r>   16.1079    0.0000 </r>
       <r>   21.0231    0.0000 </r>
       <r>   21.0232    0.0000 </r>
       <r>   25.4173    0.0000 </r>
       <r>   27.9627    0.0000 </r>
       <r>   48.6320    0.0000 </r>
      </set>
      <set comment="kpoint 36">
       <r>    3.6687    1.0000 </r>
       <r>    3.9935    1.0000 </r>
       <r>    6.5848    1.0000 </r>
       <r>    6.7646    1.0001 </r>
       <r>    6.8603    1.0008 </r>
       <r>   10.2841   -0.0000 </r>
       <r>   15.4291    0.0000 </r>
       <r>   19.0683    0.0000 </r>
       <r>   21.1616    0.0000 </r>
       <r>   26.1613    0.0000 </r>
       <r>   29.3452    0.0000 </r>
       <r>   47.3456    0.0000 </r>
      </set>
      <set comment="kpoint 37">
       <r>    1.2255    1.0000 </r>
       <r>    4.9148    1.0000 </r>
       <r>    5.5629    1.0000 </r>
       <r>    5.7132    1.0000 </r>
       <r>    6.0265    1.0000 </r>
       <r>    6.4949    1.0000 </r>
       <r>   23.9592    0.0000 </r>
       <r>   24.5480    0.0000 </r>
       <r>   30.4555    0.0000 </r>
       <r>   30.8922    0.0000 </r>
       <r>   33.4828    0.0000 </r>
       <r>   37.5764    0.0000 </r>
      </set>
      <set comment="kpoint 38">
       <r>    2.3834    1.0000 </r>
       <r>    4.8143    1.0000 </r>
       <r>    5.4126    1.0000 </r>
       <r>    5.7916    1.0000 </r>
       <r>    6.2068    1.0000 </r>
       <r>    6.8352    1.0004 </r>
       <r>   19.9143    0.0000 </r>
       <r>   23.6274    0.0000 </r>
       <r>   28.3569    0.0000 </r>
       <r>   31.1066    0.0000 </r>
       <r>   34.6899    0.0000 </r>
       <r>   36.5027    0.0000 </r>
      </set>
      <set comment="kpoint 39">
       <r>    3.4048    1.0000 </r>
       <r>    5.0127    1.0000 </r>
       <r>    5.2365    1.0000 </r>
       <r>    5.7202    1.0000 </r>
       <r>    6.5384    1.0000 </r>
       <r>    7.5554   -0.0083 </r>
       <r>   16.0496    0.0000 </r>
       <r>   23.4707    0.0000 </r>
       <r>   26.4316    0.0000 </r>
       <r>   30.5225    0.0000 </r>
       <r>   34.7458    0.0000 </r>
       <r>   38.0452    0.0000 </r>
      </set>
      <set comment="kpoint 40">
       <r>    3.7447    1.0000 </r>
       <r>    5.0824    1.0000 </r>
       <r>    5.5072    1.0000 </r>
       <r>    5.6564    1.0000 </r>
       <r>    6.7231    1.0000 </r>
       <r>    8.9458   -0.0000 </r>
       <r>   12.9639    0.0000 </r>
       <r>   23.8460    0.0000 </r>
       <r>   24.9749    0.0000 </r>
       <r>   30.1174    0.0000 </r>
       <r>   34.4127    0.0000 </r>
       <r>   38.6207    0.0000 </r>
      </set>
      <set comment="kpoint 41">
       <r>    2.7098    1.0000 </r>
       <r>    4.5706    1.0000 </r>
       <r>    5.4738    1.0000 </r>
       <r>    6.1110    1.0000 </r>
       <r>    6.2892    1.0000 </r>
       <r>    6.8274    1.0003 </r>
       <r>   21.7781    0.0000 </r>
       <r>   22.2779    0.0000 </r>
       <r>   25.2875    0.0000 </r>
       <r>   29.3239    0.0000 </r>
       <r>   31.5018    0.0000 </r>
       <r>   39.9964    0.0000 </r>
      </set>
      <set comment="kpoint 42">
       <r>    3.6251    1.0000 </r>
       <r>    4.5407    1.0000 </r>
       <r>    5.2668    1.0000 </r>
       <r>    6.1187    1.0000 </r>
       <r>    6.5828    1.0000 </r>
       <r>    7.7272   -0.0168 </r>
       <r>   18.0244    0.0000 </r>
       <r>   21.7238    0.0000 </r>
       <r>   23.1713    0.0000 </r>
       <r>   29.7514    0.0000 </r>
       <r>   33.9082    0.0000 </r>
       <r>   38.6078    0.0000 </r>
      </set>
      <set comment="kpoint 43">
       <r>    4.0708    1.0000 </r>
       <r>    4.6856    1.0000 </r>
       <r>    5.1910    1.0000 </r>
       <r>    6.0132    1.0000 </r>
       <r>    6.7387    1.0000 </r>
       <r>    9.4531   -0.0000 </r>
       <r>   14.5229    0.0000 </r>
       <r>   21.3997    0.0000 </r>
       <r>   22.0779    0.0000 </r>
       <r>   29.8482    0.0000 </r>
       <r>   36.2746    0.0000 </r>
       <r>   38.8632    0.0000 </r>
      </set>
      <set comment="kpoint 44">
       <r>    4.1936    1.0000 </r>
       <r>    4.7484    1.0000 </r>
       <r>    5.2087    1.0000 </r>
       <r>    5.9416    1.0000 </r>
       <r>    6.6845    1.0000 </r>
       <r>   10.7866   -0.0000 </r>
       <r>   12.8021   -0.0000 </r>
       <r>   20.2443    0.0000 </r>
       <r>   22.9139    0.0000 </r>
       <r>   30.3020    0.0000 </r>
       <r>   35.8967    0.0000 </r>
       <r>   42.1881    0.0000 </r>
      </set>
      <set comment="kpoint 45">
       <r>    4.1003    1.0000 </r>
       <r>    4.8594    1.0000 </r>
       <r>    4.9705    1.0000 </r>
       <r>    5.9875    1.0000 </r>
       <r>    6.4640    1.0000 </r>
       <r>    8.9459   -0.0000 </r>
       <r>   15.6312    0.0000 </r>
       <r>   19.6202    0.0000 </r>
       <r>   24.3227    0.0000 </r>
       <r>   31.2714    0.0000 </r>
       <r>   35.1076    0.0000 </r>
       <r>   39.7979    0.0000 </r>
      </set>
      <set comment="kpoint 46">
       <r>    3.4272    1.0000 </r>
       <r>    4.7204    1.0000 </r>
       <r>    5.1780    1.0000 </r>
       <r>    6.0791    1.0000 </r>
       <r>    6.1386    1.0000 </r>
       <r>    7.6020   -0.0333 </r>
       <r>   19.0120    0.0000 </r>
       <r>   19.8958    0.0000 </r>
       <r>   26.1886    0.0000 </r>
       <r>   32.6971    0.0000 </r>
       <r>   33.6474    0.0000 </r>
       <r>   37.4604    0.0000 </r>
      </set>
      <set comment="kpoint 47">
       <r>    3.6636    1.0000 </r>
       <r>    4.2583    1.0000 </r>
       <r>    5.7709    1.0000 </r>
       <r>    6.5429    1.0000 </r>
       <r>    6.6255    1.0000 </r>
       <r>    7.9038   -0.0007 </r>
       <r>   20.1009    0.0000 </r>
       <r>   20.1999    0.0000 </r>
       <r>   20.7184    0.0000 </r>
       <r>   28.2594    0.0000 </r>
       <r>   30.4935    0.0000 </r>
       <r>   42.4485    0.0000 </r>
      </set>
      <set comment="kpoint 48">
       <r>    3.9983    1.0000 </r>
       <r>    4.3049    1.0000 </r>
       <r>    5.5749    1.0000 </r>
       <r>    6.4293    1.0000 </r>
       <r>    6.7765    1.0001 </r>
       <r>    9.7931   -0.0000 </r>
       <r>   16.7626    0.0000 </r>
       <r>   18.4848    0.0000 </r>
       <r>   20.5215    0.0000 </r>
       <r>   29.0188    0.0000 </r>
       <r>   33.3369    0.0000 </r>
       <r>   40.8586    0.0000 </r>
      </set>
      <set comment="kpoint 49">
       <r>    4.2669    1.0000 </r>
       <r>    4.4505    1.0000 </r>
       <r>    5.3098    1.0000 </r>
       <r>    6.2664    1.0000 </r>
       <r>    6.7374    1.0000 </r>
       <r>   12.2292   -0.0000 </r>
       <r>   13.6666    0.0000 </r>
       <r>   17.2404    0.0000 </r>
       <r>   21.2617    0.0000 </r>
       <r>   29.5057    0.0000 </r>
       <r>   37.3348    0.0000 </r>
       <r>   39.4796    0.0000 </r>
      </set>
      <set comment="kpoint 50">
       <r>    4.4752    1.0000 </r>
       <r>    4.6045    1.0000 </r>
       <r>    4.9844    1.0000 </r>
       <r>    6.1583    1.0000 </r>
       <r>    6.5602    1.0000 </r>
       <r>   10.9293   -0.0000 </r>
       <r>   14.9065    0.0000 </r>
       <r>   17.0079    0.0000 </r>
       <r>   22.5659    0.0000 </r>
       <r>   30.3120    0.0000 </r>
       <r>   37.4938    0.0000 </r>
       <r>   40.8765    0.0000 </r>
      </set>
      <set comment="kpoint 51">
       <r>    3.7608    1.0000 </r>
       <r>    4.0762    1.0000 </r>
       <r>    6.2322    1.0000 </r>
       <r>    6.6976    1.0000 </r>
       <r>    6.8456    1.0005 </r>
       <r>   10.1017   -0.0000 </r>
       <r>   16.2963    0.0000 </r>
       <r>   19.1586    0.0000 </r>
       <r>   19.7270    0.0000 </r>
       <r>   27.7514    0.0000 </r>
       <r>   30.0915    0.0000 </r>
       <r>   44.7584    0.0000 </r>
      </set>
      <set comment="kpoint 52">
       <r>    3.9817    1.0000 </r>
       <r>    4.2183    1.0000 </r>
       <r>    5.8086    1.0000 </r>
       <r>    6.5152    1.0000 </r>
       <r>    6.8433    1.0005 </r>
       <r>   11.7556   -0.0000 </r>
       <r>   15.6748    0.0000 </r>
       <r>   16.3610    0.0000 </r>
       <r>   20.0794    0.0000 </r>
       <r>   28.7863    0.0000 </r>
       <r>   33.1593    0.0000 </r>
       <r>   42.4390    0.0000 </r>
      </set>
      <set comment="kpoint 53">
       <r>    4.1899    1.0000 </r>
       <r>    4.5392    1.0000 </r>
       <r>    5.0481    1.0000 </r>
       <r>    6.3306    1.0000 </r>
       <r>    6.5448    1.0000 </r>
       <r>    9.2322   -0.0000 </r>
       <r>   17.3454    0.0000 </r>
       <r>   18.5163    0.0000 </r>
       <r>   21.1587    0.0000 </r>
       <r>   32.5274    0.0000 </r>
       <r>   33.7459    0.0000 </r>
       <r>   37.8170    0.0000 </r>
      </set>
      <set comment="kpoint 54">
       <r>    4.4258    1.0000 </r>
       <r>    4.6079    1.0000 </r>
       <r>    4.9570    1.0000 </r>
       <r>    6.1982    1.0000 </r>
       <r>    6.7246    1.0000 </r>
       <r>   11.4104   -0.0000 </r>
       <r>   14.4000    0.0000 </r>
       <r>   18.5783    0.0000 </r>
       <r>   19.6209    0.0000 </r>
       <r>   32.9293    0.0000 </r>
       <r>   35.0607    0.0000 </r>
       <r>   38.9748    0.0000 </r>
      </set>
      <set comment="kpoint 55">
       <r>    4.1729    1.0000 </r>
       <r>    4.4229    1.0000 </r>
       <r>    5.3452    1.0000 </r>
       <r>    6.3739    1.0000 </r>
       <r>    6.8494    1.0006 </r>
       <r>   11.8215   -0.0000 </r>
       <r>   16.4133    0.0000 </r>
       <r>   16.9305    0.0000 </r>
       <r>   17.8464    0.0000 </r>
       <r>   31.9411    0.0000 </r>
       <r>   34.2326    0.0000 </r>
       <r>   39.1304    0.0000 </r>
      </set>
      <set comment="kpoint 56">
       <r>    4.3305    1.0000 </r>
       <r>    4.6530    1.0000 </r>
       <r>    5.0106    1.0000 </r>
       <r>    6.2408    1.0000 </r>
       <r>    6.8437    1.0005 </r>
       <r>   13.8731    0.0000 </r>
       <r>   13.8908    0.0000 </r>
       <r>   16.4716    0.0000 </r>
       <r>   18.2550    0.0000 </r>
       <r>   33.2143    0.0000 </r>
       <r>   36.8851    0.0000 </r>
       <r>   37.4314    0.0000 </r>
      </set>
     </set>
     <set comment="spin 2">
      <set comment="kpoint 1">
       <r>   -0.6633    1.0000 </r>
       <r>    6.0267    1.0000 </r>
       <r>    6.0267    1.0000 </r>
       <r>    6.0267    1.0000 </r>
       <r>    6.8536    1.0006 </r>
       <r>    6.8536    1.0006 </r>
       <r>   29.6425    0.0000 </r>
       <r>   32.5141    0.0000 </r>
       <r>   32.5142    0.0000 </r>
       <r>   32.5142    0.0000 </r>
       <r>   35.2391    0.0000 </r>
       <r>   35.2391    0.0000 </r>
      </set>
      <set comment="kpoint 2">
       <r>   -0.3749    1.0000 </r>
       <r>    5.9575    1.0000 </r>
       <r>    6.0860    1.0000 </r>
       <r>    6.0860    1.0000 </r>
       <r>    6.8339    1.0004 </r>
       <r>    6.8339    1.0004 </r>
       <r>   28.0076    0.0000 </r>
       <r>   30.5697    0.0000 </r>
       <r>   31.8727    0.0000 </r>
       <r>   31.8728    0.0000 </r>
       <r>   36.2894    0.0000 </r>
       <r>   36.2895    0.0000 </r>
      </set>
      <set comment="kpoint 3">
       <r>    0.4620    1.0000 </r>
       <r>    5.7916    1.0000 </r>
       <r>    6.1809    1.0000 </r>
       <r>    6.1809    1.0000 </r>
       <r>    6.8395    1.0005 </r>
       <r>    6.8396    1.0005 </r>
       <r>   23.6756    0.0000 </r>
       <r>   30.0782    0.0000 </r>
       <r>   30.9396    0.0000 </r>
       <r>   30.9397    0.0000 </r>
       <r>   36.4839    0.0000 </r>
       <r>   37.1388    0.0000 </r>
      </set>
      <set comment="kpoint 4">
       <r>    1.7274    1.0000 </r>
       <r>    5.6882    1.0000 </r>
       <r>    6.1528    1.0000 </r>
       <r>    6.1529    1.0000 </r>
       <r>    7.0158    1.0138 </r>
       <r>    7.0158    1.0138 </r>
       <r>   19.4263    0.0000 </r>
       <r>   29.4308    0.0000 </r>
       <r>   30.2374    0.0000 </r>
       <r>   30.2375    0.0000 </r>
       <r>   35.2814    0.0000 </r>
       <r>   35.2815    0.0000 </r>
      </set>
      <set comment="kpoint 5">
       <r>    3.0291    1.0000 </r>
       <r>    6.0014    1.0000 </r>
       <r>    6.0430    1.0000 </r>
       <r>    6.0431    1.0000 </r>
       <r>    7.2876    0.8454 </r>
       <r>    7.2876    0.8454 </r>
       <r>   15.6738    0.0000 </r>
       <r>   28.7220    0.0000 </r>
       <r>   29.8126    0.0000 </r>
       <r>   29.8126    0.0000 </r>
       <r>   33.6281    0.0000 </r>
       <r>   33.6283    0.0000 </r>
      </set>
      <set comment="kpoint 6">
       <r>    3.6684    1.0000 </r>
       <r>    5.9660    1.0000 </r>
       <r>    5.9660    1.0000 </r>
       <r>    7.0201    1.0147 </r>
       <r>    7.4713    0.1516 </r>
       <r>    7.4713    0.1516 </r>
       <r>   12.9288    0.0000 </r>
       <r>   28.2905    0.0000 </r>
       <r>   29.6235    0.0000 </r>
       <r>   29.6235    0.0000 </r>
       <r>   32.7452    0.0000 </r>
       <r>   32.7455    0.0000 </r>
      </set>
      <set comment="kpoint 7">
       <r>   -0.2793    1.0000 </r>
       <r>    5.9010    1.0000 </r>
       <r>    6.1288    1.0000 </r>
       <r>    6.1288    1.0000 </r>
       <r>    6.7421    1.0000 </r>
       <r>    6.9010    1.0019 </r>
       <r>   28.7949    0.0000 </r>
       <r>   30.0787    0.0000 </r>
       <r>   30.0788    0.0000 </r>
       <r>   31.1159    0.0000 </r>
       <r>   36.9796    0.0000 </r>
       <r>   37.5565    0.0000 </r>
      </set>
      <set comment="kpoint 8">
       <r>    0.3738    1.0000 </r>
       <r>    5.7426    1.0000 </r>
       <r>    6.2284    1.0000 </r>
       <r>    6.2418    1.0000 </r>
       <r>    6.6609    1.0000 </r>
       <r>    6.9513    1.0050 </r>
       <r>   25.3494    0.0000 </r>
       <r>   28.6876    0.0000 </r>
       <r>   29.0414    0.0000 </r>
       <r>   32.1250    0.0000 </r>
       <r>   34.6906    0.0000 </r>
       <r>   37.2105    0.0000 </r>
      </set>
      <set comment="kpoint 9">
       <r>    1.5033    1.0000 </r>
       <r>    5.5856    1.0000 </r>
       <r>    6.1615    1.0000 </r>
       <r>    6.2741    1.0000 </r>
       <r>    6.8547    1.0007 </r>
       <r>    7.1008    1.0321 </r>
       <r>   20.9959    0.0000 </r>
       <r>   27.7689    0.0000 </r>
       <r>   28.4240    0.0000 </r>
       <r>   31.5081    0.0000 </r>
       <r>   34.6162    0.0000 </r>
       <r>   36.9799    0.0000 </r>
      </set>
      <set comment="kpoint 10">
       <r>    2.8411    1.0000 </r>
       <r>    5.6254    1.0000 </r>
       <r>    6.0008    1.0000 </r>
       <r>    6.1896    1.0000 </r>
       <r>    7.3076    0.7815 </r>
       <r>    7.3335    0.6870 </r>
       <r>   17.0301    0.0000 </r>
       <r>   27.3598    0.0000 </r>
       <r>   27.7505    0.0000 </r>
       <r>   29.6399    0.0000 </r>
       <r>   35.0649    0.0000 </r>
       <r>   36.6470    0.0000 </r>
      </set>
      <set comment="kpoint 11">
       <r>    3.7210    1.0000 </r>
       <r>    5.8222    1.0000 </r>
       <r>    6.0883    1.0000 </r>
       <r>    6.2074    1.0000 </r>
       <r>    7.4909    0.0987 </r>
       <r>    8.0236   -0.0000 </r>
       <r>   13.7829    0.0000 </r>
       <r>   26.8680    0.0000 </r>
       <r>   27.5229    0.0000 </r>
       <r>   28.6580    0.0000 </r>
       <r>   34.9056    0.0000 </r>
       <r>   35.2007    0.0000 </r>
      </set>
      <set comment="kpoint 12">
       <r>    3.8915    1.0000 </r>
       <r>    5.8185    1.0000 </r>
       <r>    6.0469    1.0000 </r>
       <r>    6.5000    1.0000 </r>
       <r>    7.4631    0.1764 </r>
       <r>    8.5576   -0.0000 </r>
       <r>   12.5624   -0.0000 </r>
       <r>   25.9949    0.0000 </r>
       <r>   28.3330    0.0000 </r>
       <r>   28.6127    0.0000 </r>
       <r>   34.2159    0.0000 </r>
       <r>   34.9378    0.0000 </r>
      </set>
      <set comment="kpoint 13">
       <r>    3.5244    1.0000 </r>
       <r>    5.8890    1.0000 </r>
       <r>    6.0255    1.0000 </r>
       <r>    6.0905    1.0000 </r>
       <r>    7.2479    0.9433 </r>
       <r>    7.9006   -0.0007 </r>
       <r>   14.7567    0.0000 </r>
       <r>   25.5370    0.0000 </r>
       <r>   29.2374    0.0000 </r>
       <r>   29.8036    0.0000 </r>
       <r>   33.6913    0.0000 </r>
       <r>   35.0439    0.0000 </r>
      </set>
      <set comment="kpoint 14">
       <r>    2.4087    1.0000 </r>
       <r>    5.6097    1.0000 </r>
       <r>    6.0605    1.0000 </r>
       <r>    6.2041    1.0000 </r>
       <r>    6.9275    1.0032 </r>
       <r>    7.4269    0.3033 </r>
       <r>   18.3024    0.0000 </r>
       <r>   25.5658    0.0000 </r>
       <r>   30.4077    0.0000 </r>
       <r>   31.8647    0.0000 </r>
       <r>   33.6136    0.0000 </r>
       <r>   34.7944    0.0000 </r>
      </set>
      <set comment="kpoint 15">
       <r>    1.0846    1.0000 </r>
       <r>    5.6617    1.0000 </r>
       <r>    6.1788    1.0000 </r>
       <r>    6.2865    1.0000 </r>
       <r>    6.6825    1.0000 </r>
       <r>    7.0923    1.0305 </r>
       <r>   22.4220    0.0000 </r>
       <r>   26.0678    0.0000 </r>
       <r>   31.7686    0.0000 </r>
       <r>   33.6645    0.0000 </r>
       <r>   34.1922    0.0000 </r>
       <r>   34.6220    0.0000 </r>
      </set>
      <set comment="kpoint 16">
       <r>    0.0967    1.0000 </r>
       <r>    5.8372    1.0000 </r>
       <r>    6.1693    1.0000 </r>
       <r>    6.1741    1.0000 </r>
       <r>    6.7220    1.0000 </r>
       <r>    6.9106    1.0023 </r>
       <r>   26.5194    0.0000 </r>
       <r>   27.3441    0.0000 </r>
       <r>   31.8094    0.0000 </r>
       <r>   33.6228    0.0000 </r>
       <r>   34.9275    0.0000 </r>
       <r>   35.6338    0.0000 </r>
      </set>
      <set comment="kpoint 17">
       <r>    0.8255    1.0000 </r>
       <r>    5.5635    1.0000 </r>
       <r>    6.4137    1.0000 </r>
       <r>    6.4137    1.0000 </r>
       <r>    6.4606    1.0000 </r>
       <r>    7.0228    1.0152 </r>
       <r>   26.9315    0.0000 </r>
       <r>   26.9316    0.0000 </r>
       <r>   27.4567    0.0000 </r>
       <r>   28.7027    0.0000 </r>
       <r>   32.3452    0.0000 </r>
       <r>   40.7560    0.0000 </r>
      </set>
      <set comment="kpoint 18">
       <r>    1.7560    1.0000 </r>
       <r>    5.3672    1.0000 </r>
       <r>    6.1999    1.0000 </r>
       <r>    6.5380    1.0000 </r>
       <r>    6.7913    1.0001 </r>
       <r>    7.1487    1.0345 </r>
       <r>   22.9367    0.0000 </r>
       <r>   25.7164    0.0000 </r>
       <r>   27.0744    0.0000 </r>
       <r>   28.4760    0.0000 </r>
       <r>   31.8022    0.0000 </r>
       <r>   40.3694    0.0000 </r>
      </set>
      <set comment="kpoint 19">
       <r>    2.9706    1.0000 </r>
       <r>    5.2552    1.0000 </r>
       <r>    5.9578    1.0000 </r>
       <r>    6.5026    1.0000 </r>
       <r>    7.3667    0.5517 </r>
       <r>    7.4248    0.3113 </r>
       <r>   18.8343    0.0000 </r>
       <r>   25.1030    0.0000 </r>
       <r>   25.3986    0.0000 </r>
       <r>   27.9284    0.0000 </r>
       <r>   34.5135    0.0000 </r>
       <r>   39.4498    0.0000 </r>
      </set>
      <set comment="kpoint 20">
       <r>    3.9690    1.0000 </r>
       <r>    5.3110    1.0000 </r>
       <r>    5.8721    1.0000 </r>
       <r>    6.4005    1.0000 </r>
       <r>    7.5162    0.0450 </r>
       <r>    8.5219   -0.0000 </r>
       <r>   15.2191    0.0000 </r>
       <r>   23.6926    0.0000 </r>
       <r>   25.1563    0.0000 </r>
       <r>   27.7104    0.0000 </r>
       <r>   37.8181    0.0000 </r>
       <r>   38.5904    0.0000 </r>
      </set>
      <set comment="kpoint 21">
       <r>    4.3167    1.0000 </r>
       <r>    5.3993    1.0000 </r>
       <r>    6.0023    1.0000 </r>
       <r>    6.3211    1.0000 </r>
       <r>    7.4749    0.1410 </r>
       <r>    9.9390   -0.0000 </r>
       <r>   12.7662   -0.0000 </r>
       <r>   22.3943    0.0000 </r>
       <r>   25.9183    0.0000 </r>
       <r>   27.8815    0.0000 </r>
       <r>   37.4458    0.0000 </r>
       <r>   37.8389    0.0000 </r>
      </set>
      <set comment="kpoint 22">
       <r>    4.1966    1.0000 </r>
       <r>    5.5272    1.0000 </r>
       <r>    5.8338    1.0000 </r>
       <r>    6.3069    1.0000 </r>
       <r>    7.2410    0.9561 </r>
       <r>    9.1773   -0.0000 </r>
       <r>   14.2302    0.0000 </r>
       <r>   21.6072    0.0000 </r>
       <r>   27.3572    0.0000 </r>
       <r>   28.5120    0.0000 </r>
       <r>   36.7435    0.0000 </r>
       <r>   37.1284    0.0000 </r>
      </set>
      <set comment="kpoint 23">
       <r>    3.4149    1.0000 </r>
       <r>    5.4747    1.0000 </r>
       <r>    5.8077    1.0000 </r>
       <r>    6.3746    1.0000 </r>
       <r>    6.8941    1.0016 </r>
       <r>    8.1410   -0.0000 </r>
       <r>   17.6095    0.0000 </r>
       <r>   21.3858    0.0000 </r>
       <r>   29.3893    0.0000 </r>
       <r>   29.6745    0.0000 </r>
       <r>   35.9225    0.0000 </r>
       <r>   36.5282    0.0000 </r>
      </set>
      <set comment="kpoint 24">
       <r>    2.1598    1.0000 </r>
       <r>    5.4981    1.0000 </r>
       <r>    6.0395    1.0000 </r>
       <r>    6.5012    1.0000 </r>
       <r>    6.5525    1.0000 </r>
       <r>    7.5171    0.0433 </r>
       <r>   21.3274    0.0000 </r>
       <r>   21.9696    0.0000 </r>
       <r>   31.3117    0.0000 </r>
       <r>   31.8816    0.0000 </r>
       <r>   34.2442    0.0000 </r>
       <r>   36.8097    0.0000 </r>
      </set>
      <set comment="kpoint 25">
       <r>    2.4189    1.0000 </r>
       <r>    5.1362    1.0000 </r>
       <r>    6.3069    1.0000 </r>
       <r>    6.8410    1.0005 </r>
       <r>    6.8410    1.0005 </r>
       <r>    7.1854    1.0214 </r>
       <r>   24.2023    0.0000 </r>
       <r>   24.2023    0.0000 </r>
       <r>   24.8083    0.0000 </r>
       <r>   26.4307    0.0000 </r>
       <r>   29.3360    0.0000 </r>
       <r>   44.4636    0.0000 </r>
      </set>
      <set comment="kpoint 26">
       <r>    3.3003    1.0000 </r>
       <r>    4.9705    1.0000 </r>
       <r>    6.2512    1.0000 </r>
       <r>    6.9182    1.0027 </r>
       <r>    7.3685    0.5441 </r>
       <r>    7.4234    0.3169 </r>
       <r>   20.9492    0.0000 </r>
       <r>   22.5867    0.0000 </r>
       <r>   23.3173    0.0000 </r>
       <r>   26.9484    0.0000 </r>
       <r>   30.2947    0.0000 </r>
       <r>   43.9710    0.0000 </r>
      </set>
      <set comment="kpoint 27">
       <r>    4.0772    1.0000 </r>
       <r>    4.9244    1.0000 </r>
       <r>    6.1014    1.0000 </r>
       <r>    6.8294    1.0004 </r>
       <r>    7.5418    0.0063 </r>
       <r>    8.7589   -0.0000 </r>
       <r>   17.2327    0.0000 </r>
       <r>   20.6328    0.0000 </r>
       <r>   23.1588    0.0000 </r>
       <r>   27.0538    0.0000 </r>
       <r>   33.5162    0.0000 </r>
       <r>   42.3149    0.0000 </r>
      </set>
      <set comment="kpoint 28">
       <r>    4.5658    1.0000 </r>
       <r>    4.9615    1.0000 </r>
       <r>    5.9655    1.0000 </r>
       <r>    6.7175    1.0000 </r>
       <r>    7.5078    0.0611 </r>
       <r>   10.8059   -0.0000 </r>
       <r>   14.0205    0.0000 </r>
       <r>   19.1425    0.0000 </r>
       <r>   23.7681    0.0000 </r>
       <r>   27.2251    0.0000 </r>
       <r>   37.5168    0.0000 </r>
       <r>   40.9720    0.0000 </r>
      </set>
      <set comment="kpoint 29">
       <r>    4.7579    1.0000 </r>
       <r>    5.0973    1.0000 </r>
       <r>    5.7407    1.0000 </r>
       <r>    6.6234    1.0000 </r>
       <r>    7.2926    0.8301 </r>
       <r>   11.0044   -0.0000 </r>
       <r>   13.9652    0.0000 </r>
       <r>   18.1939    0.0000 </r>
       <r>   25.0978    0.0000 </r>
       <r>   27.6898    0.0000 </r>
       <r>   40.0125    0.0000 </r>
       <r>   40.0950    0.0000 </r>
      </set>
      <set comment="kpoint 30">
       <r>    4.3789    1.0000 </r>
       <r>    5.4487    1.0000 </r>
       <r>    5.4721    1.0000 </r>
       <r>    6.5359    1.0000 </r>
       <r>    7.0261    1.0158 </r>
       <r>    9.2629   -0.0000 </r>
       <r>   16.8135    0.0000 </r>
       <r>   18.2099    0.0000 </r>
       <r>   27.0252    0.0000 </r>
       <r>   28.5327    0.0000 </r>
       <r>   38.1869    0.0000 </r>
       <r>   39.1210    0.0000 </r>
      </set>
      <set comment="kpoint 31">
       <r>    3.6512    1.0000 </r>
       <r>    4.7600    1.0000 </r>
       <r>    7.1457    1.0349 </r>
       <r>    7.3046    0.7917 </r>
       <r>    7.3046    0.7916 </r>
       <r>    7.3372    0.6724 </r>
       <r>   20.0698    0.0000 </r>
       <r>   22.1424    0.0000 </r>
       <r>   22.1424    0.0000 </r>
       <r>   25.7969    0.0000 </r>
       <r>   28.3631    0.0000 </r>
       <r>   48.0211    0.0000 </r>
      </set>
      <set comment="kpoint 32">
       <r>    3.9652    1.0000 </r>
       <r>    4.6762    1.0000 </r>
       <r>    6.9575    1.0056 </r>
       <r>    7.2445    0.9498 </r>
       <r>    7.5614   -0.0135 </r>
       <r>    8.8095   -0.0000 </r>
       <r>   18.0717    0.0000 </r>
       <r>   19.6012    0.0000 </r>
       <r>   21.7178    0.0000 </r>
       <r>   26.3933    0.0000 </r>
       <r>   29.6019    0.0000 </r>
       <r>   46.1710    0.0000 </r>
      </set>
      <set comment="kpoint 33">
       <r>    4.2861    1.0000 </r>
       <r>    4.7349    1.0000 </r>
       <r>    6.5475    1.0000 </r>
       <r>    7.1181    1.0346 </r>
       <r>    7.5684   -0.0188 </r>
       <r>   10.9351   -0.0000 </r>
       <r>   16.2583    0.0000 </r>
       <r>   16.7381    0.0000 </r>
       <r>   22.1184    0.0000 </r>
       <r>   26.7389    0.0000 </r>
       <r>   33.0408    0.0000 </r>
       <r>   44.4662    0.0000 </r>
      </set>
      <set comment="kpoint 34">
       <r>    4.6526    1.0000 </r>
       <r>    4.8639    1.0000 </r>
       <r>    6.0679    1.0000 </r>
       <r>    6.9194    1.0027 </r>
       <r>    7.4237    0.3155 </r>
       <r>   13.0912    0.0000 </r>
       <r>   13.3910    0.0000 </r>
       <r>   16.3050    0.0000 </r>
       <r>   23.2909    0.0000 </r>
       <r>   27.0981    0.0000 </r>
       <r>   37.3592    0.0000 </r>
       <r>   42.6671    0.0000 </r>
      </set>
      <set comment="kpoint 35">
       <r>    3.9159    1.0000 </r>
       <r>    4.5428    1.0000 </r>
       <r>    7.4301    0.2911 </r>
       <r>    7.6287   -0.0354 </r>
       <r>    7.6287   -0.0354 </r>
       <r>    9.1968   -0.0000 </r>
       <r>   16.2858    0.0000 </r>
       <r>   21.0073    0.0000 </r>
       <r>   21.0074    0.0000 </r>
       <r>   25.5047    0.0000 </r>
       <r>   28.0549    0.0000 </r>
       <r>   48.5724    0.0000 </r>
      </set>
      <set comment="kpoint 36">
       <r>    4.0233    1.0000 </r>
       <r>    4.5689    1.0000 </r>
       <r>    7.2734    0.8848 </r>
       <r>    7.3675    0.5484 </r>
       <r>    7.6453   -0.0339 </r>
       <r>   10.3082   -0.0000 </r>
       <r>   15.6366    0.0000 </r>
       <r>   19.0942    0.0000 </r>
       <r>   21.1482    0.0000 </r>
       <r>   26.2286    0.0000 </r>
       <r>   29.4172    0.0000 </r>
       <r>   47.2745    0.0000 </r>
      </set>
      <set comment="kpoint 37">
       <r>    1.1751    1.0000 </r>
       <r>    5.5624    1.0000 </r>
       <r>    6.2005    1.0000 </r>
       <r>    6.4270    1.0000 </r>
       <r>    6.6083    1.0000 </r>
       <r>    7.1166    1.0344 </r>
       <r>   24.0103    0.0000 </r>
       <r>   24.5775    0.0000 </r>
       <r>   30.3997    0.0000 </r>
       <r>   30.8397    0.0000 </r>
       <r>   33.6329    0.0000 </r>
       <r>   37.4910    0.0000 </r>
      </set>
      <set comment="kpoint 38">
       <r>    2.3749    1.0000 </r>
       <r>    5.4238    1.0000 </r>
       <r>    6.0034    1.0000 </r>
       <r>    6.4424    1.0000 </r>
       <r>    6.8463    1.0005 </r>
       <r>    7.4816    0.1226 </r>
       <r>   20.0033    0.0000 </r>
       <r>   23.6679    0.0000 </r>
       <r>   28.3485    0.0000 </r>
       <r>   31.1076    0.0000 </r>
       <r>   34.7082    0.0000 </r>
       <r>   36.4657    0.0000 </r>
      </set>
      <set comment="kpoint 39">
       <r>    3.5826    1.0000 </r>
       <r>    5.4838    1.0000 </r>
       <r>    5.8274    1.0000 </r>
       <r>    6.3317    1.0000 </r>
       <r>    7.2202    0.9884 </r>
       <r>    8.1080   -0.0000 </r>
       <r>   16.1988    0.0000 </r>
       <r>   23.5061    0.0000 </r>
       <r>   26.4512    0.0000 </r>
       <r>   30.5108    0.0000 </r>
       <r>   34.7280    0.0000 </r>
       <r>   38.0058    0.0000 </r>
      </set>
      <set comment="kpoint 40">
       <r>    4.1492    1.0000 </r>
       <r>    5.5470    1.0000 </r>
       <r>    6.0174    1.0000 </r>
       <r>    6.2517    1.0000 </r>
       <r>    7.4350    0.2727 </r>
       <r>    9.2415   -0.0000 </r>
       <r>   13.2262    0.0000 </r>
       <r>   23.8640    0.0000 </r>
       <r>   25.0191    0.0000 </r>
       <r>   30.0844    0.0000 </r>
       <r>   34.4113    0.0000 </r>
       <r>   38.5625    0.0000 </r>
      </set>
      <set comment="kpoint 41">
       <r>    2.7183    1.0000 </r>
       <r>    5.1879    1.0000 </r>
       <r>    6.0306    1.0000 </r>
       <r>    6.8441    1.0005 </r>
       <r>    6.8625    1.0008 </r>
       <r>    7.4693    0.1576 </r>
       <r>   21.8482    0.0000 </r>
       <r>   22.3129    0.0000 </r>
       <r>   25.3148    0.0000 </r>
       <r>   29.3082    0.0000 </r>
       <r>   31.5868    0.0000 </r>
       <r>   39.9351    0.0000 </r>
      </set>
      <set comment="kpoint 42">
       <r>    3.7736    1.0000 </r>
       <r>    5.1152    1.0000 </r>
       <r>    5.8170    1.0000 </r>
       <r>    6.7500    1.0000 </r>
       <r>    7.2591    0.9196 </r>
       <r>    8.2522   -0.0000 </r>
       <r>   18.1227    0.0000 </r>
       <r>   21.7668    0.0000 </r>
       <r>   23.2242    0.0000 </r>
       <r>   29.7516    0.0000 </r>
       <r>   33.9413    0.0000 </r>
       <r>   38.5765    0.0000 </r>
      </set>
      <set comment="kpoint 43">
       <r>    4.4603    1.0000 </r>
       <r>    5.1310    1.0000 </r>
       <r>    5.7604    1.0000 </r>
       <r>    6.6187    1.0000 </r>
       <r>    7.4601    0.1857 </r>
       <r>    9.7729   -0.0000 </r>
       <r>   14.6858    0.0000 </r>
       <r>   21.4489    0.0000 </r>
       <r>   22.1355    0.0000 </r>
       <r>   29.8409    0.0000 </r>
       <r>   36.2541    0.0000 </r>
       <r>   38.8826    0.0000 </r>
      </set>
      <set comment="kpoint 44">
       <r>    4.6717    1.0000 </r>
       <r>    5.1480    1.0000 </r>
       <r>    5.7756    1.0000 </r>
       <r>    6.5332    1.0000 </r>
       <r>    7.4178    0.3390 </r>
       <r>   10.9844   -0.0000 </r>
       <r>   13.0511    0.0000 </r>
       <r>   20.3106    0.0000 </r>
       <r>   22.9606    0.0000 </r>
       <r>   30.2836    0.0000 </r>
       <r>   35.8717    0.0000 </r>
       <r>   42.1348    0.0000 </r>
      </set>
      <set comment="kpoint 45">
       <r>    4.4037    1.0000 </r>
       <r>    5.3296    1.0000 </r>
       <r>    5.5513    1.0000 </r>
       <r>    6.5686    1.0000 </r>
       <r>    7.1904    1.0181 </r>
       <r>    9.3490   -0.0000 </r>
       <r>   15.7771    0.0000 </r>
       <r>   19.6930    0.0000 </r>
       <r>   24.3626    0.0000 </r>
       <r>   31.2507    0.0000 </r>
       <r>   35.0683    0.0000 </r>
       <r>   39.8350    0.0000 </r>
      </set>
      <set comment="kpoint 46">
       <r>    3.5048    1.0000 </r>
       <r>    5.3221    1.0000 </r>
       <r>    5.7319    1.0000 </r>
       <r>    6.6292    1.0000 </r>
       <r>    6.8782    1.0011 </r>
       <r>    8.1846   -0.0000 </r>
       <r>   19.1192    0.0000 </r>
       <r>   19.9584    0.0000 </r>
       <r>   26.2144    0.0000 </r>
       <r>   32.6934    0.0000 </r>
       <r>   33.5912    0.0000 </r>
       <r>   37.5039    0.0000 </r>
      </set>
      <set comment="kpoint 47">
       <r>    3.8902    1.0000 </r>
       <r>    4.8498    1.0000 </r>
       <r>    6.3008    1.0000 </r>
       <r>    7.1992    1.0111 </r>
       <r>    7.3032    0.7964 </r>
       <r>    8.3339   -0.0000 </r>
       <r>   20.1628    0.0000 </r>
       <r>   20.2596    0.0000 </r>
       <r>   20.7709    0.0000 </r>
       <r>   28.2704    0.0000 </r>
       <r>   30.5648    0.0000 </r>
       <r>   42.3968    0.0000 </r>
      </set>
      <set comment="kpoint 48">
       <r>    4.3409    1.0000 </r>
       <r>    4.8674    1.0000 </r>
       <r>    6.1310    1.0000 </r>
       <r>    7.0348    1.0177 </r>
       <r>    7.5244    0.0309 </r>
       <r>   10.0563   -0.0000 </r>
       <r>   16.8526    0.0000 </r>
       <r>   18.5875    0.0000 </r>
       <r>   20.5635    0.0000 </r>
       <r>   29.0307    0.0000 </r>
       <r>   33.3799    0.0000 </r>
       <r>   40.8104    0.0000 </r>
      </set>
      <set comment="kpoint 49">
       <r>    4.6989    1.0000 </r>
       <r>    4.9455    1.0000 </r>
       <r>    5.8817    1.0000 </r>
       <r>    6.8463    1.0005 </r>
       <r>    7.5022    0.0727 </r>
       <r>   12.3934   -0.0000 </r>
       <r>   13.8228    0.0000 </r>
       <r>   17.3596    0.0000 </r>
       <r>   21.3072    0.0000 </r>
       <r>   29.5093    0.0000 </r>
       <r>   37.3550    0.0000 </r>
       <r>   39.4287    0.0000 </r>
      </set>
      <set comment="kpoint 50">
       <r>    4.8953    1.0000 </r>
       <r>    5.0686    1.0000 </r>
       <r>    5.5584    1.0000 </r>
       <r>    6.7209    1.0000 </r>
       <r>    7.3258    0.7161 </r>
       <r>   11.1790   -0.0000 </r>
       <r>   15.0406    0.0000 </r>
       <r>   17.1243    0.0000 </r>
       <r>   22.6134    0.0000 </r>
       <r>   30.3035    0.0000 </r>
       <r>   37.4258    0.0000 </r>
       <r>   40.9235    0.0000 </r>
      </set>
      <set comment="kpoint 51">
       <r>    4.1098    1.0000 </r>
       <r>    4.6533    1.0000 </r>
       <r>    6.8600    1.0008 </r>
       <r>    7.2966    0.8179 </r>
       <r>    7.6284   -0.0354 </r>
       <r>   10.2255   -0.0000 </r>
       <r>   16.4601    0.0000 </r>
       <r>   19.2042    0.0000 </r>
       <r>   19.7449    0.0000 </r>
       <r>   27.7772    0.0000 </r>
       <r>   30.1654    0.0000 </r>
       <r>   44.6863    0.0000 </r>
      </set>
      <set comment="kpoint 52">
       <r>    4.3595    1.0000 </r>
       <r>    4.7817    1.0000 </r>
       <r>    6.4061    1.0000 </r>
       <r>    7.0992    1.0318 </r>
       <r>    7.6265   -0.0354 </r>
       <r>   11.8661   -0.0000 </r>
       <r>   15.8440    0.0000 </r>
       <r>   16.4540    0.0000 </r>
       <r>   20.1147    0.0000 </r>
       <r>   28.8037    0.0000 </r>
       <r>   33.2068    0.0000 </r>
       <r>   42.3565    0.0000 </r>
      </set>
      <set comment="kpoint 53">
       <r>    4.4670    1.0000 </r>
       <r>    5.1216    1.0000 </r>
       <r>    5.5848    1.0000 </r>
       <r>    6.8937    1.0016 </r>
       <r>    7.3063    0.7858 </r>
       <r>    9.5923   -0.0000 </r>
       <r>   17.4524    0.0000 </r>
       <r>   18.5852    0.0000 </r>
       <r>   21.2263    0.0000 </r>
       <r>   32.4911    0.0000 </r>
       <r>   33.7673    0.0000 </r>
       <r>   37.8254    0.0000 </r>
      </set>
      <set comment="kpoint 54">
       <r>    4.8103    1.0000 </r>
       <r>    5.1376    1.0000 </r>
       <r>    5.5226    1.0000 </r>
       <r>    6.7698    1.0001 </r>
       <r>    7.4900    0.1009 </r>
       <r>   11.6249   -0.0000 </r>
       <r>   14.5480    0.0000 </r>
       <r>   18.6563    0.0000 </r>
       <r>   19.6996    0.0000 </r>
       <r>   32.9080    0.0000 </r>
       <r>   35.0267    0.0000 </r>
       <r>   39.0066    0.0000 </r>
      </set>
      <set comment="kpoint 55">
       <r>    4.5483    1.0000 </r>
       <r>    4.9944    1.0000 </r>
       <r>    5.9142    1.0000 </r>
       <r>    6.9467    1.0046 </r>
[...]
       </set>
       <set comment="band 5">
        <r>  0.0000  0.0018  0.0012  0.0001  0.1750  0.6601  0.0472  0.0117  0.0854 </r>
       </set>
       <set comment="band 6">
        <r>  0.1208  0.0066  0.0960  0.0462  0.0011  0.0028  0.1076  0.3798  0.0925 </r>
       </set>
       <set comment="band 7">
        <r>  0.1541  0.2535  0.0111  0.0401  0.1414  0.0787  0.0118  0.0244  0.0178 </r>
       </set>
       <set comment="band 8">
        <r>  0.1616  0.1679  0.0241  0.0892  0.0544  0.0285  0.0379  0.0289  0.0751 </r>
       </set>
       <set comment="band 9">
        <r>  0.0836  0.0032  0.2775  0.0385  0.0004  0.0022  0.2066  0.0348  0.0007 </r>
       </set>
       <set comment="band 10">
        <r>  0.0118  0.0093  0.0257  0.2709  0.0073  0.0000  0.0026  0.0552  0.0786 </r>
       </set>
       <set comment="band 11">
        <r>  0.0284  0.0522  0.0021  0.0012  0.3123  0.0224  0.0248  0.0446  0.0746 </r>
       </set>
       <set comment="band 12">
        <r>  0.0692  0.0307  0.0590  0.1414  0.0290  0.0031  0.2019  0.0608  0.1004 </r>
       </set>
      </set>
      <set comment="kpoint 46">
       <set comment="band 1">
        <r>  0.2941  0.0000  0.1217  0.0551  0.0000  0.0000  0.0665  0.1321  0.0076 </r>
       </set>
       <set comment="band 2">
        <r>  0.0000  0.0317  0.0000  0.0000  0.7110  0.1746  0.0000  0.0000  0.0000 </r>
       </set>
       <set comment="band 3">
        <r>  0.0033  0.0000  0.0000  0.0073  0.0000  0.0000  0.4366  0.3264  0.1603 </r>
       </set>
       <set comment="band 4">
        <r>  0.0032  0.0000  0.0115  0.0015  0.0000  0.0000  0.3280  0.0133  0.6040 </r>
       </set>
       <set comment="band 5">
        <r>  0.0000  0.0027  0.0000  0.0000  0.2047  0.7691  0.0000  0.0000  0.0000 </r>
       </set>
       <set comment="band 6">
        <r>  0.0648  0.0000  0.0363  0.0172  0.0000  0.0000  0.1204  0.5028  0.1975 </r>
       </set>
       <set comment="band 7">
        <r>  0.0000  0.4003  0.0000  0.0000  0.1983  0.1266  0.0000  0.0000  0.0000 </r>
       </set>
       <set comment="band 8">
        <r>  0.2356  0.0000  0.0571  0.1747  0.0000  0.0000  0.0386  0.0802  0.0541 </r>
       </set>
       <set comment="band 9">
        <r>  0.0683  0.0000  0.2728  0.0095  0.0000  0.0000  0.2513  0.0160  0.0005 </r>
       </set>
       <set comment="band 10">
        <r>  0.0003  0.0000  0.0451  0.3312  0.0000  0.0000  0.0078  0.0082  0.0855 </r>
       </set>
       <set comment="band 11">
        <r>  0.0000  0.1050  0.0000  0.0000  0.3464  0.0276  0.0000  0.0000  0.0000 </r>
       </set>
       <set comment="band 12">
        <r>  0.1095  0.0000  0.1017  0.0746  0.0000  0.0000  0.1810  0.0931  0.1762 </r>
       </set>
      </set>
      <set comment="kpoint 47">
       <set comment="band 1">
        <r>  0.1455  0.0825  0.0000  0.0122  0.0164  0.0000  0.1454  0.0000  0.3570 </r>
       </set>
       <set comment="band 2">
        <r>  0.0000  0.0000  0.0099  0.0000  0.0000  0.0107  0.0000  0.8949  0.0000 </r>
       </set>
       <set comment="band 3">
        <r>  0.0490  0.0858  0.0000  0.0011  0.5074  0.0000  0.1575  0.0000  0.0909 </r>
       </set>
       <set comment="band 4">
        <r>  0.0056  0.0167  0.0000  0.0023  0.0002  0.0000  0.5230  0.0000  0.4246 </r>
       </set>
       <set comment="band 5">
        <r>  0.0000  0.0000  0.0056  0.0000  0.0000  0.9629  0.0000  0.0144  0.0000 </r>
       </set>
       <set comment="band 6">
        <r>  0.0880  0.1272  0.0000  0.0090  0.4569  0.0000  0.1371  0.0000  0.0603 </r>
       </set>
       <set comment="band 7">
        <r>  0.0000  0.0000  0.4532  0.0000  0.0000  0.0537  0.0000  0.1794  0.0000 </r>
       </set>
       <set comment="band 8">
        <r>  0.0349  0.1415  0.0000  0.1087  0.0297  0.0000  0.1112  0.0000  0.2082 </r>
       </set>
       <set comment="band 9">
        <r>  0.2585  0.0974  0.0000  0.2723  0.0259  0.0000  0.0053  0.0000  0.0178 </r>
       </set>
       <set comment="band 10">
        <r>  0.0000  0.0000  0.0981  0.0000  0.0000  0.0121  0.0000  0.5516  0.0000 </r>
       </set>
       <set comment="band 11">
        <r>  0.2457  0.0696  0.0000  0.1750  0.0100  0.0000  0.0184  0.0000  0.1093 </r>
       </set>
       <set comment="band 12">
        <r>  0.0311  0.0015  0.0000  0.0514  0.0946  0.0000  0.0548  0.0000  0.1959 </r>
       </set>
      </set>
      <set comment="kpoint 48">
       <set comment="band 1">
        <r>  0.0581  0.0316  0.0007  0.0195  0.0148  0.0026  0.2296  0.0244  0.4410 </r>
       </set>
       <set comment="band 2">
        <r>  0.0004  0.0000  0.0239  0.0051  0.0038  0.0120  0.0111  0.8330  0.0153 </r>
       </set>
       <set comment="band 3">
        <r>  0.0268  0.0884  0.0002  0.0002  0.6268  0.0383  0.0842  0.0169  0.0141 </r>
       </set>
       <set comment="band 4">
        <r>  0.0000  0.0083  0.0011  0.0029  0.0004  0.1278  0.4882  0.0020  0.3425 </r>
       </set>
       <set comment="band 5">
        <r>  0.0002  0.0001  0.0016  0.0001  0.0881  0.7728  0.0733  0.0101  0.0447 </r>
       </set>
       <set comment="band 6">
        <r>  0.1089  0.2497  0.0037  0.0165  0.2595  0.0287  0.0583  0.0006  0.0661 </r>
       </set>
       <set comment="band 7">
        <r>  0.1093  0.0003  0.2504  0.1162  0.0123  0.0192  0.0256  0.1446  0.0116 </r>
       </set>
       <set comment="band 8">
        <r>  0.2113  0.1849  0.0001  0.0215  0.0170  0.0010  0.0706  0.0034  0.1907 </r>
       </set>
       <set comment="band 9">
        <r>  0.1132  0.0082  0.2111  0.1841  0.0096  0.0101  0.0606  0.0578  0.0000 </r>
       </set>
       <set comment="band 10">
        <r>  0.0596  0.0079  0.0539  0.0613  0.0009  0.0037  0.0014  0.3961  0.0396 </r>
       </set>
       <set comment="band 11">
        <r>  0.1234  0.0216  0.0412  0.1885  0.0017  0.0021  0.0175  0.1337  0.0952 </r>
       </set>
       <set comment="band 12">
        <r>  0.0417  0.0101  0.0019  0.0295  0.1891  0.0029  0.0407  0.0015  0.1551 </r>
       </set>
      </set>
      <set comment="kpoint 49">
       <set comment="band 1">
        <r>  0.0188  0.0068  0.0012  0.0216  0.0068  0.0027  0.3021  0.0811  0.4203 </r>
       </set>
       <set comment="band 2">
        <r>  0.0105  0.0006  0.0441  0.0191  0.0156  0.0108  0.0421  0.7106  0.0283 </r>
       </set>
       <set comment="band 3">
        <r>  0.0048  0.0858  0.0013  0.0003  0.6568  0.0968  0.0131  0.0396  0.0010 </r>
       </set>
       <set comment="band 4">
        <r>  0.0022  0.0019  0.0024  0.0021  0.0006  0.0529  0.5043  0.0005  0.4031 </r>
       </set>
       <set comment="band 5">
        <r>  0.0005  0.0006  0.0001  0.0000  0.1534  0.7810  0.0283  0.0054  0.0211 </r>
       </set>
       <set comment="band 6">
        <r>  0.0294  0.3275  0.0344  0.0415  0.1611  0.0406  0.0394  0.0111  0.0486 </r>
       </set>
       <set comment="band 7">
        <r>  0.2056  0.0216  0.1785  0.0757  0.0270  0.0186  0.0255  0.1711  0.0097 </r>
       </set>
       <set comment="band 8">
        <r>  0.2861  0.1149  0.0048  0.0441  0.0205  0.0051  0.0639  0.0076  0.1632 </r>
       </set>
       <set comment="band 9">
        <r>  0.0982  0.0018  0.2497  0.1344  0.0016  0.0025  0.1145  0.0566  0.0000 </r>
       </set>
       <set comment="band 10">
        <r>  0.0666  0.0031  0.0291  0.1298  0.0001  0.0006  0.0003  0.2729  0.0760 </r>
       </set>
       <set comment="band 11">
        <r>  0.0446  0.0109  0.0468  0.1901  0.0112  0.0023  0.0296  0.2195  0.0481 </r>
       </set>
       <set comment="band 12">
        <r>  0.0426  0.0270  0.0106  0.0000  0.2845  0.0076  0.0094  0.0028  0.0982 </r>
       </set>
      </set>
      <set comment="kpoint 50">
       <set comment="band 1">
        <r>  0.0383  0.0000  0.0717  0.0523  0.0000  0.0000  0.1943  0.3743  0.0906 </r>
       </set>
       <set comment="band 2">
        <r>  0.0186  0.0000  0.0021  0.0060  0.0000  0.0000  0.2457  0.3587  0.2705 </r>
       </set>
       <set comment="band 3">
        <r>  0.0000  0.0720  0.0000  0.0000  0.6796  0.1502  0.0000  0.0000  0.0000 </r>
       </set>
       <set comment="band 4">
        <r>  0.0015  0.0000  0.0069  0.0001  0.0000  0.0000  0.4313  0.0072  0.5195 </r>
       </set>
       <set comment="band 5">
        <r>  0.0000  0.0018  0.0000  0.0000  0.1935  0.7906  0.0000  0.0000  0.0000 </r>
       </set>
       <set comment="band 6">
        <r>  0.1555  0.0000  0.1603  0.0781  0.0000  0.0000  0.0701  0.2615  0.0495 </r>
       </set>
       <set comment="band 7">
        <r>  0.0000  0.4557  0.0000  0.0000  0.1913  0.0827  0.0000  0.0000  0.0000 </r>
       </set>
       <set comment="band 8">
        <r>  0.3664  0.0000  0.0196  0.0886  0.0000  0.0000  0.0614  0.0249  0.1382 </r>
       </set>
       <set comment="band 9">
        <r>  0.0921  0.0000  0.2671  0.0852  0.0000  0.0000  0.1674  0.0502  0.0003 </r>
       </set>
       <set comment="band 10">
        <r>  0.0463  0.0000  0.0213  0.1954  0.0000  0.0000  0.0005  0.1676  0.0985 </r>
       </set>
       <set comment="band 11">
        <r>  0.0000  0.0644  0.0000  0.0000  0.3711  0.0153  0.0000  0.0000  0.0000 </r>
       </set>
       <set comment="band 12">
        <r>  0.0224  0.0000  0.0000  0.2742  0.0000  0.0000  0.1661  0.2325  0.0344 </r>
       </set>
      </set>
      <set comment="kpoint 51">
       <set comment="band 1">
        <r>  0.0479  0.0075  0.0000  0.0099  0.0010  0.0000  0.2248  0.0000  0.5430 </r>
       </set>
       <set comment="band 2">
        <r>  0.0000  0.0000  0.0105  0.0000  0.0000  0.0011  0.0000  0.8985  0.0000 </r>
       </set>
       <set comment="band 3">
        <r>  0.0077  0.0898  0.0000  0.0005  0.7718  0.0000  0.0484  0.0000  0.0002 </r>
       </set>
       <set comment="band 4">
        <r>  0.0000  0.0057  0.0000  0.0019  0.0296  0.0000  0.6462  0.0000  0.3001 </r>
       </set>
       <set comment="band 5">
        <r>  0.0000  0.0000  0.0009  0.0000  0.0000  0.9909  0.0000  0.0016  0.0000 </r>
       </set>
       <set comment="band 6">
        <r>  0.0536  0.4177  0.0000  0.0032  0.1977  0.0000  0.0190  0.0000  0.0339 </r>
       </set>
       <set comment="band 7">
        <r>  0.3037  0.0785  0.0000  0.0183  0.0048  0.0000  0.0902  0.0000  0.2465 </r>
       </set>
       <set comment="band 8">
        <r>  0.0000  0.0000  0.4927  0.0000  0.0000  0.0069  0.0000  0.1680  0.0000 </r>
       </set>
       <set comment="band 9">
        <r>  0.1565  0.0021  0.0000  0.4048  0.0059  0.0000  0.0474  0.0000  0.0042 </r>
       </set>
       <set comment="band 10">
        <r>  0.0000  0.0000  0.0862  0.0000  0.0000  0.0012  0.0000  0.6123  0.0000 </r>
       </set>
       <set comment="band 11">
        <r>  0.2824  0.0079  0.0000  0.1574  0.0009  0.0000  0.0295  0.0000  0.1653 </r>
       </set>
       <set comment="band 12">
        <r>  0.0095  0.0171  0.0000  0.0176  0.1927  0.0000  0.0212  0.0000  0.0501 </r>
       </set>
      </set>
      <set comment="kpoint 52">
       <set comment="band 1">
        <r>  0.0267  0.0000  0.0012  0.0189  0.0000  0.0000  0.2757  0.0095  0.5168 </r>
       </set>
       <set comment="band 2">
        <r>  0.0009  0.0000  0.0242  0.0039  0.0000  0.0000  0.0031  0.8684  0.0035 </r>
       </set>
       <set comment="band 3">
        <r>  0.0000  0.1014  0.0000  0.0000  0.7469  0.0566  0.0000  0.0000  0.0000 </r>
       </set>
       <set comment="band 4">
        <r>  0.0026  0.0000  0.0006  0.0033  0.0000  0.0000  0.6317  0.0002  0.3401 </r>
       </set>
       <set comment="band 5">
        <r>  0.0000  0.0005  0.0000  0.0000  0.0767  0.9164  0.0000  0.0000  0.0000 </r>
       </set>
       <set comment="band 6">
        <r>  0.0000  0.4898  0.0000  0.0000  0.1988  0.0253  0.0000  0.0000  0.0000 </r>
       </set>
       <set comment="band 7">
        <r>  0.2140  0.0000  0.0476  0.0885  0.0000  0.0000  0.1173  0.0105  0.2451 </r>
       </set>
       <set comment="band 8">
        <r>  0.2748  0.0000  0.2203  0.0659  0.0000  0.0000  0.0023  0.1426  0.0049 </r>
       </set>
       <set comment="band 9">
        <r>  0.1050  0.0000  0.2134  0.2006  0.0000  0.0000  0.0721  0.0553  0.0004 </r>
       </set>
       <set comment="band 10">
        <r>  0.0625  0.0000  0.0525  0.0541  0.0000  0.0000  0.0020  0.4259  0.0467 </r>
       </set>
       <set comment="band 11">
        <r>  0.1448  0.0000  0.0396  0.1800  0.0000  0.0000  0.0190  0.1305  0.1274 </r>
       </set>
       <set comment="band 12">
        <r>  0.0000  0.0358  0.0000  0.0000  0.2968  0.0035  0.0000  0.0000  0.0000 </r>
       </set>
      </set>
      <set comment="kpoint 53">
       <set comment="band 1">
        <r>  0.0950  0.0784  0.0000  0.0405  0.0922  0.0000  0.2144  0.0000  0.2607 </r>
       </set>
       <set comment="band 2">
        <r>  0.0000  0.0000  0.0367  0.0000  0.0000  0.0501  0.0000  0.8227  0.0000 </r>
       </set>
       <set comment="band 3">
        <r>  0.0308  0.0379  0.0000  0.0014  0.5316  0.0000  0.2408  0.0000  0.0639 </r>
       </set>
       <set comment="band 4">
        <r>  0.0002  0.0150  0.0000  0.0028  0.0084  0.0000  0.3627  0.0000  0.5768 </r>
       </set>
       <set comment="band 5">
        <r>  0.0000  0.0000  0.0041  0.0000  0.0000  0.9139  0.0000  0.0665  0.0000 </r>
       </set>
       <set comment="band 6">
        <r>  0.1298  0.1497  0.0000  0.0287  0.3581  0.0000  0.1247  0.0000  0.0459 </r>
       </set>
       <set comment="band 7">
        <r>  0.0000  0.0000  0.4445  0.0000  0.0000  0.0609  0.0000  0.2135  0.0000 </r>
       </set>
       <set comment="band 8">
        <r>  0.2564  0.0128  0.0000  0.2109  0.0387  0.0000  0.1268  0.0000  0.0074 </r>
       </set>
       <set comment="band 9">
        <r>  0.1605  0.2519  0.0000  0.0195  0.0256  0.0000  0.0484  0.0000  0.1710 </r>
       </set>
       <set comment="band 10">
        <r>  0.0000  0.0000  0.0941  0.0000  0.0000  0.0136  0.0000  0.4488  0.0000 </r>
       </set>
       <set comment="band 11">
        <r>  0.0308  0.0541  0.0000  0.3624  0.0078  0.0000  0.0299  0.0000  0.0132 </r>
       </set>
       <set comment="band 12">
        <r>  0.1399  0.0018  0.0000  0.0043  0.1819  0.0000  0.0333  0.0000  0.3255 </r>
       </set>
      </set>
      <set comment="kpoint 54">
       <set comment="band 1">
        <r>  0.0158  0.0276  0.0001  0.0424  0.0412  0.0036  0.4338  0.0240  0.2537 </r>
       </set>
       <set comment="band 2">
        <r>  0.0192  0.0113  0.0391  0.0036  0.1962  0.0425  0.0790  0.4927  0.0077 </r>
       </set>
       <set comment="band 3">
        <r>  0.0097  0.0434  0.0186  0.0015  0.5035  0.0004  0.0382  0.2861  0.0009 </r>
       </set>
       <set comment="band 4">
        <r>  0.0033  0.0067  0.0010  0.0006  0.0076  0.0443  0.2807  0.0002  0.6221 </r>
       </set>
       <set comment="band 5">
        <r>  0.0007  0.0000  0.0016  0.0000  0.0264  0.8726  0.0124  0.0501  0.0258 </r>
       </set>
       <set comment="band 6">
        <r>  0.1110  0.2335  0.0129  0.0545  0.2234  0.0062  0.0756  0.0021  0.0402 </r>
       </set>
       <set comment="band 7">
        <r>  0.1549  0.0001  0.2869  0.0343  0.0145  0.0324  0.0316  0.1775  0.0015 </r>
       </set>
       <set comment="band 8">
        <r>  0.1582  0.0007  0.1541  0.1215  0.0135  0.0064  0.1606  0.0499  0.0055 </r>
       </set>
       <set comment="band 9">
        <r>  0.2128  0.2208  0.0076  0.0416  0.0389  0.0029  0.0326  0.0001  0.1328 </r>
       </set>
       <set comment="band 10">
        <r>  0.0028  0.0220  0.0350  0.2122  0.0330  0.0012  0.0132  0.1516  0.0077 </r>
       </set>
       <set comment="band 11">
        <r>  0.0204  0.0169  0.0256  0.0468  0.1347  0.0070  0.0407  0.2190  0.0438 </r>
       </set>
       <set comment="band 12">
        <r>  0.0873  0.0001  0.0178  0.1591  0.1352  0.0000  0.0000  0.0643  0.2135 </r>
       </set>
      </set>
      <set comment="kpoint 55">
       <set comment="band 1">
        <r>  0.0170  0.0063  0.0000  0.0331  0.0034  0.0000  0.3738  0.0000  0.4132 </r>
       </set>
       <set comment="band 2">
        <r>  0.0000  0.0000  0.0391  0.0000  0.0000  0.0050  0.0000  0.8610  0.0000 </r>
       </set>
       <set comment="band 3">
        <r>  0.0091  0.0875  0.0000  0.0000  0.7749  0.0000  0.0268  0.0000  0.0000 </r>
       </set>
       <set comment="band 4">
        <r>  0.0056  0.0034  0.0000  0.0026  0.0114  0.0000  0.4795  0.0000  0.4684 </r>
       </set>
       <set comment="band 5">
        <r>  0.0000  0.0000  0.0008  0.0000  0.0000  0.9860  0.0000  0.0073  0.0000 </r>
       </set>
       <set comment="band 6">
        <r>  0.0715  0.3672  0.0000  0.0160  0.2278  0.0000  0.0278  0.0000  0.0309 </r>
       </set>
       <set comment="band 7">
        <r>  0.0000  0.0000  0.4726  0.0000  0.0000  0.0083  0.0000  0.2273  0.0000 </r>
       </set>
       <set comment="band 8">
        <r>  0.1683  0.0986  0.0000  0.1003  0.0237  0.0000  0.1178  0.0000  0.1873 </r>
       </set>
       <set comment="band 9">
        <r>  0.3989  0.0104  0.0000  0.1727  0.0017  0.0000  0.0989  0.0000  0.0003 </r>
       </set>
       <set comment="band 10">
        <r>  0.0000  0.0000  0.0901  0.0000  0.0000  0.0015  0.0000  0.4959  0.0000 </r>
       </set>
       <set comment="band 11">
        <r>  0.1101  0.0097  0.0000  0.3365  0.0009  0.0000  0.0173  0.0000  0.1373 </r>
       </set>
       <set comment="band 12">
        <r>  0.0358  0.0327  0.0000  0.0022  0.3080  0.0000  0.0151  0.0000  0.0809 </r>
       </set>
      </set>
      <set comment="kpoint 56">
       <set comment="band 1">
        <r>  0.0011  0.0000  0.0025  0.0416  0.0000  0.0000  0.5232  0.0000  0.2866 </r>
       </set>
       <set comment="band 2">
        <r>  0.0068  0.0000  0.0569  0.0014  0.0000  0.0000  0.0002  0.8294  0.0036 </r>
       </set>
       <set comment="band 3">
        <r>  0.0000  0.0760  0.0000  0.0000  0.8089  0.0156  0.0000  0.0000  0.0000 </r>
       </set>
       <set comment="band 4">
        <r>  0.0116  0.0000  0.0013  0.0003  0.0000  0.0000  0.3371  0.0037  0.6128 </r>
       </set>
       <set comment="band 5">
        <r>  0.0000  0.0008  0.0000  0.0000  0.0225  0.9703  0.0000  0.0000  0.0000 </r>
       </set>
       <set comment="band 6">
        <r>  0.0818  0.0000  0.3166  0.0580  0.0000  0.0000  0.0578  0.1940  0.0114 </r>
       </set>
       <set comment="band 7">
        <r>  0.0000  0.4771  0.0000  0.0000  0.2306  0.0125  0.0000  0.0000  0.0000 </r>
       </set>
       <set comment="band 8">
        <r>  0.3322  0.0000  0.0006  0.1100  0.0000  0.0000  0.0926  0.0095  0.1622 </r>
       </set>
       <set comment="band 9">
        <r>  0.2543  0.0000  0.1559  0.0947  0.0000  0.0000  0.1401  0.0442  0.0000 </r>
       </set>
       <set comment="band 10">
        <r>  0.0167  0.0000  0.0536  0.1191  0.0000  0.0000  0.0010  0.3078  0.0427 </r>
       </set>
       <set comment="band 11">
        <r>  0.0000  0.0641  0.0000  0.0000  0.4046  0.0022  0.0000  0.0000  0.0000 </r>
       </set>
       <set comment="band 12">
        <r>  0.0128  0.0000  0.0194  0.3339  0.0000  0.0000  0.0451  0.1500  0.0434 </r>
       </set>
      </set>
     </set>
    </set>
   </array>
  </projected>
 </calculation>
 <structure name="finalpos" >
  <crystal>
   <varray name="basis" >
    <v>       1.85000000       1.85000000       0.00000000 </v>
    <v>       0.00000000       1.85000000       1.85000000 </v>
    <v>       1.85000000       0.00000000       1.85000000 </v>
   </varray>
   <i name="volume">     12.66325000 </i>
   <varray name="rec_basis" >
    <v>       0.27027027       0.27027027      -0.27027027 </v>
    <v>      -0.27027027       0.27027027       0.27027027 </v>
    <v>       0.27027027      -0.27027027       0.27027027 </v>
   </varray>
  </crystal>
  <varray name="positions" >
   <v>       0.00000000       0.00000000       0.00000000 </v>
  </varray>
 </structure>
</modeling>
