diamond Si                              
   5.50000000000000     
     0.000000    0.500000    0.500000
     0.500000    0.000000    0.500000
     0.500000    0.500000    0.000000
   Si
     2
Direct
  0.875000  0.875000  0.875000
  0.125000  0.125000  0.125000
 
   32   32   32
  63.203      56.847      41.524      25.328      14.376      9.4426      7.8037      7.0896      6.8179      7.1300    
  7.8099      9.4034      14.378      25.412      41.592      56.790      63.071      56.790      41.592      25.412    
  14.378      9.4034      7.8099      7.1300      6.8179      7.0896      7.8037      9.4426      14.376      25.328    
  41.524      56.847      56.847      46.302      30.891      17.846      10.580      7.8247      6.8002      6.2142    
  6.2109      6.7975      7.8349      10.603      17.864      30.884      46.268      56.809      56.575      45.775    
  30.525      17.878      10.966      8.4640      7.6818      7.2897      7.2939      7.6935      8.4765      10.966    
  17.857      30.492      45.755      56.588      41.524      30.891      19.415      11.483      7.7730      6.3893    
  5.6524      5.3131      5.6052      6.3650      7.7983      11.501      19.386      30.865      41.561      45.818    
  41.134      30.351      19.222      11.928      8.8246      7.8907      7.4865      7.3318      7.5361      7.9058    
  8.7747      11.890      19.262      30.418      41.135      45.755      25.328      17.846      11.483      7.7768    
  6.0799      5.1704      4.6153      4.6101      5.1525      6.0528      7.7613      11.502      17.892      25.367    
  30.492      30.383      25.114      17.752      11.819      8.7857      7.8319      7.5375      7.3240      7.3225    
  7.5318      7.8200      8.7702      11.812      17.768      25.153      30.418      30.492      14.376      10.580    
  7.7730      6.0799      4.9788      4.1969      3.9033      4.2303      4.9945      6.0598      7.7613      10.608    
  14.405      17.837      19.212      17.754      14.327      10.779      8.4932      7.6020      7.4111      7.3279    
  7.2581      7.2932      7.3965      7.6278      8.5118      10.752      14.292      17.768      19.262      17.857    
  9.4426      7.8247      6.3893      5.1704      4.1969      3.6305      3.6421      4.2210      5.1833      6.3753    
  7.7919      9.4175      10.969      11.915      11.835      10.758      9.2720      8.0635      7.4339      7.2441    
  7.2200      7.2180      7.2227      7.2284      7.2477      7.4346      8.0686      9.2786      10.752      11.812    
  11.890      10.966      7.8037      6.8002      5.6524      4.6153      3.9033      3.6421      3.8811      4.5930    
  5.6421      6.7925      7.7942      8.4815      8.8049      8.8028      8.5141      8.0431      7.5889      7.2992    
  7.1774      7.1396      7.1271      7.1330      7.1489      7.1520      7.1669      7.2913      7.6068      8.0686    
  8.5118      8.7702      8.7747      8.4765      7.0896      6.2142      5.3131      4.6101      4.2303      4.2210    
  4.5930      5.3080      6.2278      7.1083      7.6995      7.8973      7.8107      7.6290      7.4418      7.2921    
  7.1937      7.1396      7.1059      7.0711      7.0402      7.0355      7.0633      7.1059      7.1493      7.2029    
  7.2913      7.4346      7.6278      7.8200      7.9058      7.6935      6.8179      6.2109      5.6052      5.1525    
  4.9945      5.1833      5.6421      6.2278      6.8079      7.2699      7.5160      7.5264      7.4055      7.2610    
  7.1722      7.1424      7.1223      7.0796      7.0234      6.9765      6.9535      6.9640      7.0117      7.0802    
  7.1325      7.1493      7.1669      7.2477      7.3965      7.5318      7.5361      7.2939      7.1300      6.7975    
  6.3650      6.0528      6.0598      6.3753      6.7925      7.1083      7.2699      7.3317      7.3398      7.3097    
  7.2300      7.1417      7.0981      7.0835      7.0485      6.9884      6.9405      6.9240      6.9267      6.9436    
  6.9845      7.0396      7.0802      7.1059      7.1520      7.2284      7.2932      7.3225      7.3318      7.2897    
  7.8099      7.8349      7.7983      7.7613      7.7613      7.7919      7.7942      7.6995      7.5160      7.3398    
  7.2536      7.2095      7.1409      7.0655      7.0204      6.9914      6.9540      6.9273      6.9337      6.9487    
  6.9440      6.9380      6.9559      6.9845      7.0117      7.0633      7.1489      7.2227      7.2581      7.3240    
  7.4865      7.6818      9.4034      10.603      11.501      11.502      10.608      9.4175      8.4815      7.8973    
  7.5264      7.3097      7.2095      7.1391      7.0463      6.9693      6.9424      6.9339      6.9199      6.9242    
  6.9472      6.9502      6.9306      6.9258      6.9380      6.9436      6.9640      7.0355      7.1330      7.2180    
  7.3279      7.5375      7.8907      8.4640      14.378      17.864      19.386      17.892      14.405      10.969    
  8.8049      7.8107      7.4055      7.2300      7.1409      7.0463      6.9485      6.9168      6.9385      6.9337    
  6.8929      6.8662      6.8602      6.8599      6.8848      6.9306      6.9440      6.9267      6.9535      7.0402    
  7.1271      7.2200      7.4111      7.8319      8.8246      10.966      25.412      30.884      30.865      25.367    
  17.837      11.915      8.8028      7.6290      7.2610      7.1417      7.0655      6.9693      6.9168      6.9437    
  6.9516      6.8687      6.7624      6.7079      6.7031      6.7516      6.8599      6.9502      6.9487      6.9240    
  6.9765      7.0711      7.1396      7.2441      7.6020      8.7857      11.928      17.878      41.592      46.268    
  41.561      30.492      19.212      11.835      8.5141      7.4418      7.1722      7.0981      7.0204      6.9424    
  6.9385      6.9516      6.8593      6.6954      6.5894      6.5673      6.5975      6.7031      6.8602      6.9472    
  6.9337      6.9405      7.0234      7.1059      7.1774      7.4339      8.4932      11.819      19.222      30.525    
  56.790      56.809      45.818      30.383      17.754      10.758      8.0431      7.2921      7.1424      7.0835    
  6.9914      6.9339      6.9337      6.8687      6.6954      6.5469      6.5055      6.5155      6.5673      6.7079    
  6.8662      6.9242      6.9273      6.9884      7.0796      7.1396      7.2992      8.0635      10.779      17.752    
  30.351      45.775      63.071      56.575      41.134      25.114      14.327      9.2720      7.5889      7.1937    
  7.1223      7.0485      6.9540      6.9199      6.8929      6.7624      6.5894      6.5055      6.4961      6.5055    
  6.5894      6.7624      6.8929      6.9199      6.9540      7.0485      7.1223      7.1937      7.5889      9.2720    
  14.327      25.114      41.134      56.575      56.790      45.775      30.351      17.752      10.779      8.0635    
  7.2992      7.1396      7.0796      6.9884      6.9273      6.9242      6.8662      6.7079      6.5673      6.5155    
  6.5055      6.5469      6.6954      6.8687      6.9337      6.9339      6.9914      7.0835      7.1424      7.2921    
  8.0431      10.758      17.754      30.383      45.818      56.809      41.592      30.525      19.222      11.819    
  8.4932      7.4339      7.1774      7.1059      7.0234      6.9405      6.9337      6.9472      6.8602      6.7031    
  6.5975      6.5673      6.5894      6.6954      6.8593      6.9516      6.9385      6.9424      7.0204      7.0981    
  7.1722      7.4418      8.5141      11.835      19.212      30.492      41.561      46.268      25.412      17.878    
  11.928      8.7857      7.6020      7.2441      7.1396      7.0711      6.9765      6.9240      6.9487      6.9502    
  6.8599      6.7516      6.7031      6.7079      6.7624      6.8687      6.9516      6.9437      6.9168      6.9693    
  7.0655      7.1417      7.2610      7.6290      8.8028      11.915      17.837      25.367      30.865      30.884    
  14.378      10.966      8.8246      7.8319      7.4111      7.2200      7.1271      7.0402      6.9535      6.9267    
  6.9440      6.9306      6.8848      6.8599      6.8602      6.8662      6.8929      6.9337      6.9385      6.9168    
  6.9485      7.0463      7.1409      7.2300      7.4055      7.8107      8.8049      10.969      14.405      17.892    
  19.386      17.864      9.4034      8.4640      7.8907      7.5375      7.3279      7.2180      7.1330      7.0355    
  6.9640      6.9436      6.9380      6.9258      6.9306      6.9502      6.9472      6.9242      6.9199      6.9339    
  6.9424      6.9693      7.0463      7.1391      7.2095      7.3097      7.5264      7.8973      8.4815      9.4175    
  10.608      11.502      11.501      10.603      7.8099      7.6818      7.4865      7.3240      7.2581      7.2227    
  7.1489      7.0633      7.0117      6.9845      6.9559      6.9380      6.9440      6.9487      6.9337      6.9273    
  6.9540      6.9914      7.0204      7.0655      7.1409      7.2095      7.2536      7.3398      7.5160      7.6995    
  7.7942      7.7919      7.7613      7.7613      7.7983      7.8349      7.1300      7.2897      7.3318      7.3225    
  7.2932      7.2284      7.1520      7.1059      7.0802      7.0396      6.9845      6.9436      6.9267      6.9240    
  6.9405      6.9884      7.0485      7.0835      7.0981      7.1417      7.2300      7.3097      7.3398      7.3317    
  7.2699      7.1083      6.7925      6.3753      6.0598      6.0528      6.3650      6.7975      6.8179      7.2939    
  7.5361      7.5318      7.3965      7.2477      7.1669      7.1493      7.1325      7.0802      7.0117      6.9640    
  6.9535      6.9765      7.0234      7.0796      7.1223      7.1424      7.1722      7.2610      7.4055      7.5264    
  7.5160      7.2699      6.8079      6.2278      5.6421      5.1833      4.9945      5.1525      5.6052      6.2109    
  7.0896      7.6935      7.9058      7.8200      7.6278      7.4346      7.2913      7.2029      7.1493      7.1059    
  7.0633      7.0355      7.0402      7.0711      7.1059      7.1396      7.1937      7.2921      7.4418      7.6290    
  7.8107      7.8973      7.6995      7.1083      6.2278      5.3080      4.5930      4.2210      4.2303      4.6101    
  5.3131      6.2142      7.8037      8.4765      8.7747      8.7702      8.5118      8.0686      7.6068      7.2913    
  7.1669      7.1520      7.1489      7.1330      7.1271      7.1396      7.1774      7.2992      7.5889      8.0431    
  8.5141      8.8028      8.8049      8.4815      7.7942      6.7925      5.6421      4.5930      3.8811      3.6421    
  3.9033      4.6153      5.6524      6.8002      9.4426      10.966      11.890      11.812      10.752      9.2786    
  8.0686      7.4346      7.2477      7.2284      7.2227      7.2180      7.2200      7.2441      7.4339      8.0635    
  9.2720      10.758      11.835      11.915      10.969      9.4175      7.7919      6.3753      5.1833      4.2210    
  3.6421      3.6305      4.1969      5.1704      6.3893      7.8247      14.376      17.857      19.262      17.768    
  14.292      10.752      8.5118      7.6278      7.3965      7.2932      7.2581      7.3279      7.4111      7.6020    
  8.4932      10.779      14.327      17.754      19.212      17.837      14.405      10.608      7.7613      6.0598    
  4.9945      4.2303      3.9033      4.1969      4.9788      6.0799      7.7730      10.580      25.328      30.492    
  30.418      25.153      17.768      11.812      8.7702      7.8200      7.5318      7.3225      7.3240      7.5375    
  7.8319      8.7857      11.819      17.752      25.114      30.383      30.492      25.367      17.892      11.502    
  7.7613      6.0528      5.1525      4.6101      4.6153      5.1704      6.0799      7.7768      11.483      17.846    
  41.524      45.755      41.135      30.418      19.262      11.890      8.7747      7.9058      7.5361      7.3318    
  7.4865      7.8907      8.8246      11.928      19.222      30.351      41.134      45.818      41.561      30.865    
  19.386      11.501      7.7983      6.3650      5.6052      5.3131      5.6524      6.3893      7.7730      11.483    
  19.415      30.891      56.847      56.588      45.755      30.492      17.857      10.966      8.4765      7.6935    
  7.2939      7.2897      7.6818      8.4640      10.966      17.878      30.525      45.775      56.575      56.809    
  46.268      30.884      17.864      10.603      7.8349      6.7975      6.2109      6.2142      6.8002      7.8247    
  10.580      17.846      30.891      46.302      56.847      46.302      30.891      17.846      10.580      7.8247    
  6.8001      6.2140      6.2108      6.7975      7.8351      10.604      17.865      30.885      46.269      56.809    
  56.575      45.774      30.524      17.877      10.966      8.4643      7.6821      7.2899      7.2941      7.6935    
  8.4765      10.966      17.857      30.492      45.755      56.588      46.302      34.294      21.211      12.099    
  7.8273      6.2761      5.4928      5.1322      5.4432      6.2763      7.9107      12.164      21.160      34.178    
  46.251      51.016      45.697      33.506      20.912      12.621      9.0553      7.9621      7.4913      7.3106    
  7.5467      8.0003      9.0418      12.600      20.914      33.492      45.635      50.969      30.891      21.211    
  12.861      7.9619      5.7787      4.7079      4.0883      4.0947      4.7234      5.7931      7.9624      12.841    
  21.181      30.872      37.440      37.223      30.395      20.910      13.254      9.2910      7.9948      7.5782    
  7.2940      7.2896      7.5733      8.0034      9.3136      13.272      20.904      30.364      37.190      37.430    
  17.846      12.099      7.9619      5.6465      4.2773      3.3158      2.9411      3.3424      4.2738      5.6020    
  7.9428      12.149      17.908      23.130      25.183      22.958      17.826      12.560      9.1730      7.8176    
  7.4743      7.3044      7.1900      7.2613      7.4532      7.8442      9.1951      12.538      17.801      22.988    
  25.241      23.133      10.580      7.8273      5.7787      4.2773      3.0816      2.3255      2.3135      3.0617    
  4.2795      5.8115      7.8667      10.593      13.463      15.329      15.285      13.412      10.812      8.7226    
  7.6449      7.2977      7.2028      7.1484      7.1505      7.2065      7.2969      7.6350      8.7052      10.797    
  13.415      15.312      15.368      13.485      7.8247      6.2761      4.7079      3.3158      2.3255      1.9553    
  2.3157      3.3253      4.7398      6.2915      7.7982      9.1168      10.034      10.319      9.8962      8.9839    
  8.0550      7.4578      7.2045      7.1149      7.0685      7.0618      7.0957      7.1296      7.1889      7.4415    
  8.0633      8.9966      9.8824      10.293      10.038      9.1547      6.8001      5.4928      4.0883      2.9411    
  2.3135      2.3157      2.9381      4.0679      5.4651      6.7912      7.7434      8.2028      8.2617      8.1090    
  7.8379      7.5290      7.2830      7.1460      7.0807      7.0295      6.9871      6.9852      7.0265      7.0809    
  7.1498      7.2893      7.5391      7.8502      8.1122      8.2440      8.1710      7.7229      6.2140      5.1322    
  4.0947      3.3424      3.0617      3.3253      4.0679      5.1151      6.2262      7.1370      7.6451      7.7283    
  7.5771      7.3967      7.2667      7.1900      7.1324      7.0705      7.0029      6.9412      6.9071      6.9226    
  6.9884      7.0734      7.1413      7.1915      7.2685      7.4133      7.5998      7.7299      7.6157      7.1007    
  6.2108      5.4432      4.7234      4.2738      4.2795      4.7398      5.4651      6.2262      6.8710      7.3116    
  7.4959      7.4608      7.3309      7.2065      7.1467      7.1225      7.0741      6.9909      6.9102      6.8654    
  6.8641      6.9051      6.9826      7.0682      7.1234      7.1506      7.2063      7.3281      7.4651      7.5113    
  7.3275      6.8726      6.7975      6.2763      5.7931      5.6020      5.8115      6.2915      6.7912      7.1370    
  7.3116      7.3735      7.3694      7.3212      7.2272      7.1399      7.0898      7.0450      6.9761      6.9065    
  6.8715      6.8692      6.8821      6.9144      6.9723      7.0356      7.0870      7.1448      7.2286      7.3109    
  7.3553      7.3728      7.3303      7.1604      7.8351      7.9107      7.9624      7.9428      7.8667      7.7982    
  7.7434      7.6451      7.4959      7.3694      7.3079      7.2418      7.1423      7.0527      6.9971      6.9511    
  6.9079      6.8941      6.9074      6.9123      6.9050      6.9164      6.9514      6.9906      7.0467      7.1438    
  7.2501      7.3124      7.3582      7.4706      7.6249      7.7502      10.604      12.164      12.841      12.149    
  10.593      9.1168      8.2028      7.7283      7.4608      7.3212      7.2418      7.1439      7.0294      6.9601    
  6.9394      6.9199      6.8974      6.8959      6.9007      6.8922      6.8947      6.9224      6.9451      6.9615    
  7.0231      7.1377      7.2466      7.3357      7.4689      7.7181      8.1828      9.1079      17.865      21.160    
  21.181      17.908      13.463      10.034      8.2617      7.5771      7.3309      7.2272      7.1423      7.0294    
  6.9488      6.9440      6.9467      6.8957      6.8294      6.7944      6.7871      6.8142      6.8860      6.9486    
  6.9525      6.9551      7.0283      7.1345      7.2197      7.3341      7.5964      8.2854      10.038      13.434    
  30.885      34.178      30.872      23.130      15.329      10.319      8.1090      7.3967      7.2065      7.1399    
  7.0527      6.9601      6.9440      6.9636      6.9020      6.7672      6.6645      6.6324      6.6600      6.7611    
  6.8977      6.9633      6.9480      6.9667      7.0576      7.1382      7.1970      7.3843      8.1021      10.323    
  15.344      23.148      46.269      46.251      37.440      25.183      15.285      9.8962      7.8379      7.2667    
  7.1467      7.0898      6.9971      6.9394      6.9467      6.9020      6.7459      6.5904      6.5281      6.5347    
  6.6036      6.7535      6.8997      6.9403      6.9358      6.9979      7.0934      7.1509      7.2658      7.8258    
  9.8777      15.279      25.205      37.476      56.809      51.016      37.223      22.958      13.412      8.9839    
  7.5290      7.1900      7.1225      7.0450      6.9511      6.9199      6.8957      6.7672      6.5904      6.4980    
  6.4877      6.5094      6.6043      6.7729      6.8905      6.9108      6.9456      7.0421      7.1187      7.1912    
  7.5458      9.0125      13.427      22.936      37.171      50.972      56.575      45.697      30.395      17.826    
  10.812      8.0550      7.2830      7.1324      7.0741      6.9761      6.9079      6.8974      6.8294      6.6645    
  6.5281      6.4877      6.4846      6.5226      6.6622      6.8299      6.8974      6.9072      6.9753      7.0716    
  7.1293      7.2879      8.0737      10.833      17.826      30.365      45.655      56.555      45.774      33.506    
  20.910      12.560      8.7226      7.4578      7.1460      7.0705      6.9909      6.9065      6.8941      6.8959    
  6.7944      6.6324      6.5347      6.5094      6.5226      6.6191      6.7897      6.9004      6.9019      6.9121    
  6.9928      7.0699      7.1433      7.4502      8.7093      12.551      20.920      33.536      45.802      50.971    
  30.524      20.912      13.254      9.1730      7.6449      7.2045      7.0807      7.0029      6.9102      6.8715    
  6.9074      6.9007      6.7871      6.6600      6.6036      6.6043      6.6622      6.7897      6.9020      6.9082    
  6.8741      6.9121      6.9975      7.0685      7.1974      7.6529      9.1900      13.263      20.904      30.509    
  37.467      37.475      17.877      12.621      9.2910      7.8176      7.2977      7.1149      7.0295      6.9412    
  6.8654      6.8692      6.9123      6.8922      6.8142      6.7611      6.7535      6.7729      6.8299      6.9004    
  6.9082      6.8590      6.8578      6.9367      7.0248      7.1158      7.3151      7.8475      9.3074      12.600    
  17.826      23.104      25.390      23.147      10.966      9.0553      7.9948      7.4743      7.2028      7.0685    
  6.9871      6.9071      6.8641      6.8821      6.9050      6.8947      6.8860      6.8977      6.8997      6.8905    
  6.8974      6.9019      6.8741      6.8578      6.9089      6.9972      7.0802      7.2066      7.4641      7.9761    
  9.0449      10.977      13.457      15.289      15.276      13.433      8.4643      7.9621      7.5782      7.3044    
  7.1484      7.0618      6.9852      6.9226      6.9051      6.9144      6.9164      6.9224      6.9486      6.9633    
  6.9403      6.9108      6.9072      6.9121      6.9121      6.9367      6.9972      7.0610      7.1319      7.2813    
  7.5632      7.9661      8.4887      9.1417      9.7609      10.017      9.7363      9.1077      7.6821      7.4913    
  7.2940      7.1900      7.1505      7.0957      7.0265      6.9884      6.9826      6.9723      6.9514      6.9451    
  6.9525      6.9480      6.9358      6.9456      6.9753      6.9928      6.9975      7.0248      7.0802      7.1319    
  7.1866      7.3138      7.5197      7.6932      7.7327      7.6508      7.5655      7.5804      7.6815      7.7504    
  7.2899      7.3106      7.2896      7.2613      7.2065      7.1296      7.0809      7.0734      7.0682      7.0356    
  6.9906      6.9615      6.9551      6.9667      6.9979      7.0421      7.0716      7.0699      7.0685      7.1158    
  7.2066      7.2813      7.3138      7.3152      7.2706      7.1377      6.8898      6.6128      6.4848      6.6089    
  6.8973      7.1606      7.2941      7.5467      7.5733      7.4532      7.2969      7.1889      7.1498      7.1413    
  7.1234      7.0870      7.0467      7.0231      7.0283      7.0576      7.0934      7.1187      7.1293      7.1433    
  7.1974      7.3151      7.4641      7.5632      7.5197      7.2706      6.8735      6.4436      6.0836      5.8701    
  5.8544      6.0488      6.4162      6.8729      7.6935      8.0003      8.0034      7.8442      7.6350      7.4415    
  7.2893      7.1915      7.1506      7.1448      7.1438      7.1377      7.1345      7.1382      7.1509      7.1912    
  7.2879      7.4502      7.6529      7.8475      7.9761      7.9661      7.6932      7.1377      6.4436      5.8282    
  5.4466      5.3361      5.4706      5.8351      6.4125      7.1009      8.4765      9.0418      9.3136      9.1951    
  8.7052      8.0633      7.5391      7.2685      7.2063      7.2286      7.2501      7.2466      7.2197      7.1970    
  7.2658      7.5458      8.0737      8.7093      9.1900      9.3074      9.0449      8.4887      7.7327      6.8898    
  6.0836      5.4466      5.0979      5.1066      5.4670      6.1018      6.8941      7.7230      10.966      12.600    
  13.272      12.538      10.797      8.9966      7.8502      7.4133      7.3281      7.3109      7.3124      7.3357    
  7.3341      7.3843      7.8258      9.0125      10.833      12.551      13.263      12.600      10.977      9.1417    
  7.6508      6.6128      5.8701      5.3361      5.1066      5.2905      5.8414      6.6374      7.6933      9.1546    
  17.857      20.914      20.904      17.801      13.415      9.8824      8.1122      7.5998      7.4651      7.3553    
  7.3582      7.4689      7.5964      8.1021      9.8777      13.427      17.826      20.920      20.904      17.826    
  13.457      9.7609      7.5655      6.4848      5.8544      5.4706      5.4670      5.8414      6.4635      7.5486    
  9.7653      13.485      30.492      33.492      30.364      22.988      15.312      10.293      8.2440      7.7299    
  7.5113      7.3728      7.4706      7.7181      8.2854      10.323      15.279      22.936      30.365      33.536    
  30.509      23.104      15.289      10.017      7.5804      6.6089      6.0488      5.8351      6.1018      6.6374    
  7.5486      9.9816      15.303      23.133      45.755      45.635      37.190      25.241      15.368      10.038    
  8.1710      7.6157      7.3275      7.3303      7.6249      8.1828      10.038      15.344      25.205      37.171    
  45.655      45.802      37.467      25.390      15.276      9.7363      7.6815      6.8973      6.4162      6.4125    
  6.8941      7.6933      9.7653      15.303      25.388      37.430      56.588      50.969      37.430      23.133    
  13.485      9.1547      7.7229      7.1007      6.8726      7.1604      7.7502      9.1079      13.434      23.148    
  37.476      50.972      56.555      50.971      37.475      23.147      13.433      9.1077      7.7504      7.1606    
  6.8729      7.1009      7.7230      9.1546      13.485      23.133      37.430      50.969      41.525      30.891    
  19.415      11.483      7.7730      6.3893      5.6523      5.3129      5.6053      6.3654      7.7988      11.502    
  19.387      30.865      41.561      45.816      41.133      30.350      19.221      11.928      8.8252      7.8915    
  7.4871      7.3320      7.5362      7.9057      8.7746      11.890      19.262      30.418      41.135      45.755    
  30.891      21.211      12.861      7.9618      5.7786      4.7078      4.0882      4.0947      4.7236      5.7934    
  7.9627      12.842      21.181      30.872      37.439      37.222      30.394      20.910      13.255      9.2916    
  7.9955      7.5787      7.2942      7.2896      7.5732      8.0033      9.3135      13.272      20.904      30.364    
  37.190      37.430      19.415      12.861      8.1039      5.4560      3.9545      2.9493      2.5768      3.0149    
  3.9992      5.4250      8.0391      12.830      19.426      25.405      27.744      25.190      19.334      13.335    
  9.4722      7.9096      7.4969      7.2921      7.1593      7.2414      7.4727      7.9536      9.5333      13.345    
  19.295      25.153      27.726      25.388      11.483      7.9618      5.4560      3.7143      2.3574      1.5034    
  1.5052      2.3595      3.7094      5.4404      7.9441      11.481      15.325      17.870      17.847      15.384    
  11.964      9.2248      7.8095      7.3362      7.1837      7.0916      7.0918      7.1798      7.3251      7.8023    
  9.2364      11.990      15.400      17.835      17.839      15.303      7.7730      5.7786      3.9545      2.3574    
  1.1695     0.69817      1.1313      2.3425      3.9930      5.8246      7.7720      9.7291      11.288      11.897    
  11.338      9.9651      8.5437      7.6291      7.2379      7.0902      7.0025      6.9783      7.0311      7.1021    
  7.2131      7.6016      8.5460      9.9807      11.337      11.891      11.309      9.7654      6.3893      4.7078    
  2.9493      1.5034     0.69817     0.70602      1.5258      2.9790      4.7281      6.3835      7.6618      8.4567    
  8.7868      8.7332      8.3688      7.8473      7.4025      7.1521      7.0402      6.9650      6.9072      6.9072    
  6.9676      7.0485      7.1616      7.4014      7.8284      8.3414      8.7193      8.8018      8.4928      7.6934    
  5.6523      4.0882      2.5768      1.5052      1.1313      1.5258      2.5868      4.0707      5.6275      6.8891    
  7.6179      7.8203      7.7200      7.5560      7.3925      7.2463      7.1257      7.0293      6.9456      6.8730    
  6.8348      6.8581      6.9384      7.0407      7.1400      7.2463      7.3836      7.5523      7.7188      7.8100    
  7.6048      6.8940      5.3129      4.0947      3.0149      2.3595      2.3425      2.9790      4.0707      5.3188    
  6.4395      7.2179      7.5536      7.5262      7.3661      7.2271      7.1560      7.1193      7.0598      6.9619    
  6.8575      6.7900      6.7857      6.8471      6.9508      7.0534      7.1202      7.1642      7.2409      7.3814    
  7.5342      7.5448      7.1920      6.4123      5.6053      4.7236      3.9992      3.7094      3.9930      4.7281    
  5.6275      6.4395      7.0364      7.3703      7.4480      7.3689      7.2436      7.1477      7.1015      7.0570    
  6.9739      6.8705      6.7932      6.7678      6.7952      6.8679      6.9650      7.0488      7.0994      7.1491    
  7.2463      7.3782      7.4667      7.3863      7.0325      6.4161      6.3654      5.7934      5.4250      5.4404    
  5.8246      6.3835      6.8891      7.2179      7.3703      7.3986      7.3600      7.2765      7.1693      7.0860    
  7.0259      6.9557      6.8766      6.8244      6.8114      6.8179      6.8378      6.8849      6.9534      7.0184    
  7.0810      7.1675      7.2725      7.3534      7.3987      7.3853      7.2400      6.8974      7.7988      7.9627    
  8.0391      7.9441      7.7720      7.6618      7.6179      7.5536      7.4480      7.3600      7.2875      7.1823    
  7.0662      6.9851      6.9333      6.8843      6.8502      6.8490      6.8583      6.8550      6.8592      6.8909    
  6.9334      6.9810      7.0647      7.1857      7.2893      7.3518      7.4308      7.5397      7.6200      7.6817    
  11.502      12.842      12.830      11.481      9.7291      8.4567      7.8203      7.5262      7.3689      7.2765    
  7.1823      7.0587      6.9586      6.9207      6.9036      6.8696      6.8403      6.8311      6.8251      6.8289    
  6.8647      6.9080      6.9265      6.9586      7.0559      7.1853      7.2868      7.3760      7.5184      7.8007    
  8.4435      9.7367      19.387      21.181      19.426      15.325      11.288      8.7868      7.7200      7.3661    
  7.2436      7.1693      7.0662      6.9586      6.9203      6.9276      6.8905      6.8041      6.7356      6.7104    