diamond Si                              
   5.50000000000000     
     0.000000    0.500000    0.500000
     0.500000    0.000000    0.500000
     0.500000    0.500000    0.000000
   Si
     2
Direct
  0.875000  0.875000  0.875000
  0.125000  0.125000  0.125000
 
   32   32   32
 0.63203499309E+02 0.56846708585E+02 0.41524377957E+02 0.25328026806E+02 0.14375576339E+02
 0.94425633886E+01 0.78037043737E+01 0.70896453948E+01 0.68178754608E+01 0.71299665878E+01
 0.78099429782E+01 0.94034082202E+01 0.14377566647E+02 0.25411686547E+02 0.41591829461E+02
 0.56789630404E+02 0.63070659480E+02 0.56789630404E+02 0.41591829461E+02 0.25411686547E+02
 0.14377566647E+02 0.94034082202E+01 0.78099429782E+01 0.71299665878E+01 0.68178754608E+01
 0.70896453948E+01 0.78037043737E+01 0.94425633886E+01 0.14375576339E+02 0.25328026806E+02
 0.41524377957E+02 0.56846708585E+02 0.56846708585E+02 0.46301955996E+02 0.30890548060E+02
 0.17845530417E+02 0.10579711360E+02 0.78247128894E+01 0.68002135563E+01 0.62141770507E+01
 0.62109148940E+01 0.67975015429E+01 0.78348761988E+01 0.10603099699E+02 0.17864465576E+02
 0.30884059451E+02 0.46268353729E+02 0.56809395009E+02 0.56575410879E+02 0.45774923818E+02
 0.30525130218E+02 0.17877958699E+02 0.10965867124E+02 0.84640485030E+01 0.76817796659E+01
 0.72896514400E+01 0.72939499311E+01 0.76934566006E+01 0.84765045704E+01 0.10966079693E+02
 0.17857030699E+02 0.30492264318E+02 0.45755255334E+02 0.56587905253E+02 0.41524377957E+02
 0.30890548060E+02 0.19415314552E+02 0.11483228166E+02 0.77729781179E+01 0.63893113044E+01
 0.56524110088E+01 0.53130689123E+01 0.56052319562E+01 0.63650463733E+01 0.77982593846E+01
 0.11501395902E+02 0.19386409410E+02 0.30864639017E+02 0.41561337343E+02 0.45817593178E+02
 0.41134151809E+02 0.30350994777E+02 0.19221739016E+02 0.11927957332E+02 0.88245626035E+01
 0.78907037871E+01 0.74865141339E+01 0.73317677570E+01 0.75361045761E+01 0.79057879933E+01
 0.87747221195E+01 0.11890370360E+02 0.19262151389E+02 0.30418279480E+02 0.41135034889E+02
 0.45755255334E+02 0.25328026806E+02 0.17845530417E+02 0.11483228166E+02 0.77768035017E+01
 0.60798906219E+01 0.51703958325E+01 0.46152682215E+01 0.46101142505E+01 0.51524996961E+01
 0.60527637943E+01 0.77613446471E+01 0.11501644324E+02 0.17891877068E+02 0.25366512224E+02
 0.30491680923E+02 0.30382916747E+02 0.25114342765E+02 0.17752131551E+02 0.11819099536E+02
 0.87857436512E+01 0.78318578404E+01 0.75375271470E+01 0.73240145295E+01 0.73224614824E+01
 0.75317593808E+01 0.78199682384E+01 0.87701713472E+01 0.11811666094E+02 0.17767825924E+02
 0.25152723379E+02 0.30418279480E+02 0.30492264318E+02 0.14375576339E+02 0.10579711360E+02
 0.77729781179E+01 0.60798906219E+01 0.49788053760E+01 0.41969060657E+01 0.39033276290E+01
 0.42302994748E+01 0.49945358640E+01 0.60598147480E+01 0.77612966366E+01 0.10607866788E+02
 0.14405052610E+02 0.17836876043E+02 0.19212347213E+02 0.17753702456E+02 0.14326772484E+02
 0.10778693845E+02 0.84931525087E+01 0.76019916437E+01 0.74111383349E+01 0.73279447079E+01
 0.72580924181E+01 0.72931578467E+01 0.73964582673E+01 0.76278384202E+01 0.85118376876E+01
 0.10752412923E+02 0.14292312091E+02 0.17767825924E+02 0.19262151389E+02 0.17857030699E+02
 0.94425633886E+01 0.78247128894E+01 0.63893113044E+01 0.51703958325E+01 0.41969060657E+01
 0.36304608485E+01 0.36421453076E+01 0.42210386755E+01 0.51832747785E+01 0.63752787962E+01
 0.77919248550E+01 0.94174731391E+01 0.10968844392E+02 0.11915405631E+02 0.11835134104E+02
 0.10758203379E+02 0.92720054727E+01 0.80634661962E+01 0.74338580622E+01 0.72440805062E+01
 0.72200174001E+01 0.72179565904E+01 0.72227057371E+01 0.72283771576E+01 0.72476819101E+01
 0.74346241425E+01 0.80686481206E+01 0.92785846107E+01 0.10752412923E+02 0.11811666094E+02
 0.11890370360E+02 0.10966079693E+02 0.78037043737E+01 0.68002135563E+01 0.56524110088E+01
 0.46152682215E+01 0.39033276290E+01 0.36421453076E+01 0.38811401386E+01 0.45930063036E+01
 0.56421368748E+01 0.67925297794E+01 0.77941623461E+01 0.84815459880E+01 0.88048780266E+01
 0.88027765781E+01 0.85141213640E+01 0.80430734071E+01 0.75889327843E+01 0.72992116901E+01
 0.71774196490E+01 0.71395997211E+01 0.71270642941E+01 0.71330357174E+01 0.71489396874E+01
 0.71519670611E+01 0.71669465399E+01 0.72913448846E+01 0.76068340350E+01 0.80686481206E+01
 0.85118376876E+01 0.87701713472E+01 0.87747221195E+01 0.84765045704E+01 0.70896453948E+01
 0.62141770507E+01 0.53130689123E+01 0.46101142505E+01 0.42302994748E+01 0.42210386755E+01
 0.45930063036E+01 0.53079957484E+01 0.62277640225E+01 0.71082934527E+01 0.76995186634E+01
 0.78972940842E+01 0.78106695730E+01 0.76289592991E+01 0.74417942740E+01 0.72921259031E+01
 0.71936860716E+01 0.71395922035E+01 0.71058913342E+01 0.70711170755E+01 0.70402348750E+01
 0.70355149565E+01 0.70632561611E+01 0.71059403252E+01 0.71493441580E+01 0.72029385101E+01
 0.72913448846E+01 0.74346241425E+01 0.76278384202E+01 0.78199682384E+01 0.79057879933E+01
 0.76934566006E+01 0.68178754608E+01 0.62109148940E+01 0.56052319562E+01 0.51524996961E+01
 0.49945358640E+01 0.51832747785E+01 0.56421368748E+01 0.62277640225E+01 0.68079002493E+01
 0.72699074268E+01 0.75159916230E+01 0.75264458465E+01 0.74054561393E+01 0.72609723768E+01
 0.71721995743E+01 0.71424484501E+01 0.71222569209E+01 0.70796234004E+01 0.70234227827E+01
 0.69764712688E+01 0.69535425185E+01 0.69639704685E+01 0.70116986494E+01 0.70802331237E+01
 0.71325252137E+01 0.71493441580E+01 0.71669465399E+01 0.72476819101E+01 0.73964582673E+01
 0.75317593808E+01 0.75361045761E+01 0.72939499311E+01 0.71299665878E+01 0.67975015429E+01
 0.63650463733E+01 0.60527637943E+01 0.60598147480E+01 0.63752787962E+01 0.67925297794E+01
 0.71082934527E+01 0.72699074268E+01 0.73316881200E+01 0.73398120936E+01 0.73097106543E+01
 0.72299647014E+01 0.71417300792E+01 0.70981371435E+01 0.70834515854E+01 0.70485143154E+01
 0.69884245667E+01 0.69404792318E+01 0.69239981171E+01 0.69267169501E+01 0.69435858271E+01
 0.69844592402E+01 0.70396174388E+01 0.70802331237E+01 0.71059403252E+01 0.71519670611E+01
 0.72283771576E+01 0.72931578467E+01 0.73224614824E+01 0.73317677570E+01 0.72896514400E+01
 0.78099429782E+01 0.78348761988E+01 0.77982593846E+01 0.77613446471E+01 0.77612966366E+01
 0.77919248550E+01 0.77941623461E+01 0.76995186634E+01 0.75159916230E+01 0.73398120936E+01
 0.72535609612E+01 0.72094507858E+01 0.71409069175E+01 0.70654829797E+01 0.70203563969E+01
 0.69914253312E+01 0.69539792064E+01 0.69273070391E+01 0.69336862350E+01 0.69486889140E+01
 0.69440412732E+01 0.69379880764E+01 0.69558595652E+01 0.69844592402E+01 0.70116986494E+01
 0.70632561611E+01 0.71489396874E+01 0.72227057371E+01 0.72580924181E+01 0.73240145295E+01
 0.74865141339E+01 0.76817796659E+01 0.94034082202E+01 0.10603099699E+02 0.11501395902E+02
 0.11501644324E+02 0.10607866788E+02 0.94174731391E+01 0.84815459880E+01 0.78972940842E+01
 0.75264458465E+01 0.73097106543E+01 0.72094507858E+01 0.71390564981E+01 0.70462749673E+01
 0.69692547732E+01 0.69424480572E+01 0.69338838591E+01 0.69199129468E+01 0.69241666931E+01
 0.69471851340E+01 0.69502184807E+01 0.69306164430E+01 0.69257586078E+01 0.69379880764E+01
 0.69435858271E+01 0.69639704685E+01 0.70355149565E+01 0.71330357174E+01 0.72179565904E+01
 0.73279447079E+01 0.75375271470E+01 0.78907037871E+01 0.84640485030E+01 0.14377566647E+02
 0.17864465576E+02 0.19386409410E+02 0.17891877068E+02 0.14405052610E+02 0.10968844392E+02
 0.88048780266E+01 0.78106695730E+01 0.74054561393E+01 0.72299647014E+01 0.71409069175E+01
 0.70462749673E+01 0.69485339682E+01 0.69168290305E+01 0.69385484380E+01 0.69336583776E+01
 0.68928755827E+01 0.68662056427E+01 0.68601918478E+01 0.68598952066E+01 0.68848186865E+01
 0.69306164430E+01 0.69440412732E+01 0.69267169501E+01 0.69535425185E+01 0.70402348750E+01
 0.71270642941E+01 0.72200174001E+01 0.74111383349E+01 0.78318578404E+01 0.88245626035E+01
 0.10965867124E+02 0.25411686547E+02 0.30884059451E+02 0.30864639017E+02 0.25366512224E+02
 0.17836876043E+02 0.11915405631E+02 0.88027765781E+01 0.76289592991E+01 0.72609723768E+01
 0.71417300792E+01 0.70654829797E+01 0.69692547732E+01 0.69168290305E+01 0.69437052894E+01
 0.69515981639E+01 0.68686789311E+01 0.67624237679E+01 0.67079192474E+01 0.67030917747E+01
 0.67516389093E+01 0.68598952066E+01 0.69502184807E+01 0.69486889140E+01 0.69239981171E+01
 0.69764712688E+01 0.70711170755E+01 0.71395997211E+01 0.72440805062E+01 0.76019916437E+01
 0.87857436512E+01 0.11927957332E+02 0.17877958699E+02 0.41591829461E+02 0.46268353729E+02
 0.41561337343E+02 0.30491680923E+02 0.19212347213E+02 0.11835134104E+02 0.85141213640E+01
 0.74417942740E+01 0.71721995743E+01 0.70981371435E+01 0.70203563969E+01 0.69424480572E+01
 0.69385484380E+01 0.69515981639E+01 0.68593044878E+01 0.66954227501E+01 0.65894244835E+01
 0.65672524058E+01 0.65974760415E+01 0.67030917747E+01 0.68601918478E+01 0.69471851340E+01
 0.69336862350E+01 0.69404792318E+01 0.70234227827E+01 0.71058913342E+01 0.71774196490E+01
 0.74338580622E+01 0.84931525087E+01 0.11819099536E+02 0.19221739016E+02 0.30525130218E+02
 0.56789630404E+02 0.56809395009E+02 0.45817593178E+02 0.30382916747E+02 0.17753702456E+02
 0.10758203379E+02 0.80430734071E+01 0.72921259031E+01 0.71424484501E+01 0.70834515854E+01
 0.69914253312E+01 0.69338838591E+01 0.69336583776E+01 0.68686789311E+01 0.66954227501E+01
 0.65469467892E+01 0.65054707224E+01 0.65154873966E+01 0.65672524058E+01 0.67079192474E+01
 0.68662056427E+01 0.69241666931E+01 0.69273070391E+01 0.69884245667E+01 0.70796234004E+01
 0.71395922035E+01 0.72992116901E+01 0.80634661962E+01 0.10778693845E+02 0.17752131551E+02
 0.30350994777E+02 0.45774923818E+02 0.63070659480E+02 0.56575410879E+02 0.41134151809E+02
 0.25114342765E+02 0.14326772484E+02 0.92720054727E+01 0.75889327843E+01 0.71936860716E+01
 0.71222569209E+01 0.70485143154E+01 0.69539792064E+01 0.69199129468E+01 0.68928755827E+01
 0.67624237679E+01 0.65894244835E+01 0.65054707224E+01 0.64960878590E+01 0.65054707224E+01
 0.65894244835E+01 0.67624237679E+01 0.68928755827E+01 0.69199129468E+01 0.69539792064E+01
 0.70485143154E+01 0.71222569209E+01 0.71936860716E+01 0.75889327843E+01 0.92720054727E+01
 0.14326772484E+02 0.25114342765E+02 0.41134151809E+02 0.56575410879E+02 0.56789630404E+02
 0.45774923818E+02 0.30350994777E+02 0.17752131551E+02 0.10778693845E+02 0.80634661962E+01
 0.72992116901E+01 0.71395922035E+01 0.70796234004E+01 0.69884245667E+01 0.69273070391E+01
 0.69241666931E+01 0.68662056427E+01 0.67079192474E+01 0.65672524058E+01 0.65154873966E+01
 0.65054707224E+01 0.65469467892E+01 0.66954227501E+01 0.68686789311E+01 0.69336583776E+01
 0.69338838591E+01 0.69914253312E+01 0.70834515854E+01 0.71424484501E+01 0.72921259031E+01
 0.80430734071E+01 0.10758203379E+02 0.17753702456E+02 0.30382916747E+02 0.45817593178E+02
 0.56809395009E+02 0.41591829461E+02 0.30525130218E+02 0.19221739016E+02 0.11819099536E+02
 0.84931525087E+01 0.74338580622E+01 0.71774196490E+01 0.71058913342E+01 0.70234227827E+01
 0.69404792318E+01 0.69336862350E+01 0.69471851340E+01 0.68601918478E+01 0.67030917747E+01
 0.65974760415E+01 0.65672524058E+01 0.65894244835E+01 0.66954227501E+01 0.68593044878E+01
 0.69515981639E+01 0.69385484380E+01 0.69424480572E+01 0.70203563969E+01 0.70981371435E+01
 0.71721995743E+01 0.74417942740E+01 0.85141213640E+01 0.11835134104E+02 0.19212347213E+02
 0.30491680923E+02 0.41561337343E+02 0.46268353729E+02 0.25411686547E+02 0.17877958699E+02
 0.11927957332E+02 0.87857436512E+01 0.76019916437E+01 0.72440805062E+01 0.71395997211E+01
 0.70711170755E+01 0.69764712688E+01 0.69239981171E+01 0.69486889140E+01 0.69502184807E+01
 0.68598952066E+01 0.67516389093E+01 0.67030917747E+01 0.67079192474E+01 0.67624237679E+01
 0.68686789311E+01 0.69515981639E+01 0.69437052894E+01 0.69168290305E+01 0.69692547732E+01
 0.70654829797E+01 0.71417300792E+01 0.72609723768E+01 0.76289592991E+01 0.88027765781E+01
 0.11915405631E+02 0.17836876043E+02 0.25366512224E+02 0.30864639017E+02 0.30884059451E+02
 0.14377566647E+02 0.10965867124E+02 0.88245626035E+01 0.78318578404E+01 0.74111383349E+01
 0.72200174001E+01 0.71270642941E+01 0.70402348750E+01 0.69535425185E+01 0.69267169501E+01
 0.69440412732E+01 0.69306164430E+01 0.68848186865E+01 0.68598952066E+01 0.68601918478E+01
 0.68662056427E+01 0.68928755827E+01 0.69336583776E+01 0.69385484380E+01 0.69168290305E+01
 0.69485339682E+01 0.70462749673E+01 0.71409069175E+01 0.72299647014E+01 0.74054561393E+01
 0.78106695730E+01 0.88048780266E+01 0.10968844392E+02 0.14405052610E+02 0.17891877068E+02
 0.19386409410E+02 0.17864465576E+02 0.94034082202E+01 0.84640485030E+01 0.78907037871E+01
 0.75375271470E+01 0.73279447079E+01 0.72179565904E+01 0.71330357174E+01 0.70355149565E+01
 0.69639704685E+01 0.69435858271E+01 0.69379880764E+01 0.69257586078E+01 0.69306164430E+01
 0.69502184807E+01 0.69471851340E+01 0.69241666931E+01 0.69199129468E+01 0.69338838591E+01
 0.69424480572E+01 0.69692547732E+01 0.70462749673E+01 0.71390564981E+01 0.72094507858E+01
 0.73097106543E+01 0.75264458465E+01 0.78972940842E+01 0.84815459880E+01 0.94174731391E+01
 0.10607866788E+02 0.11501644324E+02 0.11501395902E+02 0.10603099699E+02 0.78099429782E+01
 0.76817796659E+01 0.74865141339E+01 0.73240145295E+01 0.72580924181E+01 0.72227057371E+01
 0.71489396874E+01 0.70632561611E+01 0.70116986494E+01 0.69844592402E+01 0.69558595652E+01
 0.69379880764E+01 0.69440412732E+01 0.69486889140E+01 0.69336862350E+01 0.69273070391E+01
 0.69539792064E+01 0.69914253312E+01 0.70203563969E+01 0.70654829797E+01 0.71409069175E+01
 0.72094507858E+01 0.72535609612E+01 0.73398120936E+01 0.75159916230E+01 0.76995186634E+01
 0.77941623461E+01 0.77919248550E+01 0.77612966366E+01 0.77613446471E+01 0.77982593846E+01
 0.78348761988E+01 0.71299665878E+01 0.72896514400E+01 0.73317677570E+01 0.73224614824E+01
 0.72931578467E+01 0.72283771576E+01 0.71519670611E+01 0.71059403252E+01 0.70802331237E+01
 0.70396174388E+01 0.69844592402E+01 0.69435858271E+01 0.69267169501E+01 0.69239981171E+01
 0.69404792318E+01 0.69884245667E+01 0.70485143154E+01 0.70834515854E+01 0.70981371435E+01
 0.71417300792E+01 0.72299647014E+01 0.73097106543E+01 0.73398120936E+01 0.73316881200E+01
 0.72699074268E+01 0.71082934527E+01 0.67925297794E+01 0.63752787962E+01 0.60598147480E+01
 0.60527637943E+01 0.63650463733E+01 0.67975015429E+01 0.68178754608E+01 0.72939499311E+01
 0.75361045761E+01 0.75317593808E+01 0.73964582673E+01 0.72476819101E+01 0.71669465399E+01
 0.71493441580E+01 0.71325252137E+01 0.70802331237E+01 0.70116986494E+01 0.69639704685E+01
 0.69535425185E+01 0.69764712688E+01 0.70234227827E+01 0.70796234004E+01 0.71222569209E+01
 0.71424484501E+01 0.71721995743E+01 0.72609723768E+01 0.74054561393E+01 0.75264458465E+01
 0.75159916230E+01 0.72699074268E+01 0.68079002493E+01 0.62277640225E+01 0.56421368748E+01
 0.51832747785E+01 0.49945358640E+01 0.51524996961E+01 0.56052319562E+01 0.62109148940E+01
 0.70896453948E+01 0.76934566006E+01 0.79057879933E+01 0.78199682384E+01 0.76278384202E+01
 0.74346241425E+01 0.72913448846E+01 0.72029385101E+01 0.71493441580E+01 0.71059403252E+01
 0.70632561611E+01 0.70355149565E+01 0.70402348750E+01 0.70711170755E+01 0.71058913342E+01
 0.71395922035E+01 0.71936860716E+01 0.72921259031E+01 0.74417942740E+01 0.76289592991E+01
 0.78106695730E+01 0.78972940842E+01 0.76995186634E+01 0.71082934527E+01 0.62277640225E+01
 0.53079957484E+01 0.45930063036E+01 0.42210386755E+01 0.42302994748E+01 0.46101142505E+01
 0.53130689123E+01 0.62141770507E+01 0.78037043737E+01 0.84765045704E+01 0.87747221195E+01
 0.87701713472E+01 0.85118376876E+01 0.80686481206E+01 0.76068340350E+01 0.72913448846E+01
 0.71669465399E+01 0.71519670611E+01 0.71489396874E+01 0.71330357174E+01 0.71270642941E+01
 0.71395997211E+01 0.71774196490E+01 0.72992116901E+01 0.75889327843E+01 0.80430734071E+01
 0.85141213640E+01 0.88027765781E+01 0.88048780266E+01 0.84815459880E+01 0.77941623461E+01
 0.67925297794E+01 0.56421368748E+01 0.45930063036E+01 0.38811401386E+01 0.36421453076E+01
 0.39033276290E+01 0.46152682215E+01 0.56524110088E+01 0.68002135563E+01 0.94425633886E+01
 0.10966079693E+02 0.11890370360E+02 0.11811666094E+02 0.10752412923E+02 0.92785846107E+01
 0.80686481206E+01 0.74346241425E+01 0.72476819101E+01 0.72283771576E+01 0.72227057371E+01
 0.72179565904E+01 0.72200174001E+01 0.72440805062E+01 0.74338580622E+01 0.80634661962E+01
 0.92720054727E+01 0.10758203379E+02 0.11835134104E+02 0.11915405631E+02 0.10968844392E+02
 0.94174731391E+01 0.77919248550E+01 0.63752787962E+01 0.51832747785E+01 0.42210386755E+01
 0.36421453076E+01 0.36304608485E+01 0.41969060657E+01 0.51703958325E+01 0.63893113044E+01
 0.78247128894E+01 0.14375576339E+02 0.17857030699E+02 0.19262151389E+02 0.17767825924E+02
 0.14292312091E+02 0.10752412923E+02 0.85118376876E+01 0.76278384202E+01 0.73964582673E+01
 0.72931578467E+01 0.72580924181E+01 0.73279447079E+01 0.74111383349E+01 0.76019916437E+01
 0.84931525087E+01 0.10778693845E+02 0.14326772484E+02 0.17753702456E+02 0.19212347213E+02
 0.17836876043E+02 0.14405052610E+02 0.10607866788E+02 0.77612966366E+01 0.60598147480E+01
 0.49945358640E+01 0.42302994748E+01 0.39033276290E+01 0.41969060657E+01 0.49788053760E+01
 0.60798906219E+01 0.77729781179E+01 0.10579711360E+02 0.25328026806E+02 0.30492264318E+02
 0.30418279480E+02 0.25152723379E+02 0.17767825924E+02 0.11811666094E+02 0.87701713472E+01
 0.78199682384E+01 0.75317593808E+01 0.73224614824E+01 0.73240145295E+01 0.75375271470E+01
 0.78318578404E+01 0.87857436512E+01 0.11819099536E+02 0.17752131551E+02 0.25114342765E+02
 0.30382916747E+02 0.30491680923E+02 0.25366512224E+02 0.17891877068E+02 0.11501644324E+02
 0.77613446471E+01 0.60527637943E+01 0.51524996961E+01 0.46101142505E+01 0.46152682215E+01
 0.51703958325E+01 0.60798906219E+01 0.77768035017E+01 0.11483228166E+02 0.17845530417E+02
 0.41524377957E+02 0.45755255334E+02 0.41135034889E+02 0.30418279480E+02 0.19262151389E+02
 0.11890370360E+02 0.87747221195E+01 0.79057879933E+01 0.75361045761E+01 0.73317677570E+01
 0.74865141339E+01 0.78907037871E+01 0.88245626035E+01 0.11927957332E+02 0.19221739016E+02
 0.30350994777E+02 0.41134151809E+02 0.45817593178E+02 0.41561337343E+02 0.30864639017E+02
 0.19386409410E+02 0.11501395902E+02 0.77982593846E+01 0.63650463733E+01 0.56052319562E+01
 0.53130689123E+01 0.56524110088E+01 0.63893113044E+01 0.77729781179E+01 0.11483228166E+02
 0.19415314552E+02 0.30890548060E+02 0.56846708585E+02 0.56587905253E+02 0.45755255334E+02
 0.30492264318E+02 0.17857030699E+02 0.10966079693E+02 0.84765045704E+01 0.76934566006E+01
 0.72939499311E+01 0.72896514400E+01 0.76817796659E+01 0.84640485030E+01 0.10965867124E+02
 0.17877958699E+02 0.30525130218E+02 0.45774923818E+02 0.56575410879E+02 0.56809395009E+02
 0.46268353729E+02 0.30884059451E+02 0.17864465576E+02 0.10603099699E+02 0.78348761988E+01
 0.67975015429E+01 0.62109148940E+01 0.62141770507E+01 0.68002135563E+01 0.78247128894E+01
 0.10579711360E+02 0.17845530417E+02 0.30890548060E+02 0.46301955996E+02 0.56846790033E+02
 0.46302079329E+02 0.30890628066E+02 0.17845566154E+02 0.10579751088E+02 0.78247265234E+01
 0.68001295378E+01 0.62140217979E+01 0.62108033438E+01 0.67975219648E+01 0.78350849598E+01
 0.10603561335E+02 0.17865146684E+02 0.30884709917E+02 0.46268637907E+02 0.56809155624E+02
 0.56574738306E+02 0.45774033822E+02 0.30524286989E+02 0.17877436549E+02 0.10965803462E+02
 0.84643198807E+01 0.76821287571E+01 0.72899227443E+01 0.72941224603E+01 0.76935215290E+01
 0.84764547998E+01 0.10965983657E+02 0.17856977759E+02 0.30492251779E+02 0.45755236228E+02
 0.56587907774E+02 0.46302079329E+02 0.34293514324E+02 0.21210564918E+02 0.12099214749E+02
 0.78273390082E+01 0.62761209068E+01 0.54928124503E+01 0.51321520971E+01 0.54431748752E+01
 0.62762566202E+01 0.79107208223E+01 0.12163853229E+02 0.21160105722E+02 0.34178482470E+02
 0.46250662804E+02 0.51015522916E+02 0.45696802721E+02 0.33506192905E+02 0.20911944459E+02
 0.12621041688E+02 0.90552853017E+01 0.79620505059E+01 0.74912917886E+01 0.73106022736E+01
 0.75467377529E+01 0.80002889738E+01 0.90418192757E+01 0.12599653410E+02 0.20914132607E+02
 0.33491745582E+02 0.45634833974E+02 0.50968963943E+02 0.30890628066E+02 0.21210564918E+02
 0.12860762859E+02 0.79619002691E+01 0.57786709210E+01 0.47078697331E+01 0.40883121189E+01
 0.40947228535E+01 0.47234391248E+01 0.57930886544E+01 0.79623731734E+01 0.12841364402E+02
 0.21180803817E+02 0.30872282153E+02 0.37439885001E+02 0.37222797402E+02 0.30394710317E+02
 0.20910298475E+02 0.13254356744E+02 0.92910321014E+01 0.79948145938E+01 0.75782258611E+01
 0.72940469228E+01 0.72896340683E+01 0.75732527782E+01 0.80034148066E+01 0.93136033224E+01
 0.13272425663E+02 0.20903729326E+02 0.30363590211E+02 0.37189837395E+02 0.37430014908E+02
 0.17845566154E+02 0.12099214749E+02 0.79619002691E+01 0.56464730291E+01 0.42773223941E+01
 0.33158333821E+01 0.29411366012E+01 0.33424010863E+01 0.42738287173E+01 0.56019994173E+01
 0.79428191240E+01 0.12148758559E+02 0.17908210402E+02 0.23129746354E+02 0.25183463280E+02
 0.22957511073E+02 0.17825702413E+02 0.12560122116E+02 0.91730443500E+01 0.78175833158E+01
 0.74742532027E+01 0.73044036855E+01 0.71899812364E+01 0.72613255892E+01 0.74531559277E+01
 0.78442059929E+01 0.91951203263E+01 0.12537536130E+02 0.17801221571E+02 0.22988469967E+02
 0.25241354700E+02 0.23133276334E+02 0.10579751088E+02 0.78273390082E+01 0.57786709210E+01
 0.42773223941E+01 0.30816177918E+01 0.23255344980E+01 0.23134559514E+01 0.30616981016E+01
 0.42795012702E+01 0.58114738310E+01 0.78666853048E+01 0.10593060054E+02 0.13462756632E+02
 0.15329378373E+02 0.15285189526E+02 0.13411879522E+02 0.10811611735E+02 0.87225797672E+01
 0.76448861394E+01 0.72976801641E+01 0.72028307395E+01 0.71484121496E+01 0.71505246754E+01
 0.72065074351E+01 0.72968946698E+01 0.76349549170E+01 0.87051939779E+01 0.10797144505E+02
 0.13414937045E+02 0.15312356052E+02 0.15367919707E+02 0.13485106402E+02 0.78247265234E+01
 0.62761209068E+01 0.47078697331E+01 0.33158333821E+01 0.23255344980E+01 0.19553350231E+01
 0.23156869856E+01 0.33253159079E+01 0.47398499485E+01 0.62915382793E+01 0.77982392223E+01
 0.91168346685E+01 0.10034167313E+02 0.10318511698E+02 0.98961738072E+01 0.89838828515E+01
 0.80549536334E+01 0.74578361522E+01 0.72044859374E+01 0.71149479326E+01 0.70684864949E+01
 0.70617990448E+01 0.70956730625E+01 0.71295525355E+01 0.71889211505E+01 0.74414550249E+01
 0.80633471624E+01 0.89966032084E+01 0.98824311411E+01 0.10292609171E+02 0.10038254009E+02
 0.91547374125E+01 0.68001295378E+01 0.54928124503E+01 0.40883121189E+01 0.29411366012E+01
 0.23134559514E+01 0.23156869856E+01 0.29381237038E+01 0.40678933226E+01 0.54651264510E+01
 0.67911558341E+01 0.77433529425E+01 0.82028125523E+01 0.82616721315E+01 0.81089929585E+01
 0.78378578687E+01 0.75289675430E+01 0.72830040312E+01 0.71460273103E+01 0.70807033813E+01
 0.70295305048E+01 0.69871450146E+01 0.69851518045E+01 0.70264655710E+01 0.70808843874E+01
 0.71497590418E+01 0.72892548232E+01 0.75391423188E+01 0.78502424638E+01 0.81122223281E+01
 0.82440303822E+01 0.81710389053E+01 0.77229313738E+01 0.62140217979E+01 0.51321520971E+01
 0.40947228535E+01 0.33424010863E+01 0.30616981016E+01 0.33253159079E+01 0.40678933226E+01
 0.51150521772E+01 0.62261987788E+01 0.71370481225E+01 0.76451140896E+01 0.77283468416E+01
 0.75771301307E+01 0.73967480414E+01 0.72666807816E+01 0.71900333917E+01 0.71323931010E+01
 0.70705046894E+01 0.70029044225E+01 0.69412413706E+01 0.69070699056E+01 0.69226164843E+01
 0.69883806441E+01 0.70734317727E+01 0.71412724465E+01 0.71915047708E+01 0.72685445277E+01
 0.74133054752E+01 0.75997824525E+01 0.77298860961E+01 0.76156867514E+01 0.71006858958E+01
 0.62108033438E+01 0.54431748752E+01 0.47234391248E+01 0.42738287173E+01 0.42795012702E+01
 0.47398499485E+01 0.54651264510E+01 0.62261987788E+01 0.68709778231E+01 0.73116462632E+01
 0.74959386510E+01 0.74607694979E+01 0.73308688018E+01 0.72064712718E+01 0.71467109724E+01
 0.71224643056E+01 0.70741292728E+01 0.69908719640E+01 0.69101530452E+01 0.68653969274E+01
 0.68640915343E+01 0.69051085576E+01 0.69826002985E+01 0.70682271702E+01 0.71234154806E+01
 0.71506329239E+01 0.72062909445E+01 0.73280674474E+01 0.74651143964E+01 0.75112642397E+01
 0.73274544102E+01 0.68726429321E+01 0.67975219648E+01 0.62762566202E+01 0.57930886544E+01
 0.56019994173E+01 0.58114738310E+01 0.62915382793E+01 0.67911558341E+01 0.71370481225E+01
 0.73116462632E+01 0.73735471317E+01 0.73693975481E+01 0.73212326830E+01 0.72272338237E+01
 0.71398507862E+01 0.70897674374E+01 0.70450241677E+01 0.69761241083E+01 0.69064637677E+01
 0.68714828906E+01 0.68691750233E+01 0.68821142938E+01 0.69144321435E+01 0.69722764535E+01
 0.70356289243E+01 0.70869623773E+01 0.71448001205E+01 0.72285787977E+01 0.73108545182E+01
 0.73552777165E+01 0.73727612818E+01 0.73302729537E+01 0.71603628980E+01 0.78350849598E+01
 0.79107208223E+01 0.79623731734E+01 0.79428191240E+01 0.78666853048E+01 0.77982392223E+01
 0.77433529425E+01 0.76451140896E+01 0.74959386510E+01 0.73693975481E+01 0.73079253527E+01
 0.72417675614E+01 0.71422626892E+01 0.70527148075E+01 0.69971358670E+01 0.69510989088E+01
 0.69079337477E+01 0.68940732146E+01 0.69073853990E+01 0.69123392675E+01 0.69049763204E+01
 0.69164089461E+01 0.69514079734E+01 0.69906300756E+01 0.70466749679E+01 0.71437753328E+01
 0.72501025844E+01 0.73123648073E+01 0.73581565967E+01 0.74706391689E+01 0.76249420366E+01
 0.77502356698E+01 0.10603561335E+02 0.12163853229E+02 0.12841364402E+02 0.12148758559E+02
 0.10593060054E+02 0.91168346685E+01 0.82028125523E+01 0.77283468416E+01 0.74607694979E+01
 0.73212326830E+01 0.72417675614E+01 0.71439259533E+01 0.70294259394E+01 0.69601289288E+01
 0.69394061992E+01 0.69198715845E+01 0.68973792588E+01 0.68959282653E+01 0.69007341977E+01
 0.68922361722E+01 0.68946952595E+01 0.69224461837E+01 0.69451304274E+01 0.69614937130E+01
 0.70231020882E+01 0.71376921270E+01 0.72466275804E+01 0.73357005710E+01 0.74689211002E+01
 0.77181401220E+01 0.81827914155E+01 0.91079281358E+01 0.17865146684E+02 0.21160105722E+02
 0.21180803817E+02 0.17908210402E+02 0.13462756632E+02 0.10034167313E+02 0.82616721315E+01
 0.75771301307E+01 0.73308688018E+01 0.72272338237E+01 0.71422626892E+01 0.70294259394E+01
 0.69487678824E+01 0.69439607559E+01 0.69467189148E+01 0.68957485561E+01 0.68293825512E+01
 0.67944161961E+01 0.67870523344E+01 0.68142302032E+01 0.68860386570E+01 0.69485868887E+01
 0.69524908180E+01 0.69550647550E+01 0.70282660073E+01 0.71344758820E+01 0.72196798462E+01
 0.73341387665E+01 0.75963684838E+01 0.82854349548E+01 0.10038284376E+02 0.13434230336E+02
 0.30884709917E+02 0.34178482470E+02 0.30872282153E+02 0.23129746354E+02 0.15329378373E+02
 0.10318511698E+02 0.81089929585E+01 0.73967480414E+01 0.72064712718E+01 0.71398507862E+01
 0.70527148075E+01 0.69601289288E+01 0.69439607559E+01 0.69635902667E+01 0.69019736674E+01
 0.67672018460E+01 0.66645110420E+01 0.66323863652E+01 0.66599549991E+01 0.67610527427E+01
 0.68977289113E+01 0.69633269670E+01 0.69479864837E+01 0.69666799948E+01 0.70575715546E+01
 0.71381665128E+01 0.71969840719E+01 0.73843329908E+01 0.81020583826E+01 0.10323008960E+02
 0.15344474540E+02 0.23148209404E+02 0.46268637907E+02 0.46250662804E+02 0.37439885001E+02
 0.25183463280E+02 0.15285189526E+02 0.98961738072E+01 0.78378578687E+01 0.72666807816E+01
 0.71467109724E+01 0.70897674374E+01 0.69971358670E+01 0.69394061992E+01 0.69467189148E+01
 0.69019736674E+01 0.67459129210E+01 0.65904403707E+01 0.65280839449E+01 0.65346593323E+01
 0.66035622885E+01 0.67535239413E+01 0.68997239653E+01 0.69403138003E+01 0.69357509299E+01
 0.69978976785E+01 0.70934430682E+01 0.71508737201E+01 0.72657727598E+01 0.78257730805E+01
 0.98776794743E+01 0.15279415689E+02 0.25204982664E+02 0.37476022485E+02 0.56809155624E+02
 0.51015522916E+02 0.37222797402E+02 0.22957511073E+02 0.13411879522E+02 0.89838828515E+01
 0.75289675430E+01 0.71900333917E+01 0.71224643056E+01 0.70450241677E+01 0.69510989088E+01
 0.69198715845E+01 0.68957485561E+01 0.67672018460E+01 0.65904403707E+01 0.64979734320E+01
 0.64877099505E+01 0.65093766096E+01 0.66043255681E+01 0.67728961748E+01 0.68904808958E+01
 0.69107795673E+01 0.69455851042E+01 0.70420783419E+01 0.71186596154E+01 0.71911887160E+01
 0.75458069372E+01 0.90125473636E+01 0.13427308077E+02 0.22935956924E+02 0.37171126965E+02
 0.50971710385E+02 0.56574738306E+02 0.45696802721E+02 0.30394710317E+02 0.17825702413E+02
 0.10811611735E+02 0.80549536334E+01 0.72830040312E+01 0.71323931010E+01 0.70741292728E+01
 0.69761241083E+01 0.69079337477E+01 0.68973792588E+01 0.68293825512E+01 0.66645110420E+01
 0.65280839449E+01 0.64877099505E+01 0.64846203501E+01 0.65226406869E+01 0.66622180780E+01
 0.68298745999E+01 0.68973709912E+01 0.69071850126E+01 0.69753358191E+01 0.70715823601E+01
 0.71292791333E+01 0.72879092487E+01 0.80736649419E+01 0.10832760330E+02 0.17826134214E+02
 0.30364511791E+02 0.45655142033E+02 0.56555319208E+02 0.45774033822E+02 0.33506192905E+02
 0.20910298475E+02 0.12560122116E+02 0.87225797672E+01 0.74578361522E+01 0.71460273103E+01
 0.70705046894E+01 0.69908719640E+01 0.69064637677E+01 0.68940732146E+01 0.68959282653E+01
 0.67944161961E+01 0.66323863652E+01 0.65346593323E+01 0.65093766096E+01 0.65226406869E+01
 0.66190779532E+01 0.67897016854E+01 0.69004368935E+01 0.69018615821E+01 0.69120667752E+01
 0.69927556963E+01 0.70699289536E+01 0.71432935375E+01 0.74501646256E+01 0.87092885896E+01
 0.12550800890E+02 0.20920193945E+02 0.33536471316E+02 0.45802122247E+02 0.50971059773E+02
 0.30524286989E+02 0.20911944459E+02 0.13254356744E+02 0.91730443500E+01 0.76448861394E+01
 0.72044859374E+01 0.70807033813E+01 0.70029044225E+01 0.69101530452E+01 0.68714828906E+01
 0.69073853990E+01 0.69007341977E+01 0.67870523344E+01 0.66599549991E+01 0.66035622885E+01
 0.66043255681E+01 0.66622180780E+01 0.67897016854E+01 0.69020411843E+01 0.69082310379E+01
 0.68741432524E+01 0.69120606883E+01 0.69974985217E+01 0.70684900416E+01 0.71973622234E+01
 0.76528792378E+01 0.91899964431E+01 0.13263402315E+02 0.20904442354E+02 0.30508706259E+02