   2   2   1   0
  0.2079688E+02  0.3889087E-09  0.3889087E-09  0.3889087E-09  0.5000000E-15
  1.000000000000000E-004
  CAR 
 diamond Si                              
     13.83457268     -9.45178671  301      3.20168139      1.00000000
     -9.452  0.0000E+00  0.0000E+00
     -9.374  0.0000E+00  0.0000E+00
     -9.297  0.0000E+00  0.0000E+00
     -9.219  0.0000E+00  0.0000E+00
     -9.141  0.0000E+00  0.0000E+00
     -9.064  0.0000E+00  0.0000E+00
     -8.986  0.0000E+00  0.0000E+00
     -8.908  0.3140E-12  0.2437E-13
     -8.831  0.6018E-09  0.4674E-10
     -8.753  0.3577E-06  0.2781E-07
     -8.676  0.6687E-04  0.5218E-05
     -8.598  0.4024E-02  0.3176E-03
     -8.520  0.8058E-01  0.6572E-02
     -8.443  0.5611E+00  0.5012E-01
     -8.365  0.1443E+01  0.1621E+00
     -8.287  0.1574E+01  0.2842E+00
     -8.210  0.1138E+01  0.3726E+00
     -8.132  0.8452E+00  0.4382E+00
     -8.055  0.5985E+00  0.4846E+00
     -7.977  0.5736E+00  0.5291E+00
     -7.899  0.6657E+00  0.5808E+00
     -7.822  0.5580E+00  0.6241E+00
     -7.744  0.3138E+00  0.6485E+00
     -7.666  0.3045E+00  0.6721E+00
     -7.589  0.5951E+00  0.7183E+00
     -7.511  0.6670E+00  0.7701E+00
     -7.434  0.3240E+00  0.7952E+00
     -7.356  0.8742E-01  0.8020E+00
     -7.278  0.2204E+00  0.8191E+00
     -7.201  0.5924E+00  0.8651E+00
     -7.123  0.6603E+00  0.9164E+00
     -7.046  0.3476E+00  0.9433E+00
     -6.968  0.1330E+00  0.9537E+00
     -6.890  0.2102E+00  0.9700E+00
     -6.813  0.3146E+00  0.9944E+00
     -6.735  0.3711E+00  0.1023E+01
     -6.657  0.5695E+00  0.1067E+01
     -6.580  0.6762E+00  0.1120E+01
     -6.502  0.5399E+00  0.1162E+01
     -6.425  0.3420E+00  0.1188E+01
     -6.347  0.1308E+00  0.1199E+01
     -6.269  0.4528E-01  0.1202E+01
     -6.192  0.1964E+00  0.1217E+01
     -6.114  0.4968E+00  0.1256E+01
     -6.036  0.4299E+00  0.1289E+01
     -5.959  0.1264E+00  0.1299E+01
     -5.881  0.1254E-01  0.1300E+01
     -5.804  0.4169E-02  0.1300E+01
     -5.726  0.4690E-01  0.1304E+01
     -5.648  0.1958E+00  0.1319E+01
     -5.571  0.3138E+00  0.1343E+01
     -5.493  0.3205E+00  0.1368E+01
     -5.415  0.2811E+00  0.1390E+01
     -5.338  0.1755E+00  0.1404E+01
     -5.260  0.3434E+00  0.1430E+01
     -5.183  0.6405E+00  0.1480E+01
     -5.105  0.6346E+00  0.1529E+01
     -5.027  0.5879E+00  0.1575E+01
     -4.950  0.6841E+00  0.1628E+01
     -4.872  0.1029E+01  0.1708E+01
     -4.795  0.1994E+01  0.1863E+01
     -4.717  0.2843E+01  0.2084E+01
     -4.639  0.2102E+01  0.2247E+01
     -4.562  0.1059E+01  0.2329E+01
     -4.484  0.6772E+00  0.2381E+01
     -4.406  0.5589E+00  0.2425E+01
     -4.329  0.5077E+00  0.2464E+01
     -4.251  0.5508E+00  0.2507E+01
     -4.174  0.6402E+00  0.2557E+01
     -4.096  0.4540E+00  0.2592E+01
     -4.018  0.2398E+00  0.2611E+01
     -3.941  0.2764E+00  0.2632E+01
     -3.863  0.2218E+00  0.2649E+01
     -3.785  0.2119E+00  0.2666E+01
     -3.708  0.2712E+00  0.2687E+01
     -3.630  0.1438E+00  0.2698E+01
     -3.553  0.2778E-01  0.2700E+01
     -3.475  0.3341E-01  0.2703E+01
     -3.397  0.1622E+00  0.2715E+01
     -3.320  0.3095E+00  0.2739E+01
     -3.242  0.4292E+00  0.2773E+01
     -3.164  0.7124E+00  0.2828E+01
     -3.087  0.6491E+00  0.2878E+01
     -3.009  0.2428E+00  0.2897E+01
     -2.932  0.3572E-01  0.2900E+01
     -2.854  0.1025E-01  0.2901E+01
     -2.776  0.7669E-01  0.2907E+01
     -2.699  0.2361E+00  0.2925E+01
     -2.621  0.2839E+00  0.2947E+01
     -2.544  0.2734E+00  0.2968E+01
     -2.466  0.2716E+00  0.2989E+01
     -2.388  0.1360E+00  0.3000E+01
     -2.311  0.1305E+00  0.3010E+01
     -2.233  0.2603E+00  0.3030E+01
     -2.155  0.2181E+00  0.3047E+01
     -2.078  0.1710E+00  0.3060E+01
     -2.000  0.2660E+00  0.3081E+01
     -1.923  0.1955E+00  0.3096E+01
     -1.845  0.8392E-01  0.3103E+01
     -1.767  0.1743E+00  0.3116E+01
     -1.690  0.2676E+00  0.3137E+01
     -1.612  0.1411E+00  0.3148E+01
     -1.534  0.2668E-01  0.3150E+01
     -1.457  0.3148E-01  0.3152E+01
     -1.379  0.1643E+00  0.3165E+01
     -1.302  0.3524E+00  0.3193E+01
     -1.224  0.3961E+00  0.3223E+01
     -1.146  0.2598E+00  0.3243E+01
     -1.069  0.7607E-01  0.3249E+01
     -0.991  0.1923E-01  0.3251E+01
     -0.913  0.9201E-01  0.3258E+01
     -0.836  0.2458E+00  0.3277E+01
     -0.758  0.2212E+00  0.3294E+01
     -0.681  0.6676E-01  0.3299E+01
     -0.603  0.8511E-02  0.3300E+01
     -0.525  0.3698E-01  0.3303E+01
     -0.448  0.2685E+00  0.3324E+01
     -0.370  0.8040E+00  0.3386E+01
     -0.292  0.1216E+01  0.3481E+01
     -0.215  0.1226E+01  0.3576E+01
     -0.137  0.9054E+00  0.3646E+01
     -0.060  0.5761E+00  0.3691E+01
      0.018  0.5202E+00  0.3731E+01
      0.096  0.7536E+00  0.3790E+01
      0.173  0.9232E+00  0.3861E+01
      0.251  0.6728E+00  0.3914E+01
      0.328  0.4681E+00  0.3950E+01
      0.406  0.5277E+00  0.3991E+01
      0.484  0.1197E+01  0.4084E+01
      0.561  0.2974E+01  0.4315E+01
      0.639  0.3892E+01  0.4617E+01
      0.717  0.2774E+01  0.4832E+01
      0.794  0.1762E+01  0.4969E+01
      0.872  0.1381E+01  0.5076E+01
      0.949  0.1301E+01  0.5177E+01
      1.027  0.8595E+00  0.5244E+01
      1.105  0.7050E+00  0.5298E+01
      1.182  0.1117E+01  0.5385E+01
      1.260  0.1029E+01  0.5465E+01
      1.338  0.4991E+00  0.5504E+01
      1.415  0.5202E+00  0.5544E+01
      1.493  0.9871E+00  0.5621E+01
      1.570  0.1092E+01  0.5705E+01
      1.648  0.8479E+00  0.5771E+01
      1.726  0.1129E+01  0.5859E+01
      1.803  0.1748E+01  0.5995E+01
      1.881  0.1936E+01  0.6145E+01
      1.959  0.1796E+01  0.6284E+01
      2.036  0.1426E+01  0.6395E+01
      2.114  0.1149E+01  0.6484E+01
      2.191  0.1408E+01  0.6593E+01
      2.269  0.2050E+01  0.6753E+01
      2.347  0.2048E+01  0.6912E+01
      2.424  0.1457E+01  0.7025E+01
      2.502  0.1303E+01  0.7126E+01
      2.579  0.2022E+01  0.7283E+01
      2.657  0.3202E+01  0.7531E+01
      2.735  0.3617E+01  0.7812E+01
      2.812  0.1983E+01  0.7966E+01
      2.890  0.4096E+00  0.7998E+01
      2.968  0.2900E-01  0.8000E+01
      3.045  0.6744E-03  0.8000E+01
      3.123  0.5013E-05  0.8000E+01
      3.200  0.1169E-07  0.8000E+01
      3.278  0.8448E-11  0.8000E+01
      3.356  0.1931E-14  0.8000E+01
      3.433  0.0000E+00  0.8000E+01
      3.511  0.0000E+00  0.8000E+01
      3.589  0.0000E+00  0.8000E+01
      3.666  0.0000E+00  0.8000E+01
      3.744  0.0000E+00  0.8000E+01
      3.821  0.0000E+00  0.8000E+01
      3.899  0.0000E+00  0.8000E+01
      3.977  0.0000E+00  0.8000E+01
      4.054  0.0000E+00  0.8000E+01
      4.132  0.0000E+00  0.8000E+01
      4.210  0.0000E+00  0.8000E+01
      4.287  0.0000E+00  0.8000E+01
      4.365  0.2324E-14  0.8000E+01
      4.442  0.7893E-11  0.8000E+01
      4.520  0.8234E-08  0.8000E+01
      4.598  0.2693E-05  0.8000E+01
      4.675  0.2805E-03  0.8000E+01
      4.753  0.9520E-02  0.8001E+01
      4.831  0.1095E+00  0.8009E+01
      4.908  0.4685E+00  0.8046E+01
      4.986  0.9577E+00  0.8120E+01
      5.063  0.1324E+01  0.8223E+01
      5.141  0.1241E+01  0.8319E+01
      5.219  0.1063E+01  0.8402E+01
      5.296  0.1388E+01  0.8509E+01
      5.374  0.1916E+01  0.8658E+01
      5.451  0.3203E+01  0.8907E+01
      5.529  0.3716E+01  0.9195E+01
      5.607  0.2849E+01  0.9416E+01
      5.684  0.2113E+01  0.9580E+01
      5.762  0.1684E+01  0.9711E+01
      5.840  0.1474E+01  0.9825E+01
      5.917  0.1136E+01  0.9914E+01
      5.995  0.7564E+00  0.9972E+01
      6.072  0.8494E+00  0.1004E+02
      6.150  0.1296E+01  0.1014E+02
      6.228  0.1392E+01  0.1025E+02
      6.305  0.1424E+01  0.1036E+02
      6.383  0.2498E+01  0.1055E+02
      6.461  0.4085E+01  0.1087E+02
      6.538  0.3760E+01  0.1116E+02
      6.616  0.2553E+01  0.1136E+02
      6.693  0.2088E+01  0.1152E+02
      6.771  0.1378E+01  0.1163E+02
      6.849  0.7852E+00  0.1169E+02
      6.926  0.1204E+01  0.1178E+02
      7.004  0.1859E+01  0.1193E+02
      7.082  0.1720E+01  0.1206E+02
      7.159  0.1272E+01  0.1216E+02
      7.237  0.1228E+01  0.1225E+02
      7.314  0.1192E+01  0.1235E+02
      7.392  0.1249E+01  0.1244E+02
      7.470  0.1678E+01  0.1257E+02
      7.547  0.2192E+01  0.1274E+02
      7.625  0.2201E+01  0.1291E+02
      7.702  0.1333E+01  0.1302E+02
      7.780  0.1015E+01  0.1310E+02
      7.858  0.9908E+00  0.1317E+02
      7.935  0.7816E+00  0.1323E+02
      8.013  0.5227E+00  0.1328E+02
      8.091  0.2964E+00  0.1330E+02
      8.168  0.3173E+00  0.1332E+02
      8.246  0.5402E+00  0.1336E+02
      8.323  0.4359E+00  0.1340E+02
      8.401  0.3774E+00  0.1343E+02
      8.479  0.5840E+00  0.1347E+02
      8.556  0.7598E+00  0.1353E+02
      8.634  0.7786E+00  0.1359E+02
      8.712  0.5179E+00  0.1363E+02
      8.789  0.2187E+00  0.1365E+02
      8.867  0.1838E+00  0.1366E+02
      8.944  0.3041E+00  0.1369E+02
      9.022  0.3307E+00  0.1371E+02
      9.100  0.3548E+00  0.1374E+02
      9.177  0.3567E+00  0.1377E+02
      9.255  0.3355E+00  0.1379E+02
      9.333  0.3778E+00  0.1382E+02
      9.410  0.6999E+00  0.1388E+02
      9.488  0.9420E+00  0.1395E+02
      9.565  0.6687E+00  0.1400E+02
      9.643  0.4045E+00  0.1403E+02
      9.721  0.3283E+00  0.1406E+02
      9.798  0.3184E+00  0.1408E+02
      9.876  0.2988E+00  0.1411E+02
      9.954  0.5541E+00  0.1415E+02
     10.031  0.7726E+00  0.1421E+02
     10.109  0.4172E+00  0.1424E+02
     10.186  0.8288E-01  0.1425E+02
     10.264  0.5487E-01  0.1425E+02
     10.342  0.3229E+00  0.1428E+02
     10.419  0.7387E+00  0.1434E+02
     10.497  0.6118E+00  0.1438E+02
     10.574  0.1858E+00  0.1440E+02
     10.652  0.2424E-01  0.1440E+02
     10.730  0.6056E-01  0.1440E+02
     10.807  0.3146E+00  0.1443E+02
     10.885  0.5921E+00  0.1448E+02
     10.963  0.5228E+00  0.1452E+02
     11.040  0.3817E+00  0.1455E+02
     11.118  0.4448E+00  0.1458E+02
     11.195  0.7316E+00  0.1464E+02
     11.273  0.7720E+00  0.1470E+02
     11.351  0.8255E+00  0.1476E+02
     11.428  0.9769E+00  0.1484E+02
     11.506  0.6399E+00  0.1489E+02
     11.584  0.2775E+00  0.1491E+02
     11.661  0.3966E+00  0.1494E+02
     11.739  0.5147E+00  0.1498E+02
     11.816  0.4009E+00  0.1501E+02
     11.894  0.5655E+00  0.1505E+02
     11.972  0.7180E+00  0.1511E+02
     12.049  0.5291E+00  0.1515E+02
     12.127  0.4509E+00  0.1519E+02
     12.205  0.6801E+00  0.1524E+02
     12.282  0.1021E+01  0.1532E+02
     12.360  0.8747E+00  0.1539E+02
     12.437  0.6222E+00  0.1543E+02
     12.515  0.7411E+00  0.1549E+02
     12.593  0.9373E+00  0.1556E+02
     12.670  0.1245E+01  0.1566E+02
     12.748  0.1831E+01  0.1580E+02
     12.825  0.1755E+01  0.1594E+02
     12.903  0.6865E+00  0.1599E+02
     12.981  0.9519E-01  0.1600E+02
     13.058  0.4453E-02  0.1600E+02
     13.136  0.6810E-04  0.1600E+02
     13.214  0.3327E-06  0.1600E+02
     13.291  0.5106E-09  0.1600E+02
     13.369  0.2434E-12  0.1600E+02
     13.446  0.0000E+00  0.1600E+02
     13.524  0.0000E+00  0.1600E+02
     13.602  0.0000E+00  0.1600E+02
     13.679  0.0000E+00  0.1600E+02
     13.757  0.0000E+00  0.1600E+02
     13.835  0.0000E+00  0.1600E+02
     13.83457268     -9.45178671  301      3.20168139      1.00000000
     -9.452  0.0000E+00  0.0000E+00  0.0000E+00  0.0000E+00  0.0000E+00  0.0000E+00  0.0000E+00  0.0000E+00  0.0000E+00
     -9.374  0.0000E+00  0.0000E+00  0.0000E+00  0.0000E+00  0.0000E+00  0.0000E+00  0.0000E+00  0.0000E+00  0.0000E+00
     -9.297  0.0000E+00  0.0000E+00  0.0000E+00  0.0000E+00  0.0000E+00  0.0000E+00  0.0000E+00  0.0000E+00  0.0000E+00
     -9.219  0.0000E+00  0.0000E+00  0.0000E+00  0.0000E+00  0.0000E+00  0.0000E+00  0.0000E+00  0.0000E+00  0.0000E+00
     -9.141  0.0000E+00  0.0000E+00  0.0000E+00  0.0000E+00  0.0000E+00  0.0000E+00  0.0000E+00  0.0000E+00  0.0000E+00
     -9.064  0.0000E+00  0.0000E+00  0.0000E+00  0.0000E+00  0.0000E+00  0.0000E+00  0.0000E+00  0.0000E+00  0.0000E+00
     -8.986  0.0000E+00  0.0000E+00  0.0000E+00  0.0000E+00  0.0000E+00  0.0000E+00  0.0000E+00  0.0000E+00  0.0000E+00
     -8.908  0.7433E-13  0.4393E-18  0.4393E-18  0.4393E-18  0.0000E+00  0.0000E+00  0.0000E+00  0.0000E+00  0.0000E+00
     -8.831  0.1425E-09  0.1569E-14  0.1569E-14  0.1569E-14  0.0000E+00  0.0000E+00  0.0000E+00  0.0000E+00  0.0000E+00
     -8.753  0.8467E-07  0.1734E-11  0.1734E-11  0.1734E-11  0.0000E+00  0.0000E+00  0.0000E+00  0.0000E+00  0.0000E+00
     -8.676  0.1583E-04  0.6001E-09  0.6001E-09  0.6001E-09  0.0000E+00  0.0000E+00  0.0000E+00  0.0000E+00  0.0000E+00
     -8.598  0.9525E-03  0.6581E-07  0.6581E-07  0.6581E-07  0.0000E+00  0.0000E+00  0.0000E+00  0.0000E+00  0.0000E+00
     -8.520  0.1907E-01  0.2333E-05  0.2333E-05  0.2333E-05  0.0000E+00  0.0000E+00  0.0000E+00  0.0000E+00  0.0000E+00
     -8.443  0.1328E+00  0.2785E-04  0.2785E-04  0.2785E-04  0.0000E+00  0.0000E+00  0.0000E+00  0.0000E+00  0.0000E+00
     -8.365  0.3413E+00  0.1257E-03  0.1257E-03  0.1257E-03  0.0000E+00  0.0000E+00  0.0000E+00  0.0000E+00  0.0000E+00
     -8.287  0.3721E+00  0.2962E-03  0.2962E-03  0.2962E-03  0.0000E+00  0.0000E+00  0.0000E+00  0.0000E+00  0.0000E+00
     -8.210  0.2686E+00  0.5181E-03  0.5181E-03  0.5181E-03  0.0000E+00  0.0000E+00  0.0000E+00  0.0000E+00  0.0000E+00
     -8.132  0.1992E+00  0.6231E-03  0.6231E-03  0.6231E-03  0.0000E+00  0.0000E+00  0.0000E+00  0.0000E+00  0.0000E+00
     -8.055  0.1407E+00  0.6223E-03  0.6223E-03  0.6223E-03  0.0000E+00  0.0000E+00  0.0000E+00  0.0000E+00  0.0000E+00
     -7.977  0.1345E+00  0.8271E-03  0.8271E-03  0.8271E-03  0.0000E+00  0.0000E+00  0.0000E+00  0.0000E+00  0.0000E+00
     -7.899  0.1559E+00  0.1122E-02  0.1122E-02  0.1122E-02  0.0000E+00  0.0000E+00  0.0000E+00  0.0000E+00  0.0000E+00
     -7.822  0.1306E+00  0.1019E-02  0.1019E-02  0.1019E-02  0.0000E+00  0.0000E+00  0.0000E+00  0.0000E+00  0.0000E+00
     -7.744  0.7339E-01  0.6419E-03  0.6419E-03  0.6419E-03  0.0000E+00  0.0000E+00  0.0000E+00  0.0000E+00  0.0000E+00
     -7.666  0.7090E-01  0.8185E-03  0.8185E-03  0.8185E-03  0.0000E+00  0.0000E+00  0.0000E+00  0.0000E+00  0.0000E+00
     -7.589  0.1385E+00  0.1715E-02  0.1715E-02  0.1715E-02  0.0000E+00  0.0000E+00  0.0000E+00  0.0000E+00  0.0000E+00
     -7.511  0.1554E+00  0.1938E-02  0.1938E-02  0.1938E-02  0.0000E+00  0.0000E+00  0.0000E+00  0.0000E+00  0.0000E+00
     -7.434  0.7553E-01  0.9445E-03  0.9445E-03  0.9445E-03  0.0000E+00  0.0000E+00  0.0000E+00  0.0000E+00  0.0000E+00
     -7.356  0.2034E-01  0.2897E-03  0.2897E-03  0.2897E-03  0.0000E+00  0.0000E+00  0.0000E+00  0.0000E+00  0.0000E+00
     -7.278  0.5105E-01  0.9066E-03  0.9066E-03  0.9066E-03  0.0000E+00  0.0000E+00  0.0000E+00  0.0000E+00  0.0000E+00
     -7.201  0.1373E+00  0.2452E-02  0.2452E-02  0.2452E-02  0.0000E+00  0.0000E+00  0.0000E+00  0.0000E+00  0.0000E+00
     -7.123  0.1530E+00  0.2760E-02  0.2760E-02  0.2760E-02  0.0000E+00  0.0000E+00  0.0000E+00  0.0000E+00  0.0000E+00
     -7.046  0.8057E-01  0.1480E-02  0.1480E-02  0.1480E-02  0.0000E+00  0.0000E+00  0.0000E+00  0.0000E+00  0.0000E+00
     -6.968  0.3095E-01  0.5794E-03  0.5794E-03  0.5794E-03  0.0000E+00  0.0000E+00  0.0000E+00  0.0000E+00  0.0000E+00
     -6.890  0.4929E-01  0.9383E-03  0.9383E-03  0.9383E-03  0.0000E+00  0.0000E+00  0.0000E+00  0.0000E+00  0.0000E+00
     -6.813  0.7347E-01  0.1496E-02  0.1496E-02  0.1496E-02  0.0000E+00  0.0000E+00  0.0000E+00  0.0000E+00  0.0000E+00
     -6.735  0.8557E-01  0.2091E-02  0.2091E-02  0.2091E-02  0.0000E+00  0.0000E+00  0.0000E+00  0.0000E+00  0.0000E+00
     -6.657  0.1314E+00  0.3307E-02  0.3307E-02  0.3307E-02  0.0000E+00  0.0000E+00  0.0000E+00  0.0000E+00  0.0000E+00
     -6.580  0.1579E+00  0.3646E-02  0.3646E-02  0.3646E-02  0.0000E+00  0.0000E+00  0.0000E+00  0.0000E+00  0.0000E+00
     -6.502  0.1277E+00  0.2680E-02  0.2680E-02  0.2680E-02  0.0000E+00  0.0000E+00  0.0000E+00  0.0000E+00  0.0000E+00
     -6.425  0.8169E-01  0.1609E-02  0.1609E-02  0.1609E-02  0.0000E+00  0.0000E+00  0.0000E+00  0.0000E+00  0.0000E+00
     -6.347  0.3132E-01  0.6110E-03  0.6110E-03  0.6110E-03  0.0000E+00  0.0000E+00  0.0000E+00  0.0000E+00  0.0000E+00
     -6.269  0.1051E-01  0.2994E-03  0.2994E-03  0.2994E-03  0.0000E+00  0.0000E+00  0.0000E+00  0.0000E+00  0.0000E+00
     -6.192  0.4458E-01  0.1573E-02  0.1573E-02  0.1573E-02  0.0000E+00  0.0000E+00  0.0000E+00  0.0000E+00  0.0000E+00
     -6.114  0.1129E+00  0.3950E-02  0.3950E-02  0.3950E-02  0.0000E+00  0.0000E+00  0.0000E+00  0.0000E+00  0.0000E+00
     -6.036  0.9786E-01  0.3386E-02  0.3386E-02  0.3386E-02  0.0000E+00  0.0000E+00  0.0000E+00  0.0000E+00  0.0000E+00
     -5.959  0.2882E-01  0.9862E-03  0.9862E-03  0.9862E-03  0.0000E+00  0.0000E+00  0.0000E+00  0.0000E+00  0.0000E+00
     -5.881  0.2865E-02  0.9708E-04  0.9708E-04  0.9708E-04  0.0000E+00  0.0000E+00  0.0000E+00  0.0000E+00  0.0000E+00
     -5.804  0.9598E-03  0.3610E-04  0.3610E-04  0.3610E-04  0.0000E+00  0.0000E+00  0.0000E+00  0.0000E+00  0.0000E+00
     -5.726  0.1080E-01  0.4114E-03  0.4114E-03  0.4114E-03  0.0000E+00  0.0000E+00  0.0000E+00  0.0000E+00  0.0000E+00
     -5.648  0.4506E-01  0.1726E-02  0.1726E-02  0.1726E-02  0.0000E+00  0.0000E+00  0.0000E+00  0.0000E+00  0.0000E+00
     -5.571  0.7176E-01  0.2869E-02  0.2869E-02  0.2869E-02  0.0000E+00  0.0000E+00  0.0000E+00  0.0000E+00  0.0000E+00
     -5.493  0.7178E-01  0.3266E-02  0.3266E-02  0.3266E-02  0.0000E+00  0.0000E+00  0.0000E+00  0.0000E+00  0.0000E+00
     -5.415  0.6208E-01  0.3062E-02  0.3062E-02  0.3062E-02  0.0000E+00  0.0000E+00  0.0000E+00  0.0000E+00  0.0000E+00
     -5.338  0.3911E-01  0.1894E-02  0.1894E-02  0.1894E-02  0.0000E+00  0.0000E+00  0.0000E+00  0.0000E+00  0.0000E+00
     -5.260  0.7802E-01  0.3570E-02  0.3570E-02  0.3570E-02  0.0000E+00  0.0000E+00  0.0000E+00  0.0000E+00  0.0000E+00
     -5.183  0.1456E+00  0.6689E-02  0.6689E-02  0.6689E-02  0.0000E+00  0.0000E+00  0.0000E+00  0.0000E+00  0.0000E+00
     -5.105  0.1439E+00  0.6802E-02  0.6802E-02  0.6802E-02  0.0000E+00  0.0000E+00  0.0000E+00  0.0000E+00  0.0000E+00
     -5.027  0.1324E+00  0.6616E-02  0.6616E-02  0.6616E-02  0.0000E+00  0.0000E+00  0.0000E+00  0.0000E+00  0.0000E+00
     -4.950  0.1526E+00  0.8127E-02  0.8127E-02  0.8127E-02  0.0000E+00  0.0000E+00  0.0000E+00  0.0000E+00  0.0000E+00
     -4.872  0.2264E+00  0.1307E-01  0.1307E-01  0.1307E-01  0.0000E+00  0.0000E+00  0.0000E+00  0.0000E+00  0.0000E+00
     -4.795  0.4329E+00  0.2678E-01  0.2678E-01  0.2678E-01  0.0000E+00  0.0000E+00  0.0000E+00  0.0000E+00  0.0000E+00
     -4.717  0.6134E+00  0.3910E-01  0.3910E-01  0.3910E-01  0.0000E+00  0.0000E+00  0.0000E+00  0.0000E+00  0.0000E+00
     -4.639  0.4519E+00  0.2939E-01  0.2939E-01  0.2939E-01  0.0000E+00  0.0000E+00  0.0000E+00  0.0000E+00  0.0000E+00
     -4.562  0.2264E+00  0.1528E-01  0.1528E-01  0.1528E-01  0.0000E+00  0.0000E+00  0.0000E+00  0.0000E+00  0.0000E+00
     -4.484  0.1436E+00  0.1017E-01  0.1017E-01  0.1017E-01  0.0000E+00  0.0000E+00  0.0000E+00  0.0000E+00  0.0000E+00
     -4.406  0.1177E+00  0.8663E-02  0.8663E-02  0.8663E-02  0.0000E+00  0.0000E+00  0.0000E+00  0.0000E+00  0.0000E+00
     -4.329  0.1063E+00  0.8113E-02  0.8113E-02  0.8113E-02  0.0000E+00  0.0000E+00  0.0000E+00  0.0000E+00  0.0000E+00
     -4.251  0.1145E+00  0.9085E-02  0.9085E-02  0.9085E-02  0.0000E+00  0.0000E+00  0.0000E+00  0.0000E+00  0.0000E+00
     -4.174  0.1324E+00  0.1078E-01  0.1078E-01  0.1078E-01  0.0000E+00  0.0000E+00  0.0000E+00  0.0000E+00  0.0000E+00
     -4.096  0.9381E-01  0.7695E-02  0.7695E-02  0.7695E-02  0.0000E+00  0.0000E+00  0.0000E+00  0.0000E+00  0.0000E+00
     -4.018  0.4989E-01  0.4066E-02  0.4066E-02  0.4066E-02  0.0000E+00  0.0000E+00  0.0000E+00  0.0000E+00  0.0000E+00
     -3.941  0.5785E-01  0.4688E-02  0.4688E-02  0.4688E-02  0.0000E+00  0.0000E+00  0.0000E+00  0.0000E+00  0.0000E+00
     -3.863  0.4611E-01  0.3846E-02  0.3846E-02  0.3846E-02  0.0000E+00  0.0000E+00  0.0000E+00  0.0000E+00  0.0000E+00
     -3.785  0.4272E-01  0.4018E-02  0.4018E-02  0.4018E-02  0.0000E+00  0.0000E+00  0.0000E+00  0.0000E+00  0.0000E+00
     -3.708  0.5417E-01  0.5279E-02  0.5279E-02  0.5279E-02  0.0000E+00  0.0000E+00  0.0000E+00  0.0000E+00  0.0000E+00
     -3.630  0.2869E-01  0.2803E-02  0.2803E-02  0.2803E-02  0.0000E+00  0.0000E+00  0.0000E+00  0.0000E+00  0.0000E+00
     -3.553  0.5417E-02  0.5656E-03  0.5656E-03  0.5656E-03  0.0000E+00  0.0000E+00  0.0000E+00  0.0000E+00  0.0000E+00
     -3.475  0.4722E-02  0.1020E-02  0.1020E-02  0.1020E-02  0.0000E+00  0.0000E+00  0.0000E+00  0.0000E+00  0.0000E+00
     -3.397  0.2255E-01  0.5025E-02  0.5025E-02  0.5025E-02  0.0000E+00  0.0000E+00  0.0000E+00  0.0000E+00  0.0000E+00
     -3.320  0.4433E-01  0.9384E-02  0.9384E-02  0.9384E-02  0.0000E+00  0.0000E+00  0.0000E+00  0.0000E+00  0.0000E+00
     -3.242  0.6901E-01  0.1181E-01  0.1181E-01  0.1181E-01  0.0000E+00  0.0000E+00  0.0000E+00  0.0000E+00  0.0000E+00
     -3.164  0.1233E+00  0.1818E-01  0.1818E-01  0.1818E-01  0.0000E+00  0.0000E+00  0.0000E+00  0.0000E+00  0.0000E+00
     -3.087  0.1163E+00  0.1591E-01  0.1591E-01  0.1591E-01  0.0000E+00  0.0000E+00  0.0000E+00  0.0000E+00  0.0000E+00
     -3.009  0.4518E-01  0.5664E-02  0.5664E-02  0.5664E-02  0.0000E+00  0.0000E+00  0.0000E+00  0.0000E+00  0.0000E+00
     -2.932  0.6865E-02  0.7962E-03  0.7962E-03  0.7962E-03  0.0000E+00  0.0000E+00  0.0000E+00  0.0000E+00  0.0000E+00
     -2.854  0.1545E-02  0.3107E-03  0.3107E-03  0.3107E-03  0.0000E+00  0.0000E+00  0.0000E+00  0.0000E+00  0.0000E+00
     -2.776  0.1076E-01  0.2478E-02  0.2478E-02  0.2478E-02  0.0000E+00  0.0000E+00  0.0000E+00  0.0000E+00  0.0000E+00
     -2.699  0.3325E-01  0.7610E-02  0.7610E-02  0.7610E-02  0.0000E+00  0.0000E+00  0.0000E+00  0.0000E+00  0.0000E+00
     -2.621  0.4168E-01  0.8892E-02  0.8892E-02  0.8892E-02  0.0000E+00  0.0000E+00  0.0000E+00  0.0000E+00  0.0000E+00
     -2.544  0.4597E-01  0.7675E-02  0.7675E-02  0.7675E-02  0.0000E+00  0.0000E+00  0.0000E+00  0.0000E+00  0.0000E+00
     -2.466  0.4850E-01  0.7193E-02  0.7193E-02  0.7193E-02  0.0000E+00  0.0000E+00  0.0000E+00  0.0000E+00  0.0000E+00
     -2.388  0.2468E-01  0.3545E-02  0.3545E-02  0.3545E-02  0.0000E+00  0.0000E+00  0.0000E+00  0.0000E+00  0.0000E+00
     -2.311  0.2504E-01  0.3201E-02  0.3201E-02  0.3201E-02  0.0000E+00  0.0000E+00  0.0000E+00  0.0000E+00  0.0000E+00
     -2.233  0.5040E-01  0.6324E-02  0.6324E-02  0.6324E-02  0.0000E+00  0.0000E+00  0.0000E+00  0.0000E+00  0.0000E+00
     -2.155  0.4126E-01  0.5476E-02  0.5476E-02  0.5476E-02  0.0000E+00  0.0000E+00  0.0000E+00  0.0000E+00  0.0000E+00
     -2.078  0.2647E-01  0.5385E-02  0.5385E-02  0.5385E-02  0.0000E+00  0.0000E+00  0.0000E+00  0.0000E+00  0.0000E+00
     -2.000  0.3692E-01  0.9169E-02  0.9169E-02  0.9169E-02  0.0000E+00  0.0000E+00  0.0000E+00  0.0000E+00  0.0000E+00
     -1.923  0.2703E-01  0.6762E-02  0.6762E-02  0.6762E-02  0.0000E+00  0.0000E+00  0.0000E+00  0.0000E+00  0.0000E+00
     -1.845  0.1262E-01  0.2760E-02  0.2760E-02  0.2760E-02  0.0000E+00  0.0000E+00  0.0000E+00  0.0000E+00  0.0000E+00
     -1.767  0.2896E-01  0.5350E-02  0.5350E-02  0.5350E-02  0.0000E+00  0.0000E+00  0.0000E+00  0.0000E+00  0.0000E+00
     -1.690  0.4461E-01  0.8186E-02  0.8186E-02  0.8186E-02  0.0000E+00  0.0000E+00  0.0000E+00  0.0000E+00  0.0000E+00
     -1.612  0.2353E-01  0.4317E-02  0.4317E-02  0.4317E-02  0.0000E+00  0.0000E+00  0.0000E+00  0.0000E+00  0.0000E+00
     -1.534  0.4477E-02  0.8126E-03  0.8126E-03  0.8126E-03  0.0000E+00  0.0000E+00  0.0000E+00  0.0000E+00  0.0000E+00
     -1.457  0.5691E-02  0.9063E-03  0.9063E-03  0.9063E-03  0.0000E+00  0.0000E+00  0.0000E+00  0.0000E+00  0.0000E+00
     -1.379  0.2943E-01  0.4786E-02  0.4786E-02  0.4786E-02  0.0000E+00  0.0000E+00  0.0000E+00  0.0000E+00  0.0000E+00
     -1.302  0.5996E-01  0.1084E-01  0.1084E-01  0.1084E-01  0.0000E+00  0.0000E+00  0.0000E+00  0.0000E+00  0.0000E+00
     -1.224  0.6016E-01  0.1350E-01  0.1350E-01  0.1350E-01  0.0000E+00  0.0000E+00  0.0000E+00  0.0000E+00  0.0000E+00
     -1.146  0.3584E-01  0.9510E-02  0.9510E-02  0.9510E-02  0.0000E+00  0.0000E+00  0.0000E+00  0.0000E+00  0.0000E+00
     -1.069  0.1015E-01  0.2847E-02  0.2847E-02  0.2847E-02  0.0000E+00  0.0000E+00  0.0000E+00  0.0000E+00  0.0000E+00
     -0.991  0.2756E-02  0.7013E-03  0.7013E-03  0.7013E-03  0.0000E+00  0.0000E+00  0.0000E+00  0.0000E+00  0.0000E+00
     -0.913  0.1388E-01  0.3281E-02  0.3281E-02  0.3281E-02  0.0000E+00  0.0000E+00  0.0000E+00  0.0000E+00  0.0000E+00
     -0.836  0.3710E-01  0.8764E-02  0.8764E-02  0.8764E-02  0.0000E+00  0.0000E+00  0.0000E+00  0.0000E+00  0.0000E+00
     -0.758  0.3338E-01  0.7885E-02  0.7885E-02  0.7885E-02  0.0000E+00  0.0000E+00  0.0000E+00  0.0000E+00  0.0000E+00
     -0.681  0.1007E-01  0.2380E-02  0.2380E-02  0.2380E-02  0.0000E+00  0.0000E+00  0.0000E+00  0.0000E+00  0.0000E+00
     -0.603  0.1280E-02  0.3059E-03  0.3059E-03  0.3059E-03  0.0000E+00  0.0000E+00  0.0000E+00  0.0000E+00  0.0000E+00
     -0.525  0.4995E-02  0.1455E-02  0.1455E-02  0.1455E-02  0.0000E+00  0.0000E+00  0.0000E+00  0.0000E+00  0.0000E+00
     -0.448  0.3092E-01  0.1153E-01  0.1153E-01  0.1153E-01  0.0000E+00  0.0000E+00  0.0000E+00  0.0000E+00  0.0000E+00
     -0.370  0.6998E-01  0.3861E-01  0.3861E-01  0.3861E-01  0.0000E+00  0.0000E+00  0.0000E+00  0.0000E+00  0.0000E+00
     -0.292  0.5986E-01  0.6683E-01  0.6683E-01  0.6683E-01  0.0000E+00  0.0000E+00  0.0000E+00  0.0000E+00  0.0000E+00
     -0.215  0.2015E-01  0.7495E-01  0.7495E-01  0.7495E-01  0.0000E+00  0.0000E+00  0.0000E+00  0.0000E+00  0.0000E+00
     -0.137  0.3235E-02  0.5779E-01  0.5779E-01  0.5779E-01  0.0000E+00  0.0000E+00  0.0000E+00  0.0000E+00  0.0000E+00
     -0.060  0.6991E-03  0.3747E-01  0.3747E-01  0.3747E-01  0.0000E+00  0.0000E+00  0.0000E+00  0.0000E+00  0.0000E+00
      0.018  0.3948E-02  0.3364E-01  0.3364E-01  0.3364E-01  0.0000E+00  0.0000E+00  0.0000E+00  0.0000E+00  0.0000E+00
      0.096  0.2052E-01  0.4614E-01  0.4614E-01  0.4614E-01  0.0000E+00  0.0000E+00  0.0000E+00  0.0000E+00  0.0000E+00
      0.173  0.3685E-01  0.5455E-01  0.5455E-01  0.5455E-01  0.0000E+00  0.0000E+00  0.0000E+00  0.0000E+00  0.0000E+00
      0.251  0.2251E-01  0.4111E-01  0.4111E-01  0.4111E-01  0.0000E+00  0.0000E+00  0.0000E+00  0.0000E+00  0.0000E+00
      0.328  0.4911E-02  0.3135E-01  0.3135E-01  0.3135E-01  0.0000E+00  0.0000E+00  0.0000E+00  0.0000E+00  0.0000E+00
      0.406  0.3719E-02  0.3637E-01  0.3637E-01  0.3637E-01  0.0000E+00  0.0000E+00  0.0000E+00  0.0000E+00  0.0000E+00
      0.484  0.2450E-01  0.8025E-01  0.8025E-01  0.8025E-01  0.0000E+00  0.0000E+00  0.0000E+00  0.0000E+00  0.0000E+00
      0.561  0.6316E-01  0.2001E+00  0.2001E+00  0.2001E+00  0.0000E+00  0.0000E+00  0.0000E+00  0.0000E+00  0.0000E+00
      0.639  0.5657E-01  0.2685E+00  0.2685E+00  0.2685E+00  0.0000E+00  0.0000E+00  0.0000E+00  0.0000E+00  0.0000E+00
      0.717  0.1753E-01  0.1972E+00  0.1972E+00  0.1972E+00  0.0000E+00  0.0000E+00  0.0000E+00  0.0000E+00  0.0000E+00
      0.794  0.1853E-02  0.1279E+00  0.1279E+00  0.1279E+00  0.0000E+00  0.0000E+00  0.0000E+00  0.0000E+00  0.0000E+00
      0.872  0.6659E-04  0.1009E+00  0.1009E+00  0.1009E+00  0.0000E+00  0.0000E+00  0.0000E+00  0.0000E+00  0.0000E+00
      0.949  0.5900E-04  0.9514E-01  0.9514E-01  0.9514E-01  0.0000E+00  0.0000E+00  0.0000E+00  0.0000E+00  0.0000E+00
      1.027  0.1192E-02  0.6237E-01  0.6237E-01  0.6237E-01  0.0000E+00  0.0000E+00  0.0000E+00  0.0000E+00  0.0000E+00
      1.105  0.9195E-02  0.4884E-01  0.4884E-01  0.4884E-01  0.0000E+00  0.0000E+00  0.0000E+00  0.0000E+00  0.0000E+00
      1.182  0.2546E-01  0.7527E-01  0.7527E-01  0.7527E-01  0.0000E+00  0.0000E+00  0.0000E+00  0.0000E+00  0.0000E+00
      1.260  0.2466E-01  0.6951E-01  0.6951E-01  0.6951E-01  0.0000E+00  0.0000E+00  0.0000E+00  0.0000E+00  0.0000E+00
      1.338  0.1063E-01  0.3424E-01  0.3424E-01  0.3424E-01  0.0000E+00  0.0000E+00  0.0000E+00  0.0000E+00  0.0000E+00
      1.415  0.2015E-01  0.3413E-01  0.3413E-01  0.3413E-01  0.0000E+00  0.0000E+00  0.0000E+00  0.0000E+00  0.0000E+00
      1.493  0.4873E-01  0.6222E-01  0.6222E-01  0.6222E-01  0.0000E+00  0.0000E+00  0.0000E+00  0.0000E+00  0.0000E+00
      1.570  0.4193E-01  0.7112E-01  0.7112E-01  0.7112E-01  0.0000E+00  0.0000E+00  0.0000E+00  0.0000E+00  0.0000E+00
      1.648  0.1262E-01  0.5969E-01  0.5969E-01  0.5969E-01  0.0000E+00  0.0000E+00  0.0000E+00  0.0000E+00  0.0000E+00
      1.726  0.1880E-02  0.8429E-01  0.8429E-01  0.8429E-01  0.0000E+00  0.0000E+00  0.0000E+00  0.0000E+00  0.0000E+00
      1.803  0.4178E-03  0.1330E+00  0.1330E+00  0.1330E+00  0.0000E+00  0.0000E+00  0.0000E+00  0.0000E+00  0.0000E+00
      1.881  0.7066E-04  0.1474E+00  0.1474E+00  0.1474E+00  0.0000E+00  0.0000E+00  0.0000E+00  0.0000E+00  0.0000E+00
      1.959  0.3676E-04  0.1360E+00  0.1360E+00  0.1360E+00  0.0000E+00  0.0000E+00  0.0000E+00  0.0000E+00  0.0000E+00
      2.036  0.7511E-03  0.1079E+00  0.1079E+00  0.1079E+00  0.0000E+00  0.0000E+00  0.0000E+00  0.0000E+00  0.0000E+00
      2.114  0.5788E-02  0.8590E-01  0.8590E-01  0.8590E-01  0.0000E+00  0.0000E+00  0.0000E+00  0.0000E+00  0.0000E+00
      2.191  0.1692E-01  0.1027E+00  0.1027E+00  0.1027E+00  0.0000E+00  0.0000E+00  0.0000E+00  0.0000E+00  0.0000E+00
      2.269  0.2676E-01  0.1490E+00  0.1490E+00  0.1490E+00  0.0000E+00  0.0000E+00  0.0000E+00  0.0000E+00  0.0000E+00
      2.347  0.2876E-01  0.1485E+00  0.1485E+00  0.1485E+00  0.0000E+00  0.0000E+00  0.0000E+00  0.0000E+00  0.0000E+00
      2.424  0.1481E-01  0.1073E+00  0.1073E+00  0.1073E+00  0.0000E+00  0.0000E+00  0.0000E+00  0.0000E+00  0.0000E+00
      2.502  0.2785E-02  0.9872E-01  0.9872E-01  0.9872E-01  0.0000E+00  0.0000E+00  0.0000E+00  0.0000E+00  0.0000E+00
      2.579  0.1935E-03  0.1542E+00  0.1542E+00  0.1542E+00  0.0000E+00  0.0000E+00  0.0000E+00  0.0000E+00  0.0000E+00
      2.657  0.2058E-04  0.2443E+00  0.2443E+00  0.2443E+00  0.0000E+00  0.0000E+00  0.0000E+00  0.0000E+00  0.0000E+00