    2    2    1    1
  0.2079688E+02  0.3889087E-09  0.3889087E-09  0.3889087E-09  0.5000000E-15
  1.000000000000000E-004
  CAR 
 diamond Si                              
      8     40      8
 
  0.5000000E+00  0.5000000E+00  0.5000000E+00  0.2500000E-01
      1         -6.478512   1.000000
      2         -3.360503   1.000000
      3          1.774741   1.000000
      4          1.774742   1.000000
      5          4.915497   0.000000
      6          7.585370   0.000000
      7          7.585373   0.000000
      8         12.776102   0.000000
 
  0.4444444E+00  0.4444444E+00  0.4444444E+00  0.2500000E-01
      1         -6.592898   1.000000
      2         -3.178804   1.000000
      3          1.793442   1.000000
      4          1.793443   1.000000
      5          4.938567   0.000000
      6          7.583560   0.000000
      7          7.583562   0.000000
      8         12.567351   0.000000
 
  0.3888889E+00  0.3888889E+00  0.3888889E+00  0.2500000E-01
      1         -6.871069   1.000000
      2         -2.697471   1.000000
      3          1.853683   1.000000
      4          1.853684   1.000000
      5          5.009300   0.000000
      6          7.573971   0.000000
      7          7.573974   0.000000
      8         11.911395   0.000000
 
  0.3333333E+00  0.3333333E+00  0.3333333E+00  0.2500000E-01
      1         -7.209378   1.000000
      2         -2.021848   1.000000
      3          1.951595   1.000000
      4          1.951596   1.000000
      5          5.119939   0.000000
      6          7.528882   0.000000
      7          7.528884   0.000000
      8         10.978486   0.000000
 
  0.2777778E+00  0.2777778E+00  0.2777778E+00  0.2500000E-01
      1         -7.542406   1.000000
      2         -1.227003   1.000000
      3          2.081705   1.000000
      4          2.081707   1.000000
      5          5.263115   0.000000
      6          7.413608   0.000000
      7          7.413610   0.000000
      8          9.954339   0.000000
 
  0.2222222E+00  0.2222222E+00  0.2222222E+00  0.2500000E-01
      1         -7.836699   1.000000
      2         -0.353736   1.000000
      3          2.235937   1.000000
      4          2.235938   1.000000
      5          5.419682   0.000000
      6          7.213735   0.000000
      7          7.213736   0.000000
      8          8.908202   0.000000
 
  0.1666667E+00  0.1666667E+00  0.1666667E+00  0.2500000E-01
      1         -8.075833   1.000000
      2          0.566844   1.000000
      3          2.401025   1.000000
      4          2.401027   1.000000
      5          5.558277   0.000000
      6          6.955548   0.000000
      7          6.955549   0.000000
      8          7.899216   0.000000
 
  0.1111111E+00  0.1111111E+00  0.1111111E+00  0.2500000E-01
      1         -8.250845   1.000000
      2          1.490929   1.000000
      3          2.555083   1.000000
      4          2.555084   1.000000
      5          5.589786   0.000000
      6          6.696763   0.000000
      7          6.696764   0.000000
      8          7.026761   0.000000
 
  0.5555556E-01  0.5555556E-01  0.5555556E-01  0.2500000E-01
      1         -8.357536   1.000000
      2          2.311683   1.000000
      3          2.666536   1.000000
      4          2.666537   1.000000
      5          5.330722   0.000000
      6          6.504775   0.000000
      7          6.504776   0.000000
      8          6.534733   0.000000
 
  0.2775558E-16  0.2775558E-16  0.2775558E-16  0.2500000E-01
      1         -8.393316   1.000000
      2          2.706642   1.000000
      3          2.706687   1.000000
      4          2.706689   1.000000
      5          5.062888   0.000000
      6          6.433508   0.000000
      7          6.433508   0.000000
      8          6.433565   0.000000
 
  0.0000000E+00  0.0000000E+00  0.0000000E+00  0.2500000E-01
      1         -8.393316   1.000000
      2          2.706642   1.000000
      3          2.706687   1.000000
      4          2.706689   1.000000
      5          5.062888   0.000000
      6          6.433508   0.000000
      7          6.433508   0.000000
      8          6.433565   0.000000
 
  0.0000000E+00  0.5555556E-01  0.5555556E-01  0.2500000E-01
      1         -8.345561   1.000000
      2          2.302300   1.000000
      3          2.589013   1.000000
      4          2.589042   1.000000
      5          5.460758   0.000000
      6          6.359022   0.000000
      7          6.615216   0.000000
      8          6.615253   0.000000
 
  0.0000000E+00  0.1111111E+00  0.1111111E+00  0.2500000E-01
      1         -8.202665   1.000000
      2          1.475038   1.000000
      3          2.292204   1.000000
      4          2.292228   1.000000
      5          6.161968   0.000000
      6          6.232896   0.000000
      7          7.098662   0.000000
      8          7.098694   0.000000
 
  0.0000000E+00  0.1666667E+00  0.1666667E+00  0.2500000E-01
      1         -7.965984   1.000000
      2          0.542459   1.000000
      3          1.918494   1.000000
      4          1.918514   1.000000
      5          5.901559   0.000000
      6          6.935963   0.000000
      7          7.775122   0.000000
      8          7.775151   0.000000
 
  0.0000000E+00  0.2222222E+00  0.2222222E+00  0.2500000E-01
      1         -7.637105   1.000000
      2         -0.404097   1.000000
      3          1.546736   1.000000
      4          1.546754   1.000000
      5          5.640074   0.000000
      6          7.232107   0.000000
      7          8.577653   0.000000
      8          8.577678   0.000000
 
  0.0000000E+00  0.2777778E+00  0.2777778E+00  0.2500000E-01
      1         -7.219258   1.000000
      2         -1.339836   1.000000
      3          1.213670   1.000000
      4          1.213687   1.000000
      5          5.422499   0.000000
      6          7.021071   0.000000
      7          9.460837   0.000000
      8          9.460867   0.000000
 
  0.0000000E+00  0.3333333E+00  0.3333333E+00  0.2500000E-01
      1         -6.715982   1.000000
      2         -2.251309   1.000000
      3          0.940275   1.000000
      4          0.940291   1.000000
      5          5.278758   0.000000
      6          6.577256   0.000000
      7         10.390751   0.000000
      8         10.390806   0.000000
 
  0.0000000E+00  0.3888889E+00  0.3888889E+00  0.2500000E-01
      1         -6.132785   1.000000
      2         -3.128612   1.000000
      3          0.737293   1.000000
      4          0.737307   1.000000
      5          5.227959   0.000000
      6          6.117517   0.000000
      7         11.353309   0.000000
      8         11.353344   0.000000
 
  0.0000000E+00  0.4444444E+00  0.4444444E+00  0.2500000E-01
      1         -5.474711   1.000000
      2         -3.965453   1.000000
      3          0.614696   1.000000
      4          0.614710   1.000000
      5          5.282487   0.000000
      6          5.730205   0.000000
      7         12.264669   0.000000
      8         12.264695   0.000000
 
  0.0000000E+00  0.5000000E+00  0.5000000E+00  0.2500000E-01
      1         -4.749846   1.000000
      2         -4.749823   1.000000
      3          0.573310   1.000000
      4          0.573324   1.000000
      5          5.449392   0.000000
      6          5.449417   0.000000
      7         12.765719   0.000000
      8         12.765767   0.000000
 
  0.0000000E+00  0.5000000E+00  0.5000000E+00  0.2500000E-01
      1         -4.749846   1.000000
      2         -4.749823   1.000000
      3          0.573310   1.000000
      4          0.573324   1.000000
      5          5.449392   0.000000
      6          5.449417   0.000000
      7         12.765708   0.000000
      8         12.765768   0.000000
 
  0.2777778E-01  0.5138889E+00  0.5138889E+00  0.2500000E-01
      1         -4.754734   1.000000
      2         -4.742882   1.000000
      3          0.550855   1.000000
      4          0.577578   1.000000
      5          5.453886   0.000000
      6          5.495037   0.000000
      7         12.727253   0.000000
      8         12.732606   0.000000
 
  0.5555556E-01  0.5277778E+00  0.5277778E+00  0.2500000E-01
      1         -4.769944   1.000000
      2         -4.722113   1.000000
      3          0.485975   1.000000
      4          0.590141   1.000000
      5          5.467321   0.000000
      6          5.627935   0.000000
      7         12.615089   0.000000
      8         12.635381   0.000000
 
  0.8333333E-01  0.5416667E+00  0.5416667E+00  0.2500000E-01
      1         -4.795456   1.000000
      2         -4.687303   1.000000
      3          0.389187   1.000000
      4          0.611289   1.000000
      5          5.489563   0.000000
      6          5.841444   0.000000
      7         12.444359   0.000000
      8         12.491733   0.000000
 
  0.1111111E+00  0.5555556E+00  0.5555556E+00  0.2500000E-01
      1         -4.832801   1.000000
      2         -4.638994   1.000000
      3          0.270151   1.000000
      4          0.639934   1.000000
      5          5.518188   0.000000
      6          6.122159   0.000000
      7         12.223461   0.000000
      8         12.308826   0.000000
 
  0.1388889E+00  0.5694444E+00  0.5694444E+00  0.2500000E-01
      1         -4.882136   1.000000
      2         -4.576423   1.000000
      3          0.143071   1.000000
      4          0.677478   1.000000
      5          5.557175   0.000000
      6          6.461907   0.000000
      7         11.977050   0.000000
      8         12.111806   0.000000
 
  0.1666667E+00  0.5833333E+00  0.5833333E+00  0.2500000E-01
      1         -4.944967   1.000000
      2         -4.500002   1.000000
      3          0.017257   1.000000
      4          0.722899   1.000000
      5          5.603946   0.000000
      6          6.849296   0.000000
      7         11.707051   0.000000
      8         11.884654   0.000000
 
  0.1944444E+00  0.5972222E+00  0.5972222E+00  0.2500000E-01
      1         -5.022183   1.000000
      2         -4.409769   1.000000
      3         -0.098355   1.000000
      4          0.775905   1.000000
      5          5.657919   0.000000
      6          7.276153   0.000000
      7         11.424166   0.000000
      8         11.658525   0.000000
 
  0.2222222E+00  0.6111111E+00  0.6111111E+00  0.2500000E-01
      1         -5.114369   1.000000
      2         -4.305769   1.000000
      3         -0.197310   1.000000
      4          0.836152   1.000000
      5          5.718366   0.000000
      6          7.735740   0.000000
      7         11.136680   0.000000
      8         11.428336   0.000000
 
  0.2500000E+00  0.6250000E+00  0.6250000E+00  0.2500000E-01
      1         -5.222188   1.000000
      2         -4.188143   1.000000
      3         -0.275584   1.000000
      4          0.903116   1.000000
      5          5.784309   0.000000
      6          8.220077   0.000000
      7         10.846790   0.000000
      8         11.196531   0.000000
 
  0.3750000E+00  0.7500000E+00  0.3750000E+00  0.2500000E-01
      1         -5.222188   1.000000
      2         -4.188143   1.000000
      3         -0.275584   1.000000
      4          0.903116   1.000000
      5          5.784309   0.000000
      6          8.220077   0.000000
      7         10.846296   0.000000
      8         11.209685   0.000000
 
  0.3333333E+00  0.6666667E+00  0.3333333E+00  0.2500000E-01
      1         -5.625951   1.000000
      2         -3.752168   1.000000
      3         -0.357411   1.000000
      4          1.140595   1.000000
      5          6.003852   0.000000
      6          9.764821   0.000000
      7          9.993808   0.000000
      8         10.434221   0.000000
 
  0.2916667E+00  0.5833333E+00  0.2916667E+00  0.2500000E-01
      1         -6.116242   1.000000
      2         -3.196338   1.000000
      3         -0.215836   1.000000
      4          1.418249   1.000000
      5          6.218831   0.000000
      6          9.193795   0.000000
      7          9.446356   0.000000
      8         10.002560   0.000000
 
  0.2500000E+00  0.5000000E+00  0.2500000E+00  0.2500000E-01
      1         -6.633347   1.000000
      2         -2.521668   1.000000
      3          0.113135   1.000000
      4          1.714988   1.000000
      5          6.367931   0.000000
      6          8.482891   0.000000
      7          8.672237   0.000000
      8          9.613435   0.000000
 
  0.2083333E+00  0.4166667E+00  0.2083333E+00  0.2500000E-01
      1         -7.127630   1.000000
      2         -1.735213   1.000000
      3          0.574282   1.000000
      4          2.003308   1.000000
      5          6.391234   0.000000
      6          7.864492   0.000000
      7          8.000281   0.000000
      8          9.354407   0.000000
 
  0.1666667E+00  0.3333333E+00  0.1666667E+00  0.2500000E-01
      1         -7.563255   1.000000
      2         -0.843362   1.000000
      3          1.118153   1.000000
      4          2.258838   1.000000
      5          6.290553   0.000000
      6          7.354496   0.000000
      7          7.446272   0.000000
      8          9.056844   0.000000
 
  0.1250000E+00  0.2500000E+00  0.1250000E+00  0.2500000E-01
      1         -7.918712   1.000000
      2          0.138703   1.000000
      3          1.683256   1.000000
      4          2.460818   1.000000
      5          6.108777   0.000000
      6          6.954044   0.000000
      7          7.006554   0.000000
      8          8.413519   0.000000
 
  0.8333333E-01  0.1666667E+00  0.8333333E-01  0.2500000E-01
      1         -8.180009   1.000000
      2          1.181681   1.000000
      3          2.198158   1.000000
      4          2.601326   1.000000
      5          5.863586   0.000000
      6          6.665714   0.000000
      7          6.693202   0.000000
      8          7.455813   0.000000
 
  0.4166667E-01  0.8333333E-01  0.4166667E-01  0.2500000E-01
      1         -8.339658   1.000000
      2          2.178390   1.000000
      3          2.570170   1.000000
      4          2.681047   1.000000
      5          5.442231   0.000000
      6          6.491641   0.000000
      7          6.499655   0.000000
      8          6.669932   0.000000
 
  0.2081668E-16  0.4163336E-16  0.2081668E-16  0.2500000E-01
      1         -8.393316   1.000000
      2          2.706642   1.000000
      3          2.706687   1.000000
      4          2.706689   1.000000
      5          5.062888   0.000000
      6          6.433508   0.000000
      7          6.433508   0.000000
      8          6.433565   0.000000
