PROCAR lm decomposed
# of k-points:   40         # of bands:    8         # of ions:    2

 k-point     1 :    0.50000000 0.50000000 0.50000000     weight = 0.02500000

band     1 # energy   -6.47851173 # occ.  2.00000000
 
ion      s     py     pz     px    dxy    dyz    dz2    dxz  x2-y2    tot
    1  0.240  0.005  0.005  0.005  0.000  0.000  0.000  0.000  0.000  0.254
    2  0.240  0.005  0.005  0.005  0.000  0.000  0.000  0.000  0.000  0.254
tot    0.480  0.009  0.009  0.009  0.000  0.000  0.000  0.000  0.000  0.507
 
band     2 # energy   -3.36050299 # occ.  2.00000000
 
ion      s     py     pz     px    dxy    dyz    dz2    dxz  x2-y2    tot
    1  0.139  0.031  0.031  0.031  0.000  0.000  0.000  0.000  0.000  0.232
    2  0.139  0.031  0.031  0.031  0.000  0.000  0.000  0.000  0.000  0.232
tot    0.277  0.062  0.062  0.062  0.000  0.000  0.000  0.000  0.000  0.464
 
band     3 # energy    1.77474078 # occ.  2.00000000
 
ion      s     py     pz     px    dxy    dyz    dz2    dxz  x2-y2    tot
    1  0.000  0.038  0.154  0.038  0.000  0.000  0.000  0.000  0.000  0.231
    2  0.000  0.038  0.154  0.038  0.000  0.000  0.000  0.000  0.000  0.231
tot    0.000  0.077  0.308  0.077  0.000  0.000  0.000  0.000  0.000  0.461
 
band     4 # energy    1.77474177 # occ.  2.00000000
 
ion      s     py     pz     px    dxy    dyz    dz2    dxz  x2-y2    tot
    1  0.000  0.115  0.000  0.115  0.000  0.000  0.000  0.000  0.000  0.231
    2  0.000  0.115  0.000  0.115  0.000  0.000  0.000  0.000  0.000  0.231
tot    0.000  0.231  0.000  0.231  0.000  0.000  0.000  0.000  0.000  0.461
 
band     5 # energy    4.91549743 # occ.  0.00000000
 
ion      s     py     pz     px    dxy    dyz    dz2    dxz  x2-y2    tot
    1  0.166  0.020  0.020  0.020  0.000  0.000  0.000  0.000  0.000  0.227
    2  0.166  0.020  0.020  0.020  0.000  0.000  0.000  0.000  0.000  0.227
tot    0.332  0.041  0.041  0.041  0.000  0.000  0.000  0.000  0.000  0.454
 
band     6 # energy    7.58537032 # occ.  0.00000000
 
ion      s     py     pz     px    dxy    dyz    dz2    dxz  x2-y2    tot
    1  0.000  0.023  0.091  0.023  0.000  0.000  0.000  0.000  0.000  0.137
    2  0.000  0.023  0.091  0.023  0.000  0.000  0.000  0.000  0.000  0.137
tot    0.000  0.046  0.182  0.046  0.000  0.000  0.000  0.000  0.000  0.273
 
band     7 # energy    7.58537291 # occ.  0.00000000
 
ion      s     py     pz     px    dxy    dyz    dz2    dxz  x2-y2    tot
    1  0.000  0.068  0.000  0.068  0.000  0.000  0.000  0.000  0.000  0.137
    2  0.000  0.068  0.000  0.068  0.000  0.000  0.000  0.000  0.000  0.137
tot    0.000  0.137  0.000  0.137  0.000  0.000  0.000  0.000  0.000  0.273
 
band     8 # energy   12.77610180 # occ.  0.00000000
 
ion      s     py     pz     px    dxy    dyz    dz2    dxz  x2-y2    tot
    1  0.003  0.061  0.062  0.061  0.000  0.000  0.000  0.000  0.000  0.187
    2  0.003  0.062  0.062  0.062  0.000  0.000  0.000  0.000  0.000  0.187
tot    0.005  0.123  0.123  0.123  0.000  0.000  0.000  0.000  0.000  0.375
 

 k-point     2 :    0.44444444 0.44444444 0.44444444     weight = 0.02500000

band     1 # energy   -6.59289835 # occ.  2.00000000
 
ion      s     py     pz     px    dxy    dyz    dz2    dxz  x2-y2    tot
    1  0.238  0.005  0.005  0.005  0.000  0.000  0.000  0.000  0.000  0.251
    2  0.238  0.005  0.005  0.005  0.000  0.000  0.000  0.000  0.000  0.251
tot    0.475  0.009  0.009  0.009  0.000  0.000  0.000  0.000  0.000  0.503
 
band     2 # energy   -3.17880385 # occ.  2.00000000
 
ion      s     py     pz     px    dxy    dyz    dz2    dxz  x2-y2    tot
    1  0.140  0.031  0.031  0.031  0.000  0.000  0.000  0.000  0.000  0.233
    2  0.140  0.031  0.031  0.031  0.000  0.000  0.000  0.000  0.000  0.233
tot    0.279  0.062  0.062  0.062  0.000  0.000  0.000  0.000  0.000  0.467
 
band     3 # energy    1.79344176 # occ.  2.00000000
 
ion      s     py     pz     px    dxy    dyz    dz2    dxz  x2-y2    tot
    1  0.000  0.038  0.154  0.038  0.000  0.000  0.000  0.000  0.000  0.230
    2  0.000  0.038  0.154  0.038  0.000  0.000  0.000  0.000  0.000  0.230
tot    0.000  0.077  0.307  0.077  0.000  0.000  0.000  0.000  0.000  0.461
 
band     4 # energy    1.79344274 # occ.  2.00000000
 
ion      s     py     pz     px    dxy    dyz    dz2    dxz  x2-y2    tot
    1  0.000  0.115  0.000  0.115  0.000  0.000  0.000  0.000  0.000  0.230
    2  0.000  0.115  0.000  0.115  0.000  0.000  0.000  0.000  0.000  0.230
tot    0.000  0.230  0.000  0.230  0.000  0.000  0.000  0.000  0.000  0.461
 
band     5 # energy    4.93856660 # occ.  0.00000000
 
ion      s     py     pz     px    dxy    dyz    dz2    dxz  x2-y2    tot
    1  0.166  0.021  0.021  0.021  0.000  0.000  0.000  0.000  0.000  0.227
    2  0.166  0.021  0.021  0.021  0.000  0.000  0.000  0.000  0.000  0.227
tot    0.331  0.041  0.041  0.041  0.000  0.000  0.000  0.000  0.000  0.455
 
band     6 # energy    7.58355979 # occ.  0.00000000
 
ion      s     py     pz     px    dxy    dyz    dz2    dxz  x2-y2    tot
    1  0.000  0.023  0.092  0.023  0.000  0.000  0.000  0.000  0.000  0.138
    2  0.000  0.023  0.092  0.023  0.000  0.000  0.000  0.000  0.000  0.138
tot    0.000  0.046  0.185  0.046  0.000  0.000  0.000  0.000  0.000  0.277
 
band     7 # energy    7.58356236 # occ.  0.00000000
 
ion      s     py     pz     px    dxy    dyz    dz2    dxz  x2-y2    tot
    1  0.000  0.069  0.000  0.069  0.000  0.000  0.000  0.000  0.000  0.138
    2  0.000  0.069  0.000  0.069  0.000  0.000  0.000  0.000  0.000  0.138
tot    0.000  0.138  0.000  0.138  0.000  0.000  0.000  0.000  0.000  0.277
 
band     8 # energy   12.56735106 # occ.  0.00000000
 
ion      s     py     pz     px    dxy    dyz    dz2    dxz  x2-y2    tot
    1  0.014  0.067  0.067  0.067  0.000  0.000  0.000  0.000  0.000  0.216
    2  0.014  0.067  0.067  0.067  0.000  0.000  0.000  0.000  0.000  0.216
tot    0.029  0.134  0.134  0.134  0.000  0.000  0.000  0.000  0.000  0.432
 

 k-point     3 :    0.38888889 0.38888889 0.38888889     weight = 0.02500000

band     1 # energy   -6.87106922 # occ.  2.00000000
 
ion      s     py     pz     px    dxy    dyz    dz2    dxz  x2-y2    tot
    1  0.235  0.004  0.004  0.004  0.000  0.000  0.000  0.000  0.000  0.248
    2  0.235  0.004  0.004  0.004  0.000  0.000  0.000  0.000  0.000  0.248
tot    0.469  0.009  0.009  0.009  0.000  0.000  0.000  0.000  0.000  0.496
 
band     2 # energy   -2.69747069 # occ.  2.00000000
 
ion      s     py     pz     px    dxy    dyz    dz2    dxz  x2-y2    tot
    1  0.140  0.032  0.032  0.032  0.000  0.000  0.000  0.000  0.000  0.237
    2  0.140  0.032  0.032  0.032  0.000  0.000  0.000  0.000  0.000  0.237
tot    0.280  0.065  0.065  0.065  0.000  0.000  0.000  0.000  0.000  0.474
 
band     3 # energy    1.85368310 # occ.  2.00000000
 
ion      s     py     pz     px    dxy    dyz    dz2    dxz  x2-y2    tot
    1  0.000  0.038  0.153  0.038  0.000  0.000  0.000  0.000  0.000  0.230
    2  0.000  0.038  0.153  0.038  0.000  0.000  0.000  0.000  0.000  0.230
tot    0.000  0.077  0.306  0.077  0.000  0.000  0.000  0.000  0.000  0.460
 
band     4 # energy    1.85368411 # occ.  2.00000000
 
ion      s     py     pz     px    dxy    dyz    dz2    dxz  x2-y2    tot
    1  0.000  0.115  0.000  0.115  0.000  0.000  0.000  0.000  0.000  0.230
    2  0.000  0.115  0.000  0.115  0.000  0.000  0.000  0.000  0.000  0.230
tot    0.000  0.230  0.000  0.230  0.000  0.000  0.000  0.000  0.000  0.460
 
band     5 # energy    5.00929993 # occ.  0.00000000
 
ion      s     py     pz     px    dxy    dyz    dz2    dxz  x2-y2    tot
    1  0.164  0.022  0.022  0.022  0.000  0.000  0.000  0.000  0.000  0.229
    2  0.164  0.022  0.022  0.022  0.000  0.000  0.000  0.000  0.000  0.229
tot    0.328  0.043  0.043  0.043  0.000  0.000  0.000  0.000  0.000  0.458
 
band     6 # energy    7.57397129 # occ.  0.00000000
 
ion      s     py     pz     px    dxy    dyz    dz2    dxz  x2-y2    tot
    1  0.000  0.024  0.097  0.024  0.000  0.000  0.000  0.000  0.000  0.145
    2  0.000  0.024  0.097  0.024  0.000  0.000  0.000  0.000  0.000  0.145
tot    0.000  0.048  0.194  0.048  0.000  0.000  0.000  0.000  0.000  0.291
 
band     7 # energy    7.57397374 # occ.  0.00000000
 
ion      s     py     pz     px    dxy    dyz    dz2    dxz  x2-y2    tot
    1  0.000  0.073  0.000  0.073  0.000  0.000  0.000  0.000  0.000  0.145
    2  0.000  0.073  0.000  0.073  0.000  0.000  0.000  0.000  0.000  0.145
tot    0.000  0.145  0.000  0.145  0.000  0.000  0.000  0.000  0.000  0.291
 
band     8 # energy   11.91139538 # occ.  0.00000000
 
ion      s     py     pz     px    dxy    dyz    dz2    dxz  x2-y2    tot
    1  0.044  0.070  0.069  0.070  0.000  0.000  0.000  0.000  0.000  0.253
    2  0.044  0.069  0.070  0.070  0.000  0.000  0.000  0.000  0.000  0.253
tot    0.088  0.139  0.139  0.139  0.000  0.000  0.000  0.000  0.000  0.505
 

 k-point     4 :    0.33333333 0.33333333 0.33333333     weight = 0.02500000

band     1 # energy   -7.20937785 # occ.  2.00000000
 
ion      s     py     pz     px    dxy    dyz    dz2    dxz  x2-y2    tot
    1  0.233  0.004  0.004  0.004  0.000  0.000  0.000  0.000  0.000  0.245
    2  0.233  0.004  0.004  0.004  0.000  0.000  0.000  0.000  0.000  0.245
tot    0.467  0.008  0.008  0.008  0.000  0.000  0.000  0.000  0.000  0.490
 
band     2 # energy   -2.02184835 # occ.  2.00000000
 
ion      s     py     pz     px    dxy    dyz    dz2    dxz  x2-y2    tot
    1  0.138  0.035  0.035  0.035  0.000  0.000  0.000  0.000  0.000  0.242
    2  0.138  0.035  0.035  0.035  0.000  0.000  0.000  0.000  0.000  0.242
tot    0.276  0.069  0.069  0.069  0.000  0.000  0.000  0.000  0.000  0.484
 
band     3 # energy    1.95159520 # occ.  2.00000000
 
ion      s     py     pz     px    dxy    dyz    dz2    dxz  x2-y2    tot
    1  0.000  0.038  0.153  0.038  0.000  0.000  0.000  0.000  0.000  0.229
    2  0.000  0.038  0.153  0.038  0.000  0.000  0.000  0.000  0.000  0.229
tot    0.000  0.076  0.306  0.076  0.000  0.000  0.000  0.000  0.000  0.459
 
band     4 # energy    1.95159626 # occ.  2.00000000
 
ion      s     py     pz     px    dxy    dyz    dz2    dxz  x2-y2    tot
    1  0.000  0.115  0.000  0.115  0.000  0.000  0.000  0.000  0.000  0.229
    2  0.000  0.115  0.000  0.115  0.000  0.000  0.000  0.000  0.000  0.229
tot    0.000  0.229  0.000  0.229  0.000  0.000  0.000  0.000  0.000  0.459
 
band     5 # energy    5.11993862 # occ.  0.00000000
 
ion      s     py     pz     px    dxy    dyz    dz2    dxz  x2-y2    tot
    1  0.162  0.024  0.024  0.024  0.000  0.000  0.000  0.000  0.000  0.233
    2  0.162  0.024  0.024  0.024  0.000  0.000  0.000  0.000  0.000  0.233
tot    0.323  0.047  0.047  0.047  0.000  0.000  0.000  0.000  0.000  0.465
 
band     6 # energy    7.52888173 # occ.  0.00000000
 
ion      s     py     pz     px    dxy    dyz    dz2    dxz  x2-y2    tot
    1  0.000  0.026  0.104  0.026  0.000  0.000  0.000  0.000  0.000  0.156
    2  0.000  0.026  0.104  0.026  0.000  0.000  0.000  0.000  0.000  0.156
tot    0.000  0.052  0.208  0.052  0.000  0.000  0.000  0.000  0.000  0.311
 
band     7 # energy    7.52888395 # occ.  0.00000000
 
ion      s     py     pz     px    dxy    dyz    dz2    dxz  x2-y2    tot
    1  0.000  0.078  0.000  0.078  0.000  0.000  0.000  0.000  0.000  0.156
    2  0.000  0.078  0.000  0.078  0.000  0.000  0.000  0.000  0.000  0.156
tot    0.000  0.156  0.000  0.156  0.000  0.000  0.000  0.000  0.000  0.311
 
band     8 # energy   10.97848638 # occ.  0.00000000
 
ion      s     py     pz     px    dxy    dyz    dz2    dxz  x2-y2    tot
    1  0.069  0.065  0.065  0.065  0.000  0.000  0.000  0.000  0.000  0.264
    2  0.069  0.065  0.065  0.065  0.000  0.000  0.000  0.000  0.000  0.264
tot    0.138  0.130  0.130  0.130  0.000  0.000  0.000  0.000  0.000  0.528
 

 k-point     5 :    0.27777778 0.27777778 0.27777778     weight = 0.02500000

band     1 # energy   -7.54240569 # occ.  2.00000000
 
ion      s     py     pz     px    dxy    dyz    dz2    dxz  x2-y2    tot
    1  0.233  0.003  0.003  0.003  0.000  0.000  0.000  0.000  0.000  0.242
    2  0.233  0.003  0.003  0.003  0.000  0.000  0.000  0.000  0.000  0.242
tot    0.467  0.006  0.006  0.006  0.000  0.000  0.000  0.000  0.000  0.484
 
band     2 # energy   -1.22700291 # occ.  2.00000000
 
ion      s     py     pz     px    dxy    dyz    dz2    dxz  x2-y2    tot
    1  0.132  0.038  0.038  0.038  0.000  0.000  0.000  0.000  0.000  0.245
    2  0.132  0.038  0.038  0.038  0.000  0.000  0.000  0.000  0.000  0.245
tot    0.264  0.075  0.075  0.075  0.000  0.000  0.000  0.000  0.000  0.490
 
band     3 # energy    2.08170539 # occ.  2.00000000
 
ion      s     py     pz     px    dxy    dyz    dz2    dxz  x2-y2    tot
    1  0.000  0.038  0.152  0.038  0.000  0.000  0.000  0.000  0.000  0.228
    2  0.000  0.038  0.152  0.038  0.000  0.000  0.000  0.000  0.000  0.228
tot    0.000  0.076  0.305  0.076  0.000  0.000  0.000  0.000  0.000  0.457
 
band     4 # energy    2.08170652 # occ.  2.00000000
 
ion      s     py     pz     px    dxy    dyz    dz2    dxz  x2-y2    tot
    1  0.000  0.114  0.000  0.114  0.000  0.000  0.000  0.000  0.000  0.228
    2  0.000  0.114  0.000  0.114  0.000  0.000  0.000  0.000  0.000  0.228
tot    0.000  0.228  0.000  0.228  0.000  0.000  0.000  0.000  0.000  0.457
 
band     5 # energy    5.26311501 # occ.  0.00000000
 
ion      s     py     pz     px    dxy    dyz    dz2    dxz  x2-y2    tot
    1  0.161  0.026  0.026  0.026  0.000  0.000  0.000  0.000  0.000  0.239
    2  0.161  0.026  0.026  0.026  0.000  0.000  0.000  0.000  0.000  0.239
tot    0.321  0.052  0.052  0.052  0.000  0.000  0.000  0.000  0.000  0.477
 
band     6 # energy    7.41360781 # occ.  0.00000000
 
ion      s     py     pz     px    dxy    dyz    dz2    dxz  x2-y2    tot
    1  0.000  0.028  0.111  0.028  0.000  0.000  0.000  0.000  0.000  0.167
    2  0.000  0.028  0.111  0.028  0.000  0.000  0.000  0.000  0.000  0.167
tot    0.000  0.056  0.223  0.056  0.000  0.000  0.000  0.000  0.000  0.334
 
band     7 # energy    7.41360969 # occ.  0.00000000
 
ion      s     py     pz     px    dxy    dyz    dz2    dxz  x2-y2    tot
    1  0.000  0.083  0.000  0.083  0.000  0.000  0.000  0.000  0.000  0.167
    2  0.000  0.083  0.000  0.083  0.000  0.000  0.000  0.000  0.000  0.167
tot    0.000  0.167  0.000  0.167  0.000  0.000  0.000  0.000  0.000  0.334
 
band     8 # energy    9.95433891 # occ.  0.00000000
 
ion      s     py     pz     px    dxy    dyz    dz2    dxz  x2-y2    tot
    1  0.086  0.060  0.060  0.060  0.000  0.000  0.000  0.000  0.000  0.265
    2  0.086  0.060  0.060  0.060  0.000  0.000  0.000  0.000  0.000  0.265
tot    0.173  0.119  0.119  0.119  0.000  0.000  0.000  0.000  0.000  0.531
 

 k-point     6 :    0.22222222 0.22222222 0.22222222     weight = 0.02500000

band     1 # energy   -7.83669940 # occ.  2.00000000
 
ion      s     py     pz     px    dxy    dyz    dz2    dxz  x2-y2    tot
    1  0.234  0.002  0.002  0.002  0.000  0.000  0.000  0.000  0.000  0.240
    2  0.234  0.002  0.002  0.002  0.000  0.000  0.000  0.000  0.000  0.240
tot    0.468  0.004  0.004  0.004  0.000  0.000  0.000  0.000  0.000  0.480
 
band     2 # energy   -0.35373645 # occ.  2.00000000
 
ion      s     py     pz     px    dxy    dyz    dz2    dxz  x2-y2    tot
    1  0.123  0.042  0.042  0.042  0.000  0.000  0.000  0.000  0.000  0.248
    2  0.123  0.042  0.042  0.042  0.000  0.000  0.000  0.000  0.000  0.248
tot    0.245  0.083  0.083  0.083  0.000  0.000  0.000  0.000  0.000  0.495
 
band     3 # energy    2.23593674 # occ.  2.00000000
 
ion      s     py     pz     px    dxy    dyz    dz2    dxz  x2-y2    tot
    1  0.000  0.038  0.152  0.038  0.000  0.000  0.000  0.000  0.000  0.228
    2  0.000  0.038  0.152  0.038  0.000  0.000  0.000  0.000  0.000  0.228
tot    0.000  0.076  0.304  0.076  0.000  0.000  0.000  0.000  0.000  0.456
 
band     4 # energy    2.23593795 # occ.  2.00000000
 
ion      s     py     pz     px    dxy    dyz    dz2    dxz  x2-y2    tot
    1  0.000  0.114  0.000  0.114  0.000  0.000  0.000  0.000  0.000  0.228
    2  0.000  0.114  0.000  0.114  0.000  0.000  0.000  0.000  0.000  0.228
tot    0.000  0.228  0.000  0.228  0.000  0.000  0.000  0.000  0.000  0.456
 
band     5 # energy    5.41968180 # occ.  0.00000000
 
ion      s     py     pz     px    dxy    dyz    dz2    dxz  x2-y2    tot
    1  0.163  0.028  0.028  0.028  0.000  0.000  0.000  0.000  0.000  0.248
    2  0.163  0.028  0.028  0.028  0.000  0.000  0.000  0.000  0.000  0.248
tot    0.326  0.057  0.057  0.057  0.000  0.000  0.000  0.000  0.000  0.497
 
band     6 # energy    7.21373478 # occ.  0.00000000
 
ion      s     py     pz     px    dxy    dyz    dz2    dxz  x2-y2    tot
    1  0.000  0.030  0.117  0.029  0.000  0.000  0.000  0.000  0.000  0.176
    2  0.000  0.030  0.117  0.029  0.000  0.000  0.000  0.000  0.000  0.176
tot    0.000  0.059  0.234  0.058  0.000  0.000  0.000  0.000  0.000  0.351
 
band     7 # energy    7.21373626 # occ.  0.00000000
 
ion      s     py     pz     px    dxy    dyz    dz2    dxz  x2-y2    tot
    1  0.000  0.087  0.000  0.088  0.000  0.000  0.000  0.000  0.000  0.176
    2  0.000  0.087  0.000  0.088  0.000  0.000  0.000  0.000  0.000  0.176
tot    0.000  0.175  0.000  0.176  0.000  0.000  0.000  0.000  0.000  0.351
 
band     8 # energy    8.90820232 # occ.  0.00000000
 
ion      s     py     pz     px    dxy    dyz    dz2    dxz  x2-y2    tot
    1  0.097  0.055  0.055  0.055  0.000  0.000  0.000  0.000  0.000  0.261
    2  0.097  0.055  0.055  0.055  0.000  0.000  0.000  0.000  0.000  0.261
tot    0.193  0.110  0.110  0.110  0.000  0.000  0.000  0.000  0.000  0.523
 

 k-point     7 :    0.16666667 0.16666667 0.16666667     weight = 0.02500000

band     1 # energy   -8.07583349 # occ.  2.00000000
 
ion      s     py     pz     px    dxy    dyz    dz2    dxz  x2-y2    tot
    1  0.235  0.001  0.001  0.001  0.000  0.000  0.000  0.000  0.000  0.238
    2  0.235  0.001  0.001  0.001  0.000  0.000  0.000  0.000  0.000  0.238
tot    0.470  0.002  0.002  0.002  0.000  0.000  0.000  0.000  0.000  0.477
 
band     2 # energy    0.56684421 # occ.  2.00000000
 
ion      s     py     pz     px    dxy    dyz    dz2    dxz  x2-y2    tot
    1  0.108  0.047  0.047  0.047  0.000  0.000  0.000  0.000  0.000  0.249
    2  0.108  0.047  0.047  0.047  0.000  0.000  0.000  0.000  0.000  0.249
tot    0.217  0.094  0.094  0.094  0.000  0.000  0.000  0.000  0.000  0.499
 
band     3 # energy    2.40102523 # occ.  2.00000000
 
ion      s     py     pz     px    dxy    dyz    dz2    dxz  x2-y2    tot
    1  0.000  0.038  0.152  0.038  0.000  0.000  0.000  0.000  0.000  0.228
    2  0.000  0.038  0.152  0.038  0.000  0.000  0.000  0.000  0.000  0.228
tot    0.000  0.076  0.304  0.076  0.000  0.000  0.000  0.000  0.000  0.456
 
band     4 # energy    2.40102653 # occ.  2.00000000
 
ion      s     py     pz     px    dxy    dyz    dz2    dxz  x2-y2    tot
    1  0.000  0.114  0.000  0.114  0.000  0.000  0.000  0.000  0.000  0.228
    2  0.000  0.114  0.000  0.114  0.000  0.000  0.000  0.000  0.000  0.228
tot    0.000  0.228  0.000  0.228  0.000  0.000  0.000  0.000  0.000  0.456
 
band     5 # energy    5.55827748 # occ.  0.00000000
 
ion      s     py     pz     px    dxy    dyz    dz2    dxz  x2-y2    tot
    1  0.178  0.029  0.029  0.029  0.000  0.000  0.000  0.000  0.000  0.267
    2  0.178  0.029  0.029  0.029  0.000  0.000  0.000  0.000  0.000  0.267
tot    0.356  0.059  0.059  0.059  0.000  0.000  0.000  0.000  0.000  0.533
 
band     6 # energy    6.95554780 # occ.  0.00000000
 
ion      s     py     pz     px    dxy    dyz    dz2    dxz  x2-y2    tot
    1  0.000  0.031  0.120  0.029  0.000  0.000  0.000  0.000  0.000  0.180
    2  0.000  0.031  0.120  0.029  0.000  0.000  0.000  0.000  0.000  0.180
tot    0.000  0.062  0.239  0.058  0.000  0.000  0.000  0.000  0.000  0.359
 
band     7 # energy    6.95554888 # occ.  0.00000000
 
ion      s     py     pz     px    dxy    dyz    dz2    dxz  x2-y2    tot
    1  0.000  0.089  0.000  0.091  0.000  0.000  0.000  0.000  0.000  0.180
    2  0.000  0.089  0.000  0.091  0.000  0.000  0.000  0.000  0.000  0.180
tot    0.000  0.177  0.000  0.182  0.000  0.000  0.000  0.000  0.000  0.359
 
band     8 # energy    7.89921650 # occ.  0.00000000
 
ion      s     py     pz     px    dxy    dyz    dz2    dxz  x2-y2    tot
    1  0.095  0.051  0.051  0.051  0.000  0.000  0.000  0.000  0.000  0.250
    2  0.095  0.051  0.051  0.051  0.000  0.000  0.000  0.000  0.000  0.250
tot    0.190  0.103  0.103  0.103  0.000  0.000  0.000  0.000  0.000  0.499
 

 k-point     8 :    0.11111111 0.11111111 0.11111111     weight = 0.02500000

band     1 # energy   -8.25084499 # occ.  2.00000000
 
ion      s     py     pz     px    dxy    dyz    dz2    dxz  x2-y2    tot
    1  0.236  0.001  0.001  0.001  0.000  0.000  0.000  0.000  0.000  0.238
    2  0.236  0.001  0.001  0.001  0.000  0.000  0.000  0.000  0.000  0.238
tot    0.472  0.001  0.001  0.001  0.000  0.000  0.000  0.000  0.000  0.475
 
band     2 # energy    1.49092925 # occ.  2.00000000
 
ion      s     py     pz     px    dxy    dyz    dz2    dxz  x2-y2    tot
    1  0.084  0.055  0.055  0.055  0.000  0.000  0.000  0.000  0.000  0.248
    2  0.084  0.055  0.055  0.055  0.000  0.000  0.000  0.000  0.000  0.248
tot    0.169  0.109  0.109  0.109  0.000  0.000  0.000  0.000  0.000  0.497
 
band     3 # energy    2.55508278 # occ.  2.00000000
 
ion      s     py     pz     px    dxy    dyz    dz2    dxz  x2-y2    tot
    1  0.000  0.038  0.152  0.038  0.000  0.000  0.000  0.000  0.000  0.229
    2  0.000  0.038  0.152  0.038  0.000  0.000  0.000  0.000  0.000  0.229
tot    0.000  0.076  0.305  0.076  0.000  0.000  0.000  0.000  0.000  0.457
 
band     4 # energy    2.55508421 # occ.  2.00000000
 
ion      s     py     pz     px    dxy    dyz    dz2    dxz  x2-y2    tot
    1  0.000  0.114  0.000  0.114  0.000  0.000  0.000  0.000  0.000  0.229
    2  0.000  0.114  0.000  0.114  0.000  0.000  0.000  0.000  0.000  0.229
tot    0.000  0.229  0.000  0.229  0.000  0.000  0.000  0.000  0.000  0.457
 
band     5 # energy    5.58978598 # occ.  0.00000000
 
ion      s     py     pz     px    dxy    dyz    dz2    dxz  x2-y2    tot
    1  0.231  0.025  0.025  0.025  0.000  0.000  0.000  0.000  0.000  0.306
    2  0.231  0.025  0.025  0.025  0.000  0.000  0.000  0.000  0.000  0.306
tot    0.463  0.050  0.050  0.050  0.000  0.000  0.000  0.000  0.000  0.612
 
band     6 # energy    6.69676313 # occ.  0.00000000
 
ion      s     py     pz     px    dxy    dyz    dz2    dxz  x2-y2    tot
    1  0.000  0.026  0.119  0.035  0.000  0.000  0.000  0.000  0.000  0.180
    2  0.000  0.026  0.119  0.035  0.000  0.000  0.000  0.000  0.000  0.180
tot    0.000  0.053  0.238  0.070  0.000  0.000  0.000  0.000  0.000  0.361
 
band     7 # energy    6.69676393 # occ.  0.00000000
 
ion      s     py     pz     px    dxy    dyz    dz2    dxz  x2-y2    tot
    1  0.000  0.094  0.001  0.085  0.000  0.000  0.000  0.000  0.000  0.180
    2  0.000  0.094  0.001  0.085  0.000  0.000  0.000  0.000  0.000  0.180
tot    0.000  0.188  0.003  0.170  0.000  0.000  0.000  0.000  0.000  0.361
 
band     8 # energy    7.02676141 # occ.  0.00000000
 
ion      s     py     pz     px    dxy    dyz    dz2    dxz  x2-y2    tot
    1  0.063  0.052  0.052  0.052  0.000  0.000  0.000  0.000  0.000  0.220
    2  0.063  0.052  0.052  0.052  0.000  0.000  0.000  0.000  0.000  0.220
tot    0.126  0.105  0.105  0.105  0.000  0.000  0.000  0.000  0.000  0.440
 

 k-point     9 :    0.05555556 0.05555556 0.05555556     weight = 0.02500000

band     1 # energy   -8.35753587 # occ.  2.00000000
 
ion      s     py     pz     px    dxy    dyz    dz2    dxz  x2-y2    tot
    1  0.237  0.000  0.000  0.000  0.000  0.000  0.000  0.000  0.000  0.237
    2  0.237  0.000  0.000  0.000  0.000  0.000  0.000  0.000  0.000  0.237
tot    0.473  0.000  0.000  0.000  0.000  0.000  0.000  0.000  0.000  0.474
 
band     2 # energy    2.31168310 # occ.  2.00000000
 
ion      s     py     pz     px    dxy    dyz    dz2    dxz  x2-y2    tot
    1  0.041  0.066  0.066  0.066  0.000  0.000  0.000  0.000  0.000  0.240
    2  0.041  0.066  0.066  0.066  0.000  0.000  0.000  0.000  0.000  0.240
tot    0.082  0.132  0.132  0.132  0.000  0.000  0.000  0.000  0.000  0.480
 
band     3 # energy    2.66653552 # occ.  2.00000000
 
ion      s     py     pz     px    dxy    dyz    dz2    dxz  x2-y2    tot
    1  0.000  0.038  0.153  0.038  0.000  0.000  0.000  0.000  0.000  0.229
    2  0.000  0.038  0.153  0.038  0.000  0.000  0.000  0.000  0.000  0.229
tot    0.000  0.076  0.305  0.076  0.000  0.000  0.000  0.000  0.000  0.458
 
band     4 # energy    2.66653704 # occ.  2.00000000
 
ion      s     py     pz     px    dxy    dyz    dz2    dxz  x2-y2    tot
    1  0.000  0.114  0.000  0.115  0.000  0.000  0.000  0.000  0.000  0.229
    2  0.000  0.114  0.000  0.115  0.000  0.000  0.000  0.000  0.000  0.229
tot    0.000  0.229  0.000  0.229  0.000  0.000  0.000  0.000  0.000  0.458
 
band     5 # energy    5.33072233 # occ.  0.00000000
 
ion      s     py     pz     px    dxy    dyz    dz2    dxz  x2-y2    tot
    1  0.325  0.011  0.011  0.011  0.000  0.000  0.000  0.000  0.000  0.357
    2  0.325  0.011  0.011  0.011  0.000  0.000  0.000  0.000  0.000  0.357
tot    0.651  0.021  0.021  0.021  0.000  0.000  0.000  0.000  0.000  0.714
 
band     6 # energy    6.50477526 # occ.  0.00000000
 
ion      s     py     pz     px    dxy    dyz    dz2    dxz  x2-y2    tot
    1  0.000  0.033  0.120  0.027  0.000  0.000  0.000  0.000  0.000  0.180
    2  0.000  0.033  0.120  0.027  0.000  0.000  0.000  0.000  0.000  0.180
tot    0.000  0.066  0.239  0.054  0.000  0.000  0.000  0.000  0.000  0.360
 
band     7 # energy    6.50477586 # occ.  0.00000000
 
ion      s     py     pz     px    dxy    dyz    dz2    dxz  x2-y2    tot
    1  0.000  0.087  0.000  0.093  0.000  0.000  0.000  0.000  0.000  0.180
    2  0.000  0.087  0.000  0.093  0.000  0.000  0.000  0.000  0.000  0.180
tot    0.000  0.174  0.000  0.186  0.000  0.000  0.000  0.000  0.000  0.360
 
band     8 # energy    6.53473301 # occ.  0.00000000
 
ion      s     py     pz     px    dxy    dyz    dz2    dxz  x2-y2    tot
    1  0.008  0.058  0.058  0.058  0.000  0.000  0.000  0.000  0.000  0.183
    2  0.008  0.058  0.058  0.058  0.000  0.000  0.000  0.000  0.000  0.183
tot    0.017  0.117  0.117  0.117  0.000  0.000  0.000  0.000  0.000  0.367
 

 k-point    10 :    0.00000000 0.00000000 0.00000000     weight = 0.02500000

band     1 # energy   -8.39331583 # occ.  2.00000000
 
ion      s     py     pz     px    dxy    dyz    dz2    dxz  x2-y2    tot
    1  0.237  0.000  0.000  0.000  0.000  0.000  0.000  0.000  0.000  0.237
    2  0.237  0.000  0.000  0.000  0.000  0.000  0.000  0.000  0.000  0.237
tot    0.473  0.000  0.000  0.000  0.000  0.000  0.000  0.000  0.000  0.473
 
band     2 # energy    2.70664178 # occ.  2.00000000
 
ion      s     py     pz     px    dxy    dyz    dz2    dxz  x2-y2    tot
    1  0.000  0.077  0.076  0.077  0.000  0.000  0.000  0.000  0.000  0.229
    2  0.000  0.077  0.076  0.077  0.000  0.000  0.000  0.000  0.000  0.229
tot    0.000  0.153  0.152  0.153  0.000  0.000  0.000  0.000  0.000  0.458
 
band     3 # energy    2.70668730 # occ.  2.00000000
 
ion      s     py     pz     px    dxy    dyz    dz2    dxz  x2-y2    tot
    1  0.000  0.038  0.153  0.038  0.000  0.000  0.000  0.000  0.000  0.229
    2  0.000  0.038  0.153  0.038  0.000  0.000  0.000  0.000  0.000  0.229
tot    0.000  0.076  0.306  0.076  0.000  0.000  0.000  0.000  0.000  0.458
 
band     4 # energy    2.70668889 # occ.  2.00000000
 
ion      s     py     pz     px    dxy    dyz    dz2    dxz  x2-y2    tot
    1  0.000  0.115  0.000  0.115  0.000  0.000  0.000  0.000  0.000  0.229
    2  0.000  0.115  0.000  0.115  0.000  0.000  0.000  0.000  0.000  0.229
tot    0.000  0.229  0.000  0.229  0.000  0.000  0.000  0.000  0.000  0.458
 
band     5 # energy    5.06288840 # occ.  0.00000000
 
ion      s     py     pz     px    dxy    dyz    dz2    dxz  x2-y2    tot
    1  0.373  0.000  0.000  0.000  0.000  0.000  0.000  0.000  0.000  0.373
    2  0.373  0.000  0.000  0.000  0.000  0.000  0.000  0.000  0.000  0.373
tot    0.747  0.000  0.000  0.000  0.000  0.000  0.000  0.000  0.000  0.747
 
band     6 # energy    6.43350772 # occ.  0.00000000
 
ion      s     py     pz     px    dxy    dyz    dz2    dxz  x2-y2    tot
    1  0.000  0.029  0.122  0.028  0.000  0.000  0.000  0.000  0.000  0.179
    2  0.000  0.029  0.122  0.028  0.000  0.000  0.000  0.000  0.000  0.179
tot    0.000  0.058  0.244  0.056  0.000  0.000  0.000  0.000  0.000  0.359
 
band     7 # energy    6.43350824 # occ.  0.00000000
 
ion      s     py     pz     px    dxy    dyz    dz2    dxz  x2-y2    tot
    1  0.000  0.089  0.000  0.090  0.000  0.000  0.000  0.000  0.000  0.179
    2  0.000  0.089  0.000  0.090  0.000  0.000  0.000  0.000  0.000  0.179
tot    0.000  0.178  0.001  0.180  0.000  0.000  0.000  0.000  0.000  0.359
 
band     8 # energy    6.43356512 # occ.  0.00000000
 
ion      s     py     pz     px    dxy    dyz    dz2    dxz  x2-y2    tot
    1  0.000  0.061  0.057  0.061  0.000  0.000  0.000  0.000  0.000  0.179
    2  0.000  0.061  0.057  0.061  0.000  0.000  0.000  0.000  0.000  0.179
tot    0.000  0.123  0.114  0.122  0.000  0.000  0.000  0.000  0.000  0.359
 

 k-point    11 :    0.00000000 0.00000000 0.00000000     weight = 0.02500000

band     1 # energy   -8.39331583 # occ.  2.00000000
 
ion      s     py     pz     px    dxy    dyz    dz2    dxz  x2-y2    tot
    1  0.237  0.000  0.000  0.000  0.000  0.000  0.000  0.000  0.000  0.237
    2  0.237  0.000  0.000  0.000  0.000  0.000  0.000  0.000  0.000  0.237