mpprun info: Starting impi run on 1 node ( 4 rank X 1 th ) for job ID 18772336
 ----------------------------------------------------
    OOO  PPPP  EEEEE N   N M   M PPPP
   O   O P   P E     NN  N MM MM P   P
   O   O PPPP  EEEEE N N N M M M PPPP   -- VERSION
   O   O P     E     N  NN M   M P
    OOO  P     EEEEE N   N M   M P
 ----------------------------------------------------
 running    4 mpi-ranks, with    1 threads/rank
 distrk:  each k-point on    4 cores,    1 groups
 distr:  one band on    1 cores,    4 groups
 vasp.6.3.0 20Jan22 (build Feb 01 2022 16:52:37) complex                        
  
 POSCAR found type information on POSCAR Si
 POSCAR found :  1 types and       2 ions
 scaLAPACK will be used
 LDA part: xc-table for Pade appr. of Perdew
 WARNING: stress and forces are not correct
 POSCAR, INCAR and KPOINTS ok, starting setup
 FFT: planning ... GRIDC
 FFT: planning ... GRID_SOFT
 FFT: planning ... GRID
 WAVECAR not read
 initial charge from wavefunction
 entering main loop
       N       E                     dE             d eps       ncg     rms          rms(c)
DAV:   1    -0.178004335155E+01   -0.17800E+01   -0.21042E+03   648   0.415E+02
DAV:   2    -0.132702906922E+02   -0.11490E+02   -0.10764E+02  1056   0.606E+01
DAV:   3    -0.134308688610E+02   -0.16058E+00   -0.16058E+00   912   0.868E+00
DAV:   4    -0.134314512531E+02   -0.58239E-03   -0.58239E-03   984   0.500E-01
DAV:   5    -0.134314521715E+02   -0.91843E-06   -0.91843E-06   944   0.179E-02
DAV:   6    -0.134314521874E+02   -0.15873E-07   -0.15873E-07   784   0.158E-03
   1 F= -.13431452E+02 E0= -.13431452E+02  d E =-.293105E-12
 writing wavefunctions
mpprun info: Elapsed time (h:m:s):  0:00:01.043760
