<?xml version="1.0" encoding="ISO-8859-1"?>
<modeling>
 <generator>
  <i name="program" type="string">vasp </i>
  <i name="version" type="string">6.3.0  </i>
  <i name="subversion" type="string">20Jan22 (build Feb 01 2022 16:52:37) complex                          parallel </i>
  <i name="platform" type="string">TETRA_NSC1 </i>
  <i name="date" type="string">2022 02 23 </i>
  <i name="time" type="string">07:32:20 </i>
 </generator>
 <incar>
  <i type="string" name="SYSTEM">diamond Si</i>
  <i type="int" name="ISTART">     0</i>
  <i type="int" name="ICHARG">    10</i>
  <i name="ENCUT">    240.00000000</i>
  <i type="int" name="ISMEAR">     0</i>
  <i name="SIGMA">      0.10000000</i>
  <i type="int" name="LORBIT">    11</i>
 </incar>
 <primitive_cell>
  <structure name="primitive_cell" >
   <crystal>
    <varray name="basis" >
     <v>       0.00000000       2.75000000       2.75000000 </v>
     <v>       2.75000000       0.00000000       2.75000000 </v>
     <v>       2.75000000       2.75000000       0.00000000 </v>
    </varray>
    <i name="volume">     41.59375000 </i>
    <varray name="rec_basis" >
     <v>      -0.18181818       0.18181818       0.18181818 </v>
     <v>       0.18181818      -0.18181818       0.18181818 </v>
     <v>       0.18181818       0.18181818      -0.18181818 </v>
    </varray>
   </crystal>
   <varray name="positions" >
    <v>       0.87500000       0.87500000       0.87500000 </v>
    <v>       0.12500000       0.12500000       0.12500000 </v>
   </varray>
  </structure>
  <varray name="primitive_index" >
   <v type="int" >        1 </v>
   <v type="int" >        2 </v>
  </varray>
 </primitive_cell>
 <kpoints>
  <generation param="listgenerated">
   <i name="divisions" type="int">      10 </i>
   <v>       0.50000000       0.50000000       0.50000000 </v>
   <v>       0.00000000       0.00000000       0.00000000 </v>
   <v>       0.00000000       0.50000000       0.50000000 </v>
   <v>       0.37500000       0.75000000       0.37500000 </v>
   <v>       0.00000000       0.00000000       0.00000000 </v>
  </generation>
  <varray name="kpointlist" >
   <v>       0.50000000       0.50000000       0.50000000 </v>
   <v>       0.44444444       0.44444444       0.44444444 </v>
   <v>       0.38888889       0.38888889       0.38888889 </v>
   <v>       0.33333333       0.33333333       0.33333333 </v>
   <v>       0.27777778       0.27777778       0.27777778 </v>
   <v>       0.22222222       0.22222222       0.22222222 </v>
   <v>       0.16666667       0.16666667       0.16666667 </v>
   <v>       0.11111111       0.11111111       0.11111111 </v>
   <v>       0.05555556       0.05555556       0.05555556 </v>
   <v>       0.00000000       0.00000000       0.00000000 </v>
   <v>       0.00000000       0.00000000       0.00000000 </v>
   <v>       0.00000000       0.05555556       0.05555556 </v>
   <v>       0.00000000       0.11111111       0.11111111 </v>
   <v>       0.00000000       0.16666667       0.16666667 </v>
   <v>       0.00000000       0.22222222       0.22222222 </v>
   <v>       0.00000000       0.27777778       0.27777778 </v>
   <v>       0.00000000       0.33333333       0.33333333 </v>
   <v>       0.00000000       0.38888889       0.38888889 </v>
   <v>       0.00000000       0.44444444       0.44444444 </v>
   <v>       0.00000000       0.50000000       0.50000000 </v>
   <v>       0.00000000       0.50000000       0.50000000 </v>
   <v>       0.02777778       0.51388889       0.51388889 </v>
   <v>       0.05555556       0.52777778       0.52777778 </v>
   <v>       0.08333333       0.54166667       0.54166667 </v>
   <v>       0.11111111       0.55555556       0.55555556 </v>
   <v>       0.13888889       0.56944444       0.56944444 </v>
   <v>       0.16666667       0.58333333       0.58333333 </v>
   <v>       0.19444444       0.59722222       0.59722222 </v>
   <v>       0.22222222       0.61111111       0.61111111 </v>
   <v>       0.25000000       0.62500000       0.62500000 </v>
   <v>       0.37500000       0.75000000       0.37500000 </v>
   <v>       0.33333333       0.66666667       0.33333333 </v>
   <v>       0.29166667       0.58333333       0.29166667 </v>
   <v>       0.25000000       0.50000000       0.25000000 </v>
   <v>       0.20833333       0.41666667       0.20833333 </v>
   <v>       0.16666667       0.33333333       0.16666667 </v>
   <v>       0.12500000       0.25000000       0.12500000 </v>
   <v>       0.08333333       0.16666667       0.08333333 </v>
   <v>       0.04166667       0.08333333       0.04166667 </v>
   <v>       0.00000000       0.00000000       0.00000000 </v>
  </varray>
  <varray name="weights" >
   <v>       0.02500000 </v>
   <v>       0.02500000 </v>
   <v>       0.02500000 </v>
   <v>       0.02500000 </v>
   <v>       0.02500000 </v>
   <v>       0.02500000 </v>
   <v>       0.02500000 </v>
   <v>       0.02500000 </v>
   <v>       0.02500000 </v>
   <v>       0.02500000 </v>
   <v>       0.02500000 </v>
   <v>       0.02500000 </v>
   <v>       0.02500000 </v>
   <v>       0.02500000 </v>
   <v>       0.02500000 </v>
   <v>       0.02500000 </v>
   <v>       0.02500000 </v>
   <v>       0.02500000 </v>
   <v>       0.02500000 </v>
   <v>       0.02500000 </v>
   <v>       0.02500000 </v>
   <v>       0.02500000 </v>
   <v>       0.02500000 </v>
   <v>       0.02500000 </v>
   <v>       0.02500000 </v>
   <v>       0.02500000 </v>
   <v>       0.02500000 </v>
   <v>       0.02500000 </v>
   <v>       0.02500000 </v>
   <v>       0.02500000 </v>
   <v>       0.02500000 </v>
   <v>       0.02500000 </v>
   <v>       0.02500000 </v>
   <v>       0.02500000 </v>
   <v>       0.02500000 </v>
   <v>       0.02500000 </v>
   <v>       0.02500000 </v>
   <v>       0.02500000 </v>
   <v>       0.02500000 </v>
   <v>       0.02500000 </v>
  </varray>
  <kpoints_labels>
   <i name="1" type="int">       1 </i>
   <i name="1" type="int">       2 </i>
   <i name="1" type="int">       3 </i>
   <i name="1" type="int">       4 </i>
   <i name="1" type="int">       5 </i>
   <i name="1" type="int">       6 </i>
   <i name="1" type="int">       7 </i>
   <i name="1" type="int">       8 </i>
  </kpoints_labels>
 </kpoints>
 <parameters>
  <separator name="general" >
   <i type="string" name="SYSTEM">diamond Si</i>
   <i type="logical" name="LCOMPAT"> F  </i>
  </separator>
  <separator name="electronic" >
   <i type="string" name="PREC">normal</i>
   <i name="ENMAX">    240.00000000</i>
   <i name="ENAUG">    322.06900000</i>
   <i name="EDIFF">      0.00010000</i>
   <i type="int" name="IALGO">    38</i>
   <i type="int" name="IWAVPR">    10</i>
   <i type="int" name="NBANDS">     8</i>
   <i type="int" name="NBANDSLOW">    -1</i>
   <i type="int" name="NBANDSHIGH">    -1</i>
   <i name="NELECT">      8.00000000</i>
   <i type="int" name="TURBO">     0</i>
   <i type="int" name="IRESTART">     0</i>
   <i type="int" name="NREBOOT">     0</i>
   <i type="int" name="NMIN">     0</i>
   <i name="EREF">      0.00000000</i>
   <separator name="electronic smearing" >
    <i type="int" name="ISMEAR">     0</i>
    <i name="SIGMA">      0.10000000</i>
    <i name="KSPACING">      0.50000000</i>
    <i type="logical" name="KGAMMA"> T  </i>
    <i type="logical" name="KBLOWUP"> T  </i>
   </separator>
   <separator name="electronic projectors" >
    <i type="logical" name="LREAL"> F  </i>
    <v name="ROPT">      0.00000000</v>
    <i type="int" name="LMAXPAW">  -100</i>
    <i type="int" name="LMAXMIX">     2</i>
    <i type="logical" name="NLSPLINE"> F  </i>
   </separator>
   <separator name="electronic startup" >
    <i type="int" name="ISTART">     0</i>
    <i type="int" name="ICHARG">    10</i>
    <i type="int" name="INIWAV">     1</i>
   </separator>
   <separator name="electronic spin" >
    <i type="int" name="ISPIN">     1</i>
    <i type="logical" name="LNONCOLLINEAR"> F  </i>
    <v name="MAGMOM">      1.00000000      1.00000000</v>
    <i name="NUPDOWN">     -1.00000000</i>
    <i type="logical" name="LSORBIT"> F  </i>
    <v name="SAXIS">      0.00000000      0.00000000      1.00000000</v>
    <i type="logical" name="LSPIRAL"> F  </i>
    <v name="QSPIRAL">      0.00000000      0.00000000      0.00000000</v>
    <i type="logical" name="LZEROZ"> F  </i>
   </separator>
   <separator name="electronic exchange-correlation" >
    <i type="logical" name="LASPH"> F  </i>
    <i type="logical" name="LMETAGGA"> F  </i>
   </separator>
   <separator name="electronic convergence" >
    <i type="int" name="NELM">    60</i>
    <i type="int" name="NELMDL">    -5</i>
    <i type="int" name="NELMIN">     2</i>
    <i name="ENINI">    240.00000000</i>
    <separator name="electronic convergence detail" >
     <i type="logical" name="LDIAG"> T  </i>
     <i type="logical" name="LSUBROT"> F  </i>
     <i name="WEIMIN">      0.00000000</i>
     <i name="EBREAK">      0.00000313</i>
     <i name="DEPER">      0.30000000</i>
     <i type="int" name="NRMM">     4</i>
     <i name="TIME">      0.40000000</i>
    </separator>
   </separator>
   <separator name="electronic mixer" >
    <i name="AMIX">      0.40000000</i>
    <i name="BMIX">      1.00000000</i>
    <i name="AMIN">      0.10000000</i>
    <i name="AMIX_MAG">      1.60000000</i>
    <i name="BMIX_MAG">      1.00000000</i>
    <separator name="electronic mixer details" >
     <i type="int" name="IMIX">     4</i>
     <i type="logical" name="MIXFIRST"> F  </i>
     <i type="int" name="MAXMIX">   -45</i>
     <i name="WC">    100.00000000</i>
     <i type="int" name="INIMIX">     1</i>
     <i type="int" name="MIXPRE">     1</i>
     <i type="int" name="MREMOVE">     5</i>
    </separator>
   </separator>
   <separator name="electronic dipolcorrection" >
    <i type="logical" name="LDIPOL"> F  </i>
    <i type="logical" name="LMONO"> F  </i>
    <i type="int" name="IDIPOL">     0</i>
    <i name="EPSILON">      1.00000000</i>
    <v name="DIPOL">   -100.00000000   -100.00000000   -100.00000000</v>
    <i name="EFIELD">      0.00000000</i>
   </separator>
  </separator>
  <separator name="grids" >
   <i type="int" name="NGX">    16</i>
   <i type="int" name="NGY">    16</i>
   <i type="int" name="NGZ">    16</i>
   <i type="int" name="NGXF">    32</i>
   <i type="int" name="NGYF">    32</i>
   <i type="int" name="NGZF">    32</i>
   <i type="logical" name="ADDGRID"> F  </i>
  </separator>
  <separator name="ionic" >
   <i type="int" name="NSW">     0</i>
   <i type="int" name="IBRION">    -1</i>
   <i type="int" name="MDALGO">     0</i>
   <i type="int" name="ISIF">     2</i>
   <i name="PSTRESS">      0.00000000</i>
   <i name="EDIFFG">      0.00100000</i>
   <i type="int" name="NFREE">     0</i>
   <i name="POTIM">      0.50000000</i>
   <i name="SMASS">     -3.00000000</i>
   <i name="SCALEE">      1.00000000</i>
  </separator>
  <separator name="ionic md" >
   <i name="TEBEG">      0.00010000</i>
   <i name="TEEND">      0.00010000</i>
   <i type="int" name="NBLOCK">     1</i>
   <i type="int" name="KBLOCK">     1</i>
   <i type="int" name="NPACO">   256</i>
   <i name="APACO">     10.00000000</i>
  </separator>
  <separator name="symmetry" >
   <i type="int" name="ISYM">     2</i>
   <i name="SYMPREC">      0.00001000</i>
  </separator>
  <separator name="dos" >
   <i type="int" name="LORBIT">    11</i>
   <v name="RWIGS">     -1.00000000</v>
   <i type="int" name="NEDOS">   301</i>
   <i name="EMIN">     10.00000000</i>
   <i name="EMAX">    -10.00000000</i>
   <i name="EFERMI">      0.00000000</i>
  </separator>
  <separator name="writing" >
   <i type="int" name="NWRITE">     2</i>
   <i type="logical" name="LWAVE"> T  </i>
   <i type="logical" name="LDOWNSAMPLE"> F  </i>
   <i type="logical" name="LCHARG"> T  </i>
   <i type="logical" name="LPARD"> F  </i>
   <i type="logical" name="LVTOT"> F  </i>
   <i type="logical" name="LVHAR"> F  </i>
   <i type="logical" name="LELF"> F  </i>
   <i type="logical" name="LOPTICS"> F  </i>
   <v name="STM">      0.00000000      0.00000000      0.00000000      0.00000000      0.00000000      0.00000000      0.00000000</v>
  </separator>
  <separator name="performance" >
   <i type="int" name="NPAR">     4</i>
   <i type="int" name="NSIM">     4</i>
   <i type="int" name="NBLK">    -1</i>
   <i type="logical" name="LPLANE"> T  </i>
   <i type="logical" name="LSCALAPACK"> T  </i>
   <i type="logical" name="LSCAAWARE"> F  </i>
   <i type="logical" name="LSCALU"> F  </i>
   <i type="logical" name="LASYNC"> F  </i>
   <i type="logical" name="LORBITALREAL"> F  </i>
  </separator>
  <separator name="miscellaneous" >
   <i type="int" name="IDIOT">     3</i>
   <i type="int" name="PHON_NSTRUCT">    -1</i>
   <i type="logical" name="LMUSIC"> F  </i>
   <v name="POMASS">     28.08500000</v>
   <v name="DARWINR">      0.00000000</v>
   <v name="DARWINV">      1.00000000</v>
   <i type="logical" name="LCORR"> T  </i>
  </separator>
  <i type="logical" name="GGA_COMPAT"> T  </i>
  <i type="logical" name="LBERRY"> F  </i>
  <i type="int" name="ICORELEVEL">     0</i>
  <i type="logical" name="LDAU"> F  </i>
  <i type="int" name="I_CONSTRAINED_M">     0</i>
  <separator name="electronic exchange-correlation" >
   <i type="string" name="GGA">--</i>
   <i type="int" name="VOSKOWN">     0</i>
   <i type="logical" name="LHFCALC"> F  </i>
   <i type="string" name="PRECFOCK"></i>
   <i type="logical" name="LSYMGRAD"> F  </i>
   <i type="logical" name="LHFONE"> F  </i>
   <i type="logical" name="LRHFCALC"> F  </i>
   <i type="logical" name="LTHOMAS"> F  </i>
   <i type="logical" name="LMODELHF"> F  </i>
   <i type="logical" name="LFOCKACE"> F  </i>
   <i name="ENCUT4O">     -1.00000000</i>
   <i type="int" name="EXXOEP">     0</i>
   <i type="int" name="FOURORBIT">     0</i>
   <i name="AEXX">      0.00000000</i>
   <i name="HFALPHA">      0.00000000</i>
   <i name="MCALPHA">      0.00000000</i>
   <i name="ALDAX">      1.00000000</i>
   <i name="AGGAX">      1.00000000</i>
   <i name="ALDAC">      1.00000000</i>
   <i name="AGGAC">      1.00000000</i>
   <i type="int" name="NKREDX">     1</i>
   <i type="int" name="NKREDY">     1</i>
   <i type="int" name="NKREDZ">     1</i>
   <i type="logical" name="SHIFTRED"> F  </i>
   <i type="logical" name="ODDONLY"> F  </i>
   <i type="logical" name="EVENONLY"> F  </i>
   <i type="int" name="LMAXFOCK">     0</i>
   <i type="int" name="NMAXFOCKAE">     0</i>
   <i type="logical" name="LFOCKAEDFT"> F  </i>
   <i name="HFSCREEN">      0.00000000</i>
   <i name="HFSCREENC">      0.00000000</i>
   <i type="int" name="NBANDSGWLOW">     0</i>
  </separator>
  <separator name="vdW DFT" >
   <i type="logical" name="LUSE_VDW"> F  </i>
   <i name="Zab_VDW">     -0.84910000</i>
   <i name="PARAM1">      0.12340000</i>
   <i name="PARAM2">      1.00000000</i>
   <i name="PARAM3">      0.00000000</i>
  </separator>
  <separator name="model GW" >
   <i type="int" name="MODEL_GW">     0</i>
   <i name="MODEL_EPS0">     12.47812500</i>
   <i name="MODEL_ALPHA">      1.00000000</i>
  </separator>
  <separator name="linear response parameters" >
   <i type="logical" name="LEPSILON"> F  </i>
   <i type="logical" name="LRPA"> F  </i>
   <i type="logical" name="LNABLA"> F  </i>
   <i type="logical" name="LVEL"> F  </i>
   <i name="CSHIFT">      0.10000000</i>
   <i name="OMEGAMAX">     -1.00000000</i>
   <i name="DEG_THRESHOLD">      0.00200000</i>
   <i name="RTIME">     -0.10000000</i>
   <i name="WPLASMAI">      0.00000000</i>
   <v name="DFIELD">      0.00000000      0.00000000      0.00000000</v>
   <v name="WPLASMA">      0.00000000      0.00000000      0.00000000      0.00000000      0.00000000      0.00000000      0.00000000      0.00000000      0.00000000</v>
  </separator>
  <separator name="orbital magnetization" >
   <i type="logical" name="NUCIND"> F  </i>
   <v name="MAGPOS">      0.00000000      0.00000000      0.00000000</v>
   <i type="logical" name="LNICSALL"> T  </i>
   <i type="logical" name="ORBITALMAG"> F  </i>
   <i type="logical" name="LMAGBLOCH"> F  </i>
   <i type="logical" name="LCHIMAG"> F  </i>
   <i type="logical" name="LGAUGE"> T  </i>
   <i type="int" name="MAGATOM">     0</i>
   <v name="MAGDIPOL">      0.00000000      0.00000000      0.00000000</v>
   <v name="AVECCONST">      0.00000000      0.00000000      0.00000000</v>
  </separator>
  <separator name="response functions" >
   <i type="logical" name="LFINITE_TEMPERATURE"> F  </i>
   <i type="logical" name="LADDER"> F  </i>
   <i type="logical" name="LRPAFORCE"> F  </i>
   <i type="logical" name="LFXC"> F  </i>
   <i type="logical" name="LHARTREE"> T  </i>
   <i type="int" name="IBSE">     0</i>
   <v type="int" name="KPOINT">    -1     0     0     0</v>
   <i type="logical" name="LTCTC"> F  </i>
   <i type="logical" name="LTCTE"> F  </i>
   <i type="logical" name="LTETE"> F  </i>
   <i type="logical" name="LTRIPLET"> F  </i>
   <i type="logical" name="LFXCEPS"> F  </i>
   <i type="logical" name="LFXHEG"> F  </i>
   <i type="int" name="NATURALO">     2</i>
   <i type="logical" name="LHOLEGF"> F  </i>
   <i type="logical" name="L2ORDER"> F  </i>
   <i type="logical" name="LDMP1"> F  </i>
   <i type="logical" name="LMP2LT"> F  </i>
   <i type="logical" name="LSMP2LT"> F  </i>
   <i type="logical" name="LGWLF"> F  </i>
   <i name="ENCUTGW">     -2.00000000</i>
   <i name="ENCUTGWSOFT">     -2.00000000</i>
   <i name="ENCUTLF">     -1.00000000</i>
   <i type="logical" name="LESF_SPLINES"> F  </i>
   <i type="int" name="LMAXMP2">    -1</i>
   <i name="SCISSOR">      0.00000000</i>
   <i type="int" name="NOMEGA">     0</i>
   <i type="int" name="NOMEGAR">     0</i>
   <i type="int" name="NBANDSGW">    -1</i>
   <i type="int" name="NBANDSO">    -1</i>
   <i type="int" name="NBANDSV">    -1</i>
   <i type="int" name="NELMGW">     1</i>
   <i type="int" name="NELMHF">     1</i>
   <i type="int" name="DIM">     3</i>
   <i type="int" name="IESPILON">     4</i>
   <i type="int" name="ANTIRES">     0</i>
   <i name="OMEGAMAX">    -30.00000000</i>
   <i name="OMEGAMIN">    -30.00000000</i>
   <i name="OMEGATL">   -200.00000000</i>
   <i type="int" name="OMEGAGRID">     0</i>
   <i name="CSHIFT">     -0.10000000</i>
   <i type="logical" name="LSELFENERGY"> F  </i>
   <i type="logical" name="LSPECTRAL"> F  </i>
   <i type="logical" name="LSPECTRALGW"> F  </i>
   <i type="logical" name="LSINGLES"> F  </i>
   <i type="logical" name="LFERMIGW"> F  </i>
   <i type="logical" name="ODDONLYGW"> F  </i>
   <i type="logical" name="EVENONLYGW"> F  </i>
   <i type="int" name="NKREDLFX">     1</i>
   <i type="int" name="NKREDLFY">     1</i>
   <i type="int" name="NKREDLFZ">     1</i>
   <i type="int" name="MAXMEM">  2800</i>
   <i type="int" name="TELESCOPE">     0</i>
   <i type="int" name="NTAUPAR">    -1</i>
   <i type="int" name="NOMEGAPAR">    -1</i>
   <i name="DAMP_NEWTON">      0.80000001</i>
   <i name="LAMBDA">      1.00000000</i>
  </separator>
  <separator name="External order field" >
   <i name="OFIELD_KAPPA">      0.00000000</i>
   <v name="OFIELD_K">      0.00000000      0.00000000      0.00000000</v>
   <i name="OFIELD_Q6_NEAR">      0.00000000</i>
   <i name="OFIELD_Q6_FAR">      0.00000000</i>
   <i name="OFIELD_A">      0.00000000</i>
  </separator>
  <separator name="optional k-points parameters" >
   <i type="int" name="KPOINTS_OPT_MODE">     1</i>
   <i type="logical" name="LKPOINTS_OPT"> F  </i>
  </separator>
 </parameters>
 <atominfo>
  <atoms>       2 </atoms>
  <types>       1 </types>
  <array name="atoms" >
   <dimension dim="1">ion</dimension>
   <field type="string">element</field>
   <field type="int">atomtype</field>
   <set>
    <rc><c>Si</c><c>   1</c></rc>
    <rc><c>Si</c><c>   1</c></rc>
   </set>
  </array>
  <array name="atomtypes" >
   <dimension dim="1">type</dimension>
   <field type="int">atomspertype</field>
   <field type="string">element</field>
   <field>mass</field>
   <field>valence</field>
   <field type="string">pseudopotential</field>
   <set>
    <rc><c>   2</c><c>Si</c><c>     28.08500000</c><c>      4.00000000</c><c>  PAW_PBE Si 05Jan2001                  </c></rc>
   </set>
  </array>
 </atominfo>
 <structure name="initialpos" >
  <crystal>
   <varray name="basis" >
    <v>       0.00000000       2.75000000       2.75000000 </v>
    <v>       2.75000000       0.00000000       2.75000000 </v>
    <v>       2.75000000       2.75000000       0.00000000 </v>
   </varray>
   <i name="volume">     41.59375000 </i>
   <varray name="rec_basis" >
    <v>      -0.18181818       0.18181818       0.18181818 </v>
    <v>       0.18181818      -0.18181818       0.18181818 </v>
    <v>       0.18181818       0.18181818      -0.18181818 </v>
   </varray>
  </crystal>
  <varray name="positions" >
   <v>       0.87500000       0.87500000       0.87500000 </v>
   <v>       0.12500000       0.12500000       0.12500000 </v>
  </varray>
 </structure>
 <calculation>
  <scstep>
   <time name="dav">    0.05    0.05</time>
   <time name="total">    0.06    0.06</time>
   <energy>
    <i name="alphaZ">      3.23732588 </i>
    <i name="ewald">   -225.65453461 </i>
    <i name="hartreedc">     -3.31954979 </i>
    <i name="XCdc">    -18.86173570 </i>
    <i name="pawpsdc">  40644.10306073 </i>
    <i name="pawaedc"> -40607.87221542 </i>
    <i name="eentropy">     -0.00185270 </i>
    <i name="bandstr">      0.46790510 </i>
    <i name="atom">    206.12155316 </i>
    <i name="e_fr_energy">     -1.78004335 </i>
    <i name="e_wo_entrp">     -1.77819066 </i>
    <i name="e_0_energy">     -1.77911700 </i>
   </energy>
  </scstep>
  <scstep>
   <time name="dav">    0.09    0.09</time>
   <time name="total">    0.09    0.09</time>
   <energy>
    <i name="e_fr_energy">    -13.27029069 </i>
    <i name="e_wo_entrp">    -13.27029069 </i>
    <i name="e_0_energy">    -13.27029069 </i>
   </energy>
  </scstep>
  <scstep>
   <time name="dav">    0.07    0.07</time>
   <time name="total">    0.07    0.08</time>
   <energy>
    <i name="e_fr_energy">    -13.43086886 </i>
    <i name="e_wo_entrp">    -13.43086886 </i>
    <i name="e_0_energy">    -13.43086886 </i>
   </energy>
  </scstep>
  <scstep>
   <time name="dav">    0.08    0.08</time>
   <time name="total">    0.08    0.08</time>
   <energy>
    <i name="e_fr_energy">    -13.43145125 </i>
    <i name="e_wo_entrp">    -13.43145125 </i>
    <i name="e_0_energy">    -13.43145125 </i>
   </energy>
  </scstep>
  <scstep>
   <time name="dav">    0.08    0.08</time>
   <time name="total">    0.08    0.08</time>
   <energy>
    <i name="e_fr_energy">    -13.43145217 </i>
    <i name="e_wo_entrp">    -13.43145217 </i>
    <i name="e_0_energy">    -13.43145217 </i>
   </energy>
  </scstep>
  <scstep>
   <time name="dav">    0.06    0.06</time>
   <time name="total">    0.06    0.06</time>
   <energy>
    <i name="alphaZ">      3.23732588 </i>
    <i name="ewald">   -225.65453461 </i>
    <i name="hartreedc">     -3.31954979 </i>
    <i name="XCdc">    -18.86173570 </i>
    <i name="pawpsdc">  40644.10306073 </i>
    <i name="pawaedc"> -40607.87221542 </i>
    <i name="eentropy">     -0.00000000 </i>
    <i name="bandstr">    -11.18535643 </i>
    <i name="atom">    206.12155316 </i>
    <i name="e_fr_energy">    -13.43145219 </i>
    <i name="e_wo_entrp">    -13.43145219 </i>
    <i name="e_0_energy">    -13.43145219 </i>
   </energy>
  </scstep>
  <structure>
   <crystal>
    <varray name="basis" >
     <v>       0.00000000       2.75000000       2.75000000 </v>
     <v>       2.75000000       0.00000000       2.75000000 </v>
     <v>       2.75000000       2.75000000       0.00000000 </v>
    </varray>
    <i name="volume">     41.59375000 </i>
    <varray name="rec_basis" >
     <v>      -0.18181818       0.18181818       0.18181818 </v>
     <v>       0.18181818      -0.18181818       0.18181818 </v>
     <v>       0.18181818       0.18181818      -0.18181818 </v>
    </varray>
   </crystal>
   <varray name="positions" >
    <v>       0.87500000       0.87500000       0.87500000 </v>
    <v>       0.12500000       0.12500000       0.12500000 </v>
   </varray>
  </structure>
  <varray name="forces" >
   <v>       0.00000000       0.00000000       0.00000000 </v>
   <v>      -0.00000000      -0.00000000      -0.00000000 </v>
  </varray>
  <varray name="stress" >
   <v>     732.50465167       0.00000000      -0.00000000 </v>
   <v>       0.00000000     732.50465167      -0.00000000 </v>
   <v>      -0.00000000       0.00000000     732.50465167 </v>
  </varray>
  <energy>
   <i name="e_fr_energy">    -13.43145219 </i>
   <i name="e_wo_entrp">    -13.43145219 </i>
   <i name="e_0_energy">    -13.43145219 </i>
  </energy>
  <time name="totalsc">    0.56    0.58</time>
  <eigenvalues>
   <array>
    <dimension dim="1">band</dimension>
    <dimension dim="2">kpoint</dimension>
    <dimension dim="3">spin</dimension>
    <field>eigene</field>
    <field>occ</field>
    <set>
     <set comment="spin 1">
      <set comment="kpoint 1">
       <r>   -6.4785    1.0000 </r>
       <r>   -3.3605    1.0000 </r>
       <r>    1.7747    1.0000 </r>
       <r>    1.7747    1.0000 </r>
       <r>    4.9155    0.0000 </r>
       <r>    7.5854    0.0000 </r>
       <r>    7.5854    0.0000 </r>
       <r>   12.7761    0.0000 </r>
      </set>
      <set comment="kpoint 2">
       <r>   -6.5929    1.0000 </r>
       <r>   -3.1788    1.0000 </r>
       <r>    1.7934    1.0000 </r>
       <r>    1.7934    1.0000 </r>
       <r>    4.9386    0.0000 </r>
       <r>    7.5836    0.0000 </r>
       <r>    7.5836    0.0000 </r>
       <r>   12.5674    0.0000 </r>
      </set>
      <set comment="kpoint 3">
       <r>   -6.8711    1.0000 </r>
       <r>   -2.6975    1.0000 </r>
       <r>    1.8537    1.0000 </r>
       <r>    1.8537    1.0000 </r>
       <r>    5.0093    0.0000 </r>
       <r>    7.5740    0.0000 </r>
       <r>    7.5740    0.0000 </r>
       <r>   11.9114    0.0000 </r>
      </set>
      <set comment="kpoint 4">
       <r>   -7.2094    1.0000 </r>
       <r>   -2.0218    1.0000 </r>
       <r>    1.9516    1.0000 </r>
       <r>    1.9516    1.0000 </r>
       <r>    5.1199    0.0000 </r>
       <r>    7.5289    0.0000 </r>
       <r>    7.5289    0.0000 </r>
       <r>   10.9785    0.0000 </r>
      </set>
      <set comment="kpoint 5">
       <r>   -7.5424    1.0000 </r>
       <r>   -1.2270    1.0000 </r>
       <r>    2.0817    1.0000 </r>
       <r>    2.0817    1.0000 </r>
       <r>    5.2631    0.0000 </r>
       <r>    7.4136    0.0000 </r>
       <r>    7.4136    0.0000 </r>
       <r>    9.9543    0.0000 </r>
      </set>
      <set comment="kpoint 6">
       <r>   -7.8367    1.0000 </r>
       <r>   -0.3537    1.0000 </r>
       <r>    2.2359    1.0000 </r>
       <r>    2.2359    1.0000 </r>
       <r>    5.4197    0.0000 </r>
       <r>    7.2137    0.0000 </r>
       <r>    7.2137    0.0000 </r>
       <r>    8.9082    0.0000 </r>
      </set>
      <set comment="kpoint 7">
       <r>   -8.0758    1.0000 </r>
       <r>    0.5668    1.0000 </r>
       <r>    2.4010    1.0000 </r>
       <r>    2.4010    1.0000 </r>
       <r>    5.5583    0.0000 </r>
       <r>    6.9555    0.0000 </r>
       <r>    6.9555    0.0000 </r>
       <r>    7.8992    0.0000 </r>
      </set>
      <set comment="kpoint 8">
       <r>   -8.2508    1.0000 </r>
       <r>    1.4909    1.0000 </r>
       <r>    2.5551    1.0000 </r>
       <r>    2.5551    1.0000 </r>
       <r>    5.5898    0.0000 </r>
       <r>    6.6968    0.0000 </r>
       <r>    6.6968    0.0000 </r>
       <r>    7.0268    0.0000 </r>
      </set>
      <set comment="kpoint 9">
       <r>   -8.3575    1.0000 </r>
       <r>    2.3117    1.0000 </r>
       <r>    2.6665    1.0000 </r>
       <r>    2.6665    1.0000 </r>
       <r>    5.3307    0.0000 </r>
       <r>    6.5048    0.0000 </r>
       <r>    6.5048    0.0000 </r>
       <r>    6.5347    0.0000 </r>
      </set>
      <set comment="kpoint 10">
       <r>   -8.3933    1.0000 </r>
       <r>    2.7066    1.0000 </r>
       <r>    2.7067    1.0000 </r>
       <r>    2.7067    1.0000 </r>
       <r>    5.0629    0.0000 </r>
       <r>    6.4335    0.0000 </r>
       <r>    6.4335    0.0000 </r>
       <r>    6.4336    0.0000 </r>
      </set>
      <set comment="kpoint 11">
       <r>   -8.3933    1.0000 </r>
       <r>    2.7066    1.0000 </r>
       <r>    2.7067    1.0000 </r>
       <r>    2.7067    1.0000 </r>
       <r>    5.0629    0.0000 </r>
       <r>    6.4335    0.0000 </r>
       <r>    6.4335    0.0000 </r>
       <r>    6.4336    0.0000 </r>
      </set>
      <set comment="kpoint 12">
       <r>   -8.3456    1.0000 </r>
       <r>    2.3023    1.0000 </r>
       <r>    2.5890    1.0000 </r>
       <r>    2.5890    1.0000 </r>
       <r>    5.4608    0.0000 </r>
       <r>    6.3590    0.0000 </r>
       <r>    6.6152    0.0000 </r>
       <r>    6.6153    0.0000 </r>
      </set>
      <set comment="kpoint 13">
       <r>   -8.2027    1.0000 </r>
       <r>    1.4750    1.0000 </r>
       <r>    2.2922    1.0000 </r>
       <r>    2.2922    1.0000 </r>
       <r>    6.1620    0.0000 </r>
       <r>    6.2329    0.0000 </r>
       <r>    7.0987    0.0000 </r>
       <r>    7.0987    0.0000 </r>
      </set>
      <set comment="kpoint 14">
       <r>   -7.9660    1.0000 </r>
       <r>    0.5425    1.0000 </r>
       <r>    1.9185    1.0000 </r>
       <r>    1.9185    1.0000 </r>
       <r>    5.9016    0.0000 </r>
       <r>    6.9360    0.0000 </r>
       <r>    7.7751    0.0000 </r>
       <r>    7.7752    0.0000 </r>
      </set>
      <set comment="kpoint 15">
       <r>   -7.6371    1.0000 </r>
       <r>   -0.4041    1.0000 </r>
       <r>    1.5467    1.0000 </r>
       <r>    1.5468    1.0000 </r>
       <r>    5.6401    0.0000 </r>
       <r>    7.2321    0.0000 </r>
       <r>    8.5777    0.0000 </r>
       <r>    8.5777    0.0000 </r>
      </set>
      <set comment="kpoint 16">
       <r>   -7.2193    1.0000 </r>
       <r>   -1.3398    1.0000 </r>
       <r>    1.2137    1.0000 </r>
       <r>    1.2137    1.0000 </r>
       <r>    5.4225    0.0000 </r>
       <r>    7.0211    0.0000 </r>
       <r>    9.4608    0.0000 </r>
       <r>    9.4609    0.0000 </r>
      </set>
      <set comment="kpoint 17">
       <r>   -6.7160    1.0000 </r>
       <r>   -2.2513    1.0000 </r>
       <r>    0.9403    1.0000 </r>
       <r>    0.9403    1.0000 </r>
       <r>    5.2788    0.0000 </r>
       <r>    6.5773    0.0000 </r>
       <r>   10.3908    0.0000 </r>
       <r>   10.3908    0.0000 </r>
      </set>
      <set comment="kpoint 18">
       <r>   -6.1328    1.0000 </r>
       <r>   -3.1286    1.0000 </r>
       <r>    0.7373    1.0000 </r>
       <r>    0.7373    1.0000 </r>
       <r>    5.2280    0.0000 </r>
       <r>    6.1175    0.0000 </r>
       <r>   11.3533    0.0000 </r>
       <r>   11.3533    0.0000 </r>
      </set>
      <set comment="kpoint 19">
       <r>   -5.4747    1.0000 </r>
       <r>   -3.9655    1.0000 </r>
       <r>    0.6147    1.0000 </r>
       <r>    0.6147    1.0000 </r>
       <r>    5.2825    0.0000 </r>
       <r>    5.7302    0.0000 </r>
       <r>   12.2647    0.0000 </r>
       <r>   12.2647    0.0000 </r>
      </set>
      <set comment="kpoint 20">
       <r>   -4.7498    1.0000 </r>
       <r>   -4.7498    1.0000 </r>
       <r>    0.5733    1.0000 </r>
       <r>    0.5733    1.0000 </r>
       <r>    5.4494    0.0000 </r>
       <r>    5.4494    0.0000 </r>
       <r>   12.7657    0.0000 </r>
       <r>   12.7658    0.0000 </r>
      </set>
      <set comment="kpoint 21">
       <r>   -4.7498    1.0000 </r>
       <r>   -4.7498    1.0000 </r>
       <r>    0.5733    1.0000 </r>
       <r>    0.5733    1.0000 </r>
       <r>    5.4494    0.0000 </r>
       <r>    5.4494    0.0000 </r>
       <r>   12.7657    0.0000 </r>
       <r>   12.7658    0.0000 </r>
      </set>
      <set comment="kpoint 22">
       <r>   -4.7547    1.0000 </r>
       <r>   -4.7429    1.0000 </r>
       <r>    0.5509    1.0000 </r>
       <r>    0.5776    1.0000 </r>
       <r>    5.4539    0.0000 </r>
       <r>    5.4950    0.0000 </r>
       <r>   12.7273    0.0000 </r>
       <r>   12.7326    0.0000 </r>
      </set>
      <set comment="kpoint 23">
       <r>   -4.7699    1.0000 </r>
       <r>   -4.7221    1.0000 </r>
       <r>    0.4860    1.0000 </r>
       <r>    0.5901    1.0000 </r>
       <r>    5.4673    0.0000 </r>
       <r>    5.6279    0.0000 </r>
       <r>   12.6151    0.0000 </r>
       <r>   12.6354    0.0000 </r>
      </set>
      <set comment="kpoint 24">
       <r>   -4.7955    1.0000 </r>
       <r>   -4.6873    1.0000 </r>
       <r>    0.3892    1.0000 </r>
       <r>    0.6113    1.0000 </r>
       <r>    5.4896    0.0000 </r>
       <r>    5.8414    0.0000 </r>
       <r>   12.4444    0.0000 </r>
       <r>   12.4917    0.0000 </r>
      </set>
      <set comment="kpoint 25">
       <r>   -4.8328    1.0000 </r>
       <r>   -4.6390    1.0000 </r>
       <r>    0.2702    1.0000 </r>
       <r>    0.6399    1.0000 </r>
       <r>    5.5182    0.0000 </r>
       <r>    6.1222    0.0000 </r>
       <r>   12.2235    0.0000 </r>
       <r>   12.3088    0.0000 </r>
      </set>
      <set comment="kpoint 26">
       <r>   -4.8821    1.0000 </r>
       <r>   -4.5764    1.0000 </r>
       <r>    0.1431    1.0000 </r>
       <r>    0.6775    1.0000 </r>
       <r>    5.5572    0.0000 </r>
       <r>    6.4619    0.0000 </r>
       <r>   11.9770    0.0000 </r>
       <r>   12.1118    0.0000 </r>
      </set>
      <set comment="kpoint 27">
       <r>   -4.9450    1.0000 </r>
       <r>   -4.5000    1.0000 </r>
       <r>    0.0173    1.0000 </r>
       <r>    0.7229    1.0000 </r>
       <r>    5.6039    0.0000 </r>
       <r>    6.8493    0.0000 </r>
       <r>   11.7071    0.0000 </r>
       <r>   11.8847    0.0000 </r>
      </set>
      <set comment="kpoint 28">
       <r>   -5.0222    1.0000 </r>
       <r>   -4.4098    1.0000 </r>
       <r>   -0.0984    1.0000 </r>
       <r>    0.7759    1.0000 </r>
       <r>    5.6579    0.0000 </r>
       <r>    7.2762    0.0000 </r>
       <r>   11.4242    0.0000 </r>
       <r>   11.6585    0.0000 </r>
      </set>
      <set comment="kpoint 29">
       <r>   -5.1144    1.0000 </r>
       <r>   -4.3058    1.0000 </r>
       <r>   -0.1973    1.0000 </r>
       <r>    0.8362    1.0000 </r>
       <r>    5.7184    0.0000 </r>
       <r>    7.7357    0.0000 </r>
       <r>   11.1367    0.0000 </r>
       <r>   11.4283    0.0000 </r>
      </set>
      <set comment="kpoint 30">
       <r>   -5.2222    1.0000 </r>
       <r>   -4.1881    1.0000 </r>
       <r>   -0.2756    1.0000 </r>
       <r>    0.9031    1.0000 </r>
       <r>    5.7843    0.0000 </r>
       <r>    8.2201    0.0000 </r>
       <r>   10.8468    0.0000 </r>
       <r>   11.1965    0.0000 </r>
      </set>
      <set comment="kpoint 31">
       <r>   -5.2222    1.0000 </r>
       <r>   -4.1881    1.0000 </r>
       <r>   -0.2756    1.0000 </r>
       <r>    0.9031    1.0000 </r>
       <r>    5.7843    0.0000 </r>
       <r>    8.2201    0.0000 </r>
       <r>   10.8463    0.0000 </r>
       <r>   11.2097    0.0000 </r>
      </set>
      <set comment="kpoint 32">
       <r>   -5.6260    1.0000 </r>
       <r>   -3.7522    1.0000 </r>
       <r>   -0.3574    1.0000 </r>
       <r>    1.1406    1.0000 </r>
       <r>    6.0039    0.0000 </r>
       <r>    9.7648    0.0000 </r>
       <r>    9.9938    0.0000 </r>
       <r>   10.4342    0.0000 </r>
      </set>
      <set comment="kpoint 33">
       <r>   -6.1162    1.0000 </r>
       <r>   -3.1963    1.0000 </r>
       <r>   -0.2158    1.0000 </r>
       <r>    1.4182    1.0000 </r>
       <r>    6.2188    0.0000 </r>
       <r>    9.1938    0.0000 </r>
       <r>    9.4464    0.0000 </r>
       <r>   10.0026    0.0000 </r>
      </set>
      <set comment="kpoint 34">
       <r>   -6.6333    1.0000 </r>
       <r>   -2.5217    1.0000 </r>
       <r>    0.1131    1.0000 </r>
       <r>    1.7150    1.0000 </r>
       <r>    6.3679    0.0000 </r>
       <r>    8.4829    0.0000 </r>
       <r>    8.6722    0.0000 </r>
       <r>    9.6134    0.0000 </r>
      </set>
      <set comment="kpoint 35">
       <r>   -7.1276    1.0000 </r>
       <r>   -1.7352    1.0000 </r>
       <r>    0.5743    1.0000 </r>
       <r>    2.0033    1.0000 </r>
       <r>    6.3912    0.0000 </r>
       <r>    7.8645    0.0000 </r>
       <r>    8.0003    0.0000 </r>
       <r>    9.3544    0.0000 </r>
      </set>
      <set comment="kpoint 36">
       <r>   -7.5633    1.0000 </r>
       <r>   -0.8434    1.0000 </r>
       <r>    1.1182    1.0000 </r>
       <r>    2.2588    1.0000 </r>
       <r>    6.2906    0.0000 </r>
       <r>    7.3545    0.0000 </r>
       <r>    7.4463    0.0000 </r>
       <r>    9.0568    0.0000 </r>
      </set>
      <set comment="kpoint 37">
       <r>   -7.9187    1.0000 </r>
       <r>    0.1387    1.0000 </r>
       <r>    1.6833    1.0000 </r>
       <r>    2.4608    1.0000 </r>
       <r>    6.1088    0.0000 </r>
       <r>    6.9540    0.0000 </r>
       <r>    7.0066    0.0000 </r>
       <r>    8.4135    0.0000 </r>
      </set>
      <set comment="kpoint 38">
       <r>   -8.1800    1.0000 </r>
       <r>    1.1817    1.0000 </r>
       <r>    2.1982    1.0000 </r>
       <r>    2.6013    1.0000 </r>
       <r>    5.8636    0.0000 </r>
       <r>    6.6657    0.0000 </r>
       <r>    6.6932    0.0000 </r>
       <r>    7.4558    0.0000 </r>
      </set>
      <set comment="kpoint 39">
       <r>   -8.3397    1.0000 </r>
       <r>    2.1784    1.0000 </r>
       <r>    2.5702    1.0000 </r>
       <r>    2.6810    1.0000 </r>
       <r>    5.4422    0.0000 </r>
       <r>    6.4916    0.0000 </r>
       <r>    6.4997    0.0000 </r>
       <r>    6.6699    0.0000 </r>
      </set>
      <set comment="kpoint 40">
       <r>   -8.3933    1.0000 </r>
       <r>    2.7066    1.0000 </r>
       <r>    2.7067    1.0000 </r>
       <r>    2.7067    1.0000 </r>
       <r>    5.0629    0.0000 </r>
       <r>    6.4335    0.0000 </r>
       <r>    6.4335    0.0000 </r>
       <r>    6.4336    0.0000 </r>
      </set>
     </set>
    </set>
   </array>
  </eigenvalues>
  <separator name="orbital magnetization" >
   <v name="MAGDIPOLOUT">      0.00000000      0.00000000      0.00000000</v>
  </separator>
  <dos>
   <i name="efermi">      3.20168139 </i>
   <total>
    <array>
     <dimension dim="1">gridpoints</dimension>
     <dimension dim="2">spin</dimension>
     <field>energy</field>
     <field>total</field>
     <field>integrated</field>
     <set>
      <set comment="spin 1">
       <r>    -9.4518     0.0000     0.0000 </r>
       <r>    -9.3742     0.0000     0.0000 </r>
       <r>    -9.2965     0.0000     0.0000 </r>
       <r>    -9.2189     0.0000     0.0000 </r>
       <r>    -9.1413     0.0000     0.0000 </r>
       <r>    -9.0637     0.0000     0.0000 </r>
       <r>    -8.9861     0.0000     0.0000 </r>
       <r>    -8.9084     0.0000     0.0000 </r>
       <r>    -8.8308     0.0000     0.0000 </r>
       <r>    -8.7532     0.0000     0.0000 </r>
       <r>    -8.6756     0.0001     0.0000 </r>
       <r>    -8.5980     0.0040     0.0003 </r>
       <r>    -8.5203     0.0806     0.0066 </r>
       <r>    -8.4427     0.5611     0.0501 </r>
       <r>    -8.3651     1.4426     0.1621 </r>
       <r>    -8.2875     1.5736     0.2842 </r>
       <r>    -8.2098     1.1378     0.3726 </r>
       <r>    -8.1322     0.8452     0.4382 </r>
       <r>    -8.0546     0.5985     0.4846 </r>
       <r>    -7.9770     0.5736     0.5291 </r>
       <r>    -7.8994     0.6657     0.5808 </r>
       <r>    -7.8217     0.5580     0.6241 </r>
       <r>    -7.7441     0.3138     0.6485 </r>
       <r>    -7.6665     0.3045     0.6721 </r>
       <r>    -7.5889     0.5951     0.7183 </r>
       <r>    -7.5113     0.6670     0.7701 </r>
       <r>    -7.4336     0.3240     0.7952 </r>
       <r>    -7.3560     0.0874     0.8020 </r>
       <r>    -7.2784     0.2204     0.8191 </r>
       <r>    -7.2008     0.5924     0.8651 </r>
       <r>    -7.1232     0.6603     0.9164 </r>
       <r>    -7.0455     0.3476     0.9433 </r>
       <r>    -6.9679     0.1330     0.9537 </r>
       <r>    -6.8903     0.2102     0.9700 </r>
       <r>    -6.8127     0.3146     0.9944 </r>
       <r>    -6.7350     0.3711     1.0232 </r>
       <r>    -6.6574     0.5695     1.0674 </r>
       <r>    -6.5798     0.6762     1.1199 </r>
       <r>    -6.5022     0.5399     1.1618 </r>
       <r>    -6.4246     0.3420     1.1884 </r>
       <r>    -6.3469     0.1308     1.1985 </r>
       <r>    -6.2693     0.0453     1.2020 </r>
       <r>    -6.1917     0.1964     1.2173 </r>
       <r>    -6.1141     0.4968     1.2558 </r>
       <r>    -6.0365     0.4299     1.2892 </r>
       <r>    -5.9588     0.1264     1.2990 </r>
       <r>    -5.8812     0.0125     1.3000 </r>
       <r>    -5.8036     0.0042     1.3003 </r>
       <r>    -5.7260     0.0469     1.3039 </r>
       <r>    -5.6483     0.1958     1.3191 </r>
       <r>    -5.5707     0.3138     1.3435 </r>
       <r>    -5.4931     0.3205     1.3684 </r>
       <r>    -5.4155     0.2811     1.3902 </r>
       <r>    -5.3379     0.1755     1.4038 </r>
       <r>    -5.2602     0.3434     1.4305 </r>
       <r>    -5.1826     0.6405     1.4802 </r>
       <r>    -5.1050     0.6346     1.5294 </r>
       <r>    -5.0274     0.5879     1.5751 </r>
       <r>    -4.9498     0.6841     1.6282 </r>
       <r>    -4.8721     1.0293     1.7081 </r>
       <r>    -4.7945     1.9944     1.8629 </r>
       <r>    -4.7169     2.8429     2.0835 </r>
       <r>    -4.6393     2.1017     2.2467 </r>
       <r>    -4.5617     1.0592     2.3289 </r>
       <r>    -4.4840     0.6772     2.3815 </r>
       <r>    -4.4064     0.5589     2.4248 </r>
       <r>    -4.3288     0.5077     2.4643 </r>
       <r>    -4.2512     0.5508     2.5070 </r>
       <r>    -4.1735     0.6402     2.5567 </r>
       <r>    -4.0959     0.4540     2.5919 </r>
       <r>    -4.0183     0.2398     2.6106 </r>
       <r>    -3.9407     0.2764     2.6320 </r>
       <r>    -3.8631     0.2218     2.6492 </r>
       <r>    -3.7854     0.2119     2.6657 </r>
       <r>    -3.7078     0.2712     2.6867 </r>
       <r>    -3.6302     0.1438     2.6979 </r>
       <r>    -3.5526     0.0278     2.7000 </r>
       <r>    -3.4750     0.0334     2.7026 </r>
       <r>    -3.3973     0.1622     2.7152 </r>
       <r>    -3.3197     0.3095     2.7393 </r>
       <r>    -3.2421     0.4292     2.7726 </r>
       <r>    -3.1645     0.7124     2.8279 </r>
       <r>    -3.0868     0.6491     2.8783 </r>
       <r>    -3.0092     0.2428     2.8971 </r>
       <r>    -2.9316     0.0357     2.8999 </r>
       <r>    -2.8540     0.0102     2.9007 </r>
       <r>    -2.7764     0.0767     2.9066 </r>
       <r>    -2.6987     0.2361     2.9249 </r>
       <r>    -2.6211     0.2839     2.9470 </r>
       <r>    -2.5435     0.2734     2.9682 </r>
       <r>    -2.4659     0.2716     2.9893 </r>
       <r>    -2.3883     0.1360     2.9998 </r>
       <r>    -2.3106     0.1305     3.0100 </r>
       <r>    -2.2330     0.2603     3.0302 </r>
       <r>    -2.1554     0.2181     3.0471 </r>
       <r>    -2.0778     0.1710     3.0604 </r>
       <r>    -2.0002     0.2660     3.0810 </r>
       <r>    -1.9225     0.1955     3.0962 </r>
       <r>    -1.8449     0.0839     3.1027 </r>
       <r>    -1.7673     0.1743     3.1162 </r>
       <r>    -1.6897     0.2676     3.1370 </r>
       <r>    -1.6120     0.1411     3.1480 </r>
       <r>    -1.5344     0.0267     3.1500 </r>
       <r>    -1.4568     0.0315     3.1525 </r>
       <r>    -1.3792     0.1643     3.1652 </r>
       <r>    -1.3016     0.3524     3.1926 </r>
       <r>    -1.2239     0.3961     3.2233 </r>
       <r>    -1.1463     0.2598     3.2435 </r>
       <r>    -1.0687     0.0761     3.2494 </r>
       <r>    -0.9911     0.0192     3.2509 </r>
       <r>    -0.9135     0.0920     3.2580 </r>
       <r>    -0.8358     0.2458     3.2771 </r>
       <r>    -0.7582     0.2212     3.2943 </r>
       <r>    -0.6806     0.0668     3.2995 </r>
       <r>    -0.6030     0.0085     3.3001 </r>
       <r>    -0.5253     0.0370     3.3030 </r>
       <r>    -0.4477     0.2685     3.3238 </r>
       <r>    -0.3701     0.8040     3.3863 </r>
       <r>    -0.2925     1.2160     3.4806 </r>
       <r>    -0.2149     1.2265     3.5758 </r>
       <r>    -0.1372     0.9054     3.6461 </r>
       <r>    -0.0596     0.5761     3.6908 </r>
       <r>     0.0180     0.5202     3.7312 </r>
       <r>     0.0956     0.7536     3.7897 </r>
       <r>     0.1732     0.9232     3.8614 </r>
       <r>     0.2509     0.6728     3.9136 </r>
       <r>     0.3285     0.4681     3.9499 </r>
       <r>     0.4061     0.5277     3.9909 </r>
       <r>     0.4837     1.1966     4.0838 </r>
       <r>     0.5613     2.9735     4.3146 </r>
       <r>     0.6390     3.8920     4.6167 </r>
       <r>     0.7166     2.7739     4.8320 </r>
       <r>     0.7942     1.7618     4.9687 </r>
       <r>     0.8718     1.3807     5.0759 </r>
       <r>     0.9495     1.3012     5.1769 </r>
       <r>     1.0271     0.8595     5.2436 </r>
       <r>     1.1047     0.7050     5.2984 </r>
       <r>     1.1823     1.1168     5.3851 </r>
       <r>     1.2599     1.0293     5.4649 </r>
       <r>     1.3376     0.4991     5.5037 </r>
       <r>     1.4152     0.5202     5.5441 </r>
       <r>     1.4928     0.9871     5.6207 </r>
       <r>     1.5704     1.0918     5.7054 </r>
       <r>     1.6480     0.8479     5.7712 </r>
       <r>     1.7257     1.1287     5.8589 </r>
       <r>     1.8033     1.7481     5.9945 </r>
       <r>     1.8809     1.9364     6.1449 </r>
       <r>     1.9585     1.7962     6.2843 </r>
       <r>     2.0362     1.4256     6.3949 </r>
       <r>     2.1138     1.1486     6.4841 </r>
       <r>     2.1914     1.4082     6.5934 </r>
       <r>     2.2690     2.0505     6.7526 </r>
       <r>     2.3466     2.0483     6.9115 </r>
       <r>     2.4243     1.4569     7.0246 </r>
       <r>     2.5019     1.3027     7.1257 </r>
       <r>     2.5795     2.0221     7.2827 </r>
       <r>     2.6571     3.2021     7.5313 </r>
       <r>     2.7347     3.6170     7.8120 </r>
       <r>     2.8124     1.9827     7.9659 </r>
       <r>     2.8900     0.4096     7.9977 </r>
       <r>     2.9676     0.0290     7.9999 </r>
       <r>     3.0452     0.0007     8.0000 </r>
       <r>     3.1228     0.0000     8.0000 </r>
       <r>     3.2005     0.0000     8.0000 </r>
       <r>     3.2781     0.0000     8.0000 </r>
       <r>     3.3557     0.0000     8.0000 </r>
       <r>     3.4333     0.0000     8.0000 </r>
       <r>     3.5110     0.0000     8.0000 </r>
       <r>     3.5886     0.0000     8.0000 </r>
       <r>     3.6662     0.0000     8.0000 </r>
       <r>     3.7438     0.0000     8.0000 </r>
       <r>     3.8214     0.0000     8.0000 </r>
       <r>     3.8991     0.0000     8.0000 </r>
       <r>     3.9767     0.0000     8.0000 </r>
       <r>     4.0543     0.0000     8.0000 </r>
       <r>     4.1319     0.0000     8.0000 </r>
       <r>     4.2095     0.0000     8.0000 </r>
       <r>     4.2872     0.0000     8.0000 </r>
       <r>     4.3648     0.0000     8.0000 </r>
       <r>     4.4424     0.0000     8.0000 </r>
       <r>     4.5200     0.0000     8.0000 </r>
       <r>     4.5977     0.0000     8.0000 </r>
       <r>     4.6753     0.0003     8.0000 </r>
       <r>     4.7529     0.0095     8.0008 </r>
       <r>     4.8305     0.1095     8.0093 </r>
       <r>     4.9081     0.4685     8.0456 </r>
       <r>     4.9858     0.9577     8.1200 </r>
       <r>     5.0634     1.3244     8.2228 </r>
       <r>     5.1410     1.2414     8.3191 </r>
       <r>     5.2186     1.0631     8.4017 </r>
       <r>     5.2962     1.3881     8.5094 </r>
       <r>     5.3739     1.9162     8.6581 </r>
       <r>     5.4515     3.2033     8.9068 </r>
       <r>     5.5291     3.7156     9.1952 </r>
       <r>     5.6067     2.8488     9.4163 </r>
       <r>     5.6843     2.1127     9.5803 </r>
       <r>     5.7620     1.6842     9.7110 </r>
       <r>     5.8396     1.4743     9.8255 </r>
       <r>     5.9172     1.1359     9.9136 </r>
       <r>     5.9948     0.7564     9.9723 </r>
       <r>     6.0725     0.8494    10.0383 </r>
       <r>     6.1501     1.2962    10.1389 </r>
       <r>     6.2277     1.3924    10.2470 </r>
       <r>     6.3053     1.4242    10.3575 </r>
       <r>     6.3829     2.4983    10.5514 </r>
       <r>     6.4606     4.0855    10.8686 </r>
       <r>     6.5382     3.7603    11.1604 </r>
       <r>     6.6158     2.5534    11.3586 </r>
       <r>     6.6934     2.0883    11.5207 </r>
       <r>     6.7710     1.3781    11.6277 </r>
       <r>     6.8487     0.7852    11.6886 </r>
       <r>     6.9263     1.2044    11.7821 </r>
       <r>     7.0039     1.8594    11.9265 </r>
       <r>     7.0815     1.7195    12.0599 </r>
       <r>     7.1591     1.2717    12.1586 </r>
       <r>     7.2368     1.2280    12.2540 </r>
       <r>     7.3144     1.1916    12.3465 </r>
       <r>     7.3920     1.2495    12.4434 </r>
       <r>     7.4696     1.6783    12.5737 </r>
       <r>     7.5473     2.1916    12.7438 </r>
       <r>     7.6249     2.2012    12.9147 </r>
       <r>     7.7025     1.3331    13.0182 </r>
       <r>     7.7801     1.0151    13.0970 </r>
       <r>     7.8577     0.9908    13.1739 </r>
       <r>     7.9354     0.7816    13.2345 </r>
       <r>     8.0130     0.5227    13.2751 </r>
       <r>     8.0906     0.2964    13.2981 </r>
       <r>     8.1682     0.3173    13.3227 </r>
       <r>     8.2458     0.5402    13.3647 </r>
       <r>     8.3235     0.4359    13.3985 </r>
       <r>     8.4011     0.3774    13.4278 </r>
       <r>     8.4787     0.5840    13.4731 </r>
       <r>     8.5563     0.7598    13.5321 </r>
       <r>     8.6340     0.7786    13.5925 </r>
       <r>     8.7116     0.5179    13.6327 </r>
       <r>     8.7892     0.2187    13.6497 </r>
       <r>     8.8668     0.1838    13.6640 </r>
       <r>     8.9444     0.3041    13.6876 </r>
       <r>     9.0221     0.3307    13.7133 </r>
       <r>     9.0997     0.3548    13.7408 </r>
       <r>     9.1773     0.3567    13.7685 </r>
       <r>     9.2549     0.3355    13.7945 </r>
       <r>     9.3325     0.3778    13.8239 </r>
       <r>     9.4102     0.6999    13.8782 </r>
       <r>     9.4878     0.9420    13.9513 </r>
       <r>     9.5654     0.6687    14.0032 </r>
       <r>     9.6430     0.4045    14.0346 </r>
       <r>     9.7206     0.3283    14.0601 </r>
       <r>     9.7983     0.3184    14.0848 </r>
       <r>     9.8759     0.2988    14.1080 </r>
       <r>     9.9535     0.5541    14.1510 </r>
       <r>    10.0311     0.7726    14.2110 </r>
       <r>    10.1088     0.4172    14.2433 </r>
       <r>    10.1864     0.0829    14.2498 </r>
       <r>    10.2640     0.0549    14.2540 </r>
       <r>    10.3416     0.3229    14.2791 </r>
       <r>    10.4192     0.7387    14.3364 </r>
       <r>    10.4969     0.6118    14.3839 </r>
       <r>    10.5745     0.1858    14.3984 </r>
       <r>    10.6521     0.0242    14.4002 </r>
       <r>    10.7297     0.0606    14.4049 </r>
       <r>    10.8073     0.3146    14.4294 </r>
       <r>    10.8850     0.5921    14.4753 </r>
       <r>    10.9626     0.5228    14.5159 </r>
       <r>    11.0402     0.3817    14.5455 </r>
       <r>    11.1178     0.4448    14.5801 </r>
       <r>    11.1955     0.7316    14.6368 </r>
       <r>    11.2731     0.7720    14.6968 </r>
       <r>    11.3507     0.8255    14.7608 </r>
       <r>    11.4283     0.9769    14.8367 </r>
       <r>    11.5059     0.6399    14.8863 </r>
       <r>    11.5836     0.2775    14.9079 </r>
       <r>    11.6612     0.3966    14.9387 </r>
       <r>    11.7388     0.5147    14.9786 </r>
       <r>    11.8164     0.4009    15.0097 </r>
       <r>    11.8940     0.5655    15.0536 </r>
       <r>    11.9717     0.7180    15.1094 </r>
       <r>    12.0493     0.5291    15.1504 </r>
       <r>    12.1269     0.4509    15.1854 </r>
       <r>    12.2045     0.6801    15.2382 </r>
       <r>    12.2821     1.0210    15.3175 </r>
       <r>    12.3598     0.8747    15.3854 </r>
       <r>    12.4374     0.6222    15.4337 </r>
       <r>    12.5150     0.7411    15.4912 </r>
       <r>    12.5926     0.9373    15.5639 </r>
       <r>    12.6703     1.2454    15.6606 </r>
       <r>    12.7479     1.8310    15.8027 </r>
       <r>    12.8255     1.7552    15.9390 </r>
       <r>    12.9031     0.6865    15.9923 </r>
       <r>    12.9807     0.0952    15.9996 </r>
       <r>    13.0584     0.0045    16.0000 </r>
       <r>    13.1360     0.0001    16.0000 </r>
       <r>    13.2136     0.0000    16.0000 </r>
       <r>    13.2912     0.0000    16.0000 </r>
       <r>    13.3688     0.0000    16.0000 </r>
       <r>    13.4465     0.0000    16.0000 </r>
       <r>    13.5241     0.0000    16.0000 </r>
       <r>    13.6017     0.0000    16.0000 </r>
       <r>    13.6793     0.0000    16.0000 </r>
       <r>    13.7570     0.0000    16.0000 </r>
       <r>    13.8346     0.0000    16.0000 </r>
      </set>
     </set>
    </array>
   </total>
   <partial>
    <array>
     <dimension dim="1">gridpoints</dimension>
     <dimension dim="2">spin</dimension>
     <dimension dim="3">ion</dimension>
     <field>energy</field>
     <field>    s</field>
     <field>   py</field>
     <field>   pz</field>
     <field>   px</field>
     <field>  dxy</field>
     <field>  dyz</field>
     <field>  dz2</field>
     <field>  dxz</field>
     <field>x2-y2</field>
     <set>
      <set comment="ion 1">
       <set comment="spin 1">
        <r>    -9.4518     0.0000     0.0000     0.0000     0.0000     0.0000     0.0000     0.0000     0.0000     0.0000 </r>
        <r>    -9.3742     0.0000     0.0000     0.0000     0.0000     0.0000     0.0000     0.0000     0.0000     0.0000 </r>
        <r>    -9.2965     0.0000     0.0000     0.0000     0.0000     0.0000     0.0000     0.0000     0.0000     0.0000 </r>
        <r>    -9.2189     0.0000     0.0000     0.0000     0.0000     0.0000     0.0000     0.0000     0.0000     0.0000 </r>
        <r>    -9.1413     0.0000     0.0000     0.0000     0.0000     0.0000     0.0000     0.0000     0.0000     0.0000 </r>
        <r>    -9.0637     0.0000     0.0000     0.0000     0.0000     0.0000     0.0000     0.0000     0.0000     0.0000 </r>
        <r>    -8.9861     0.0000     0.0000     0.0000     0.0000     0.0000     0.0000     0.0000     0.0000     0.0000 </r>
        <r>    -8.9084     0.0000     0.0000     0.0000     0.0000     0.0000     0.0000     0.0000     0.0000     0.0000 </r>
        <r>    -8.8308     0.0000     0.0000     0.0000     0.0000     0.0000     0.0000     0.0000     0.0000     0.0000 </r>
        <r>    -8.7532     0.0000     0.0000     0.0000     0.0000     0.0000     0.0000     0.0000     0.0000     0.0000 </r>
        <r>    -8.6756     0.0000     0.0000     0.0000     0.0000     0.0000     0.0000     0.0000     0.0000     0.0000 </r>
        <r>    -8.5980     0.0010     0.0000     0.0000     0.0000     0.0000     0.0000     0.0000     0.0000     0.0000 </r>
        <r>    -8.5203     0.0191     0.0000     0.0000     0.0000     0.0000     0.0000     0.0000     0.0000     0.0000 </r>
        <r>    -8.4427     0.1328     0.0000     0.0000     0.0000     0.0000     0.0000     0.0000     0.0000     0.0000 </r>
        <r>    -8.3651     0.3413     0.0001     0.0001     0.0001     0.0000     0.0000     0.0000     0.0000     0.0000 </r>
        <r>    -8.2875     0.3721     0.0003     0.0003     0.0003     0.0000     0.0000     0.0000     0.0000     0.0000 </r>
        <r>    -8.2098     0.2686     0.0005     0.0005     0.0005     0.0000     0.0000     0.0000     0.0000     0.0000 </r>
        <r>    -8.1322     0.1992     0.0006     0.0006     0.0006     0.0000     0.0000     0.0000     0.0000     0.0000 </r>
        <r>    -8.0546     0.1407     0.0006     0.0006     0.0006     0.0000     0.0000     0.0000     0.0000     0.0000 </r>
        <r>    -7.9770     0.1345     0.0008     0.0008     0.0008     0.0000     0.0000     0.0000     0.0000     0.0000 </r>
        <r>    -7.8994     0.1559     0.0011     0.0011     0.0011     0.0000     0.0000     0.0000     0.0000     0.0000 </r>
        <r>    -7.8217     0.1306     0.0010     0.0010     0.0010     0.0000     0.0000     0.0000     0.0000     0.0000 </r>
        <r>    -7.7441     0.0734     0.0006     0.0006     0.0006     0.0000     0.0000     0.0000     0.0000     0.0000 </r>
        <r>    -7.6665     0.0709     0.0008     0.0008     0.0008     0.0000     0.0000     0.0000     0.0000     0.0000 </r>
        <r>    -7.5889     0.1385     0.0017     0.0017     0.0017     0.0000     0.0000     0.0000     0.0000     0.0000 </r>
        <r>    -7.5113     0.1554     0.0019     0.0019     0.0019     0.0000     0.0000     0.0000     0.0000     0.0000 </r>
        <r>    -7.4336     0.0755     0.0009     0.0009     0.0009     0.0000     0.0000     0.0000     0.0000     0.0000 </r>
        <r>    -7.3560     0.0203     0.0003     0.0003     0.0003     0.0000     0.0000     0.0000     0.0000     0.0000 </r>
        <r>    -7.2784     0.0511     0.0009     0.0009     0.0009     0.0000     0.0000     0.0000     0.0000     0.0000 </r>
        <r>    -7.2008     0.1373     0.0025     0.0025     0.0025     0.0000     0.0000     0.0000     0.0000     0.0000 </r>
        <r>    -7.1232     0.1530     0.0028     0.0028     0.0028     0.0000     0.0000     0.0000     0.0000     0.0000 </r>
        <r>    -7.0455     0.0806     0.0015     0.0015     0.0015     0.0000     0.0000     0.0000     0.0000     0.0000 </r>
        <r>    -6.9679     0.0310     0.0006     0.0006     0.0006     0.0000     0.0000     0.0000     0.0000     0.0000 </r>
        <r>    -6.8903     0.0493     0.0009     0.0009     0.0009     0.0000     0.0000     0.0000     0.0000     0.0000 </r>
        <r>    -6.8127     0.0735     0.0015     0.0015     0.0015     0.0000     0.0000     0.0000     0.0000     0.0000 </r>
        <r>    -6.7350     0.0856     0.0021     0.0021     0.0021     0.0000     0.0000     0.0000     0.0000     0.0000 </r>
        <r>    -6.6574     0.1314     0.0033     0.0033     0.0033     0.0000     0.0000     0.0000     0.0000     0.0000 </r>
        <r>    -6.5798     0.1579     0.0036     0.0036     0.0036     0.0000     0.0000     0.0000     0.0000     0.0000 </r>
        <r>    -6.5022     0.1277     0.0027     0.0027     0.0027     0.0000     0.0000     0.0000     0.0000     0.0000 </r>
        <r>    -6.4246     0.0817     0.0016     0.0016     0.0016     0.0000     0.0000     0.0000     0.0000     0.0000 </r>
        <r>    -6.3469     0.0313     0.0006     0.0006     0.0006     0.0000     0.0000     0.0000     0.0000     0.0000 </r>
        <r>    -6.2693     0.0105     0.0003     0.0003     0.0003     0.0000     0.0000     0.0000     0.0000     0.0000 </r>
        <r>    -6.1917     0.0446     0.0016     0.0016     0.0016     0.0000     0.0000     0.0000     0.0000     0.0000 </r>
        <r>    -6.1141     0.1129     0.0040     0.0040     0.0040     0.0000     0.0000     0.0000     0.0000     0.0000 </r>
        <r>    -6.0365     0.0979     0.0034     0.0034     0.0034     0.0000     0.0000     0.0000     0.0000     0.0000 </r>
        <r>    -5.9588     0.0288     0.0010     0.0010     0.0010     0.0000     0.0000     0.0000     0.0000     0.0000 </r>
        <r>    -5.8812     0.0029     0.0001     0.0001     0.0001     0.0000     0.0000     0.0000     0.0000     0.0000 </r>
        <r>    -5.8036     0.0010     0.0000     0.0000     0.0000     0.0000     0.0000     0.0000     0.0000     0.0000 </r>
        <r>    -5.7260     0.0108     0.0004     0.0004     0.0004     0.0000     0.0000     0.0000     0.0000     0.0000 </r>
        <r>    -5.6483     0.0451     0.0017     0.0017     0.0017     0.0000     0.0000     0.0000     0.0000     0.0000 </r>
        <r>    -5.5707     0.0718     0.0029     0.0029     0.0029     0.0000     0.0000     0.0000     0.0000     0.0000 </r>
        <r>    -5.4931     0.0718     0.0033     0.0033     0.0033     0.0000     0.0000     0.0000     0.0000     0.0000 </r>
        <r>    -5.4155     0.0621     0.0031     0.0031     0.0031     0.0000     0.0000     0.0000     0.0000     0.0000 </r>
        <r>    -5.3379     0.0391     0.0019     0.0019     0.0019     0.0000     0.0000     0.0000     0.0000     0.0000 </r>
        <r>    -5.2602     0.0780     0.0036     0.0036     0.0036     0.0000     0.0000     0.0000     0.0000     0.0000 </r>
        <r>    -5.1826     0.1456     0.0067     0.0067     0.0067     0.0000     0.0000     0.0000     0.0000     0.0000 </r>
        <r>    -5.1050     0.1439     0.0068     0.0068     0.0068     0.0000     0.0000     0.0000     0.0000     0.0000 </r>
        <r>    -5.0274     0.1324     0.0066     0.0066     0.0066     0.0000     0.0000     0.0000     0.0000     0.0000 </r>
        <r>    -4.9498     0.1526     0.0081     0.0081     0.0081     0.0000     0.0000     0.0000     0.0000     0.0000 </r>
        <r>    -4.8721     0.2264     0.0131     0.0131     0.0131     0.0000     0.0000     0.0000     0.0000     0.0000 </r>
        <r>    -4.7945     0.4329     0.0268     0.0268     0.0268     0.0000     0.0000     0.0000     0.0000     0.0000 </r>
        <r>    -4.7169     0.6134     0.0391     0.0391     0.0391     0.0000     0.0000     0.0000     0.0000     0.0000 </r>
        <r>    -4.6393     0.4519     0.0294     0.0294     0.0294     0.0000     0.0000     0.0000     0.0000     0.0000 </r>
        <r>    -4.5617     0.2264     0.0153     0.0153     0.0153     0.0000     0.0000     0.0000     0.0000     0.0000 </r>
        <r>    -4.4840     0.1436     0.0102     0.0102     0.0102     0.0000     0.0000     0.0000     0.0000     0.0000 </r>
        <r>    -4.4064     0.1177     0.0087     0.0087     0.0087     0.0000     0.0000     0.0000     0.0000     0.0000 </r>
        <r>    -4.3288     0.1063     0.0081     0.0081     0.0081     0.0000     0.0000     0.0000     0.0000     0.0000 </r>
        <r>    -4.2512     0.1145     0.0091     0.0091     0.0091     0.0000     0.0000     0.0000     0.0000     0.0000 </r>
        <r>    -4.1735     0.1324     0.0108     0.0108     0.0108     0.0000     0.0000     0.0000     0.0000     0.0000 </r>
        <r>    -4.0959     0.0938     0.0077     0.0077     0.0077     0.0000     0.0000     0.0000     0.0000     0.0000 </r>
        <r>    -4.0183     0.0499     0.0041     0.0041     0.0041     0.0000     0.0000     0.0000     0.0000     0.0000 </r>
        <r>    -3.9407     0.0579     0.0047     0.0047     0.0047     0.0000     0.0000     0.0000     0.0000     0.0000 </r>
        <r>    -3.8631     0.0461     0.0038     0.0038     0.0038     0.0000     0.0000     0.0000     0.0000     0.0000 </r>
        <r>    -3.7854     0.0427     0.0040     0.0040     0.0040     0.0000     0.0000     0.0000     0.0000     0.0000 </r>
        <r>    -3.7078     0.0542     0.0053     0.0053     0.0053     0.0000     0.0000     0.0000     0.0000     0.0000 </r>
        <r>    -3.6302     0.0287     0.0028     0.0028     0.0028     0.0000     0.0000     0.0000     0.0000     0.0000 </r>
        <r>    -3.5526     0.0054     0.0006     0.0006     0.0006     0.0000     0.0000     0.0000     0.0000     0.0000 </r>
        <r>    -3.4750     0.0047     0.0010     0.0010     0.0010     0.0000     0.0000     0.0000     0.0000     0.0000 </r>
        <r>    -3.3973     0.0226     0.0050     0.0050     0.0050     0.0000     0.0000     0.0000     0.0000     0.0000 </r>
        <r>    -3.3197     0.0443     0.0094     0.0094     0.0094     0.0000     0.0000     0.0000     0.0000     0.0000 </r>
        <r>    -3.2421     0.0690     0.0118     0.0118     0.0118     0.0000     0.0000     0.0000     0.0000     0.0000 </r>
        <r>    -3.1645     0.1233     0.0182     0.0182     0.0182     0.0000     0.0000     0.0000     0.0000     0.0000 </r>
        <r>    -3.0868     0.1163     0.0159     0.0159     0.0159     0.0000     0.0000     0.0000     0.0000     0.0000 </r>
        <r>    -3.0092     0.0452     0.0057     0.0057     0.0057     0.0000     0.0000     0.0000     0.0000     0.0000 </r>
        <r>    -2.9316     0.0069     0.0008     0.0008     0.0008     0.0000     0.0000     0.0000     0.0000     0.0000 </r>
        <r>    -2.8540     0.0015     0.0003     0.0003     0.0003     0.0000     0.0000     0.0000     0.0000     0.0000 </r>
        <r>    -2.7764     0.0108     0.0025     0.0025     0.0025     0.0000     0.0000     0.0000     0.0000     0.0000 </r>
        <r>    -2.6987     0.0333     0.0076     0.0076     0.0076     0.0000     0.0000     0.0000     0.0000     0.0000 </r>
        <r>    -2.6211     0.0417     0.0089     0.0089     0.0089     0.0000     0.0000     0.0000     0.0000     0.0000 </r>
        <r>    -2.5435     0.0460     0.0077     0.0077     0.0077     0.0000     0.0000     0.0000     0.0000     0.0000 </r>
        <r>    -2.4659     0.0485     0.0072     0.0072     0.0072     0.0000     0.0000     0.0000     0.0000     0.0000 </r>
        <r>    -2.3883     0.0247     0.0035     0.0035     0.0035     0.0000     0.0000     0.0000     0.0000     0.0000 </r>
        <r>    -2.3106     0.0250     0.0032     0.0032     0.0032     0.0000     0.0000     0.0000     0.0000     0.0000 </r>
        <r>    -2.2330     0.0504     0.0063     0.0063     0.0063     0.0000     0.0000     0.0000     0.0000     0.0000 </r>
        <r>    -2.1554     0.0413     0.0055     0.0055     0.0055     0.0000     0.0000     0.0000     0.0000     0.0000 </r>
        <r>    -2.0778     0.0265     0.0054     0.0054     0.0054     0.0000     0.0000     0.0000     0.0000     0.0000 </r>
        <r>    -2.0002     0.0369     0.0092     0.0092     0.0092     0.0000     0.0000     0.0000     0.0000     0.0000 </r>
        <r>    -1.9225     0.0270     0.0068     0.0068     0.0068     0.0000     0.0000     0.0000     0.0000     0.0000 </r>
        <r>    -1.8449     0.0126     0.0028     0.0028     0.0028     0.0000     0.0000     0.0000     0.0000     0.0000 </r>
        <r>    -1.7673     0.0290     0.0053     0.0053     0.0053     0.0000     0.0000     0.0000     0.0000     0.0000 </r>
        <r>    -1.6897     0.0446     0.0082     0.0082     0.0082     0.0000     0.0000     0.0000     0.0000     0.0000 </r>
        <r>    -1.6120     0.0235     0.0043     0.0043     0.0043     0.0000     0.0000     0.0000     0.0000     0.0000 </r>
        <r>    -1.5344     0.0045     0.0008     0.0008     0.0008     0.0000     0.0000     0.0000     0.0000     0.0000 </r>
        <r>    -1.4568     0.0057     0.0009     0.0009     0.0009     0.0000     0.0000     0.0000     0.0000     0.0000 </r>
        <r>    -1.3792     0.0294     0.0048     0.0048     0.0048     0.0000     0.0000     0.0000     0.0000     0.0000 </r>
        <r>    -1.3016     0.0600     0.0108     0.0108     0.0108     0.0000     0.0000     0.0000     0.0000     0.0000 </r>
        <r>    -1.2239     0.0602     0.0135     0.0135     0.0135     0.0000     0.0000     0.0000     0.0000     0.0000 </r>
        <r>    -1.1463     0.0358     0.0095     0.0095     0.0095     0.0000     0.0000     0.0000     0.0000     0.0000 </r>
        <r>    -1.0687     0.0102     0.0028     0.0028     0.0028     0.0000     0.0000     0.0000     0.0000     0.0000 </r>
        <r>    -0.9911     0.0028     0.0007     0.0007     0.0007     0.0000     0.0000     0.0000     0.0000     0.0000 </r>
        <r>    -0.9135     0.0139     0.0033     0.0033     0.0033     0.0000     0.0000     0.0000     0.0000     0.0000 </r>
        <r>    -0.8358     0.0371     0.0088     0.0088     0.0088     0.0000     0.0000     0.0000     0.0000     0.0000 </r>
        <r>    -0.7582     0.0334     0.0079     0.0079     0.0079     0.0000     0.0000     0.0000     0.0000     0.0000 </r>
        <r>    -0.6806     0.0101     0.0024     0.0024     0.0024     0.0000     0.0000     0.0000     0.0000     0.0000 </r>
        <r>    -0.6030     0.0013     0.0003     0.0003     0.0003     0.0000     0.0000     0.0000     0.0000     0.0000 </r>
        <r>    -0.5253     0.0050     0.0015     0.0015     0.0015     0.0000     0.0000     0.0000     0.0000     0.0000 </r>
        <r>    -0.4477     0.0309     0.0115     0.0115     0.0115     0.0000     0.0000     0.0000     0.0000     0.0000 </r>
        <r>    -0.3701     0.0700     0.0386     0.0386     0.0386     0.0000     0.0000     0.0000     0.0000     0.0000 </r>
        <r>    -0.2925     0.0599     0.0668     0.0668     0.0668     0.0000     0.0000     0.0000     0.0000     0.0000 </r>
        <r>    -0.2149     0.0201     0.0750     0.0750     0.0750     0.0000     0.0000     0.0000     0.0000     0.0000 </r>
        <r>    -0.1372     0.0032     0.0578     0.0578     0.0578     0.0000     0.0000     0.0000     0.0000     0.0000 </r>
        <r>    -0.0596     0.0007     0.0375     0.0375     0.0375     0.0000     0.0000     0.0000     0.0000     0.0000 </r>
        <r>     0.0180     0.0039     0.0336     0.0336     0.0336     0.0000     0.0000     0.0000     0.0000     0.0000 </r>
        <r>     0.0956     0.0205     0.0461     0.0461     0.0461     0.0000     0.0000     0.0000     0.0000     0.0000 </r>
        <r>     0.1732     0.0369     0.0546     0.0546     0.0546     0.0000     0.0000     0.0000     0.0000     0.0000 </r>
        <r>     0.2509     0.0225     0.0411     0.0411     0.0411     0.0000     0.0000     0.0000     0.0000     0.0000 </r>
        <r>     0.3285     0.0049     0.0314     0.0314     0.0314     0.0000     0.0000     0.0000     0.0000     0.0000 </r>
        <r>     0.4061     0.0037     0.0364     0.0364     0.0364     0.0000     0.0000     0.0000     0.0000     0.0000 </r>
        <r>     0.4837     0.0245     0.0803     0.0803     0.0803     0.0000     0.0000     0.0000     0.0000     0.0000 </r>
        <r>     0.5613     0.0632     0.2001     0.2001     0.2001     0.0000     0.0000     0.0000     0.0000     0.0000 </r>
        <r>     0.6390     0.0566     0.2685     0.2685     0.2685     0.0000     0.0000     0.0000     0.0000     0.0000 </r>
        <r>     0.7166     0.0175     0.1972     0.1972     0.1972     0.0000     0.0000     0.0000     0.0000     0.0000 </r>
        <r>     0.7942     0.0019     0.1279     0.1279     0.1279     0.0000     0.0000     0.0000     0.0000     0.0000 </r>
        <r>     0.8718     0.0001     0.1009     0.1009     0.1009     0.0000     0.0000     0.0000     0.0000     0.0000 </r>
        <r>     0.9495     0.0001     0.0951     0.0951     0.0951     0.0000     0.0000     0.0000     0.0000     0.0000 </r>
        <r>     1.0271     0.0012     0.0624     0.0624     0.0624     0.0000     0.0000     0.0000     0.0000     0.0000 </r>
        <r>     1.1047     0.0092     0.0488     0.0488     0.0488     0.0000     0.0000     0.0000     0.0000     0.0000 </r>
        <r>     1.1823     0.0255     0.0753     0.0753     0.0753     0.0000     0.0000     0.0000     0.0000     0.0000 </r>
        <r>     1.2599     0.0247     0.0695     0.0695     0.0695     0.0000     0.0000     0.0000     0.0000     0.0000 </r>
        <r>     1.3376     0.0106     0.0342     0.0342     0.0342     0.0000     0.0000     0.0000     0.0000     0.0000 </r>
        <r>     1.4152     0.0201     0.0341     0.0341     0.0341     0.0000     0.0000     0.0000     0.0000     0.0000 </r>
        <r>     1.4928     0.0487     0.0622     0.0622     0.0622     0.0000     0.0000     0.0000     0.0000     0.0000 </r>
        <r>     1.5704     0.0419     0.0711     0.0711     0.0711     0.0000     0.0000     0.0000     0.0000     0.0000 </r>
        <r>     1.6480     0.0126     0.0597     0.0597     0.0597     0.0000     0.0000     0.0000     0.0000     0.0000 </r>
        <r>     1.7257     0.0019     0.0843     0.0843     0.0843     0.0000     0.0000     0.0000     0.0000     0.0000 </r>
        <r>     1.8033     0.0004     0.1330     0.1330     0.1330     0.0000     0.0000     0.0000     0.0000     0.0000 </r>
        <r>     1.8809     0.0001     0.1474     0.1474     0.1474     0.0000     0.0000     0.0000     0.0000     0.0000 </r>
        <r>     1.9585     0.0000     0.1360     0.1360     0.1360     0.0000     0.0000     0.0000     0.0000     0.0000 </r>
        <r>     2.0362     0.0008     0.1079     0.1079     0.1079     0.0000     0.0000     0.0000     0.0000     0.0000 </r>
        <r>     2.1138     0.0058     0.0859     0.0859     0.0859     0.0000     0.0000     0.0000     0.0000     0.0000 </r>
        <r>     2.1914     0.0169     0.1027     0.1027     0.1027     0.0000     0.0000     0.0000     0.0000     0.0000 </r>
        <r>     2.2690     0.0268     0.1490     0.1490     0.1490     0.0000     0.0000     0.0000     0.0000     0.0000 </r>
        <r>     2.3466     0.0288     0.1485     0.1485     0.1485     0.0000     0.0000     0.0000     0.0000     0.0000 </r>
        <r>     2.4243     0.0148     0.1073     0.1073     0.1073     0.0000     0.0000     0.0000     0.0000     0.0000 </r>
        <r>     2.5019     0.0028     0.0987     0.0987     0.0987     0.0000     0.0000     0.0000     0.0000     0.0000 </r>
        <r>     2.5795     0.0002     0.1542     0.1542     0.1542     0.0000     0.0000     0.0000     0.0000     0.0000 </r>
        <r>     2.6571     0.0000     0.2443     0.2443     0.2443     0.0000     0.0000     0.0000     0.0000     0.0000 </r>
        <r>     2.7347     0.0000     0.2762     0.2762     0.2762     0.0000     0.0000     0.0000     0.0000     0.0000 </r>
        <r>     2.8124     0.0000     0.1514     0.1514     0.1514     0.0000     0.0000     0.0000     0.0000     0.0000 </r>
        <r>     2.8900     0.0000     0.0313     0.0313     0.0313     0.0000     0.0000     0.0000     0.0000     0.0000 </r>
        <r>     2.9676     0.0000     0.0022     0.0022     0.0022     0.0000     0.0000     0.0000     0.0000     0.0000 </r>
        <r>     3.0452     0.0000     0.0001     0.0001     0.0001     0.0000     0.0000     0.0000     0.0000     0.0000 </r>
        <r>     3.1228     0.0000     0.0000     0.0000     0.0000     0.0000     0.0000     0.0000     0.0000     0.0000 </r>
        <r>     3.2005     0.0000     0.0000     0.0000     0.0000     0.0000     0.0000     0.0000     0.0000     0.0000 </r>
        <r>     3.2781     0.0000     0.0000     0.0000     0.0000     0.0000     0.0000     0.0000     0.0000     0.0000 </r>
        <r>     3.3557     0.0000     0.0000     0.0000     0.0000     0.0000     0.0000     0.0000     0.0000     0.0000 </r>
        <r>     3.4333     0.0000     0.0000     0.0000     0.0000     0.0000     0.0000     0.0000     0.0000     0.0000 </r>
        <r>     3.5110     0.0000     0.0000     0.0000     0.0000     0.0000     0.0000     0.0000     0.0000     0.0000 </r>
        <r>     3.5886     0.0000     0.0000     0.0000     0.0000     0.0000     0.0000     0.0000     0.0000     0.0000 </r>
        <r>     3.6662     0.0000     0.0000     0.0000     0.0000     0.0000     0.0000     0.0000     0.0000     0.0000 </r>
        <r>     3.7438     0.0000     0.0000     0.0000     0.0000     0.0000     0.0000     0.0000     0.0000     0.0000 </r>
        <r>     3.8214     0.0000     0.0000     0.0000     0.0000     0.0000     0.0000     0.0000     0.0000     0.0000 </r>
        <r>     3.8991     0.0000     0.0000     0.0000     0.0000     0.0000     0.0000     0.0000     0.0000     0.0000 </r>
        <r>     3.9767     0.0000     0.0000     0.0000     0.0000     0.0000     0.0000     0.0000     0.0000     0.0000 </r>
        <r>     4.0543     0.0000     0.0000     0.0000     0.0000     0.0000     0.0000     0.0000     0.0000     0.0000 </r>
        <r>     4.1319     0.0000     0.0000     0.0000     0.0000     0.0000     0.0000     0.0000     0.0000     0.0000 </r>
        <r>     4.2095     0.0000     0.0000     0.0000     0.0000     0.0000     0.0000     0.0000     0.0000     0.0000 </r>
        <r>     4.2872     0.0000     0.0000     0.0000     0.0000     0.0000     0.0000     0.0000     0.0000     0.0000 </r>
        <r>     4.3648     0.0000     0.0000     0.0000     0.0000     0.0000     0.0000     0.0000     0.0000     0.0000 </r>
        <r>     4.4424     0.0000     0.0000     0.0000     0.0000     0.0000     0.0000     0.0000     0.0000     0.0000 </r>
        <r>     4.5200     0.0000     0.0000     0.0000     0.0000     0.0000     0.0000     0.0000     0.0000     0.0000 </r>
        <r>     4.5977     0.0000     0.0000     0.0000     0.0000     0.0000     0.0000     0.0000     0.0000     0.0000 </r>
        <r>     4.6753     0.0000     0.0000     0.0000     0.0000     0.0000     0.0000     0.0000     0.0000     0.0000 </r>
        <r>     4.7529     0.0016     0.0002     0.0002     0.0002     0.0000     0.0000     0.0000     0.0000     0.0000 </r>
        <r>     4.8305     0.0184     0.0022     0.0022     0.0022     0.0000     0.0000     0.0000     0.0000     0.0000 </r>
        <r>     4.9081     0.0832     0.0091     0.0091     0.0091     0.0000     0.0000     0.0000     0.0000     0.0000 </r>
        <r>     4.9858     0.2079     0.0150     0.0150     0.0150     0.0000     0.0000     0.0000     0.0000     0.0000 </r>
        <r>     5.0634     0.3641     0.0134     0.0134     0.0134     0.0000     0.0000     0.0000     0.0000     0.0000 </r>
        <r>     5.1410     0.3386     0.0130     0.0130     0.0130     0.0000     0.0000     0.0000     0.0000     0.0000 </r>
        <r>     5.2186     0.1748     0.0219     0.0219     0.0219     0.0000     0.0000     0.0000     0.0000     0.0000 </r>
        <r>     5.2962     0.1593     0.0353     0.0353     0.0353     0.0000     0.0000     0.0000     0.0000     0.0000 </r>
        <r>     5.3739     0.2399     0.0465     0.0465     0.0465     0.0000     0.0000     0.0000     0.0000     0.0000 </r>
        <r>     5.4515     0.3566     0.0773     0.0773     0.0773     0.0000     0.0000     0.0000     0.0000     0.0000 </r>
        <r>     5.5291     0.3706     0.0915     0.0915     0.0915     0.0000     0.0000     0.0000     0.0000     0.0000 </r>
        <r>     5.6067     0.2633     0.0748     0.0748     0.0748     0.0000     0.0000     0.0000     0.0000     0.0000 </r>
        <r>     5.6843     0.1591     0.0592     0.0592     0.0592     0.0000     0.0000     0.0000     0.0000     0.0000 </r>
        <r>     5.7620     0.1023     0.0472     0.0472     0.0472     0.0000     0.0000     0.0000     0.0000     0.0000 </r>
        <r>     5.8396     0.1027     0.0430     0.0430     0.0430     0.0000     0.0000     0.0000     0.0000     0.0000 </r>
        <r>     5.9172     0.0921     0.0372     0.0372     0.0372     0.0000     0.0000     0.0000     0.0000     0.0000 </r>
        <r>     5.9948     0.0567     0.0263     0.0263     0.0263     0.0000     0.0000     0.0000     0.0000     0.0000 </r>
        <r>     6.0725     0.0633     0.0284     0.0284     0.0284     0.0000     0.0000     0.0000     0.0000     0.0000 </r>
        <r>     6.1501     0.1042     0.0450     0.0450     0.0450     0.0000     0.0000     0.0000     0.0000     0.0000 </r>
        <r>     6.2277     0.1355     0.0507     0.0507     0.0507     0.0000     0.0000     0.0000     0.0000     0.0000 </r>
        <r>     6.3053     0.1371     0.0593     0.0593     0.0593     0.0000     0.0000     0.0000     0.0000     0.0000 </r>
[...]
       </set>
       <set comment="band 5">
        <r>  0.0537  0.0000  0.0000  0.0830  0.0000  0.0000  0.0000  0.0000  0.0000 </r>
        <r>  0.0537  0.0000  0.0000  0.0830  0.0000  0.0000  0.0000  0.0000  0.0000 </r>
       </set>
       <set comment="band 6">
        <r>  0.0322  0.0317  0.0317  0.0535  0.0000  0.0000  0.0000  0.0000  0.0000 </r>
        <r>  0.0322  0.0317  0.0317  0.0535  0.0000  0.0000  0.0000  0.0000  0.0000 </r>
       </set>
       <set comment="band 7">
        <r>  0.0000  0.1023  0.1031  0.0001  0.0000  0.0000  0.0000  0.0000  0.0000 </r>
        <r>  0.0000  0.1024  0.1029  0.0001  0.0000  0.0000  0.0000  0.0000  0.0000 </r>
       </set>
       <set comment="band 8">
        <r>  0.0416  0.0926  0.0925  0.0194  0.0000  0.0000  0.0000  0.0000  0.0000 </r>
        <r>  0.0397  0.0928  0.0928  0.0221  0.0000  0.0000  0.0000  0.0000  0.0000 </r>
       </set>
      </set>
      <set comment="kpoint 31">
       <set comment="band 1">
        <r>  0.2276  0.0222  0.0044  0.0044  0.0000  0.0000  0.0000  0.0000  0.0000 </r>
        <r>  0.2276  0.0222  0.0044  0.0044  0.0000  0.0000  0.0000  0.0000  0.0000 </r>
       </set>
       <set comment="band 2">
        <r>  0.2064  0.0396  0.0057  0.0057  0.0000  0.0000  0.0000  0.0000  0.0000 </r>
        <r>  0.2064  0.0396  0.0057  0.0057  0.0000  0.0000  0.0000  0.0000  0.0000 </r>
       </set>
       <set comment="band 3">
        <r>  0.0000  0.0504  0.0710  0.0710  0.0000  0.0000  0.0000  0.0000  0.0000 </r>
        <r>  0.0000  0.0504  0.0710  0.0710  0.0000  0.0000  0.0000  0.0000  0.0000 </r>
       </set>
       <set comment="band 4">
        <r>  0.0000  0.0000  0.1101  0.1101  0.0000  0.0000  0.0000  0.0000  0.0000 </r>
        <r>  0.0000  0.0000  0.1101  0.1101  0.0000  0.0000  0.0000  0.0000  0.0000 </r>
       </set>
       <set comment="band 5">
        <r>  0.0537  0.0830  0.0000  0.0000  0.0000  0.0000  0.0000  0.0000  0.0000 </r>
        <r>  0.0537  0.0830  0.0000  0.0000  0.0000  0.0000  0.0000  0.0000  0.0000 </r>
       </set>
       <set comment="band 6">
        <r>  0.0322  0.0535  0.0317  0.0317  0.0000  0.0000  0.0000  0.0000  0.0000 </r>
        <r>  0.0322  0.0535  0.0317  0.0317  0.0000  0.0000  0.0000  0.0000  0.0000 </r>
       </set>
       <set comment="band 7">
        <r>  0.0000  0.0000  0.1030  0.1024  0.0000  0.0000  0.0000  0.0000  0.0000 </r>
        <r>  0.0000  0.0000  0.1024  0.1030  0.0000  0.0000  0.0000  0.0000  0.0000 </r>
       </set>
       <set comment="band 8">
        <r>  0.0337  0.0295  0.0919  0.0942  0.0000  0.0000  0.0000  0.0000  0.0000 </r>
        <r>  0.0464  0.0116  0.0931  0.0901  0.0000  0.0000  0.0000  0.0000  0.0000 </r>
       </set>
      </set>
      <set comment="kpoint 32">
       <set comment="band 1">
        <r>  0.2304  0.0131  0.0066  0.0066  0.0000  0.0000  0.0000  0.0000  0.0000 </r>
        <r>  0.2304  0.0131  0.0066  0.0066  0.0000  0.0000  0.0000  0.0000  0.0000 </r>
       </set>
       <set comment="band 2">
        <r>  0.1996  0.0384  0.0100  0.0100  0.0000  0.0000  0.0000  0.0000  0.0000 </r>
        <r>  0.1996  0.0384  0.0100  0.0100  0.0000  0.0000  0.0000  0.0000  0.0000 </r>
       </set>
       <set comment="band 3">
        <r>  0.0015  0.0699  0.0597  0.0597  0.0000  0.0000  0.0000  0.0000  0.0000 </r>
        <r>  0.0015  0.0699  0.0597  0.0597  0.0000  0.0000  0.0000  0.0000  0.0000 </r>
       </set>
       <set comment="band 4">
        <r>  0.0000  0.0000  0.1111  0.1111  0.0000  0.0000  0.0000  0.0000  0.0000 </r>
        <r>  0.0000  0.0000  0.1111  0.1111  0.0000  0.0000  0.0000  0.0000  0.0000 </r>
       </set>
       <set comment="band 5">
        <r>  0.0598  0.0907  0.0000  0.0000  0.0000  0.0000  0.0000  0.0000  0.0000 </r>
        <r>  0.0598  0.0907  0.0000  0.0000  0.0000  0.0000  0.0000  0.0000  0.0000 </r>
       </set>
       <set comment="band 6">
        <r>  0.0361  0.0840  0.0411  0.0411  0.0000  0.0000  0.0000  0.0000  0.0000 </r>
        <r>  0.0362  0.0840  0.0409  0.0408  0.0000  0.0000  0.0000  0.0000  0.0000 </r>
       </set>
       <set comment="band 7">
        <r>  0.0000  0.0000  0.0957  0.0984  0.0000  0.0000  0.0000  0.0000  0.0000 </r>
        <r>  0.0000  0.0000  0.0983  0.0957  0.0000  0.0000  0.0000  0.0000  0.0000 </r>
       </set>
       <set comment="band 8">
        <r>  0.0132  0.0575  0.0007  0.0007  0.0000  0.0000  0.0000  0.0000  0.0000 </r>
        <r>  0.0124  0.0586  0.0006  0.0006  0.0000  0.0000  0.0000  0.0000  0.0000 </r>
       </set>
      </set>
      <set comment="kpoint 33">
       <set comment="band 1">
        <r>  0.2308  0.0068  0.0075  0.0075  0.0000  0.0000  0.0000  0.0000  0.0000 </r>
        <r>  0.2308  0.0068  0.0075  0.0075  0.0000  0.0000  0.0000  0.0000  0.0000 </r>
       </set>
       <set comment="band 2">
        <r>  0.1906  0.0365  0.0156  0.0156  0.0000  0.0000  0.0000  0.0000  0.0000 </r>
        <r>  0.1906  0.0365  0.0156  0.0156  0.0000  0.0000  0.0000  0.0000  0.0000 </r>
       </set>
       <set comment="band 3">
        <r>  0.0039  0.0867  0.0510  0.0510  0.0000  0.0000  0.0000  0.0000  0.0000 </r>
        <r>  0.0039  0.0867  0.0510  0.0510  0.0000  0.0000  0.0000  0.0000  0.0000 </r>
       </set>
       <set comment="band 4">
        <r>  0.0000  0.0000  0.1123  0.1123  0.0000  0.0000  0.0000  0.0000  0.0000 </r>
        <r>  0.0000  0.0000  0.1123  0.1123  0.0000  0.0000  0.0000  0.0000  0.0000 </r>
       </set>
       <set comment="band 5">
        <r>  0.0703  0.1007  0.0003  0.0003  0.0000  0.0000  0.0000  0.0000  0.0000 </r>
        <r>  0.0703  0.1007  0.0003  0.0003  0.0000  0.0000  0.0000  0.0000  0.0000 </r>
       </set>
       <set comment="band 6">
        <r>  0.0000  0.0000  0.0934  0.0934  0.0000  0.0000  0.0000  0.0000  0.0000 </r>
        <r>  0.0000  0.0000  0.0934  0.0934  0.0000  0.0000  0.0000  0.0000  0.0000 </r>
       </set>
       <set comment="band 7">
        <r>  0.0318  0.1157  0.0083  0.0083  0.0000  0.0000  0.0000  0.0000  0.0000 </r>
        <r>  0.0318  0.1157  0.0083  0.0083  0.0000  0.0000  0.0000  0.0000  0.0000 </r>
       </set>
       <set comment="band 8">
        <r>  0.0551  0.0083  0.0768  0.0769  0.0000  0.0000  0.0000  0.0000  0.0000 </r>
        <r>  0.0551  0.0082  0.0767  0.0767  0.0000  0.0000  0.0000  0.0000  0.0000 </r>
       </set>
      </set>
      <set comment="kpoint 34">
       <set comment="band 1">
        <r>  0.2311  0.0032  0.0072  0.0072  0.0000  0.0000  0.0000  0.0000  0.0000 </r>
        <r>  0.2311  0.0032  0.0072  0.0072  0.0000  0.0000  0.0000  0.0000  0.0000 </r>
       </set>
       <set comment="band 2">
        <r>  0.1799  0.0341  0.0224  0.0224  0.0000  0.0000  0.0000  0.0000  0.0000 </r>
        <r>  0.1799  0.0341  0.0224  0.0224  0.0000  0.0000  0.0000  0.0000  0.0000 </r>
       </set>
       <set comment="band 3">
        <r>  0.0057  0.1023  0.0449  0.0449  0.0000  0.0000  0.0000  0.0000  0.0000 </r>
        <r>  0.0057  0.1023  0.0449  0.0449  0.0000  0.0000  0.0000  0.0000  0.0000 </r>
       </set>
       <set comment="band 4">
        <r>  0.0000  0.0000  0.1137  0.1137  0.0000  0.0000  0.0000  0.0000  0.0000 </r>
        <r>  0.0000  0.0000  0.1137  0.1137  0.0000  0.0000  0.0000  0.0000  0.0000 </r>
       </set>
       <set comment="band 5">
        <r>  0.0864  0.1106  0.0014  0.0014  0.0000  0.0000  0.0000  0.0000  0.0000 </r>
        <r>  0.0864  0.1106  0.0014  0.0014  0.0000  0.0000  0.0000  0.0000  0.0000 </r>
       </set>
       <set comment="band 6">
        <r>  0.0000  0.0000  0.0915  0.0915  0.0000  0.0000  0.0000  0.0000  0.0000 </r>
        <r>  0.0000  0.0000  0.0915  0.0915  0.0000  0.0000  0.0000  0.0000  0.0000 </r>
       </set>
       <set comment="band 7">
        <r>  0.0288  0.1078  0.0116  0.0116  0.0000  0.0000  0.0000  0.0000  0.0000 </r>
        <r>  0.0288  0.1078  0.0116  0.0116  0.0000  0.0000  0.0000  0.0000  0.0000 </r>
       </set>
       <set comment="band 8">
        <r>  0.0553  0.0010  0.0721  0.0721  0.0000  0.0000  0.0000  0.0000  0.0000 </r>
        <r>  0.0553  0.0010  0.0721  0.0720  0.0000  0.0000  0.0000  0.0000  0.0000 </r>
       </set>
      </set>
      <set comment="kpoint 35">
       <set comment="band 1">
        <r>  0.2316  0.0013  0.0059  0.0059  0.0000  0.0000  0.0000  0.0000  0.0000 </r>
        <r>  0.2316  0.0013  0.0059  0.0059  0.0000  0.0000  0.0000  0.0000  0.0000 </r>
       </set>
       <set comment="band 2">
        <r>  0.1667  0.0310  0.0304  0.0304  0.0000  0.0000  0.0000  0.0000  0.0000 </r>
        <r>  0.1667  0.0310  0.0304  0.0304  0.0000  0.0000  0.0000  0.0000  0.0000 </r>
       </set>
       <set comment="band 3">
        <r>  0.0059  0.1182  0.0394  0.0394  0.0000  0.0000  0.0000  0.0000  0.0000 </r>
        <r>  0.0059  0.1182  0.0394  0.0394  0.0000  0.0000  0.0000  0.0000  0.0000 </r>
       </set>
       <set comment="band 4">
        <r>  0.0000  0.0000  0.1147  0.1147  0.0000  0.0000  0.0000  0.0000  0.0000 </r>
        <r>  0.0000  0.0000  0.1147  0.1147  0.0000  0.0000  0.0000  0.0000  0.0000 </r>
       </set>
       <set comment="band 5">
        <r>  0.1074  0.1148  0.0036  0.0036  0.0000  0.0000  0.0000  0.0000  0.0000 </r>
        <r>  0.1074  0.1148  0.0036  0.0036  0.0000  0.0000  0.0000  0.0000  0.0000 </r>
       </set>
       <set comment="band 6">
        <r>  0.0000  0.0000  0.0904  0.0904  0.0000  0.0000  0.0000  0.0000  0.0000 </r>
        <r>  0.0000  0.0000  0.0904  0.0904  0.0000  0.0000  0.0000  0.0000  0.0000 </r>
       </set>
       <set comment="band 7">
        <r>  0.0263  0.0990  0.0184  0.0184  0.0000  0.0000  0.0000  0.0000  0.0000 </r>
        <r>  0.0263  0.0990  0.0184  0.0184  0.0000  0.0000  0.0000  0.0000  0.0000 </r>
       </set>
       <set comment="band 8">
        <r>  0.0545  0.0022  0.0691  0.0692  0.0000  0.0000  0.0000  0.0000  0.0000 </r>
        <r>  0.0545  0.0022  0.0691  0.0692  0.0000  0.0000  0.0000  0.0000  0.0000 </r>
       </set>
      </set>
      <set comment="kpoint 36">
       <set comment="band 1">
        <r>  0.2329  0.0005  0.0042  0.0042  0.0000  0.0000  0.0000  0.0000  0.0000 </r>
        <r>  0.2329  0.0005  0.0042  0.0042  0.0000  0.0000  0.0000  0.0000  0.0000 </r>
       </set>
       <set comment="band 2">
        <r>  0.1509  0.0273  0.0398  0.0398  0.0000  0.0000  0.0000  0.0000  0.0000 </r>
        <r>  0.1509  0.0273  0.0398  0.0398  0.0000  0.0000  0.0000  0.0000  0.0000 </r>
       </set>
       <set comment="band 3">
        <r>  0.0046  0.1374  0.0337  0.0337  0.0000  0.0000  0.0000  0.0000  0.0000 </r>
        <r>  0.0046  0.1374  0.0337  0.0337  0.0000  0.0000  0.0000  0.0000  0.0000 </r>
       </set>
       <set comment="band 4">
        <r>  0.0000  0.0000  0.1155  0.1155  0.0000  0.0000  0.0000  0.0000  0.0000 </r>
        <r>  0.0000  0.0000  0.1155  0.1155  0.0000  0.0000  0.0000  0.0000  0.0000 </r>
       </set>
       <set comment="band 5">
        <r>  0.1309  0.1097  0.0064  0.0064  0.0000  0.0000  0.0000  0.0000  0.0000 </r>
        <r>  0.1309  0.1097  0.0064  0.0064  0.0000  0.0000  0.0000  0.0000  0.0000 </r>
       </set>
       <set comment="band 6">
        <r>  0.0000  0.0000  0.0900  0.0900  0.0000  0.0000  0.0000  0.0000  0.0000 </r>
        <r>  0.0000  0.0000  0.0900  0.0900  0.0000  0.0000  0.0000  0.0000  0.0000 </r>
       </set>
       <set comment="band 7">
        <r>  0.0225  0.0857  0.0288  0.0288  0.0000  0.0000  0.0000  0.0000  0.0000 </r>
        <r>  0.0225  0.0857  0.0288  0.0288  0.0000  0.0000  0.0000  0.0000  0.0000 </r>
       </set>
       <set comment="band 8">
        <r>  0.0601  0.0194  0.0673  0.0673  0.0000  0.0000  0.0000  0.0000  0.0000 </r>
        <r>  0.0601  0.0194  0.0673  0.0673  0.0000  0.0000  0.0000  0.0000  0.0000 </r>
       </set>
      </set>
      <set comment="kpoint 37">
       <set comment="band 1">
        <r>  0.2342  0.0001  0.0025  0.0025  0.0000  0.0000  0.0000  0.0000  0.0000 </r>
        <r>  0.2342  0.0001  0.0025  0.0025  0.0000  0.0000  0.0000  0.0000  0.0000 </r>
       </set>
       <set comment="band 2">
        <r>  0.1312  0.0224  0.0514  0.0514  0.0000  0.0000  0.0000  0.0000  0.0000 </r>
        <r>  0.1312  0.0224  0.0514  0.0514  0.0000  0.0000  0.0000  0.0000  0.0000 </r>
       </set>
       <set comment="band 3">
        <r>  0.0026  0.1614  0.0260  0.0260  0.0000  0.0000  0.0000  0.0000  0.0000 </r>
        <r>  0.0026  0.1614  0.0260  0.0260  0.0000  0.0000  0.0000  0.0000  0.0000 </r>
       </set>
       <set comment="band 4">
        <r>  0.0000  0.0000  0.1157  0.1157  0.0000  0.0000  0.0000  0.0000  0.0000 </r>
        <r>  0.0000  0.0000  0.1157  0.1157  0.0000  0.0000  0.0000  0.0000  0.0000 </r>
       </set>
       <set comment="band 5">
        <r>  0.1600  0.0949  0.0095  0.0095  0.0000  0.0000  0.0000  0.0000  0.0000 </r>
        <r>  0.1600  0.0949  0.0095  0.0095  0.0000  0.0000  0.0000  0.0000  0.0000 </r>
       </set>
       <set comment="band 6">
        <r>  0.0000  0.0000  0.0898  0.0898  0.0000  0.0000  0.0000  0.0000  0.0000 </r>
        <r>  0.0000  0.0000  0.0898  0.0898  0.0000  0.0000  0.0000  0.0000  0.0000 </r>
       </set>
       <set comment="band 7">
        <r>  0.0172  0.0649  0.0435  0.0435  0.0000  0.0000  0.0000  0.0000  0.0000 </r>
        <r>  0.0172  0.0649  0.0435  0.0435  0.0000  0.0000  0.0000  0.0000  0.0000 </r>
       </set>
       <set comment="band 8">
        <r>  0.0673  0.0522  0.0580  0.0580  0.0000  0.0000  0.0000  0.0000  0.0000 </r>
        <r>  0.0673  0.0522  0.0580  0.0580  0.0000  0.0000  0.0000  0.0000  0.0000 </r>
       </set>
      </set>
      <set comment="kpoint 38">
       <set comment="band 1">
        <r>  0.2356  0.0000  0.0012  0.0012  0.0000  0.0000  0.0000  0.0000  0.0000 </r>
        <r>  0.2356  0.0000  0.0012  0.0012  0.0000  0.0000  0.0000  0.0000  0.0000 </r>
       </set>
       <set comment="band 2">
        <r>  0.1032  0.0161  0.0673  0.0673  0.0000  0.0000  0.0000  0.0000  0.0000 </r>
        <r>  0.1032  0.0161  0.0673  0.0673  0.0000  0.0000  0.0000  0.0000  0.0000 </r>
       </set>
       <set comment="band 3">
        <r>  0.0008  0.1902  0.0157  0.0157  0.0000  0.0000  0.0000  0.0000  0.0000 </r>
        <r>  0.0008  0.1902  0.0157  0.0157  0.0000  0.0000  0.0000  0.0000  0.0000 </r>
       </set>
       <set comment="band 4">
        <r>  0.0000  0.0000  0.1154  0.1154  0.0000  0.0000  0.0000  0.0000  0.0000 </r>
        <r>  0.0000  0.0000  0.1154  0.1154  0.0000  0.0000  0.0000  0.0000  0.0000 </r>
       </set>
       <set comment="band 5">
        <r>  0.2123  0.0628  0.0144  0.0144  0.0000  0.0000  0.0000  0.0000  0.0000 </r>
        <r>  0.2123  0.0628  0.0144  0.0144  0.0000  0.0000  0.0000  0.0000  0.0000 </r>
       </set>
       <set comment="band 6">
        <r>  0.0000  0.0000  0.0896  0.0896  0.0000  0.0000  0.0000  0.0000  0.0000 </r>
        <r>  0.0000  0.0000  0.0896  0.0896  0.0000  0.0000  0.0000  0.0000  0.0000 </r>
       </set>
       <set comment="band 7">
        <r>  0.0102  0.0383  0.0628  0.0628  0.0000  0.0000  0.0000  0.0000  0.0000 </r>
        <r>  0.0102  0.0383  0.0628  0.0628  0.0000  0.0000  0.0000  0.0000  0.0000 </r>
       </set>
       <set comment="band 8">
        <r>  0.0528  0.0985  0.0360  0.0360  0.0000  0.0000  0.0000  0.0000  0.0000 </r>
        <r>  0.0529  0.0985  0.0360  0.0360  0.0000  0.0000  0.0000  0.0000  0.0000 </r>
       </set>
      </set>
      <set comment="kpoint 39">
       <set comment="band 1">
        <r>  0.2364  0.0000  0.0003  0.0003  0.0000  0.0000  0.0000  0.0000  0.0000 </r>
        <r>  0.2364  0.0000  0.0003  0.0003  0.0000  0.0000  0.0000  0.0000  0.0000 </r>
       </set>
       <set comment="band 2">
        <r>  0.0543  0.0072  0.0911  0.0911  0.0000  0.0000  0.0000  0.0000  0.0000 </r>
        <r>  0.0543  0.0072  0.0911  0.0911  0.0000  0.0000  0.0000  0.0000  0.0000 </r>
       </set>
       <set comment="band 3">
        <r>  0.0001  0.2173  0.0050  0.0050  0.0000  0.0000  0.0000  0.0000  0.0000 </r>
        <r>  0.0001  0.2173  0.0050  0.0050  0.0000  0.0000  0.0000  0.0000  0.0000 </r>
       </set>
       <set comment="band 4">
        <r>  0.0000  0.0000  0.1148  0.1148  0.0000  0.0000  0.0000  0.0000  0.0000 </r>
        <r>  0.0000  0.0000  0.1148  0.1148  0.0000  0.0000  0.0000  0.0000  0.0000 </r>
       </set>
       <set comment="band 5">
        <r>  0.3091  0.0109  0.0157  0.0157  0.0000  0.0000  0.0000  0.0000  0.0000 </r>
        <r>  0.3091  0.0109  0.0157  0.0157  0.0000  0.0000  0.0000  0.0000  0.0000 </r>
       </set>
       <set comment="band 6">
        <r>  0.0000  0.0000  0.0897  0.0896  0.0000  0.0000  0.0000  0.0000  0.0000 </r>
        <r>  0.0000  0.0000  0.0897  0.0896  0.0000  0.0000  0.0000  0.0000  0.0000 </r>
       </set>
       <set comment="band 7">
        <r>  0.0031  0.0119  0.0815  0.0815  0.0000  0.0000  0.0000  0.0000  0.0000 </r>
        <r>  0.0031  0.0119  0.0815  0.0815  0.0000  0.0000  0.0000  0.0000  0.0000 </r>
       </set>
       <set comment="band 8">
        <r>  0.0089  0.1611  0.0086  0.0086  0.0000  0.0000  0.0000  0.0000  0.0000 </r>
        <r>  0.0089  0.1612  0.0086  0.0086  0.0000  0.0000  0.0000  0.0000  0.0000 </r>
       </set>
      </set>
      <set comment="kpoint 40">
       <set comment="band 1">
        <r>  0.2367  0.0000  0.0000  0.0000  0.0000  0.0000  0.0000  0.0000  0.0000 </r>
        <r>  0.2367  0.0000  0.0000  0.0000  0.0000  0.0000  0.0000  0.0000  0.0000 </r>
       </set>
       <set comment="band 2">
        <r>  0.0000  0.0765  0.0761  0.0765  0.0000  0.0000  0.0000  0.0000  0.0000 </r>
        <r>  0.0000  0.0765  0.0761  0.0765  0.0000  0.0000  0.0000  0.0000  0.0000 </r>
       </set>
       <set comment="band 3">
        <r>  0.0000  0.0379  0.1530  0.0383  0.0000  0.0000  0.0000  0.0000  0.0000 </r>
        <r>  0.0000  0.0379  0.1530  0.0383  0.0000  0.0000  0.0000  0.0000  0.0000 </r>
       </set>
       <set comment="band 4">
        <r>  0.0000  0.1148  0.0000  0.1144  0.0000  0.0000  0.0000  0.0000  0.0000 </r>
        <r>  0.0000  0.1148  0.0000  0.1144  0.0000  0.0000  0.0000  0.0000  0.0000 </r>
       </set>
       <set comment="band 5">
        <r>  0.3734  0.0000  0.0000  0.0000  0.0000  0.0000  0.0000  0.0000  0.0000 </r>
        <r>  0.3734  0.0000  0.0000  0.0000  0.0000  0.0000  0.0000  0.0000  0.0000 </r>
       </set>
       <set comment="band 6">
        <r>  0.0000  0.0348  0.1220  0.0226  0.0000  0.0000  0.0000  0.0000  0.0000 </r>
        <r>  0.0000  0.0348  0.1220  0.0226  0.0000  0.0000  0.0000  0.0000  0.0000 </r>
       </set>
       <set comment="band 7">
        <r>  0.0000  0.0831  0.0005  0.0958  0.0000  0.0000  0.0000  0.0000  0.0000 </r>
        <r>  0.0000  0.0831  0.0005  0.0958  0.0000  0.0000  0.0000  0.0000  0.0000 </r>
       </set>
       <set comment="band 8">
        <r>  0.0000  0.0614  0.0569  0.0610  0.0000  0.0000  0.0000  0.0000  0.0000 </r>
        <r>  0.0000  0.0614  0.0569  0.0610  0.0000  0.0000  0.0000  0.0000  0.0000 </r>
       </set>
      </set>
     </set>
    </set>
   </array>
  </projected>
 </calculation>
 <structure name="finalpos" >
  <crystal>
   <varray name="basis" >
    <v>       0.00000000       2.75000000       2.75000000 </v>
    <v>       2.75000000       0.00000000       2.75000000 </v>
    <v>       2.75000000       2.75000000       0.00000000 </v>
   </varray>
   <i name="volume">     41.59375000 </i>
   <varray name="rec_basis" >
    <v>      -0.18181818       0.18181818       0.18181818 </v>
    <v>       0.18181818      -0.18181818       0.18181818 </v>
    <v>       0.18181818       0.18181818      -0.18181818 </v>
   </varray>
  </crystal>
  <varray name="positions" >
   <v>       0.87500000       0.87500000       0.87500000 </v>
   <v>       0.12500000       0.12500000       0.12500000 </v>
  </varray>
 </structure>
</modeling>
