fcc Ni                                  
   3.60000000000000     
     0.500000    0.500000    0.000000
     0.000000    0.500000    0.500000
     0.500000    0.000000    0.500000
   Ni
     1
Direct
  0.000000  0.000000  0.000000
 
   20   20   20
  161.73      150.97      122.51      85.742      50.995      25.387      11.044      5.5950      4.1754      3.4811    
  3.2660      3.4811      4.1754      5.5950      11.044      25.387      50.995      85.742      122.51      150.97    
  150.97      131.40      99.036      63.891      34.696      15.913      7.1846      4.6351      3.7160      3.2807    
  3.2829      3.7194      4.6347      7.1814      15.913      34.701      63.895      99.031      131.39      150.96    
  122.51      99.036      68.813      40.497      20.030      9.0095      5.1008      3.9579      3.3305      3.1375    
  3.3306      3.9579      5.1007      9.0095      20.030      40.497      68.812      99.035      122.51      131.39    
  85.742      63.891      40.497      21.646      10.247      5.5304      4.1508      3.3985      3.0545      3.0532    
  3.3963      4.1507      5.5321      10.247      21.643      40.495      63.896      85.750      99.035      99.031    
  50.995      34.696      20.030      10.247      5.7142      4.2590      3.4551      3.0151      2.8842      3.0155    
  3.4550      4.2583      5.7141      10.248      20.030      34.696      50.996      63.896      68.812      63.895    
  25.387      15.913      9.0095      5.5304      4.2590      3.4789      3.0030      2.7963      2.7969      3.0038    
  3.4788      4.2588      5.5318      9.0115      15.913      25.384      34.696      40.495      40.497      34.701    
  11.044      7.1846      5.1008      4.1508      3.4551      3.0030      2.7707      2.7017      2.7707      3.0030    
  3.4552      4.1509      5.1007      7.1839      11.043      15.913      20.030      21.643      20.030      15.913    
  5.5950      4.6351      3.9579      3.3985      3.0151      2.7963      2.7017      2.7022      2.7969      3.0145    
  3.3966      3.9563      4.6352      5.5968      7.1839      9.0115      10.248      10.247      9.0095      7.1814    
  4.1754      3.7160      3.3305      3.0545      2.8842      2.7969      2.7707      2.7969      2.8841      3.0544    
  3.3306      3.7165      4.1762      4.6352      5.1007      5.5318      5.7141      5.5321      5.1007      4.6347    
  3.4811      3.2807      3.1375      3.0532      3.0155      3.0038      3.0030      3.0145      3.0544      3.1404    
  3.2825      3.4799      3.7165      3.9563      4.1509      4.2588      4.2583      4.1507      3.9579      3.7194    
  3.2660      3.2829      3.3306      3.3963      3.4550      3.4788      3.4552      3.3966      3.3306      3.2825    
  3.2654      3.2825      3.3306      3.3966      3.4552      3.4788      3.4550      3.3963      3.3306      3.2829    
  3.4811      3.7194      3.9579      4.1507      4.2583      4.2588      4.1509      3.9563      3.7165      3.4799    
  3.2825      3.1404      3.0544      3.0145      3.0030      3.0038      3.0155      3.0532      3.1375      3.2807    
  4.1754      4.6347      5.1007      5.5321      5.7141      5.5318      5.1007      4.6352      4.1762      3.7165    
  3.3306      3.0544      2.8841      2.7969      2.7707      2.7969      2.8842      3.0545      3.3305      3.7160    
  5.5950      7.1814      9.0095      10.247      10.248      9.0115      7.1839      5.5968      4.6352      3.9563    
  3.3966      3.0145      2.7969      2.7022      2.7017      2.7963      3.0151      3.3985      3.9579      4.6351    
  11.044      15.913      20.030      21.643      20.030      15.913      11.043      7.1839      5.1007      4.1509    
  3.4552      3.0030      2.7707      2.7017      2.7707      3.0030      3.4551      4.1508      5.1008      7.1846    
  25.387      34.701      40.497      40.495      34.696      25.384      15.913      9.0115      5.5318      4.2588    
  3.4788      3.0038      2.7969      2.7963      3.0030      3.4789      4.2590      5.5304      9.0095      15.913    
  50.995      63.895      68.812      63.896      50.996      34.696      20.030      10.248      5.7141      4.2583    
  3.4550      3.0155      2.8842      3.0151      3.4551      4.2590      5.7142      10.247      20.030      34.696    
  85.742      99.031      99.035      85.750      63.896      40.495      21.643      10.247      5.5321      4.1507    
  3.3963      3.0532      3.0545      3.3985      4.1508      5.5304      10.247      21.646      40.497      63.891    
  122.51      131.39      122.51      99.035      68.812      40.497      20.030      9.0095      5.1007      3.9579    
  3.3306      3.1375      3.3305      3.9579      5.1008      9.0095      20.030      40.497      68.813      99.036    
  150.97      150.96      131.39      99.031      63.895      34.701      15.913      7.1814      4.6347      3.7194    
  3.2829      3.2807      3.7160      4.6351      7.1846      15.913      34.696      63.891      99.036      131.40    
  150.97      131.40      99.035      63.891      34.696      15.913      7.1848      4.6355      3.7160      3.2805    
  3.2831      3.7197      4.6347      7.1813      15.913      34.701      63.895      99.031      131.39      150.96    
  131.40      106.18      73.788      43.485      21.528      9.5776      5.2450      4.0337      3.3850      3.1849    
  3.3859      4.0331      5.2434      9.5791      21.534      43.490      73.784      106.17      131.39      140.96    
  99.035      73.788      46.836      25.060      11.683      5.9369      4.3051      3.5072      3.1365      3.1353    
  3.5047      4.3041      5.9391      11.687      25.061      46.833      73.785      99.034      114.44      114.44    
  63.891      43.485      25.060      12.526      6.4292      4.4861      3.6125      3.1217      2.9750      3.1226    
  3.6129      4.4852      6.4278      12.524      25.060      43.487      63.896      80.092      86.281      80.088    
  34.696      21.528      11.683      6.4292      4.5544      3.6793      3.1259      2.8837      2.8854      3.1282    
  3.6783      4.5511      6.4278      11.685      21.531      34.697      47.552      55.557      55.557      47.552    
  15.913      9.5776      5.9369      4.4861      3.6793      3.1329      2.8480      2.7633      2.8476      3.1319    
  3.6786      4.4870      5.9390      9.5787      15.912      23.615      30.032      32.537      30.034      23.618    
  7.1848      5.2450      4.3051      3.6125      3.1259      2.8480      2.7286      2.7282      2.8474      3.1261    
  3.6133      4.3049      5.2434      7.1833      10.344      13.811      16.098      16.097      13.809      10.343    
  4.6355      4.0337      3.5072      3.1217      2.8837      2.7633      2.7282      2.7648      2.8851      3.1212    
  3.5047      4.0311      4.6349      5.4146      6.5227      7.5816      8.0213      7.5787      6.5188      5.4122    
  3.7160      3.3850      3.1365      2.9750      2.8854      2.8476      2.8474      2.8851      2.9748      3.1367    
  3.3853      3.7164      4.0937      4.4523      4.7439      4.9331      4.9331      4.7438      4.4520      4.0932    
  3.2805      3.1849      3.1353      3.1226      3.1282      3.1319      3.1261      3.1212      3.1367      3.1881    
  3.2824      3.4184      3.5821      3.7435      3.8627      3.9068      3.8635      3.7454      3.5845      3.4192    
  3.2831      3.3859      3.5047      3.6129      3.6783      3.6786      3.6133      3.5047      3.3853      3.2824    
  3.2111      3.1771      3.1781      3.2007      3.2217      3.2217      3.2007      3.1781      3.1771      3.2114    
  3.7197      4.0331      4.3041      4.4852      4.5511      4.4870      4.3049      4.0311      3.7164      3.4184    
  3.1771      3.0079      2.9069      2.8591      2.8462      2.8592      2.9059      3.0056      3.1756      3.4197    
  4.6347      5.2434      5.9391      6.4278      6.4278      5.9390      5.2434      4.6349      4.0937      3.5821    
  3.1781      2.9069      2.7519      2.6840      2.6841      2.7520      2.9071      3.1780      3.5817      4.0932    
  7.1813      9.5791      11.687      12.524      11.685      9.5787      7.1833      5.4146      4.4523      3.7435    
  3.2007      2.8591      2.6840      2.6309      2.6832      2.8594      3.2028      3.7453      4.4515      5.4117    
  15.913      21.534      25.061      25.060      21.531      15.912      10.344      6.5227      4.7439      3.8627    
  3.2217      2.8462      2.6841      2.6832      2.8449      3.2217      3.8637      4.7441      6.5216      10.343    
  34.701      43.490      46.833      43.487      34.697      23.615      13.811      7.5816      4.9331      3.9068    
  3.2217      2.8592      2.7520      2.8594      3.2217      3.9057      4.9310      7.5798      13.812      23.618    
  63.895      73.784      73.785      63.896      47.552      30.032      16.098      8.0213      4.9331      3.8635    
  3.2007      2.9059      2.9071      3.2028      3.8637      4.9310      8.0191      16.098      30.034      47.553    
  99.031      106.17      99.034      80.092      55.557      32.537      16.097      7.5787      4.7438      3.7454    
  3.1781      3.0056      3.1780      3.7453      4.7441      7.5798      16.098      32.537      55.554      80.088    
  131.39      131.39      114.44      86.281      55.557      30.034      13.809      6.5188      4.4520      3.5845    
  3.1771      3.1756      3.5817      4.4515      6.5216      13.812      30.034      55.554      86.279      114.44    
  150.96      140.96      114.44      80.088      47.552      23.618      10.343      5.4122      4.0932      3.4192    
  3.2114      3.4197      4.0932      5.4117      10.343      23.618      47.553      80.088      114.44      140.96    
  122.51      99.034      68.813      40.498      20.030      9.0094      5.1013      3.9585      3.3304      3.1372    
  3.3310      3.9585      5.1006      9.0094      20.030      40.498      68.812      99.035      122.51      131.39    
  99.034      73.788      46.836      25.061      11.683      5.9370      4.3054      3.5074      3.1364      3.1352    
  3.5050      4.3044      5.9391      11.687      25.061      46.833      73.785      99.033      114.44      114.44    
  68.813      46.836      26.988      13.415      6.7186      4.5650      3.6690      3.1602      3.0071      3.1607    
  3.6690      4.5647      6.7190      13.416      26.987      46.835      68.812      86.279      92.964      86.279    
  40.498      25.061      13.415      7.0417      4.7172      3.7863      3.1939      2.9323      2.9339      3.1967    
  3.7870      4.7155      7.0397      13.414      25.061      40.500      55.558      64.946      64.945      55.555    
  20.030      11.683      6.7186      4.7172      3.8306      3.2217      2.9006      2.8056      2.9010      3.2216    
  3.8300      4.7171      6.7193      11.684      20.030      30.034      38.335      41.573      38.335      30.034    
  9.0094      5.9370      4.5650      3.7863      3.2217      2.8942      2.7531      2.7522      2.8922      3.2203    
  3.7869      4.5674      5.9393      9.0095      13.809      18.948      22.306      22.307      18.951      13.811    
  5.1013      4.3054      3.6690      3.1939      2.9006      2.7531      2.7095      2.7532      2.9008      3.1941    
  3.6688      4.3049      5.1008      6.5215      8.5684      10.467      11.245      10.467      8.5687      6.5219    
  3.9585      3.5074      3.1602      2.9323      2.8056      2.7522      2.7532      2.8078      2.9338      3.1595    
  3.5047      3.9560      4.4520      4.9660      5.5438      5.9613      5.9601      5.5410      4.9638      4.4522    
  3.3304      3.1364      3.0071      2.9339      2.9010      2.8922      2.9008      2.9338      3.0071      3.1367    
  3.3307      3.5820      3.8595      4.1123      4.2878      4.3504      4.2880      4.1124      3.8593      3.5816    
  3.1372      3.1352      3.1607      3.1967      3.2216      3.2203      3.1941      3.1595      3.1367      3.1401    
  3.1770      3.2471      3.3393      3.4289      3.4850      3.4859      3.4311      3.3414      3.2475      3.1750    
  3.3310      3.5050      3.6690      3.7870      3.8300      3.7869      3.6688      3.5047      3.3307      3.1770    
  3.0613      2.9899      2.9586      2.9525      2.9532      2.9522      2.9584      2.9901      3.0617      3.1773    
  3.9585      4.3044      4.5647      4.7155      4.7171      4.5674      4.3049      3.9560      3.5820      3.2471    
  2.9899      2.8186      2.7216      2.6803      2.6800      2.7206      2.8168      2.9887      3.2482      3.5851    
  5.1006      5.9391      6.7190      7.0397      6.7193      5.9393      5.1008      4.4520      3.8595      3.3393    
  2.9586      2.7216      2.5993      2.5623      2.5995      2.7219      2.9586      3.3391      3.8592      4.4518    
  9.0094      11.687      13.416      13.414      11.684      9.0095      6.5215      4.9660      4.1123      3.4289    
  2.9525      2.6803      2.5623      2.5618      2.6799      2.9540      3.4311      4.1124      4.9630      6.5183    
  20.030      25.061      26.987      25.061      20.030      13.809      8.5684      5.5438      4.2878      3.4850    
  2.9532      2.6800      2.5995      2.6799      2.9531      3.4849      4.2879      5.5440      8.5686      13.809    
  40.498      46.833      46.835      40.500      30.034      18.948      10.467      5.9613      4.3504      3.4859    
  2.9522      2.7206      2.7219      2.9540      3.4849      4.3473      5.9600      10.469      18.951      30.035    
  68.812      73.785      68.812      55.558      38.335      22.306      11.245      5.9601      4.2880      3.4311    
  2.9584      2.8168      2.9586      3.4311      4.2879      5.9600      11.245      22.305      38.335      55.558    
  99.035      99.033      86.279      64.946      41.573      22.307      10.467      5.5410      4.1124      3.3414    
  2.9901      2.9887      3.3391      4.1124      5.5440      10.469      22.305      41.568      64.944      86.281    
  122.51      114.44      92.964      64.945      38.335      18.951      8.5687      4.9638      3.8593      3.2475    
  3.0617      3.2482      3.8592      4.9630      8.5686      18.951      38.335      64.944      92.964      114.44    
  131.39      114.44      86.279      55.555      30.034      13.811      6.5219      4.4522      3.5816      3.1750    
  3.1773      3.5851      4.4518      6.5183      13.809      30.035      55.558      86.281      114.44      131.39    
  85.741      63.891      40.498      21.647      10.247      5.5302      4.1513      3.3989      3.0542      3.0529    
  3.3968      4.1512      5.5317      10.247      21.643      40.495      63.895      85.750      99.035      99.031    
  63.891      43.486      25.061      12.526      6.4293      4.4862      3.6129      3.1219      2.9747      3.1225    
  3.6133      4.4854      6.4275      12.524      25.060      43.487      63.895      80.091      86.281      80.087    
  40.498      25.061      13.416      7.0420      4.7172      3.7863      3.1940      2.9323      2.9337      3.1967    
  3.7872      4.7155      7.0395      13.414      25.061      40.499      55.557      64.946      64.945      55.555    
  21.647      12.526      7.0420      4.8041      3.8811      3.2524      2.9199      2.8210      2.9198      3.2537    
  3.8836      4.8052      7.0395      12.522      21.646      32.542      41.574      45.096      41.569      32.538    
  10.247      6.4293      4.7172      3.8811      3.2737      2.9198      2.7681      2.7672      2.9185      3.2744    
  3.8834      4.7183      6.4278      10.245      16.098      22.307      26.351      26.349      22.305      16.098    
  5.5302      4.4862      3.7863      3.2524      2.9198      2.7528      2.7033      2.7520      2.9187      3.2517    
  3.7868      4.4882      5.5323      7.5791      10.466      13.100      14.174      13.103      10.469      7.5792    
  4.1513      3.6129      3.1940      2.9199      2.7681      2.7033      2.7033      2.7682      2.9201      3.1943    
  3.6130      4.1513      4.7441      5.5429      6.5221      7.2282      7.2291      6.5238      5.5441      4.7444    
  3.3989      3.1219      2.9323      2.8210      2.7672      2.7520      2.7682      2.8228      2.9338      3.1216    
  3.3967      3.7435      4.1124      4.4345      4.6681      4.7607      4.6667      4.4333      4.1130      3.7459    
  3.0542      2.9747      2.9337      2.9198      2.9185      2.9187      2.9201      2.9338      2.9746      3.0544    
  3.1783      3.3395      3.5138      3.6634      3.7502      3.7506      3.6641      3.5139      3.3389      3.1776    
  3.0529      3.1225      3.1967      3.2537      3.2744      3.2517      3.1943      3.1216      3.0544      3.0077    
  2.9898      3.0017      3.0340      3.0678      3.0828      3.0694      3.0358      3.0019      2.9879      3.0049    
  3.3968      3.6133      3.7872      3.8836      3.8834      3.7868      3.6130      3.3967      3.1783      2.9898    
  2.8487      2.7582      2.7109      2.6928      2.6925      2.7104      2.7581      2.8491      2.9902      3.1784    
  4.1512      4.4854      4.7155      4.8052      4.7183      4.4882      4.1513      3.7435      3.3395      3.0017    
  2.7582      2.6058      2.5265      2.5022      2.5256      2.6044      2.7574      3.0026      3.3420      3.7459    
  5.5317      6.4275      7.0395      7.0395      6.4278      5.5323      4.7441      4.1124      3.5138      3.0340    
  2.7109      2.5265      2.4456      2.4455      2.5264      2.7110      3.0343      3.5139      4.1121      4.7434    
  10.247      12.524      13.414      12.522      10.245      7.5791      5.5429      4.4345      3.6634      3.0678    
  2.6928      2.5022      2.4455      2.5025      2.6937      3.0690      3.6635      4.4326      5.5402      7.5780    
  21.643      25.060      25.061      21.646      16.098      10.466      6.5221      4.6681      3.7502      3.0828    
  2.6925      2.5256      2.5264      2.6937      3.0826      3.7491      4.6681      6.5238      10.467      16.097    
  40.495      43.487      40.499      32.542      22.307      13.100      7.2282      4.7607      3.7506      3.0694    
  2.7104      2.6044      2.7110      3.0690      3.7491      4.7607      7.2312      13.103      22.307      32.538    
  63.895      63.895      55.557      41.574      26.351      14.174      7.2291      4.6667      3.6641      3.0358    
  2.7581      2.7574      3.0343      3.6635      4.6681      7.2312      14.174      26.349      41.572      55.557    
  85.750      80.091      64.946      45.096      26.349      13.103      6.5238      4.4333      3.5139      3.0019    
  2.8491      3.0026      3.5139      4.4326      6.5238      13.103      26.349      45.094      64.945      80.091    
  99.035      86.281      64.945      41.569      22.305      10.469      5.5441      4.1130      3.3389      2.9879    
  2.9902      3.3420      4.1121      5.5402      10.467      22.307      41.572      64.945      86.279      99.034    
  99.031      80.087      55.555      32.538      16.098      7.5792      4.7444      3.7459      3.1776      3.0049    
  3.1784      3.7459      4.7434      7.5780      16.097      32.538      55.557      80.091      99.034      106.17    
  50.995      34.696      20.030      10.248      5.7137      4.2586      3.4556      3.0153      2.8837      3.0151    
  3.4554      4.2586      5.7136      10.248      20.030      34.696      50.995      63.895      68.813      63.895    
  34.696      21.528      11.684      6.4295      4.5541      3.6792      3.1262      2.8837      2.8849      3.1281    
  3.6787      4.5511      6.4273      11.685      21.531      34.697      47.551      55.557      55.558      47.552    
  20.030      11.684      6.7193      4.7172      3.8301      3.2215      2.9007      2.8054      2.9006      3.2216    
  3.8302      4.7169      6.7188      11.684      20.030      30.034      38.335      41.573      38.335      30.034    
  10.248      6.4295      4.7172      3.8808      3.2733      2.9197      2.7681      2.7671      2.9184      3.2744    
  3.8834      4.7181      6.4276      10.245      16.098      22.307      26.351      26.350      22.306      16.098    
  5.7137      4.5541      3.8301      3.2733      2.9260      2.7532      2.7028      2.7530      2.9261      3.2736    
  3.8300      4.5538      5.7141      8.0194      11.245      14.174      15.364      14.174      11.244      8.0183    
  4.2586      3.6792      3.2215      2.9197      2.7532      2.6831      2.6833      2.7532      2.9187      3.2197    
  3.6784      4.2604      4.9331      5.9601      7.2290      8.1381      8.1393      7.2306      5.9591      4.9302    
  3.4556      3.1262      2.9007      2.7681      2.7028      2.6833      2.7023      2.7679      2.9010      3.1263    
  3.4550      3.8634      4.2878      4.6681      4.9921      5.1292      4.9922      4.6681      4.2879      3.8640    
  3.0153      2.8837      2.8054      2.7671      2.7530      2.7532      2.7679      2.8072      2.8851      3.0148    
  3.2008      3.4295      3.6638      3.8549      3.9608      3.9600      3.8536      3.6639      3.4315      3.2032    
  2.8837      2.8849      2.9006      2.9184      2.9261      2.9187      2.9010      2.8851      2.8839      2.9069    
  2.9586      3.0342      3.1172      3.1823      3.2072      3.1825      3.1173      3.0341      2.9582      2.9065    
  3.0151      3.1281      3.2216      3.2744      3.2736      3.2197      3.1263      3.0148      2.9069      2.8185    
  2.7582      2.7270      2.7179      2.7188      2.7194      2.7191      2.7273      2.7568      2.8161      2.9053    
  3.4554      3.6787      3.8302      3.8834      3.8300      3.6784      3.4550      3.2008      2.9586      2.7582    
  2.6122      2.5193      2.4705      2.4556      2.4703      2.5191      2.6122      2.7582      2.9586      3.2011    
  4.2586      4.5511      4.7169      4.7181      4.5538      4.2604      3.8634      3.4295      3.0342      2.7270    
  2.5193      2.3979      2.3432      2.3427      2.3968      2.5186      2.7277      3.0363      3.4316      3.8638    
  5.7136      6.4273      6.7188      6.4276      5.7141      4.9331      4.2878      3.6638      3.1172      2.7179    
  2.4705      2.3432      2.3047      2.3432      2.4704      2.7179      3.1174      3.6640      4.2876      4.9326    
  10.248      11.685      11.684      10.245      8.0194      5.9601      4.6681      3.8549      3.1823      2.7188    
  2.4556      2.3427      2.3432      2.4567      2.7194      3.1818      3.8533      4.6662      5.9594      8.0207    
  20.030      21.531      20.030      16.098      11.245      7.2290      4.9921      3.9608      3.2072      2.7194    
  2.4703      2.3968      2.4704      2.7194      3.2070      3.9608      4.9923      7.2291      11.245      16.098    
  34.696      34.697      30.034      22.307      14.174      8.1381      5.1292      3.9600      3.1825      2.7191    
  2.5191      2.5186      2.7179      3.1818      3.9608      5.1312      8.1398      14.174      22.306      30.033    
  50.995      47.551      38.335      26.351      15.364      8.1393      4.9922      3.8536      3.1173      2.7273    
  2.6122      2.7277      3.1174      3.8533      4.9923      8.1398      15.364      26.351      38.335      47.551    
  63.895      55.557      41.573      26.350      14.174      7.2306      4.6681      3.6639      3.0341      2.7568    
  2.7582      3.0363      3.6640      4.6662      7.2291      14.174      26.351      41.574      55.557      63.895    
  68.813      55.558      38.335      22.306      11.244      5.9591      4.2879      3.4315      2.9582      2.8161    
  2.9586      3.4316      4.2876      5.9594      11.245      22.306      38.335      55.557      68.812      73.786    
  63.895      47.552      30.034      16.098      8.0183      4.9302      3.8640      3.2032      2.9065      2.9053    
  3.2011      3.8638      4.9326      8.0207      16.098      30.033      47.551      63.895      73.786      73.785    
  25.387      15.913      9.0095      5.5302      4.2583      3.4788      3.0036      2.7965      2.7964      3.0037    
  3.4793      4.2590      5.5313      9.0114      15.914      25.384      34.696      40.495      40.498      34.701    
  15.913      9.5776      5.9373      4.4860      3.6788      3.1329      2.8484      2.7633      2.8471      3.1320    
  3.6791      4.4870      5.9386      9.5788      15.912      23.615      30.032      32.537      30.035      23.618    
  9.0095      5.9373      4.5651      3.7859      3.2211      2.8941      2.7532      2.7520      2.8919      3.2204    
  3.7871      4.5672      5.9390      9.0095      13.809      18.947      22.305      22.307      18.951      13.812    
  5.5302      4.4860      3.7859      3.2518      2.9194      2.7528      2.7034      2.7518      2.9186      3.2518    
  3.7869      4.4880      5.5321      7.5792      10.466      13.100      14.174      13.104      10.470      7.5796    
  4.2583      3.6788      3.2211      2.9194      2.7532      2.6833      2.6833      2.7531      2.9187      3.2198    
  3.6784      4.2603      4.9331      5.9602      7.2292      8.1383      8.1397      7.2311      5.9594      4.9301    
  3.4788      3.1329      2.8941      2.7528      2.6833      2.6630      2.6833      2.7522      2.8922      3.1307    
  3.4786      3.9078      4.3498      4.7613      5.1305      5.2890      5.1311      4.7603      4.3467      3.9052    
  3.0036      2.8484      2.7532      2.7034      2.6833      2.6833      2.7034      2.7529      2.8475      3.0024    
  3.2217      3.4857      3.7500      3.9613      4.0775      4.0774      3.9609      3.7492      3.4851      3.2221    
  2.7965      2.7633      2.7520      2.7518      2.7531      2.7522      2.7529      2.7645      2.7969      2.8587    
  2.9525      3.0683      3.1825      3.2658      3.2957      3.2649      3.1821      3.0694      2.9544      2.8598    
  2.7964      2.8471      2.8919      2.9186      2.9187      2.8922      2.8475      2.7969      2.7519      2.7215    
  2.7107      2.7180      2.7343      2.7468      2.7466      2.7339      2.7180      2.7110      2.7216      2.7516    
  3.0037      3.1320      3.2204      3.2518      3.2198      3.1307      3.0024      2.8587      2.7215      2.6059    
  2.5193      2.4630      2.4334      2.4248      2.4340      2.4633      2.5185      2.6041      2.7202      2.8589    
  3.4793      3.6791      3.7871      3.7869      3.6784      3.4786      3.2217      2.9525      2.7107      2.5193    
  2.3840      2.3003      2.2610      2.2610      2.3003      2.3840      2.5192      2.7105      2.9525      3.2222    
  4.2590      4.4870      4.5672      4.4880      4.2603      3.9078      3.4857      3.0683      2.7180      2.4630    
  2.3003      2.2128      2.1853      2.2123      2.2999      2.4634      2.7193      3.0699      3.4863      3.9071    
  5.5313      5.9386      5.9390      5.5321      4.9331      4.3498      3.7500      3.1825      2.7343      2.4334    
  2.2610      2.1853      2.1856      2.2614      2.4332      2.7339      3.1826      3.7506      4.3501      4.9327    
  9.0114      9.5788      9.0095      7.5792      5.9602      4.7613      3.9613      3.2658      2.7468      2.4248    
  2.2610      2.2123      2.2614      2.4250      2.7465      3.2648      3.9599      4.7605      5.9608      7.5812    
  15.914      15.912      13.809      10.466      7.2292      5.1305      4.0775      3.2957      2.7466      2.4340    
  2.3003      2.2999      2.4332      2.7465      3.2963      4.0774      5.1294      7.2284      10.467      13.811    
  25.384      23.615      18.947      13.100      8.1383      5.2890      4.0774      3.2649      2.7339      2.4633    
  2.3840      2.4634      2.7339      3.2648      4.0774      5.2891      8.1386      13.100      18.948      23.615    
  34.696      30.032      22.305      14.174      8.1397      5.1311      3.9609      3.1821      2.7180      2.5185    
  2.5192      2.7193      3.1826      3.9599      5.1294      8.1386      14.174      22.307      30.034      34.697    
  40.495      32.537      22.307      13.104      7.2311      4.7603      3.7492      3.0694      2.7110      2.6041    
  2.7105      3.0699      3.7506      4.7605      7.2284      13.100      22.307      32.541      40.499      43.487    
  40.498      30.035      18.951      10.470      5.9594      4.3467      3.4851      2.9544      2.7216      2.7202    
  2.9525      3.4863      4.3501      5.9608      10.467      18.948      30.034      40.499      46.835      46.834    
  34.701      23.618      13.812      7.5796      4.9301      3.9052      3.2221      2.8598      2.7516      2.8589    
  3.2222      3.9071      4.9327      7.5812      13.811      23.615      34.697      43.487      46.834      43.491    
  11.042      7.1839      5.1010      4.1509      3.4549      3.0032      2.7714      2.7019      2.7703      3.0031    
  3.4558      4.1511      5.1003      7.1840      11.043      15.913      20.030      21.643      20.030      15.913    
  7.1839      5.2449      4.3055      3.6126      3.1257      2.8483      2.7291      2.7281      2.8470      3.1263    
  3.6138      4.3049      5.2431      7.1836      10.344      13.811      16.097      16.096      13.809      10.342    
  5.1010      4.3055      3.6692      3.1936      2.9003      2.7533      2.7098      2.7530      2.9006      3.1943    