fcc Ni                                  
   3.60000000000000     
     0.500000    0.500000    0.000000
     0.000000    0.500000    0.500000
     0.500000    0.000000    0.500000
   Ni
     1
Direct
  0.000000  0.000000  0.000000
 
   20   20   20
 0.16173030809E+03 0.15096952611E+03 0.12250852113E+03 0.85741765923E+02 0.50995188133E+02
 0.25387471713E+02 0.11043561059E+02 0.55949630866E+01 0.41754358489E+01 0.34811352385E+01
 0.32659948815E+01 0.34811352385E+01 0.41754358489E+01 0.55949630866E+01 0.11043561059E+02
 0.25387471713E+02 0.50995188133E+02 0.85741765923E+02 0.12250852113E+03 0.15096952611E+03
 0.15096952611E+03 0.13140213501E+03 0.99035528915E+02 0.63891485115E+02 0.34695889930E+02
 0.15913269869E+02 0.71846450745E+01 0.46351467725E+01 0.37159842481E+01 0.32806887894E+01
 0.32829297653E+01 0.37193565019E+01 0.46346669264E+01 0.71814082334E+01 0.15913171446E+02
 0.34700626226E+02 0.63894744926E+02 0.99030758644E+02 0.13139206850E+03 0.15096428068E+03
 0.12250852113E+03 0.99035528915E+02 0.68812747565E+02 0.40497200194E+02 0.20029502111E+02
 0.90095084230E+01 0.51008087390E+01 0.39579436143E+01 0.33305034122E+01 0.31374711405E+01
 0.33306263056E+01 0.39579450805E+01 0.51007189953E+01 0.90095429412E+01 0.20029508100E+02
 0.40496848484E+02 0.68812217660E+02 0.99035318865E+02 0.12250862767E+03 0.13139206850E+03
 0.85741765923E+02 0.63891485115E+02 0.40497200194E+02 0.21646444873E+02 0.10247430739E+02
 0.55303722902E+01 0.41507695548E+01 0.33984631169E+01 0.30545482965E+01 0.30532230838E+01
 0.33963188624E+01 0.41507341654E+01 0.55320625638E+01 0.10247169572E+02 0.21642809846E+02
 0.40494687339E+02 0.63895513456E+02 0.85750400101E+02 0.99035318865E+02 0.99030758644E+02
 0.50995188133E+02 0.34695889930E+02 0.20029502111E+02 0.10247430739E+02 0.57142265586E+01
 0.42589707968E+01 0.34551256198E+01 0.30151027189E+01 0.28842405785E+01 0.30154606072E+01
 0.34549612738E+01 0.42583389224E+01 0.57141050870E+01 0.10247890904E+02 0.20029692538E+02
 0.34695811925E+02 0.50995638911E+02 0.63895513456E+02 0.68812217660E+02 0.63894744926E+02
 0.25387471713E+02 0.15913269869E+02 0.90095084230E+01 0.55303722902E+01 0.42589707968E+01
 0.34789492108E+01 0.30029891496E+01 0.27962691917E+01 0.27969195248E+01 0.30038404660E+01
 0.34787598337E+01 0.42587913825E+01 0.55318050933E+01 0.90115197148E+01 0.15912909852E+02
 0.25383669106E+02 0.34695811925E+02 0.40494687339E+02 0.40496848484E+02 0.34700626226E+02
 0.11043561059E+02 0.71846450745E+01 0.51008087390E+01 0.41507695548E+01 0.34551256198E+01
 0.30029891496E+01 0.27706605809E+01 0.27016830369E+01 0.27707279308E+01 0.30030391061E+01
 0.34552307635E+01 0.41509394427E+01 0.51006709001E+01 0.71839302003E+01 0.11042735935E+02
 0.15912909852E+02 0.20029692538E+02 0.21642809846E+02 0.20029508100E+02 0.15913171446E+02
 0.55949630866E+01 0.46351467725E+01 0.39579436143E+01 0.33984631169E+01 0.30151027189E+01
 0.27962691917E+01 0.27016830369E+01 0.27021574227E+01 0.27968846560E+01 0.30145133156E+01
 0.33966009389E+01 0.39562717870E+01 0.46351512051E+01 0.55967741752E+01 0.71839302003E+01
 0.90115197148E+01 0.10247890904E+02 0.10247169572E+02 0.90095429412E+01 0.71814082334E+01
 0.41754358489E+01 0.37159842481E+01 0.33305034122E+01 0.30545482965E+01 0.28842405785E+01
 0.27969195248E+01 0.27707279308E+01 0.27968846560E+01 0.28841017994E+01 0.30543847222E+01
 0.33306036538E+01 0.37165411481E+01 0.41762147916E+01 0.46351512051E+01 0.51006709001E+01
 0.55318050933E+01 0.57141050870E+01 0.55320625638E+01 0.51007189953E+01 0.46346669264E+01
 0.34811352385E+01 0.32806887894E+01 0.31374711405E+01 0.30532230838E+01 0.30154606072E+01
 0.30038404660E+01 0.30030391061E+01 0.30145133156E+01 0.30543847222E+01 0.31403951917E+01
 0.32824940208E+01 0.34799347458E+01 0.37165411481E+01 0.39562717870E+01 0.41509394427E+01
 0.42587913825E+01 0.42583389224E+01 0.41507341654E+01 0.39579450805E+01 0.37193565019E+01
 0.32659948815E+01 0.32829297653E+01 0.33306263056E+01 0.33963188624E+01 0.34549612738E+01
 0.34787598337E+01 0.34552307635E+01 0.33966009389E+01 0.33306036538E+01 0.32824940208E+01
 0.32653679674E+01 0.32824940208E+01 0.33306036538E+01 0.33966009389E+01 0.34552307635E+01
 0.34787598337E+01 0.34549612738E+01 0.33963188624E+01 0.33306263056E+01 0.32829297653E+01
 0.34811352385E+01 0.37193565019E+01 0.39579450805E+01 0.41507341654E+01 0.42583389224E+01
 0.42587913825E+01 0.41509394427E+01 0.39562717870E+01 0.37165411481E+01 0.34799347458E+01
 0.32824940208E+01 0.31403951917E+01 0.30543847222E+01 0.30145133156E+01 0.30030391061E+01
 0.30038404660E+01 0.30154606072E+01 0.30532230838E+01 0.31374711405E+01 0.32806887894E+01
 0.41754358489E+01 0.46346669264E+01 0.51007189953E+01 0.55320625638E+01 0.57141050870E+01
 0.55318050933E+01 0.51006709001E+01 0.46351512051E+01 0.41762147916E+01 0.37165411481E+01
 0.33306036538E+01 0.30543847222E+01 0.28841017994E+01 0.27968846560E+01 0.27707279308E+01
 0.27969195248E+01 0.28842405785E+01 0.30545482965E+01 0.33305034122E+01 0.37159842481E+01
 0.55949630866E+01 0.71814082334E+01 0.90095429412E+01 0.10247169572E+02 0.10247890904E+02
 0.90115197148E+01 0.71839302003E+01 0.55967741752E+01 0.46351512051E+01 0.39562717870E+01
 0.33966009389E+01 0.30145133156E+01 0.27968846560E+01 0.27021574227E+01 0.27016830369E+01
 0.27962691917E+01 0.30151027189E+01 0.33984631169E+01 0.39579436143E+01 0.46351467725E+01
 0.11043561059E+02 0.15913171446E+02 0.20029508100E+02 0.21642809846E+02 0.20029692538E+02
 0.15912909852E+02 0.11042735935E+02 0.71839302003E+01 0.51006709001E+01 0.41509394427E+01
 0.34552307635E+01 0.30030391061E+01 0.27707279308E+01 0.27016830369E+01 0.27706605809E+01
 0.30029891496E+01 0.34551256198E+01 0.41507695548E+01 0.51008087390E+01 0.71846450745E+01
 0.25387471713E+02 0.34700626226E+02 0.40496848484E+02 0.40494687339E+02 0.34695811925E+02
 0.25383669106E+02 0.15912909852E+02 0.90115197148E+01 0.55318050933E+01 0.42587913825E+01
 0.34787598337E+01 0.30038404660E+01 0.27969195248E+01 0.27962691917E+01 0.30029891496E+01
 0.34789492108E+01 0.42589707968E+01 0.55303722902E+01 0.90095084230E+01 0.15913269869E+02
 0.50995188133E+02 0.63894744926E+02 0.68812217660E+02 0.63895513456E+02 0.50995638911E+02
 0.34695811925E+02 0.20029692538E+02 0.10247890904E+02 0.57141050870E+01 0.42583389224E+01
 0.34549612738E+01 0.30154606072E+01 0.28842405785E+01 0.30151027189E+01 0.34551256198E+01
 0.42589707968E+01 0.57142265586E+01 0.10247430739E+02 0.20029502111E+02 0.34695889930E+02
 0.85741765923E+02 0.99030758644E+02 0.99035318865E+02 0.85750400101E+02 0.63895513456E+02
 0.40494687339E+02 0.21642809846E+02 0.10247169572E+02 0.55320625638E+01 0.41507341654E+01
 0.33963188624E+01 0.30532230838E+01 0.30545482965E+01 0.33984631169E+01 0.41507695548E+01
 0.55303722902E+01 0.10247430739E+02 0.21646444873E+02 0.40497200194E+02 0.63891485115E+02
 0.12250852113E+03 0.13139206850E+03 0.12250862767E+03 0.99035318865E+02 0.68812217660E+02
 0.40496848484E+02 0.20029508100E+02 0.90095429412E+01 0.51007189953E+01 0.39579450805E+01
 0.33306263056E+01 0.31374711405E+01 0.33305034122E+01 0.39579436143E+01 0.51008087390E+01
 0.90095084230E+01 0.20029502111E+02 0.40497200194E+02 0.68812747565E+02 0.99035528915E+02
 0.15096952611E+03 0.15096428068E+03 0.13139206850E+03 0.99030758644E+02 0.63894744926E+02
 0.34700626226E+02 0.15913171446E+02 0.71814082334E+01 0.46346669264E+01 0.37193565019E+01
 0.32829297653E+01 0.32806887894E+01 0.37159842481E+01 0.46351467725E+01 0.71846450745E+01
 0.15913269869E+02 0.34695889930E+02 0.63891485115E+02 0.99035528915E+02 0.13140213501E+03
 0.15096901980E+03 0.13140129324E+03 0.99035063192E+02 0.63891399923E+02 0.34695704745E+02
 0.15913049014E+02 0.71847923116E+01 0.46354656695E+01 0.37159704328E+01 0.32805012265E+01
 0.32830780600E+01 0.37196951935E+01 0.46346940875E+01 0.71812838380E+01 0.15913436757E+02
 0.34701177437E+02 0.63895065919E+02 0.99030884427E+02 0.13139233054E+03 0.15096440587E+03
 0.13140129324E+03 0.10618085171E+03 0.73788043561E+02 0.43485405207E+02 0.21527746351E+02
 0.95776202202E+01 0.52449847313E+01 0.40336997039E+01 0.33849598160E+01 0.31849391950E+01
 0.33859246955E+01 0.40331267409E+01 0.52433632681E+01 0.95791353230E+01 0.21533568168E+02
 0.43489792736E+02 0.73784236804E+02 0.10616964788E+03 0.13139146489E+03 0.14095823622E+03
 0.99035063192E+02 0.73788043561E+02 0.46835755545E+02 0.25060358249E+02 0.11683223054E+02
 0.59369470327E+01 0.43050538899E+01 0.35071685760E+01 0.31364936117E+01 0.31352810338E+01
 0.35047198302E+01 0.43041091469E+01 0.59391456706E+01 0.11686623861E+02 0.25061143850E+02
 0.46833020721E+02 0.73784826661E+02 0.99033871495E+02 0.11444278549E+03 0.11444278712E+03
 0.63891399923E+02 0.43485405207E+02 0.25060358249E+02 0.12525735055E+02 0.64292093765E+01
 0.44861435037E+01 0.36125156996E+01 0.31216670133E+01 0.29749751418E+01 0.31226112052E+01
 0.36128518653E+01 0.44852385851E+01 0.64278280306E+01 0.12524439383E+02 0.25059665773E+02
 0.43486855432E+02 0.63895624283E+02 0.80091622169E+02 0.86280956042E+02 0.80087508458E+02
 0.34695704745E+02 0.21527746351E+02 0.11683223054E+02 0.64292093765E+01 0.45544482424E+01
 0.36793215167E+01 0.31258682624E+01 0.28837276505E+01 0.28854273390E+01 0.31282057511E+01
 0.36783490630E+01 0.45511002862E+01 0.64277708051E+01 0.11685235861E+02 0.21530603582E+02
 0.34696741959E+02 0.47551664935E+02 0.55556922889E+02 0.55557432592E+02 0.47552280979E+02
 0.15913049014E+02 0.95776202202E+01 0.59369470327E+01 0.44861435037E+01 0.36793215167E+01
 0.31329409410E+01 0.28479881495E+01 0.27633173903E+01 0.28475553300E+01 0.31319244309E+01
 0.36785964033E+01 0.44870235516E+01 0.59390397543E+01 0.95787324985E+01 0.15911747119E+02
 0.23614781793E+02 0.30032131326E+02 0.32537048472E+02 0.30034237165E+02 0.23617552694E+02
 0.71847923116E+01 0.52449847313E+01 0.43050538899E+01 0.36125156996E+01 0.31258682624E+01
 0.28479881495E+01 0.27285945442E+01 0.27281616672E+01 0.28473653296E+01 0.31260710970E+01
 0.36132540365E+01 0.43048797401E+01 0.52433704768E+01 0.71833365236E+01 0.10343817341E+02
 0.13811001064E+02 0.16097817525E+02 0.16096538641E+02 0.13808718479E+02 0.10343174882E+02
 0.46354656695E+01 0.40336997039E+01 0.35071685760E+01 0.31216670133E+01 0.28837276505E+01
 0.27633173903E+01 0.27281616672E+01 0.27647900045E+01 0.28850712044E+01 0.31211621325E+01
 0.35046869767E+01 0.40310537173E+01 0.46349456335E+01 0.54145835207E+01 0.65227341300E+01
 0.75815958305E+01 0.80213027813E+01 0.75787065666E+01 0.65188259781E+01 0.54121873545E+01
 0.37159704328E+01 0.33849598160E+01 0.31364936117E+01 0.29749751418E+01 0.28854273390E+01
 0.28475553300E+01 0.28473653296E+01 0.28850712044E+01 0.29748217193E+01 0.31366661279E+01
 0.33853404799E+01 0.37164336981E+01 0.40936705936E+01 0.44522834425E+01 0.47439160556E+01
 0.49331457926E+01 0.49331209376E+01 0.47437756888E+01 0.44519550054E+01 0.40932152625E+01
 0.32805012265E+01 0.31849391950E+01 0.31352810338E+01 0.31226112052E+01 0.31282057511E+01
 0.31319244309E+01 0.31260710970E+01 0.31211621325E+01 0.31366661279E+01 0.31880588484E+01
 0.32824017791E+01 0.34183769951E+01 0.35821307570E+01 0.37434559221E+01 0.38626727374E+01
 0.39067870442E+01 0.38634724977E+01 0.37453706052E+01 0.35844560694E+01 0.34191726983E+01
 0.32830780600E+01 0.33859246955E+01 0.35047198302E+01 0.36128518653E+01 0.36783490630E+01
 0.36785964033E+01 0.36132540365E+01 0.35046869767E+01 0.33853404799E+01 0.32824017791E+01
 0.32111231698E+01 0.31771461739E+01 0.31781441601E+01 0.32006961552E+01 0.32216703134E+01
 0.32217227045E+01 0.32007459769E+01 0.31780707025E+01 0.31771066806E+01 0.32114343145E+01
 0.37196951935E+01 0.40331267409E+01 0.43041091469E+01 0.44852385851E+01 0.45511002862E+01
 0.44870235516E+01 0.43048797401E+01 0.40310537173E+01 0.37164336981E+01 0.34183769951E+01
 0.31771461739E+01 0.30079233193E+01 0.29069410303E+01 0.28591160002E+01 0.28462489031E+01
 0.28592121998E+01 0.29058689527E+01 0.30055598902E+01 0.31755981584E+01 0.34196803777E+01
 0.46346940875E+01 0.52433632681E+01 0.59391456706E+01 0.64278280306E+01 0.64277708051E+01
 0.59390397543E+01 0.52433704768E+01 0.46349456335E+01 0.40936705936E+01 0.35821307570E+01
 0.31781441601E+01 0.29069410303E+01 0.27518648602E+01 0.26839795654E+01 0.26840573422E+01
 0.27520415107E+01 0.29070548626E+01 0.31780176654E+01 0.35817477866E+01 0.40932334300E+01
 0.71812838380E+01 0.95791353230E+01 0.11686623861E+02 0.12524439383E+02 0.11685235861E+02
 0.95787324985E+01 0.71833365236E+01 0.54145835207E+01 0.44522834425E+01 0.37434559221E+01
 0.32006961552E+01 0.28591160002E+01 0.26839795654E+01 0.26309310751E+01 0.26832068398E+01
 0.28594464389E+01 0.32028029363E+01 0.37452764397E+01 0.44514855001E+01 0.54117171493E+01
 0.15913436757E+02 0.21533568168E+02 0.25061143850E+02 0.25059665773E+02 0.21530603582E+02
 0.15911747119E+02 0.10343817341E+02 0.65227341300E+01 0.47439160556E+01 0.38626727374E+01
 0.32216703134E+01 0.28462489031E+01 0.26840573422E+01 0.26832068398E+01 0.28449342574E+01
 0.32217053878E+01 0.38637058435E+01 0.47440625639E+01 0.65215748633E+01 0.10343248583E+02
 0.34701177437E+02 0.43489792736E+02 0.46833020721E+02 0.43486855432E+02 0.34696741959E+02
 0.23614781793E+02 0.13811001064E+02 0.75815958305E+01 0.49331457926E+01 0.39067870442E+01
 0.32217227045E+01 0.28592121998E+01 0.27520415107E+01 0.28594464389E+01 0.32217053878E+01
 0.39057202259E+01 0.49309573186E+01 0.75798159573E+01 0.13811673977E+02 0.23618265788E+02
 0.63895065919E+02 0.73784236804E+02 0.73784826661E+02 0.63895624283E+02 0.47551664935E+02
 0.30032131326E+02 0.16097817525E+02 0.80213027813E+01 0.49331209376E+01 0.38634724977E+01
 0.32007459769E+01 0.29058689527E+01 0.29070548626E+01 0.32028029363E+01 0.38637058435E+01
 0.49309573186E+01 0.80190770193E+01 0.16097883344E+02 0.30033933553E+02 0.47552732990E+02
 0.99030884427E+02 0.10616964788E+03 0.99033871495E+02 0.80091622169E+02 0.55556922889E+02
 0.32537048472E+02 0.16096538641E+02 0.75787065666E+01 0.47437756888E+01 0.37453706052E+01
 0.31780707025E+01 0.30055598902E+01 0.31780176654E+01 0.37452764397E+01 0.47440625639E+01
 0.75798159573E+01 0.16097883344E+02 0.32537015671E+02 0.55554465594E+02 0.80087676674E+02
 0.13139233054E+03 0.13139146489E+03 0.11444278549E+03 0.86280956042E+02 0.55557432592E+02
 0.30034237165E+02 0.13808718479E+02 0.65188259781E+01 0.44519550054E+01 0.35844560694E+01
 0.31771066806E+01 0.31755981584E+01 0.35817477866E+01 0.44514855001E+01 0.65215748633E+01
 0.13811673977E+02 0.30033933553E+02 0.55554465594E+02 0.86279054611E+02 0.11444347622E+03
 0.15096440587E+03 0.14095823622E+03 0.11444278712E+03 0.80087508458E+02 0.47552280979E+02
 0.23617552694E+02 0.10343174882E+02 0.54121873545E+01 0.40932152625E+01 0.34191726983E+01
 0.32114343145E+01 0.34196803777E+01 0.40932334300E+01 0.54117171493E+01 0.10343248583E+02
 0.23618265788E+02 0.47552732990E+02 0.80087676674E+02 0.11444347622E+03 0.14095917482E+03
 0.12250741857E+03 0.99034413301E+02 0.68812621968E+02 0.40497600967E+02 0.20029500764E+02
 0.90094083199E+01 0.51012860118E+01 0.39585014293E+01 0.33303951918E+01 0.31372151706E+01
 0.33310150094E+01 0.39584889579E+01 0.51006419082E+01 0.90093635809E+01 0.20030048010E+02
 0.40497607133E+02 0.68812295032E+02 0.99035008483E+02 0.12250855923E+03 0.13139176882E+03
 0.99034413301E+02 0.73787704021E+02 0.46836039994E+02 0.25060805791E+02 0.11683376084E+02
 0.59370456759E+01 0.43053836545E+01 0.35074273204E+01 0.31364226813E+01 0.31352371508E+01
 0.35049980285E+01 0.43043641828E+01 0.59390873059E+01 0.11686607320E+02 0.25061459051E+02
 0.46833266114E+02 0.73784599157E+02 0.99033425297E+02 0.11444243154E+03 0.11444232793E+03
 0.68812621968E+02 0.46836039994E+02 0.26987511881E+02 0.13415222773E+02 0.67186397322E+01
 0.45649740003E+01 0.36689767493E+01 0.31601891413E+01 0.30070575507E+01 0.31607318535E+01
 0.36690275491E+01 0.45646564473E+01 0.67190237980E+01 0.13415963400E+02 0.26987154578E+02
 0.46834677615E+02 0.68811818395E+02 0.86278875540E+02 0.92963688131E+02 0.86278765469E+02
 0.40497600967E+02 0.25060805791E+02 0.13415222773E+02 0.70417035776E+01 0.47172279593E+01
 0.37863351209E+01 0.31938950471E+01 0.29322758959E+01 0.29339170323E+01 0.31967172993E+01
 0.37870323781E+01 0.47155107897E+01 0.70396997159E+01 0.13414388310E+02 0.25061394122E+02
 0.40499636382E+02 0.55557511942E+02 0.64946091875E+02 0.64944793008E+02 0.55554829903E+02
 0.20029500764E+02 0.11683376084E+02 0.67186397322E+01 0.47172279593E+01 0.38306093833E+01
 0.32216989681E+01 0.29005552651E+01 0.28056016575E+01 0.29009935641E+01 0.32216419545E+01
 0.38299949047E+01 0.47170569696E+01 0.67192514865E+01 0.11684046356E+02 0.20029876706E+02
 0.30034192848E+02 0.38335280285E+02 0.41573023919E+02 0.38334741875E+02 0.30033717336E+02
 0.90094083199E+01 0.59370456759E+01 0.45649740003E+01 0.37863351209E+01 0.32216989681E+01
 0.28941577870E+01 0.27530897705E+01 0.27522360931E+01 0.28922349168E+01 0.32203043827E+01
 0.37869201113E+01 0.45673981926E+01 0.59393452775E+01 0.90094842094E+01 0.13808743612E+02
 0.18947534846E+02 0.22305741088E+02 0.22307086107E+02 0.18950560779E+02 0.13811134429E+02
 0.51012860118E+01 0.43053836545E+01 0.36689767493E+01 0.31938950471E+01 0.29005552651E+01
 0.27530897705E+01 0.27095173490E+01 0.27532114769E+01 0.29007989048E+01 0.31940647716E+01
 0.36688140250E+01 0.43049270602E+01 0.51008121619E+01 0.65214848307E+01 0.85683636713E+01
 0.10466901853E+02 0.11245074743E+02 0.10467166737E+02 0.85687079144E+01 0.65218566422E+01
 0.39585014293E+01 0.35074273204E+01 0.31601891413E+01 0.29322758959E+01 0.28056016575E+01
 0.27522360931E+01 0.27532114769E+01 0.28077596369E+01 0.29337657229E+01 0.31594519656E+01
 0.35047387499E+01 0.39560098956E+01 0.44519978299E+01 0.49659631711E+01 0.55438065126E+01
 0.59613046564E+01 0.59600795358E+01 0.55410209570E+01 0.49637500539E+01 0.44521925177E+01
 0.33303951918E+01 0.31364226813E+01 0.30070575507E+01 0.29339170323E+01 0.29009935641E+01
 0.28922349168E+01 0.29007989048E+01 0.29337657229E+01 0.30071129041E+01 0.31366558543E+01
 0.33307372244E+01 0.35820059132E+01 0.38595091089E+01 0.41123071620E+01 0.42878175814E+01
 0.43503888309E+01 0.42879783224E+01 0.41123507302E+01 0.38592806800E+01 0.35816330674E+01
 0.31372151706E+01 0.31352371508E+01 0.31607318535E+01 0.31967172993E+01 0.32216419545E+01
 0.32203043827E+01 0.31940647716E+01 0.31594519656E+01 0.31366558543E+01 0.31401111545E+01
 0.31769785515E+01 0.32471395413E+01 0.33393324814E+01 0.34288739250E+01 0.34849741574E+01
 0.34858830538E+01 0.34310883720E+01 0.33414390251E+01 0.32474962411E+01 0.31750219097E+01
 0.33310150094E+01 0.35049980285E+01 0.36690275491E+01 0.37870323781E+01 0.38299949047E+01
 0.37869201113E+01 0.36688140250E+01 0.35047387499E+01 0.33307372244E+01 0.31769785515E+01
 0.30612874032E+01 0.29899162124E+01 0.29585772264E+01 0.29525112330E+01 0.29532271040E+01
 0.29522462963E+01 0.29584181856E+01 0.29900971829E+01 0.30616641792E+01 0.31773240670E+01
 0.39584889579E+01 0.43043641828E+01 0.45646564473E+01 0.47155107897E+01 0.47170569696E+01
 0.45673981926E+01 0.43049270602E+01 0.39560098956E+01 0.35820059132E+01 0.32471395413E+01
 0.29899162124E+01 0.28185749632E+01 0.27216499379E+01 0.26802837422E+01 0.26800193884E+01
 0.27206025231E+01 0.28167833903E+01 0.29887125566E+01 0.32482155327E+01 0.35851234227E+01
 0.51006419082E+01 0.59390873059E+01 0.67190237980E+01 0.70396997159E+01 0.67192514865E+01
 0.59393452775E+01 0.51008121619E+01 0.44519978299E+01 0.38595091089E+01 0.33393324814E+01
 0.29585772264E+01 0.27216499379E+01 0.25992764802E+01 0.25623100629E+01 0.25994970725E+01
 0.27218578778E+01 0.29585521119E+01 0.33390918725E+01 0.38592495467E+01 0.44518277205E+01
 0.90093635809E+01 0.11686607320E+02 0.13415963400E+02 0.13414388310E+02 0.11684046356E+02
 0.90094842094E+01 0.65214848307E+01 0.49659631711E+01 0.41123071620E+01 0.34288739250E+01
 0.29525112330E+01 0.26802837422E+01 0.25623100629E+01 0.25617891585E+01 0.26799373203E+01
 0.29539569513E+01 0.34310967402E+01 0.41123762292E+01 0.49629680903E+01 0.65182657602E+01
 0.20030048010E+02 0.25061459051E+02 0.26987154578E+02 0.25061394122E+02 0.20029876706E+02
 0.13808743612E+02 0.85683636713E+01 0.55438065126E+01 0.42878175814E+01 0.34849741574E+01
 0.29532271040E+01 0.26800193884E+01 0.25994970725E+01 0.26799373203E+01 0.29531220662E+01
 0.34849216210E+01 0.42878751482E+01 0.55439966603E+01 0.85686452775E+01 0.13809014822E+02
 0.40497607133E+02 0.46833266114E+02 0.46834677615E+02 0.40499636382E+02 0.30034192848E+02
 0.18947534846E+02 0.10466901853E+02 0.59613046564E+01 0.43503888309E+01 0.34858830538E+01
 0.29522462963E+01 0.27206025231E+01 0.27218578778E+01 0.29539569513E+01 0.34849216210E+01
 0.43473225762E+01 0.59600194683E+01 0.10469434216E+02 0.18951221165E+02 0.30035093389E+02
 0.68812295032E+02 0.73784599157E+02 0.68811818395E+02 0.55557511942E+02 0.38335280285E+02
 0.22305741088E+02 0.11245074743E+02 0.59600795358E+01 0.42879783224E+01 0.34310883720E+01
 0.29584181856E+01 0.28167833903E+01 0.29585521119E+01 0.34310967402E+01 0.42878751482E+01
 0.59600194683E+01 0.11244826250E+02 0.22305068116E+02 0.38334663156E+02 0.55557596908E+02
 0.99035008483E+02 0.99033425297E+02 0.86278875540E+02 0.64946091875E+02 0.41573023919E+02
 0.22307086107E+02 0.10467166737E+02 0.55410209570E+01 0.41123507302E+01 0.33414390251E+01
 0.29900971829E+01 0.29887125566E+01 0.33390918725E+01 0.41123762292E+01 0.55439966603E+01
 0.10469434216E+02 0.22305068116E+02 0.41568406432E+02 0.64943985024E+02 0.86280671570E+02
 0.12250855923E+03 0.11444243154E+03 0.92963688131E+02 0.64944793008E+02 0.38334741875E+02
 0.18950560779E+02 0.85687079144E+01 0.49637500539E+01 0.38592806800E+01 0.32474962411E+01
 0.30616641792E+01 0.32482155327E+01 0.38592495467E+01 0.49629680903E+01 0.85686452775E+01
 0.18951221165E+02 0.38334663156E+02 0.64943985024E+02 0.92963630977E+02 0.11444313475E+03
 0.13139176882E+03 0.11444232793E+03 0.86278765469E+02 0.55554829903E+02 0.30033717336E+02
 0.13811134429E+02 0.65218566422E+01 0.44521925177E+01 0.35816330674E+01 0.31750219097E+01
 0.31773240670E+01 0.35851234227E+01 0.44518277205E+01 0.65182657602E+01 0.13809014822E+02
 0.30035093389E+02 0.55557596908E+02 0.86280671570E+02 0.11444313475E+03 0.13139197877E+03
 0.85740950267E+02 0.63890975628E+02 0.40497782399E+02 0.21647161146E+02 0.10247342069E+02
 0.55302134437E+01 0.41513115825E+01 0.33989171257E+01 0.30541790811E+01 0.30528823318E+01
 0.33967849599E+01 0.41511728286E+01 0.55317064430E+01 0.10246870620E+02 0.21643344612E+02
 0.40495168087E+02 0.63895060009E+02 0.85749758639E+02 0.99035276878E+02 0.99030618451E+02
 0.63890975628E+02 0.43485606027E+02 0.25061311432E+02 0.12526490470E+02 0.64292748027E+01
 0.44861867166E+01 0.36129372347E+01 0.31218695919E+01 0.29746839427E+01 0.31225129729E+01
 0.36132501391E+01 0.44854426600E+01 0.64275297012E+01 0.12524322390E+02 0.25059994739E+02
 0.43486838240E+02 0.63894850458E+02 0.80090797250E+02 0.86280576306E+02 0.80087159692E+02
 0.40497782399E+02 0.25061311432E+02 0.13415881380E+02 0.70420261175E+01 0.47171642044E+01
 0.37863073879E+01 0.31940261869E+01 0.29322678126E+01 0.29337384925E+01 0.31966956531E+01
 0.37871868243E+01 0.47154945489E+01 0.70394796709E+01 0.13414289038E+02 0.25061399886E+02
 0.40499355893E+02 0.55556926252E+02 0.64945655278E+02 0.64944709649E+02 0.55554891784E+02
 0.21647161146E+02 0.12526490470E+02 0.70420261175E+01 0.48040588270E+01 0.38810851101E+01
 0.32524453101E+01 0.29198653413E+01 0.28210158666E+01 0.29198266923E+01 0.32536808084E+01
 0.38835799627E+01 0.48052081878E+01 0.70395138326E+01 0.12522172925E+02 0.21645999421E+02
 0.32541676784E+02 0.41574324617E+02 0.45095637957E+02 0.41569451282E+02 0.32537683231E+02
 0.10247342069E+02 0.64292748027E+01 0.47171642044E+01 0.38810851101E+01 0.32737047407E+01
 0.29198056085E+01 0.27681419907E+01 0.27671987811E+01 0.29185123520E+01 0.32744156423E+01
 0.38834244284E+01 0.47182963472E+01 0.64277716848E+01 0.10245293320E+02 0.16097888043E+02
 0.22307457805E+02 0.26350912404E+02 0.26349469281E+02 0.22305014439E+02 0.16097579658E+02
 0.55302134437E+01 0.44861867166E+01 0.37863073879E+01 0.32524453101E+01 0.29198056085E+01
 0.27527641175E+01 0.27033420739E+01 0.27520106118E+01 0.29186994496E+01 0.32517265771E+01
 0.37868474095E+01 0.44881958111E+01 0.55322934652E+01 0.75790897754E+01 0.10465814771E+02
 0.13099939827E+02 0.14173503685E+02 0.13102982013E+02 0.10468709741E+02 0.75792310812E+01
 0.41513115825E+01 0.36129372347E+01 0.31940261869E+01 0.29198653413E+01 0.27681419907E+01
 0.27033420739E+01 0.27032786773E+01 0.27681638032E+01 0.29201482865E+01 0.31943061232E+01
 0.36130022953E+01 0.41512675235E+01 0.47440577700E+01 0.55429208237E+01 0.65220954730E+01
 0.72282353770E+01 0.72290902474E+01 0.65238047957E+01 0.55440955872E+01 0.47444050006E+01
 0.33989171257E+01 0.31218695919E+01 0.29322678126E+01 0.28210158666E+01 0.27671987811E+01
 0.27520106118E+01 0.27681638032E+01 0.28228105352E+01 0.29338215143E+01 0.31216489688E+01
 0.33967486038E+01 0.37435188462E+01 0.41124256369E+01 0.44345274551E+01 0.46681120573E+01
 0.47607313865E+01 0.46666729958E+01 0.44332619430E+01 0.41130035067E+01 0.37458584135E+01
 0.30541790811E+01 0.29746839427E+01 0.29337384925E+01 0.29198266923E+01 0.29185123520E+01
 0.29186994496E+01 0.29201482865E+01 0.29338215143E+01 0.29745905208E+01 0.30543754680E+01
 0.31783001462E+01 0.33394569418E+01 0.35137764975E+01 0.36634150155E+01 0.37502349019E+01
 0.37506361795E+01 0.36641062342E+01 0.35138903171E+01 0.33388557691E+01 0.31776367610E+01
 0.30528823318E+01 0.31225129729E+01 0.31966956531E+01 0.32536808084E+01 0.32744156423E+01
 0.32517265771E+01 0.31943061232E+01 0.31216489688E+01 0.30543754680E+01 0.30076653675E+01
 0.29898407393E+01 0.30016794911E+01 0.30339684998E+01 0.30678101069E+01 0.30827797236E+01
 0.30694343339E+01 0.30357892003E+01 0.30019315343E+01 0.29879478236E+01 0.30049110442E+01
 0.33967849599E+01 0.36132501391E+01 0.37871868243E+01 0.38835799627E+01 0.38834244284E+01
 0.37868474095E+01 0.36130022953E+01 0.33967486038E+01 0.31783001462E+01 0.29898407393E+01
 0.28486618664E+01 0.27581862720E+01 0.27109156006E+01 0.26927975974E+01 0.26924612636E+01
 0.27103574683E+01 0.27581049560E+01 0.28490634752E+01 0.29901920264E+01 0.31783626997E+01
 0.41511728286E+01 0.44854426600E+01 0.47154945489E+01 0.48052081878E+01 0.47182963472E+01
 0.44881958111E+01 0.41512675235E+01 0.37435188462E+01 0.33394569418E+01 0.30016794911E+01
 0.27581862720E+01 0.26058306809E+01 0.25264868147E+01 0.25021548088E+01 0.25255547087E+01
 0.26044207510E+01 0.27573555626E+01 0.30025793750E+01 0.33420458228E+01 0.37459136084E+01
 0.55317064430E+01 0.64275297012E+01 0.70394796709E+01 0.70395138326E+01 0.64277716848E+01
 0.55322934652E+01 0.47440577700E+01 0.41124256369E+01 0.35137764975E+01 0.30339684998E+01
 0.27109156006E+01 0.25264868147E+01 0.24455737239E+01 0.24455022096E+01 0.25264042551E+01
 0.27110401419E+01 0.30342684684E+01 0.35139013543E+01 0.41120731216E+01 0.47433655798E+01
 0.10246870620E+02 0.12524322390E+02 0.13414289038E+02 0.12522172925E+02 0.10245293320E+02
 0.75790897754E+01 0.55429208237E+01 0.44345274551E+01 0.36634150155E+01 0.30678101069E+01
 0.26927975974E+01 0.25021548088E+01 0.24455022096E+01 0.25024543243E+01 0.26937305377E+01
 0.30690182254E+01 0.36635328712E+01 0.44326343125E+01 0.55401909206E+01 0.75780390067E+01
 0.21643344612E+02 0.25059994739E+02 0.25061399886E+02 0.21645999421E+02 0.16097888043E+02
 0.10465814771E+02 0.65220954730E+01 0.46681120573E+01 0.37502349019E+01 0.30827797236E+01
 0.26924612636E+01 0.25255547087E+01 0.25264042551E+01 0.26937305377E+01 0.30826112297E+01
 0.37490815982E+01 0.46680997765E+01 0.65237859273E+01 0.10467140288E+02 0.16096826245E+02
 0.40495168087E+02 0.43486838240E+02 0.40499355893E+02 0.32541676784E+02 0.22307457805E+02
 0.13099939827E+02 0.72282353770E+01 0.47607313865E+01 0.37506361795E+01 0.30694343339E+01
 0.27103574683E+01 0.26044207510E+01 0.27110401419E+01 0.30690182254E+01 0.37490815982E+01
 0.47606803898E+01 0.72312372631E+01 0.13103472556E+02 0.22307475001E+02 0.32537607327E+02
 0.63895060009E+02 0.63894850458E+02 0.55556926252E+02 0.41574324617E+02 0.26350912404E+02
 0.14173503685E+02 0.72290902474E+01 0.46666729958E+01 0.36641062342E+01 0.30357892003E+01
 0.27581049560E+01 0.27573555626E+01 0.30342684684E+01 0.36635328712E+01 0.46680997765E+01
 0.72312372631E+01 0.14173886471E+02 0.26349082041E+02 0.41572448308E+02 0.55556554432E+02
 0.85749758639E+02 0.80090797250E+02 0.64945655278E+02 0.45095637957E+02 0.26349469281E+02
 0.13102982013E+02 0.65238047957E+01 0.44332619430E+01 0.35138903171E+01 0.30019315343E+01
 0.28490634752E+01 0.30025793750E+01 0.35139013543E+01 0.44326343125E+01 0.65237859273E+01
 0.13103472556E+02 0.26349082041E+02 0.45094387986E+02 0.64945011463E+02 0.80091024113E+02
 0.99035276878E+02 0.86280576306E+02 0.64944709649E+02 0.41569451282E+02 0.22305014439E+02
 0.10468709741E+02 0.55440955872E+01 0.41130035067E+01 0.33388557691E+01 0.29879478236E+01
 0.29901920264E+01 0.33420458228E+01 0.41120731216E+01 0.55401909206E+01 0.10467140288E+02
 0.22307475001E+02 0.41572448308E+02 0.64945011463E+02 0.86278858199E+02 0.99034252400E+02
 0.99030618451E+02 0.80087159692E+02 0.55554891784E+02 0.32537683231E+02 0.16097579658E+02
 0.75792310812E+01 0.47444050006E+01 0.37458584135E+01 0.31776367610E+01 0.30049110442E+01
 0.31783626997E+01 0.37459136084E+01 0.47433655798E+01 0.75780390067E+01 0.16096826245E+02
 0.32537607327E+02 0.55556554432E+02 0.80091024113E+02 0.99034252400E+02 0.10617031281E+03
 0.50994735337E+02 0.34695640595E+02 0.20030027283E+02 0.10247700552E+02 0.57136719418E+01
 0.42586307240E+01 0.34555820179E+01 0.30153296823E+01 0.28836669663E+01 0.30151200100E+01
 0.34554301521E+01 0.42585882580E+01 0.57135638335E+01 0.10247595071E+02 0.20030221134E+02
 0.34696135916E+02 0.50995182512E+02 0.63895302574E+02 0.68812817293E+02 0.63895111544E+02
 0.34695640595E+02 0.21528193533E+02 0.11684123205E+02 0.64295407711E+01 0.45540579613E+01
 0.36791780521E+01 0.31262106130E+01 0.28837225770E+01 0.28849352002E+01 0.31280940548E+01