   1   1   1   0
  0.1166400E+02  0.2545584E-09  0.2545584E-09  0.2545584E-09  0.5000000E-15
  1.000000000000000E-004
  CAR 
 fcc Ni                                  
     54.00643236     -2.73485974  301      8.41025583      1.00000000
     -2.735  0.0000E+00  0.0000E+00  0.0000E+00  0.0000E+00
     -2.546  0.0000E+00  0.0000E+00  0.0000E+00  0.0000E+00
     -2.357  0.0000E+00  0.0000E+00  0.0000E+00  0.0000E+00
     -2.167  0.0000E+00  0.0000E+00  0.0000E+00  0.0000E+00
     -1.978  0.0000E+00  0.0000E+00  0.0000E+00  0.0000E+00
     -1.789 -0.1220E-32 -0.9816E-31 -0.2307E-33 -0.1857E-31
     -1.600 -0.3748E-26 -0.1815E-24 -0.7088E-27 -0.3433E-25
     -1.411 -0.1894E-20 -0.5513E-19 -0.3582E-21 -0.1043E-19
     -1.222 -0.1518E-15 -0.2642E-14 -0.2871E-16 -0.4997E-15
     -1.033 -0.2009E-11 -0.2088E-10 -0.3801E-12 -0.3949E-11
     -0.843 -0.4211E-08 -0.2587E-07 -0.7969E-09 -0.4897E-08
     -0.654 -0.1332E-05 -0.4719E-05 -0.2528E-06 -0.8975E-06
     -0.465 -0.5431E-04 -0.9849E-04 -0.1052E-04 -0.1952E-04
     -0.276 -0.2741E-04  0.2416E-03 -0.1571E-04  0.2617E-04
     -0.087  0.1166E-02  0.1364E-02  0.2049E-03  0.2841E-03
      0.102  0.6394E-02  0.1278E-01  0.1414E-02  0.2701E-02
      0.291  0.3333E-01  0.3537E-01  0.7718E-02  0.9391E-02
      0.480  0.1833E-01  0.1109E-01  0.1119E-01  0.1149E-01
      0.670  0.1600E-01  0.2319E-01  0.1421E-01  0.1587E-01
      0.859  0.3522E-01  0.4122E-01  0.2087E-01  0.2367E-01
      1.048  0.7763E-01  0.8391E-01  0.3555E-01  0.3954E-01
      1.237  0.4823E-01  0.2827E-01  0.4468E-01  0.4489E-01
      1.426  0.3904E-02  0.5549E-02  0.4541E-01  0.4594E-01
      1.615  0.2280E-01  0.3461E-01  0.4973E-01  0.5248E-01
      1.804  0.1070E+00  0.1196E+00  0.6996E-01  0.7510E-01
      1.994  0.8140E-01  0.6038E-01  0.8536E-01  0.8652E-01
      2.183  0.5252E-01  0.5737E-01  0.9529E-01  0.9737E-01
      2.372  0.8707E-01  0.8899E-01  0.1118E+00  0.1142E+00
      2.561  0.7559E-01  0.6657E-01  0.1261E+00  0.1268E+00
      2.750  0.6826E-02  0.5115E-02  0.1273E+00  0.1278E+00
      2.939  0.7836E-01  0.7094E-01  0.1422E+00  0.1412E+00
      3.128  0.2195E+00  0.2168E+00  0.1837E+00  0.1822E+00
      3.318  0.1028E+00  0.9271E-01  0.2031E+00  0.1997E+00
      3.507  0.1528E+00  0.1110E+00  0.2320E+00  0.2207E+00
      3.696  0.1020E+00  0.1360E+00  0.2513E+00  0.2464E+00
      3.885  0.1082E+00  0.5654E-01  0.2718E+00  0.2571E+00
      4.074  0.3857E+00  0.1083E+00  0.3447E+00  0.2776E+00
      4.263  0.5041E+00  0.3181E+00  0.4401E+00  0.3378E+00
      4.452  0.6031E+00  0.3879E+00  0.5541E+00  0.4111E+00
      4.642  0.5606E+00  0.4295E+00  0.6602E+00  0.4924E+00
      4.831  0.8612E+00  0.4098E+00  0.8231E+00  0.5699E+00
      5.020  0.1159E+01  0.5120E+00  0.1042E+01  0.6667E+00
      5.209  0.9668E+00  0.6629E+00  0.1225E+01  0.7921E+00
      5.398  0.9533E+00  0.8076E+00  0.1405E+01  0.9449E+00
      5.587  0.9076E+00  0.9453E+00  0.1577E+01  0.1124E+01
      5.776  0.1159E+01  0.8789E+00  0.1796E+01  0.1290E+01
      5.965  0.1373E+01  0.9674E+00  0.2056E+01  0.1473E+01
      6.155  0.1418E+01  0.7727E+00  0.2324E+01  0.1619E+01
      6.344  0.1734E+01  0.1205E+01  0.2652E+01  0.1847E+01
      6.533  0.1819E+01  0.1212E+01  0.2996E+01  0.2076E+01
      6.722  0.1320E+01  0.1383E+01  0.3246E+01  0.2338E+01
      6.911  0.9942E+00  0.1574E+01  0.3434E+01  0.2635E+01
      7.100  0.1428E+01  0.1696E+01  0.3704E+01  0.2956E+01
      7.289  0.1662E+01  0.1358E+01  0.4018E+01  0.3213E+01
      7.479  0.1264E+01  0.1106E+01  0.4257E+01  0.3422E+01
      7.668  0.1726E+01  0.1186E+01  0.4584E+01  0.3646E+01
      7.857  0.2356E+01  0.1633E+01  0.5029E+01  0.3955E+01
      8.046  0.1378E+01  0.1237E+01  0.5290E+01  0.4189E+01
      8.235 -0.4964E-02  0.1139E+01  0.5289E+01  0.4405E+01
      8.424  0.9002E-03  0.1778E+01  0.5289E+01  0.4741E+01
      8.613  0.1771E+00  0.2093E+01  0.5323E+01  0.5137E+01
      8.803  0.3815E+00  0.8059E+00  0.5395E+01  0.5289E+01
      8.992  0.2095E+00  0.3933E-01  0.5434E+01  0.5297E+01
      9.181  0.9246E-01  0.1959E+00  0.5452E+01  0.5334E+01
      9.370  0.1125E+00  0.3806E+00  0.5473E+01  0.5406E+01
      9.559  0.1174E+00  0.2440E+00  0.5495E+01  0.5452E+01
      9.748  0.8532E-01  0.1395E+00  0.5512E+01  0.5478E+01
      9.937  0.7389E-01  0.1299E+00  0.5526E+01  0.5503E+01
     10.126  0.2896E+00  0.7337E-01  0.5580E+01  0.5517E+01
     10.316  0.2170E+00  0.8352E-01  0.5621E+01  0.5532E+01
     10.505  0.7293E-01  0.2869E+00  0.5635E+01  0.5587E+01
     10.694  0.1363E+00  0.1818E+00  0.5661E+01  0.5621E+01
     10.883  0.1392E+00  0.9227E-01  0.5687E+01  0.5639E+01
     11.072  0.1696E+00  0.1826E+00  0.5719E+01  0.5673E+01
     11.261  0.1042E+00  0.1820E+00  0.5739E+01  0.5708E+01
     11.450  0.7649E-01  0.1990E+00  0.5754E+01  0.5745E+01
     11.640  0.1349E-01  0.6689E-01  0.5756E+01  0.5758E+01
     11.829  0.4087E-01 -0.1147E-01  0.5764E+01  0.5756E+01
     12.018  0.2309E+00  0.2057E-01  0.5807E+01  0.5760E+01
     12.207  0.2454E+00  0.2089E+00  0.5854E+01  0.5799E+01
     12.396  0.5682E-01  0.2503E+00  0.5865E+01  0.5846E+01
     12.585  0.7443E-02  0.8426E-01  0.5866E+01  0.5862E+01
     12.774  0.1170E+00  0.1227E-01  0.5888E+01  0.5865E+01
     12.964  0.9741E-01  0.9604E-01  0.5907E+01  0.5883E+01
     13.153  0.1116E+00  0.1466E+00  0.5928E+01  0.5911E+01
     13.342  0.4647E-01  0.1021E+00  0.5937E+01  0.5930E+01
     13.531  0.7012E-01  0.3546E-01  0.5950E+01  0.5937E+01
     13.720  0.1453E+00  0.7967E-01  0.5977E+01  0.5952E+01
     13.909  0.8200E-01  0.1091E+00  0.5993E+01  0.5972E+01
     14.098  0.7157E-01  0.4322E-01  0.6006E+01  0.5980E+01
     14.288  0.1266E+00  0.8857E-01  0.6030E+01  0.5997E+01
     14.477  0.2337E+00  0.1198E+00  0.6074E+01  0.6020E+01
     14.666  0.1434E+00  0.2055E+00  0.6102E+01  0.6059E+01
     14.855  0.1316E-01  0.2017E+00  0.6104E+01  0.6097E+01
     15.044  0.4372E-01  0.4199E-01  0.6112E+01  0.6105E+01
     15.233  0.2757E+00  0.3103E-01  0.6164E+01  0.6111E+01
     15.422  0.3111E+00  0.3079E+00  0.6223E+01  0.6169E+01
     15.611  0.1088E+00  0.3036E+00  0.6244E+01  0.6226E+01
     15.801  0.4323E-01  0.7788E-01  0.6252E+01  0.6241E+01
     15.990  0.1706E+00  0.7055E-01  0.6284E+01  0.6254E+01
     16.179  0.2378E+00  0.1779E+00  0.6329E+01  0.6288E+01
     16.368  0.9661E-01  0.2145E+00  0.6348E+01  0.6329E+01
     16.557  0.6826E-01  0.1135E+00  0.6360E+01  0.6350E+01
     16.746  0.6803E-01  0.6186E-01  0.6373E+01  0.6362E+01
     16.935  0.6469E-02  0.6316E-01  0.6375E+01  0.6374E+01
     17.125  0.7124E-01  0.2039E-02  0.6388E+01  0.6374E+01
     17.314  0.2309E+00  0.8692E-01  0.6432E+01  0.6391E+01
     17.503  0.7242E-01  0.2355E+00  0.6445E+01  0.6435E+01
     17.692  0.1341E+00  0.6939E-01  0.6471E+01  0.6448E+01
     17.881  0.2154E+00  0.1694E+00  0.6512E+01  0.6480E+01
     18.070  0.2343E+00  0.2202E+00  0.6556E+01  0.6522E+01
     18.259  0.1908E+00  0.2367E+00  0.6592E+01  0.6567E+01
     18.449  0.2501E+00  0.2131E+00  0.6639E+01  0.6607E+01
     18.638  0.2096E+00  0.2405E+00  0.6679E+01  0.6653E+01
     18.827  0.1851E+00  0.1978E+00  0.6714E+01  0.6690E+01
     19.016  0.2347E+00  0.2035E+00  0.6758E+01  0.6728E+01
     19.205  0.1510E+00  0.2222E+00  0.6787E+01  0.6770E+01
     19.394  0.2042E-01  0.1003E+00  0.6791E+01  0.6789E+01
     19.583  0.4378E-01  0.6937E-02  0.6799E+01  0.6791E+01
     19.773  0.2914E+00  0.1426E+00  0.6854E+01  0.6818E+01
     19.962  0.2658E+00  0.3186E+00  0.6904E+01  0.6878E+01
     20.151  0.1618E+00  0.2074E+00  0.6935E+01  0.6917E+01
     20.340  0.3326E+00  0.2426E+00  0.6998E+01  0.6963E+01
     20.529  0.1773E+00  0.3028E+00  0.7031E+01  0.7020E+01
     20.718  0.9439E-01  0.8926E-01  0.7049E+01  0.7037E+01
     20.907  0.2115E+00  0.1854E+00  0.7089E+01  0.7072E+01
     21.096  0.6108E-01  0.1406E+00  0.7101E+01  0.7099E+01
     21.286  0.6896E-01  0.3139E-01  0.7114E+01  0.7105E+01
     21.475  0.3254E+00  0.2311E+00  0.7175E+01  0.7148E+01
     21.664  0.2919E+00  0.3244E+00  0.7231E+01  0.7210E+01
     21.853  0.3123E+00  0.2829E+00  0.7290E+01  0.7263E+01
     22.042  0.2736E+00  0.3292E+00  0.7341E+01  0.7326E+01
     22.231  0.1318E+00  0.1743E+00  0.7366E+01  0.7359E+01
     22.420  0.1797E+00  0.1572E+00  0.7400E+01  0.7388E+01
     22.610  0.1398E+00  0.1551E+00  0.7427E+01  0.7418E+01
     22.799  0.2020E+00  0.1913E+00  0.7465E+01  0.7454E+01
     22.988  0.1531E+00  0.1623E+00  0.7494E+01  0.7485E+01
     23.177  0.3594E+00  0.2649E+00  0.7562E+01  0.7535E+01
     23.366  0.2627E+00  0.3545E+00  0.7612E+01  0.7602E+01
     23.555  0.2286E+00  0.2122E+00  0.7655E+01  0.7642E+01
     23.744  0.2103E+00  0.2387E+00  0.7695E+01  0.7687E+01
     23.934  0.1145E+00  0.1222E+00  0.7716E+01  0.7710E+01
     24.123  0.2781E+00  0.2286E+00  0.7769E+01  0.7753E+01
     24.312  0.2492E+00  0.2666E+00  0.7816E+01  0.7804E+01
     24.501  0.1562E+00  0.1805E+00  0.7846E+01  0.7838E+01
     24.690  0.7549E-01  0.9524E-01  0.7860E+01  0.7856E+01
     24.879  0.1596E+00  0.1171E+00  0.7890E+01  0.7878E+01
     25.068  0.2027E+00  0.2122E+00  0.7928E+01  0.7918E+01
     25.258  0.2724E+00  0.2604E+00  0.7980E+01  0.7967E+01
     25.447  0.2264E+00  0.2411E+00  0.8023E+01  0.8013E+01
     25.636  0.3192E+00  0.2976E+00  0.8083E+01  0.8069E+01
     25.825  0.3125E+00  0.3453E+00  0.8142E+01  0.8135E+01
     26.014  0.9947E-01  0.1252E+00  0.8161E+01  0.8158E+01
     26.203  0.4263E-01  0.3869E-01  0.8169E+01  0.8166E+01
     26.392  0.1436E+00  0.1212E+00  0.8196E+01  0.8189E+01
     26.581  0.1195E+00  0.1453E+00  0.8219E+01  0.8216E+01
     26.771  0.4131E-01  0.5990E-01  0.8227E+01  0.8227E+01
     26.960  0.3173E-01 -0.4133E-03  0.8233E+01  0.8227E+01
     27.149  0.2924E+00  0.2256E+00  0.8288E+01  0.8270E+01
     27.338  0.3498E+00  0.3990E+00  0.8354E+01  0.8345E+01
     27.527  0.2228E+00  0.2491E+00  0.8396E+01  0.8392E+01
     27.716  0.1306E+00  0.1256E+00  0.8421E+01  0.8416E+01
     27.905  0.1182E+00  0.1265E+00  0.8443E+01  0.8440E+01
     28.095  0.1911E+00  0.1822E+00  0.8479E+01  0.8475E+01
     28.284  0.1667E+00  0.1464E+00  0.8511E+01  0.8502E+01
     28.473  0.2148E+00  0.2115E+00  0.8552E+01  0.8542E+01
     28.662  0.1743E+00  0.2237E+00  0.8585E+01  0.8585E+01
     28.851  0.1408E+00  0.1421E+00  0.8611E+01  0.8612E+01
     29.040  0.2335E+00  0.1989E+00  0.8655E+01  0.8649E+01
     29.229  0.2292E+00  0.2205E+00  0.8699E+01  0.8691E+01
     29.419  0.1608E+00  0.1776E+00  0.8729E+01  0.8724E+01
     29.608  0.2193E+00  0.2313E+00  0.8771E+01  0.8768E+01
     29.797  0.2987E+00  0.2755E+00  0.8827E+01  0.8820E+01
     29.986  0.3111E+00  0.3311E+00  0.8886E+01  0.8883E+01
     30.175  0.1712E+00  0.1883E+00  0.8918E+01  0.8919E+01
     30.364  0.1513E+00  0.1719E+00  0.8947E+01  0.8951E+01
     30.553  0.3572E+00  0.3568E+00  0.9015E+01  0.9019E+01
     30.743  0.3789E+00  0.3622E+00  0.9086E+01  0.9087E+01
     30.932  0.2670E+00  0.2287E+00  0.9137E+01  0.9130E+01
     31.121  0.2132E+00  0.2594E+00  0.9177E+01  0.9179E+01
     31.310  0.2217E+00  0.2456E+00  0.9219E+01  0.9226E+01
     31.499  0.1563E+00  0.1306E+00  0.9248E+01  0.9251E+01
     31.688  0.1667E+00  0.1321E+00  0.9280E+01  0.9276E+01
     31.877  0.3410E+00  0.3108E+00  0.9345E+01  0.9334E+01
     32.066  0.5213E+00  0.4745E+00  0.9443E+01  0.9424E+01
     32.256  0.3498E+00  0.4356E+00  0.9509E+01  0.9506E+01
     32.445  0.2503E+00  0.3100E+00  0.9557E+01  0.9565E+01
     32.634  0.4664E+00  0.4032E+00  0.9645E+01  0.9641E+01
     32.823  0.3411E+00  0.3214E+00  0.9709E+01  0.9702E+01
     33.012  0.1500E+00  0.1778E+00  0.9738E+01  0.9736E+01
     33.201  0.1073E+00  0.9699E-01  0.9758E+01  0.9754E+01
     33.390  0.1664E+00  0.1925E+00  0.9789E+01  0.9790E+01
     33.580  0.2826E+00  0.2918E+00  0.9843E+01  0.9846E+01
     33.769  0.7473E-01  0.6715E-01  0.9857E+01  0.9858E+01
     33.958  0.1063E+00  0.1316E+00  0.9877E+01  0.9883E+01
     34.147  0.2253E+00  0.1681E+00  0.9920E+01  0.9915E+01
     34.336  0.2966E+00  0.2638E+00  0.9976E+01  0.9965E+01
     34.525  0.1838E+00  0.1985E+00  0.1001E+02  0.1000E+02
     34.714  0.3615E-01  0.9051E-01  0.1002E+02  0.1002E+02
     34.904  0.6492E-01  0.5620E-01  0.1003E+02  0.1003E+02
     35.093  0.1235E+00  0.1049E+00  0.1005E+02  0.1005E+02
     35.282  0.1807E+00  0.1997E+00  0.1009E+02  0.1009E+02
     35.471  0.1158E+00  0.1075E+00  0.1011E+02  0.1011E+02
     35.660  0.1364E+00  0.1151E+00  0.1014E+02  0.1013E+02
     35.849  0.1597E+00  0.1549E+00  0.1017E+02  0.1016E+02
     36.038  0.3996E+00  0.3816E+00  0.1024E+02  0.1023E+02
     36.227  0.3389E+00  0.3602E+00  0.1030E+02  0.1030E+02
     36.417  0.1987E+00  0.1784E+00  0.1034E+02  0.1033E+02
     36.606  0.2782E+00  0.3033E+00  0.1040E+02  0.1039E+02
     36.795  0.1959E+00  0.2012E+00  0.1043E+02  0.1043E+02
     36.984  0.2044E+00  0.1887E+00  0.1047E+02  0.1046E+02
     37.173  0.3680E+00  0.3915E+00  0.1054E+02  0.1054E+02
     37.362  0.6049E+00  0.6496E+00  0.1065E+02  0.1066E+02
     37.551  0.5884E+00  0.5831E+00  0.1077E+02  0.1077E+02
     37.741  0.2307E+00  0.1964E+00  0.1081E+02  0.1081E+02
     37.930  0.6335E-01  0.6549E-01  0.1082E+02  0.1082E+02
     38.119  0.2740E-02  0.6349E-02  0.1082E+02  0.1082E+02
     38.308  0.1067E+00  0.1481E+00  0.1084E+02  0.1085E+02
     38.497  0.1971E+00  0.1697E+00  0.1088E+02  0.1088E+02
     38.686  0.5159E-01  0.4175E-01  0.1089E+02  0.1089E+02
     38.875  0.1728E+00  0.1904E+00  0.1092E+02  0.1093E+02
     39.065  0.2439E+00  0.2357E+00  0.1097E+02  0.1097E+02
     39.254  0.2623E+00  0.2599E+00  0.1102E+02  0.1102E+02
     39.443  0.1900E+00  0.1854E+00  0.1105E+02  0.1106E+02
     39.632  0.1385E+00  0.1514E+00  0.1108E+02  0.1108E+02
     39.821  0.1645E+00  0.1686E+00  0.1111E+02  0.1112E+02
     40.010  0.2892E+00  0.2700E+00  0.1117E+02  0.1117E+02
     40.199  0.3846E+00  0.3231E+00  0.1124E+02  0.1123E+02
     40.389  0.2536E+00  0.3085E+00  0.1129E+02  0.1129E+02
     40.578  0.2638E+00  0.3043E+00  0.1134E+02  0.1134E+02
     40.767  0.1973E+00  0.1800E+00  0.1137E+02  0.1138E+02
     40.956  0.1702E-01  0.4664E-02  0.1138E+02  0.1138E+02
     41.145  0.1543E+00  0.1931E+00  0.1141E+02  0.1142E+02
     41.334  0.2880E+00  0.2542E+00  0.1146E+02  0.1146E+02
     41.523  0.5271E-01  0.3856E-01  0.1147E+02  0.1147E+02
     41.712  0.2288E+00  0.1998E+00  0.1151E+02  0.1151E+02
     41.902  0.2661E+00  0.2966E+00  0.1156E+02  0.1156E+02
     42.091  0.2020E+00  0.2510E+00  0.1160E+02  0.1161E+02
     42.280  0.1039E+00  0.5326E-01  0.1162E+02  0.1162E+02
     42.469 -0.4905E-02  0.1294E-01  0.1162E+02  0.1162E+02
     42.658  0.1881E+00  0.1942E+00  0.1166E+02  0.1166E+02
     42.847  0.2757E+00  0.2688E+00  0.1171E+02  0.1171E+02
     43.036  0.9259E-01  0.9687E-01  0.1173E+02  0.1173E+02
     43.226  0.1464E-01 -0.6583E-02  0.1173E+02  0.1173E+02
     43.415  0.2666E-01  0.5164E-01  0.1173E+02  0.1174E+02
     43.604  0.1643E+00  0.1699E+00  0.1177E+02  0.1177E+02
     43.793  0.1423E+00  0.9986E-01  0.1179E+02  0.1179E+02
     43.982  0.6952E-01  0.6683E-01  0.1181E+02  0.1180E+02
     44.171  0.6287E-02  0.2255E-01  0.1181E+02  0.1181E+02
     44.360 -0.2489E-02 -0.3434E-02  0.1181E+02  0.1181E+02
     44.550 -0.3674E-02 -0.6197E-02  0.1181E+02  0.1180E+02
     44.739  0.3729E-02  0.2534E-01  0.1181E+02  0.1181E+02
     44.928  0.1285E+00  0.1673E+00  0.1183E+02  0.1184E+02
     45.117  0.2250E+00  0.2130E+00  0.1187E+02  0.1188E+02
     45.306  0.1435E+00  0.1111E+00  0.1190E+02  0.1190E+02
     45.495  0.2965E-01  0.1683E-01  0.1191E+02  0.1191E+02
     45.684 -0.1437E-02 -0.2568E-02  0.1191E+02  0.1191E+02
     45.874 -0.9043E-03 -0.4514E-03  0.1191E+02  0.1191E+02
     46.063 -0.2581E-04 -0.7689E-05  0.1191E+02  0.1191E+02
     46.252 -0.7865E-04 -0.7764E-04  0.1191E+02  0.1191E+02
     46.441 -0.1997E-02 -0.1987E-02  0.1190E+02  0.1190E+02
     46.630  0.6492E-02  0.6324E-02  0.1191E+02  0.1191E+02
     46.819  0.6292E-01  0.6180E-01  0.1192E+02  0.1192E+02
     47.008  0.2744E-01  0.3454E-01  0.1192E+02  0.1192E+02
     47.197  0.4053E-01  0.6116E-01  0.1193E+02  0.1194E+02
     47.387  0.8495E-01  0.8078E-01  0.1195E+02  0.1195E+02
     47.576  0.7129E-01  0.6303E-01  0.1196E+02  0.1196E+02
     47.765  0.2165E-01  0.6475E-02  0.1196E+02  0.1196E+02
     47.954 -0.3051E-02 -0.2119E-02  0.1196E+02  0.1196E+02
     48.143 -0.3064E-03 -0.8831E-04  0.1196E+02  0.1196E+02
     48.332 -0.3196E-05 -0.1892E-05  0.1196E+02  0.1196E+02
     48.521 -0.8412E-04 -0.2007E-03  0.1196E+02  0.1196E+02
     48.711 -0.2056E-02 -0.2778E-02  0.1196E+02  0.1196E+02
     48.900  0.7098E-02  0.1709E-01  0.1196E+02  0.1197E+02
     49.089  0.6422E-01  0.6765E-01  0.1198E+02  0.1198E+02
     49.278  0.2954E-01  0.1652E-01  0.1198E+02  0.1198E+02
     49.467 -0.2958E-02 -0.2759E-02  0.1198E+02  0.1198E+02
     49.656 -0.6038E-03 -0.6464E-03  0.1198E+02  0.1198E+02
     49.845 -0.1500E-02 -0.7030E-03  0.1198E+02  0.1198E+02
     50.035  0.1353E-01  0.2308E-01  0.1198E+02  0.1199E+02
     50.224  0.3267E-01  0.2628E-01  0.1199E+02  0.1199E+02
     50.413  0.4289E-02  0.6729E-04  0.1199E+02  0.1199E+02
     50.602 -0.1512E-02 -0.1039E-02  0.1199E+02  0.1199E+02
     50.791  0.8091E-03  0.1085E-02  0.1199E+02  0.1199E+02
     50.980  0.1489E-01  0.1516E-01  0.1199E+02  0.1199E+02
     51.169  0.8477E-02  0.8094E-02  0.1200E+02  0.1200E+02
     51.359  0.5597E-02  0.9200E-02  0.1200E+02  0.1200E+02
     51.548  0.1638E-01  0.1437E-01  0.1200E+02  0.1200E+02
     51.737  0.2493E-02  0.5903E-03  0.1200E+02  0.1200E+02
     51.926 -0.5792E-03 -0.3791E-03  0.1200E+02  0.1200E+02
     52.115 -0.2830E-04 -0.1090E-04  0.1200E+02  0.1200E+02
     52.304 -0.1552E-06 -0.3914E-07  0.1200E+02  0.1200E+02
     52.493 -0.1253E-09 -0.2111E-10  0.1200E+02  0.1200E+02
     52.682 -0.1585E-13 -0.1799E-14  0.1200E+02  0.1200E+02
     52.872  0.0000E+00  0.0000E+00  0.1200E+02  0.1200E+02
     53.061  0.0000E+00  0.0000E+00  0.1200E+02  0.1200E+02
     53.250  0.0000E+00  0.0000E+00  0.1200E+02  0.1200E+02
     53.439  0.0000E+00  0.0000E+00  0.1200E+02  0.1200E+02
     53.628  0.0000E+00  0.0000E+00  0.1200E+02  0.1200E+02
     53.817  0.0000E+00  0.0000E+00  0.1200E+02  0.1200E+02
     54.006  0.0000E+00  0.0000E+00  0.1200E+02  0.1200E+02
     54.00643236     -2.73485974  301      8.41025583      1.00000000
     -2.735  0.0000E+00  0.0000E+00  0.0000E+00  0.0000E+00  0.0000E+00  0.0000E+00  0.0000E+00  0.0000E+00  0.0000E+00  0.0000E+00  0.0000E+00  0.0000E+00  0.0000E+00  0.0000E+00  0.0000E+00  0.0000E+00  0.0000E+00  0.0000E+00
     -2.546  0.0000E+00  0.0000E+00  0.0000E+00  0.0000E+00  0.0000E+00  0.0000E+00  0.0000E+00  0.0000E+00  0.0000E+00  0.0000E+00  0.0000E+00  0.0000E+00  0.0000E+00  0.0000E+00  0.0000E+00  0.0000E+00  0.0000E+00  0.0000E+00
     -2.357  0.0000E+00  0.0000E+00  0.0000E+00  0.0000E+00  0.0000E+00  0.0000E+00  0.0000E+00  0.0000E+00  0.0000E+00  0.0000E+00  0.0000E+00  0.0000E+00  0.0000E+00  0.0000E+00  0.0000E+00  0.0000E+00  0.0000E+00  0.0000E+00
     -2.167  0.0000E+00  0.0000E+00  0.0000E+00  0.0000E+00  0.0000E+00  0.0000E+00  0.0000E+00  0.0000E+00  0.0000E+00  0.0000E+00  0.0000E+00  0.0000E+00  0.0000E+00  0.0000E+00  0.0000E+00  0.0000E+00  0.0000E+00  0.0000E+00
     -1.978  0.0000E+00  0.0000E+00  0.0000E+00  0.0000E+00  0.0000E+00  0.0000E+00  0.0000E+00  0.0000E+00  0.0000E+00  0.0000E+00  0.0000E+00  0.0000E+00  0.0000E+00  0.0000E+00  0.0000E+00  0.0000E+00  0.0000E+00  0.0000E+00
     -1.789 -0.8243E-33 -0.6627E-31 -0.3299E-47 -0.2427E-46 -0.3299E-47 -0.2427E-46 -0.3299E-47 -0.2427E-46 -0.1558E-42 -0.5145E-41 -0.1558E-42 -0.5145E-41 -0.1216E-46 -0.5244E-44 -0.1558E-42 -0.5145E-41 -0.1216E-46 -0.5244E-44
     -1.600 -0.2532E-26 -0.1225E-24 -0.1013E-40 -0.2709E-36 -0.1013E-40 -0.2709E-36 -0.1013E-40 -0.2709E-36 -0.4786E-36 -0.9519E-35 -0.4786E-36 -0.9519E-35 -0.3735E-40 -0.9696E-38 -0.4786E-36 -0.9519E-35 -0.3735E-40 -0.9696E-38
     -1.411 -0.1280E-20 -0.3722E-19 -0.2365E-31 -0.1528E-29 -0.2365E-31 -0.1528E-29 -0.2365E-31 -0.1528E-29 -0.2426E-30 -0.2929E-29 -0.2426E-30 -0.2929E-29 -0.1913E-34 -0.2965E-32 -0.2426E-30 -0.2929E-29 -0.1913E-34 -0.2965E-32
     -1.222 -0.1026E-15 -0.1784E-14 -0.3640E-25 -0.1421E-23 -0.3640E-25 -0.1421E-23 -0.3640E-25 -0.1421E-23 -0.2047E-25 -0.1745E-24 -0.2047E-25 -0.1745E-24 -0.2524E-29 -0.1875E-27 -0.2047E-25 -0.1745E-24 -0.2524E-29 -0.1875E-27
     -1.033 -0.1358E-11 -0.1409E-10 -0.9210E-20 -0.2055E-18 -0.9210E-20 -0.2055E-18 -0.9210E-20 -0.2055E-18 -0.5306E-21 -0.6305E-20 -0.5306E-21 -0.6305E-20 -0.6932E-24 -0.1976E-22 -0.5306E-21 -0.6305E-20 -0.6932E-24 -0.1976E-22
     -0.843 -0.2845E-08 -0.1747E-07 -0.3674E-15 -0.5187E-14 -0.3674E-15 -0.5187E-14 -0.3674E-15 -0.5187E-14 -0.1144E-16 -0.1325E-15 -0.1144E-16 -0.1325E-15 -0.7142E-19 -0.1187E-17 -0.1144E-16 -0.1325E-15 -0.7142E-19 -0.1187E-17
     -0.654 -0.9002E-06 -0.3186E-05 -0.2426E-11 -0.2050E-10 -0.2426E-11 -0.2050E-10 -0.2426E-11 -0.2050E-10 -0.7162E-13 -0.5135E-12 -0.7162E-13 -0.5135E-12 -0.1248E-14 -0.1245E-13 -0.7162E-13 -0.5135E-12 -0.1248E-14 -0.1245E-13
     -0.465 -0.3669E-04 -0.6645E-04 -0.2531E-08 -0.1269E-07 -0.2531E-08 -0.1269E-07 -0.2531E-08 -0.1269E-07 -0.7316E-10 -0.3099E-09 -0.7316E-10 -0.3099E-09 -0.3473E-11 -0.2062E-10 -0.7316E-10 -0.3099E-09 -0.3473E-11 -0.2062E-10
     -0.276 -0.1732E-04  0.1666E-03 -0.3978E-06 -0.1149E-05 -0.3978E-06 -0.1149E-05 -0.3978E-06 -0.1149E-05 -0.1089E-07 -0.2607E-07 -0.1089E-07 -0.2607E-07 -0.1474E-08 -0.5098E-08 -0.1089E-07 -0.2607E-07 -0.1474E-08 -0.5098E-08
     -0.087  0.8106E-03  0.9505E-03 -0.7505E-05 -0.9869E-05 -0.7505E-05 -0.9869E-05 -0.7505E-05 -0.9869E-05 -0.1691E-06 -0.1563E-06 -0.1691E-06 -0.1563E-06 -0.8378E-07 -0.1536E-06 -0.1691E-06 -0.1563E-06 -0.8378E-07 -0.1536E-06
      0.102  0.4235E-02  0.8392E-02  0.2822E-04  0.7739E-04  0.2822E-04  0.7739E-04  0.2822E-04  0.7739E-04  0.9429E-06  0.1734E-05  0.9429E-06  0.1734E-05 -0.1628E-06  0.3584E-06  0.9429E-06  0.1734E-05 -0.1628E-06  0.3584E-06
      0.291  0.2181E-01  0.2311E-01  0.2344E-03  0.2537E-03  0.2344E-03  0.2537E-03  0.2344E-03  0.2537E-03  0.3960E-05  0.2820E-05  0.3960E-05  0.2820E-05  0.4269E-05  0.5159E-05  0.3960E-05  0.2820E-05  0.4269E-05  0.5159E-05
      0.480  0.1199E-01  0.7206E-02  0.1324E-03  0.9268E-04  0.1324E-03  0.9268E-04  0.1324E-03  0.9268E-04 -0.2168E-06  0.5576E-06 -0.2168E-06  0.5576E-06  0.4651E-05  0.2961E-05 -0.2168E-06  0.5576E-06  0.4651E-05  0.2961E-05
      0.670  0.1000E-01  0.1449E-01  0.2589E-03  0.3762E-03  0.2589E-03  0.3762E-03  0.2589E-03  0.3762E-03  0.1600E-04  0.1969E-04  0.1600E-04  0.1969E-04  0.3592E-05  0.4657E-05  0.1600E-04  0.1969E-04  0.3592E-05  0.4657E-05
      0.859  0.2185E-01  0.2529E-01  0.6169E-03  0.7997E-03  0.6169E-03  0.7997E-03  0.6169E-03  0.7997E-03  0.3649E-04  0.4135E-04  0.3649E-04  0.4135E-04  0.2334E-04  0.3865E-04  0.3649E-04  0.4135E-04  0.2334E-04  0.3865E-04
      1.048  0.4684E-01  0.5054E-01  0.1727E-02  0.1899E-02  0.1727E-02  0.1899E-02  0.1727E-02  0.1899E-02  0.1342E-03  0.1303E-03  0.1342E-03  0.1303E-03  0.1135E-03  0.1040E-03  0.1342E-03  0.1303E-03  0.1135E-03  0.1040E-03
      1.237  0.2902E-01  0.1699E-01  0.1090E-02  0.6487E-03  0.1090E-02  0.6487E-03  0.1090E-02  0.6487E-03  0.1147E-03  0.6058E-04  0.1147E-03  0.6058E-04  0.4676E-04  0.2112E-04  0.1147E-03  0.6058E-04  0.4676E-04  0.2112E-04
      1.426  0.2209E-02  0.3134E-02  0.1273E-03  0.1833E-03  0.1273E-03  0.1833E-03  0.1273E-03  0.1833E-03 -0.2247E-04 -0.2931E-04 -0.2247E-04 -0.2931E-04  0.6024E-04  0.7872E-04 -0.2247E-04 -0.2931E-04  0.6024E-04  0.7872E-04
      1.615  0.1280E-01  0.1927E-01  0.7486E-03  0.1191E-02  0.7486E-03  0.1191E-02  0.7486E-03  0.1191E-02  0.7497E-04  0.1506E-03  0.7497E-04  0.1506E-03  0.1304E-03  0.1242E-03  0.7497E-04  0.1506E-03  0.1304E-03  0.1242E-03
      1.804  0.5864E-01  0.6559E-01  0.3831E-02  0.4367E-02  0.3831E-02  0.4367E-02  0.3831E-02  0.4367E-02  0.7196E-03  0.6336E-03  0.7196E-03  0.6336E-03  0.3882E-03  0.4122E-03  0.7196E-03  0.6336E-03  0.3882E-03  0.4122E-03
      1.994  0.4433E-01  0.3280E-01  0.2994E-02  0.2279E-02  0.2994E-02  0.2279E-02  0.2994E-02  0.2279E-02  0.4794E-03  0.3084E-03  0.4794E-03  0.3084E-03  0.4201E-03  0.2840E-03  0.4794E-03  0.3084E-03  0.4201E-03  0.2840E-03
      2.183  0.2702E-01  0.2961E-01  0.2139E-02  0.2419E-02  0.2139E-02  0.2419E-02  0.2139E-02  0.2419E-02  0.7876E-03  0.6924E-03  0.7876E-03  0.6924E-03  0.2108E-03  0.2108E-03  0.7876E-03  0.6924E-03  0.2108E-03  0.2108E-03
      2.372  0.4348E-01  0.4459E-01  0.3731E-02  0.3978E-02  0.3731E-02  0.3978E-02  0.3731E-02  0.3978E-02  0.1202E-02  0.8796E-03  0.1202E-02  0.8796E-03  0.9651E-03  0.9951E-03  0.1202E-02  0.8796E-03  0.9651E-03  0.9951E-03
      2.561  0.3689E-01  0.3279E-01  0.3419E-02  0.3090E-02  0.3419E-02  0.3090E-02  0.3419E-02  0.3090E-02  0.6722E-03  0.4642E-03  0.6722E-03  0.4642E-03  0.1537E-02  0.1141E-02  0.6722E-03  0.4642E-03  0.1537E-02  0.1141E-02
      2.750  0.3537E-02  0.2592E-02  0.3487E-03  0.2779E-03  0.3487E-03  0.2779E-03  0.3487E-03  0.2779E-03 -0.4057E-04  0.2057E-04 -0.4057E-04  0.2057E-04  0.7175E-04 -0.1276E-04 -0.4057E-04  0.2057E-04  0.7175E-04 -0.1276E-04
      2.939  0.3430E-01  0.3176E-01  0.4031E-02  0.3843E-02  0.4031E-02  0.3843E-02  0.4031E-02  0.3843E-02  0.2346E-02  0.1518E-02  0.2346E-02  0.1518E-02  0.8992E-03  0.7569E-03  0.2346E-02  0.1518E-02  0.8992E-03  0.7569E-03
      3.128  0.9370E-01  0.9465E-01  0.1112E-01  0.1160E-01  0.1112E-01  0.1160E-01  0.1112E-01  0.1160E-01  0.7053E-02  0.5344E-02  0.7053E-02  0.5344E-02  0.3669E-02  0.3126E-02  0.7053E-02  0.5344E-02  0.3669E-02  0.3126E-02
      3.318  0.4129E-01  0.3931E-01  0.5199E-02  0.5050E-02  0.5199E-02  0.5050E-02  0.5199E-02  0.5050E-02  0.3352E-02  0.1923E-02  0.3352E-02  0.1923E-02  0.3303E-02  0.2385E-02  0.3352E-02  0.1923E-02  0.3303E-02  0.2385E-02
      3.507  0.5418E-01  0.4208E-01  0.7044E-02  0.5975E-02  0.7044E-02  0.5975E-02  0.7044E-02  0.5975E-02  0.8763E-02  0.3700E-02  0.8763E-02  0.3700E-02  0.5582E-02  0.4204E-02  0.8763E-02  0.3700E-02  0.5582E-02  0.4204E-02
      3.696  0.3577E-01  0.5017E-01  0.4882E-02  0.6926E-02  0.4882E-02  0.6926E-02  0.4882E-02  0.6926E-02  0.5227E-02  0.6904E-02  0.5227E-02  0.6904E-02  0.4499E-02  0.3541E-02  0.5227E-02  0.6904E-02  0.4499E-02  0.3541E-02
      3.885  0.2787E-01  0.1903E-01  0.3958E-02  0.2853E-02  0.3958E-02  0.2853E-02  0.3958E-02  0.2853E-02  0.8540E-02  0.1719E-02  0.8540E-02  0.1719E-02  0.9445E-02  0.4240E-02  0.8540E-02  0.1719E-02  0.9445E-02  0.4240E-02
      4.074  0.9216E-01  0.3187E-01  0.1239E-01  0.5892E-02  0.1239E-01  0.5892E-02  0.1239E-01  0.5892E-02  0.5196E-01  0.3626E-02  0.5196E-01  0.3626E-02  0.1192E-01  0.9735E-02  0.5196E-01  0.3626E-02  0.1192E-01  0.9735E-02
      4.263  0.9744E-01  0.9072E-01  0.1490E-01  0.1512E-01  0.1490E-01  0.1512E-01  0.1490E-01  0.1512E-01  0.5099E-01  0.3019E-01  0.5099E-01  0.3019E-01  0.5685E-01  0.7888E-02  0.5099E-01  0.3019E-01  0.5685E-01  0.7888E-02
      4.452  0.7976E-01  0.9206E-01  0.1322E-01  0.1481E-01  0.1322E-01  0.1481E-01  0.1322E-01  0.1481E-01  0.5327E-01  0.3898E-01  0.5327E-01  0.3898E-01  0.1121E+00  0.2559E-01  0.5327E-01  0.3898E-01  0.1121E+00  0.2559E-01
      4.642  0.4763E-01  0.6830E-01  0.7293E-02  0.1141E-01  0.7293E-02  0.1141E-01  0.7293E-02  0.1141E-01  0.7139E-01  0.2906E-01  0.7139E-01  0.2906E-01  0.1012E+00  0.7940E-01  0.7139E-01  0.2906E-01  0.1012E+00  0.7940E-01
      4.831  0.4775E-01  0.5029E-01  0.1300E-01  0.7442E-02  0.1300E-01  0.7442E-02  0.1300E-01  0.7442E-02  0.1462E+00  0.3898E-01  0.1462E+00  0.3898E-01  0.1172E+00  0.7684E-01  0.1462E+00  0.3898E-01  0.1172E+00  0.7684E-01
      5.020  0.4607E-01  0.5186E-01  0.1734E-01  0.9973E-02  0.1734E-01  0.9973E-02  0.1734E-01  0.9973E-02  0.2232E+00  0.5270E-01  0.2232E+00  0.5270E-01  0.1336E+00  0.9689E-01  0.2232E+00  0.5270E-01  0.1336E+00  0.9689E-01
      5.209  0.1086E-01  0.6142E-01  0.1516E-01  0.1856E-01  0.1516E-01  0.1856E-01  0.1516E-01  0.1856E-01  0.1899E+00  0.7015E-01  0.1899E+00  0.7015E-01  0.1237E+00  0.1153E+00  0.1899E+00  0.7015E-01  0.1237E+00  0.1153E+00
      5.398  0.4934E-02  0.3394E-01  0.1669E-01  0.1282E-01  0.1669E-01  0.1282E-01  0.1669E-01  0.1282E-01  0.1887E+00  0.1294E+00  0.1887E+00  0.1294E+00  0.1220E+00  0.1253E+00  0.1887E+00  0.1294E+00  0.1220E+00  0.1253E+00
      5.587  0.2317E-02  0.1644E-01  0.1580E-01  0.1522E-01  0.1580E-01  0.1522E-01  0.1580E-01  0.1522E-01  0.1601E+00  0.1856E+00  0.1601E+00  0.1856E+00  0.1474E+00  0.1133E+00  0.1601E+00  0.1856E+00  0.1474E+00  0.1133E+00
      5.776  0.6494E-02  0.6457E-02  0.2089E-01  0.1703E-01  0.2089E-01  0.1703E-01  0.2089E-01  0.1703E-01  0.2459E+00  0.1886E+00  0.2459E+00  0.1886E+00  0.1280E+00  0.8380E-01  0.2459E+00  0.1886E+00  0.1280E+00  0.8380E-01
      5.965  0.1226E-01  0.4511E-02  0.2461E-01  0.1841E-01  0.2461E-01  0.1841E-01  0.2461E-01  0.1841E-01  0.2921E+00  0.1828E+00  0.2921E+00  0.1828E+00  0.1517E+00  0.1319E+00  0.2921E+00  0.1828E+00  0.1517E+00  0.1319E+00
      6.155  0.1210E-01  0.1693E-02  0.2143E-01  0.1508E-01  0.2143E-01  0.1508E-01  0.2143E-01  0.1508E-01  0.2897E+00  0.1545E+00  0.2897E+00  0.1545E+00  0.1890E+00  0.9487E-01  0.2897E+00  0.1545E+00  0.1890E+00  0.9487E-01
      6.344  0.9589E-02  0.5646E-02  0.2049E-01  0.2609E-01  0.2049E-01  0.2609E-01  0.2049E-01  0.2609E-01  0.3524E+00  0.2510E+00  0.3524E+00  0.2510E+00  0.2556E+00  0.1294E+00  0.3524E+00  0.2510E+00  0.2556E+00  0.1294E+00
      6.533  0.1356E-01  0.8847E-02  0.2195E-01  0.2408E-01  0.2195E-01  0.2408E-01  0.2195E-01  0.2408E-01  0.3822E+00  0.2717E+00  0.3822E+00  0.2717E+00  0.2490E+00  0.1084E+00  0.3822E+00  0.2717E+00  0.2490E+00  0.1084E+00
      6.722  0.1384E-01  0.1173E-01  0.1605E-01  0.2500E-01  0.1605E-01  0.2500E-01  0.1605E-01  0.2500E-01  0.2554E+00  0.2794E+00  0.2554E+00  0.2794E+00  0.2126E+00  0.1790E+00  0.2554E+00  0.2794E+00  0.2126E+00  0.1790E+00