    1    1    1    2
  0.1166400E+02  0.2545584E-09  0.2545584E-09  0.2545584E-09  0.5000000E-15
  1.000000000000000E-004
  CAR 
 fcc Ni                                  
     10     56     12
 
  0.0000000E+00  0.0000000E+00  0.0000000E+00  0.7513148E-03
      1         -0.102462       -0.155710   1.000000   1.000000
      2          6.197185        6.878073   1.000000   1.000000
      3          6.197191        6.878077   1.000000   1.000000
      4          6.197214        6.878099   1.000000   1.000000
      5          7.243398        7.821375   1.000000   1.000127
      6          7.243399        7.821375   1.000000   1.000127
      7         31.596098       31.416482   0.000000   0.000000
      8         34.898653       34.872657   0.000000   0.000000
      9         34.898794       34.872806   0.000000   0.000000
     10         34.898795       34.872809   0.000000   0.000000
     11         37.832790       37.880083   0.000000   0.000000
     12         37.832909       37.880131   0.000000   0.000000
 
  0.9090909E-01  0.5067495E-17  0.1200639E-16  0.6010518E-02
      1          0.203339        0.150462   1.000000   1.000000
      2          6.123062        6.794496   1.000000   1.000000
      3          6.259808        6.942699   1.000000   1.000000
      4          6.259836        6.942729   1.000000   1.000000
      5          7.218953        7.795726   1.000000   1.000062
      6          7.218964        7.795742   1.000000   1.000062
      7         30.027986       29.980410   0.000000   0.000000
      8         32.715760       32.618367   0.000000   0.000000
      9         34.238843       34.247619   0.000000   0.000000
     10         34.238971       34.247755   0.000000   0.000000
     11         38.846509       38.847021   0.000000   0.000000
     12         38.846586       38.847221   0.000000   0.000000
 
  0.1818182E+00  0.5971654E-17 -0.7906134E-17  0.6010518E-02
      1          1.083790        1.035892   1.000000   1.000000
      2          5.968261        6.607911   1.000000   1.000000
      3          6.374850        7.048450   1.000000   1.000000
      4          6.374893        7.048507   1.000000   1.000000
      5          7.209923        7.799491   1.000000   1.000069
      6          7.209946        7.799534   1.000000   1.000069
      7         25.566378       25.620137   0.000000   0.000000
      8         32.115587       31.974719   0.000000   0.000000
      9         33.276495       33.320684   0.000000   0.000000
     10         33.276592       33.320795   0.000000   0.000000
     11         38.962604       38.885790   0.000000   0.000000
     12         39.603023       39.559866   0.000000   0.000000
 
  0.2727273E+00 -0.7569702E-18 -0.7569702E-18  0.6010518E-02
      1          2.372335        2.361431   1.000000   1.000000
      2          5.933494        6.492193   1.000000   1.000000
      3          6.388491        7.020731   1.000000   1.000000
      4          6.388538        7.020798   1.000000   1.000000
      5          7.365452        8.002220   1.000000   1.007006
      6          7.365482        8.002271   1.000000   1.007012
      7         21.105881       21.219386   0.000000   0.000000
      8         31.410789       31.261572   0.000000   0.000000
      9         32.567062       32.630704   0.000000   0.000000
     10         32.567071       32.630731   0.000000   0.000000
     11         37.790764       37.789632   0.000000   0.000000
     12         37.790881       37.789748   0.000000   0.000000
 
  0.3636364E+00  0.1749442E-16 -0.1026115E-16  0.6010518E-02
      1          3.523797        3.686510   1.000000   1.000000
      2          6.297258        6.841706   1.000000   1.000000
      3          6.297294        6.897290   1.000000   1.000000
      4          6.528711        6.897343   1.000000   1.000000
      5          7.624523        8.302348   1.000000   0.891038
      6          7.624555        8.302398   1.000000   0.890908
      7         17.126292       17.317536   0.000000   0.000000
      8         30.645236       30.485600   0.000000   0.000000
      9         32.136357       32.205770   0.000000   0.000000
     10         32.136531       32.205865   0.000000   0.000000
     11         36.036990       36.044834   0.000000   0.000000
     12         36.037374       36.045156   0.000000   0.000000
 
  0.4545455E+00  0.5214684E-17  0.5214684E-17  0.6010518E-02
      1          3.944431        4.306686   1.000000   1.000000
      2          6.219885        6.806081   1.000000   1.000000
      3          6.219909        6.806122   1.000000   1.000000
      4          7.810834        7.913132   1.000095   1.001234
      5          7.810857        8.509304   1.000095   0.132528
      6          7.928272        8.509344   1.001715   0.132416
      7         14.161280       14.483263   0.000000   0.000000
      8         30.171609       30.005535   0.000000   0.000000
      9         31.942609       32.009505   0.000000   0.000000
     10         31.942943       32.009718   0.000000   0.000000
     11         35.047640       35.061506   0.000000   0.000000
     12         35.048250       35.061997   0.000000   0.000000
 
  0.9090909E-01  0.9090909E-01  0.1994143E-17  0.4507889E-02
      1          0.304707        0.251871   1.000000   1.000000
      2          6.062658        6.732078   1.000000   1.000000
      3          6.303506        6.988270   1.000000   1.000000
      4          6.303522        6.988284   1.000000   1.000000
      5          7.120356        7.690008   1.000000   1.000002
      6          7.293073        7.872927   1.000000   1.000483
      7         30.736390       30.623118   0.000000   0.000000
      8         32.352294       32.385588   0.000000   0.000000
      9         32.352376       32.385683   0.000000   0.000000
     10         33.357892       33.291959   0.000000   0.000000
     11         39.565439       39.559457   0.000000   0.000000
     12         40.342836       40.303684   0.000000   0.000000
 
  0.1818182E+00  0.9090909E-01 -0.6728624E-17  0.1803156E-01
      1          0.993023        0.943016   1.000000   1.000000
      2          5.900751        6.551243   1.000000   1.000000
      3          6.424109        7.101845   1.000000   1.000000
      4          6.433298        7.116303   1.000000   1.000000
      5          7.029349        7.600608   1.000000   1.000000
      6          7.339140        7.927384   1.000000   1.001683
      7         27.306727       27.338876   0.000000   0.000000
      8         30.895250       30.944130   0.000000   0.000000
      9         31.086433       31.007852   0.000000   0.000000
     10         34.369978       34.303654   0.000000   0.000000
     11         37.389357       37.498557   0.000000   0.000000
     12         39.824235       39.857923   0.000000   0.000000
 
  0.2727273E+00  0.9090909E-01  0.1984944E-16  0.1803156E-01
      1          2.159149        2.129993   1.000000   1.000000
      2          5.767999        6.373785   1.000000   1.000000
      3          6.411648        7.029755   1.000000   1.000000
      4          6.502242        7.155080   1.000000   1.000000
      5          7.194631        7.816416   1.000000   1.000111
      6          7.468705        8.094781   1.000000   1.024113
      7         22.750756       22.840525   0.000000   0.000000
      8         29.935932       29.992574   0.000000   0.000000
      9         30.406969       30.321562   0.000000   0.000000
     10         33.896199       33.942860   0.000000   0.000000
     11         37.092852       37.070791   0.000000   0.000000
     12         39.608469       39.629843   0.000000   0.000000
 
  0.3636364E+00  0.9090909E-01 -0.7569702E-18  0.1803156E-01
      1          3.420139        3.508515   1.000000   1.000000
      2          5.952015        6.422701   1.000000   1.000000
      3          6.256958        6.848518   1.000000   1.000000
      4          6.443611        7.059937   1.000000   1.000000
      5          7.686872        8.320718   1.000002   0.840028
      6          7.702741        8.357352   1.000003   0.715407
      7         18.573520       18.726446   0.000000   0.000000
      8         29.507469       29.565179   0.000000   0.000000
      9         29.668501       29.571495   0.000000   0.000000
     10         31.993096       32.073653   0.000000   0.000000
     11         37.475710       37.429181   0.000000   0.000000
     12         39.200573       39.198287   0.000000   0.000000
 
  0.4545455E+00  0.9090909E-01 -0.1581227E-16  0.1803156E-01
      1          4.049221        4.377043   1.000000   1.000000
      2          6.123149        6.644870   1.000000   1.000000
      3          6.354853        6.949081   1.000000   1.000000
      4          6.675664        7.067745   1.000000   1.000000
      5          7.837486        8.534089   1.000196   0.071572
      6          8.656996        9.093041  -0.035446  -0.000008
      7         15.096894       15.353814   0.000000   0.000000
      8         28.806898       28.737084   0.000000   0.000000
      9         29.694329       29.749600   0.000000   0.000000
     10         30.878530       30.915870   0.000000   0.000000
     11         37.343867       37.310698   0.000000   0.000000
     12         37.710675       37.721317   0.000000   0.000000
 
 -0.4545455E+00  0.9090909E-01  0.1513940E-17  0.1803156E-01
      1          4.145326        4.540831   1.000000   1.000000
      2          6.100543        6.641770   1.000000   1.000000
      3          6.316676        6.902425   1.000000   1.000000
      4          6.995007        7.382306   1.000000   1.000000
      5          7.799295        8.501369   1.000069   0.155274
      6          9.363548        9.636642  -0.000000  -0.000000
      7         13.770290       14.115875  -0.000000   0.000000
      8         27.958203       27.937828   0.000000   0.000000
      9         30.555885       30.612536   0.000000   0.000000
     10         30.727080       30.699713   0.000000   0.000000
     11         36.679331       36.697270   0.000000   0.000000
     12         37.400173       37.377070   0.000000   0.000000
 
 -0.3636364E+00  0.9090909E-01  0.1698978E-16  0.1803156E-01
      1          3.931915        4.187947   1.000000   1.000000
      2          6.179893        6.717879   1.000000   1.000000
      3          6.359886        6.870940   1.000000   1.000000
      4          6.491707        6.950424   1.000000   1.000000
      5          7.568876        8.256518   1.000000   0.981597
      6          8.424682        8.978311   0.439135  -0.000222
      7         16.142895       16.358748   0.000000   0.000000
      8         27.505457       27.514165   0.000000   0.000000
      9         31.332860       31.269675   0.000000   0.000000
     10         32.112257       32.177798   0.000000   0.000000
     11         36.107523       36.126356   0.000000   0.000000
     12         37.529616       37.507012   0.000000   0.000000
 
 -0.2727273E+00  0.9090909E-01  0.1026115E-16  0.1803156E-01
      1          3.041188        3.069243   1.000000   1.000000
      2          5.869527        6.404678   1.000000   1.000000
      3          6.317487        6.914553   1.000000   1.000000
      4          6.463415        7.077969   1.000000   1.000000
      5          7.245175        7.897411   1.000000   1.000865
      6          7.819547        8.462619   1.000121   0.286631
      7         19.919791       20.049967   0.000000   0.000000
      8         27.553296       27.575460   0.000000   0.000000
      9         32.540848       32.462898   0.000000   0.000000
     10         34.319799       34.401858   0.000000   0.000000
     11         36.006762       36.010187   0.000000   0.000000
     12         37.242772       37.199578   0.000000   0.000000
 
 -0.1818182E+00  0.9090909E-01  0.7569702E-18  0.1803156E-01
      1          1.732383        1.691890   1.000000   1.000000
      2          5.835071        6.460868   1.000000   1.000000
      3          6.407598        7.046211   1.000000   1.000000
      4          6.494635        7.169023   1.000000   1.000000
      5          7.037215        7.622054   1.000000   1.000000
      6          7.467761        8.088526   1.000000   1.022666
      7         24.248347       24.320377   0.000000   0.000000
      8         28.078686       28.100092   0.000000   0.000000
      9         33.968735       33.881484   0.000000   0.000000
     10         36.154660       36.172065   0.000000   0.000000
     11         36.545731       36.477792   0.000000   0.000000
     12         37.115442       37.160977   0.000000   0.000000
 
 -0.9090909E-01  0.9090909E-01  0.9672398E-18  0.9015778E-02
      1          0.701570        0.650173   1.000000   1.000000
      2          5.997815        6.656010   1.000000   1.000000
      3          6.352877        7.034687   1.000000   1.000000
      4          6.359986        7.042131   1.000000   1.000000
      5          7.097586        7.665697   1.000000   1.000001
      6          7.293973        7.881691   1.000000   1.000598
      7         28.480372       28.485167   0.000000   0.000000
      8         29.459114       29.472030   0.000000   0.000000
      9         34.028747       33.940437   0.000000   0.000000
     10         36.055596       36.027836   0.000000   0.000000
     11         37.298125       37.233541   0.000000   0.000000
     12         38.195967       38.232813   0.000000   0.000000
 
  0.1818182E+00  0.1818182E+00 -0.9889501E-17  0.4507889E-02
      1          1.466090        1.418857   1.000000   1.000000
      2          5.705121        6.346136   1.000000   1.000000
      3          6.611714        7.308545   1.000000   1.000000
      4          6.611742        7.308572   1.000000   1.000000
      5          6.836050        7.376269   1.000000   1.000000
      6          7.422930        8.008394   1.000000   1.007757
      7         29.039779       29.090977   0.000000   0.000000
      8         29.039841       29.091055   0.000000   0.000000
      9         29.377176       29.350637   0.000000   0.000000
     10         30.715163       30.627492   0.000000   0.000000
     11         35.063256       35.246294   0.000000   0.000000
     12         43.395060       43.340623   0.000000   0.000000
 
  0.2727273E+00  0.1818182E+00 -0.6728624E-17  0.1803156E-01
      1          2.422305        2.393314   1.000000   1.000000
      2          5.508848        6.127472   1.000000   1.000000
      3          6.503932        7.075911   1.000000   1.000000
      4          6.768479        7.452293   1.000000   1.000000
      5          7.100062        7.741353   1.000000   1.000012
      6          7.539431        8.149428   1.000000   1.034588
      7         24.792794       24.855804   0.000000   0.000000
      8         27.762865       27.813474   0.000000   0.000000
      9         29.005936       28.959758   0.000000   0.000000
     10         30.632710       30.659710   0.000000   0.000000
     11         34.399479       34.523183   0.000000   0.000000
     12         42.974922       42.889685   0.000000   0.000000
 
  0.3636364E+00  0.1818182E+00  0.1013499E-16  0.1803156E-01
      1          3.594857        3.648313   1.000000   1.000000
      2          5.437480        6.002980   1.000000   1.000000
      3          6.245262        6.802093   1.000000   1.000000
      4          6.773222        7.415037   1.000000   1.000000
      5          7.737638        8.399047   1.000011   0.547348
      6          7.863616        8.455621   1.000384   0.313412
      7         20.477398       20.587109   0.000000   0.000000
      8         27.118620       27.165712   0.000000   0.000000
      9         27.320690       27.318102   0.000000   0.000000
     10         30.109293       30.159951   0.000000   0.000000
     11         37.114231       37.166484   0.000000   0.000000
     12         42.031344       41.950668   0.000000   0.000000
 
  0.4545455E+00  0.1818182E+00 -0.3532528E-17  0.1803156E-01
      1          4.364112        4.652193   1.000000   1.000000
      2          5.639252        6.067820   1.000000   1.000000
      3          6.142713        6.705668   1.000000   1.000000
      4          6.689379        7.300160   1.000000   1.000000
      5          7.866207        8.562532   1.000409   0.020503
      6          9.216754        9.650227  -0.000000  -0.000000
      7         16.646839       16.824432   0.000000   0.000000
      8         25.582218       25.613665   0.000000   0.000000
      9         27.179358       27.224457   0.000000   0.000000
     10         29.836601       29.857242   0.000000   0.000000
     11         40.477214       40.469249   0.000000   0.000000
     12         41.224116       41.219004   0.000000   0.000000
 
 -0.4545455E+00  0.1818182E+00  0.8242565E-17  0.1803156E-01
      1          4.564582        4.997120   1.000000   1.000000
      2          5.751546        6.163952   1.000000   1.000000
      3          6.317685        6.844251   1.000000   1.000000
      4          6.620168        7.212201   1.000000   1.000000
      5          7.806068        8.514979   1.000083   0.117209
      6         10.882997       11.115549  -0.000000  -0.000000
      7         14.007330       14.307351   0.000000   0.000000
      8         24.230577       24.280644   0.000000   0.000000
      9         27.990586       28.038808   0.000000   0.000000
     10         29.974245       29.964063   0.000000   0.000000
     11         40.054213       40.057784   0.000000   0.000000
     12         40.422924       40.365181   0.000000   0.000000
 
 -0.3636364E+00  0.1818182E+00  0.1513940E-17  0.1803156E-01
      1          4.528615        4.886659   1.000000   1.000000
      2          5.868177        6.308352   1.000000   1.000000
      3          6.148096        6.656121   1.000000   1.000000
      4          6.612581        7.196054   1.000000   1.000000
      5          7.541680        8.246224   1.000000   0.995026
      6          9.972643       10.360544  -0.000000  -0.000000
      7         15.580065       15.799615   0.000000   0.000000
      8         23.406297       23.468252   0.000000   0.000000
      9         29.513631       29.569712   0.000000   0.000000
     10         30.604656       30.570629   0.000000   0.000000
     11         39.307245       39.319686   0.000000   0.000000
     12         39.671547       39.604977   0.000000   0.000000
 
 -0.2727273E+00  0.1818182E+00 -0.5214684E-17  0.1803156E-01
      1          4.006568        4.112605   1.000000   1.000000
      2          5.707656        6.251927   1.000000   1.000000
      3          6.082859        6.626570   1.000000   1.000000
      4          6.691789        7.274965   1.000000   1.000000
      5          7.166377        7.855956   1.000000   1.000316
      6          8.672351        9.255250  -0.034453  -0.000000
      7         19.177517       19.315244   0.000000   0.000000
      8         23.181074       23.249657   0.000000   0.000000
      9         31.669961       31.731399   0.000000   0.000000
     10         31.808547       31.759461   0.000000   0.000000
     11         38.361011       38.270313   0.000000   0.000000
     12         39.101009       39.119084   0.000000   0.000000
 
 -0.1818182E+00  0.1818182E+00 -0.1194331E-16  0.9015778E-02
      1          2.832376        2.818664   1.000000   1.000000
      2          5.666216        6.275439   1.000000   1.000000
      3          6.302241        6.888876   1.000000   1.000000
      4          6.755977        7.418037   1.000000   1.000000
      5          6.866595        7.467505   1.000000   1.000000
      6          7.927021        8.565317   1.001670   0.016543
      7         23.058908       23.160367   0.000000   0.000000
      8         23.822937       23.875734   0.000000   0.000000
      9         33.518333       33.461482   0.000000   0.000000
     10         34.263566       34.316774   0.000000   0.000000
     11         36.561616       36.455934   0.000000   0.000000
     12         39.356615       39.368762   0.000000   0.000000
 
  0.2727273E+00  0.2727273E+00  0.4594652E-17  0.4507889E-02
      1          3.069386        3.074110   1.000000   1.000000
      2          5.259772        5.866468   1.000000   1.000000
      3          6.752355        7.202932   1.000000   1.000000
      4          7.073618        7.792109   1.000000   1.000056
      5          7.073649        7.792139   1.000000   1.000056
      6          7.599579        8.192136   1.000000   1.032155
      7         26.156994       26.198543   0.000000   0.000000
      8         26.157055       26.198624   0.000000   0.000000
      9         26.674452       26.676810   0.000000   0.000000
     10         28.341980       28.380528   0.000000   0.000000
     11         31.863565       31.996544   0.000000   0.000000
     12         47.200393       47.096367   0.000000   0.000000
 
  0.3636364E+00  0.2727273E+00  0.2985827E-17  0.1803156E-01
      1          3.862168        3.965225   1.000000   1.000000
      2          5.093269        5.680405   1.000000   1.000000
      3          6.656530        7.139928   1.000000   1.000000
      4          7.203355        7.883247   1.000000   1.000620
      5          7.754656        8.400121   1.000018   0.542825
      6          7.871876        8.451139   1.000471   0.330952
      7         22.697423       22.759939   0.000000   0.000000
      8         24.424590       24.482477   0.000000   0.000000
      9         25.223964       25.256102   0.000000   0.000000
     10         28.973388       29.022787   0.000000   0.000000
     11         32.745103       32.830259   0.000000   0.000000
     12         46.766534       46.767046   0.000000   0.000000
 
  0.4545455E+00  0.2727273E+00  0.4583875E-17  0.1803156E-01
      1          4.477891        4.744636   1.000000   1.000000
      2          5.093171        5.631323   1.000000   1.000000
      3          6.446880        6.965565   1.000000   1.000000
      4          7.150384        7.784195   1.000000   1.000044
      5          7.889140        8.586604   1.000713  -0.008106
      6          9.513431        9.909281  -0.000000  -0.000000
      7         18.779619       18.887322   0.000000   0.000000
      8         22.389121       22.472062   0.000000   0.000000
      9         25.059724       25.087928   0.000000   0.000000
     10         29.124384       29.173130   0.000000   0.000000
     11         36.043937       36.096904   0.000000   0.000000
     12         45.077534       45.052905   0.000000   0.000000
 
 -0.4545455E+00  0.2727273E+00  0.2052230E-16  0.1803156E-01
      1          4.813710        5.250873   1.000000   1.000000
      2          5.248736        5.676301   1.000000   1.000000
      3          6.255661        6.805099   1.000000   1.000000
      4          7.057576        7.659253   1.000000   1.000001
      5          7.829605        8.551527   1.000159   0.037928
      6         11.829354       12.075305  -0.000000  -0.000000
      7         15.367980       15.547806   0.000000   0.000000
      8         20.834786       20.934036   0.000000   0.000000
      9         25.710909       25.744576   0.000000   0.000000
     10         29.307778       29.337587   0.000000   0.000000
     11         40.222238       40.256671   0.000000   0.000000
     12         43.672515       43.653344   0.000000   0.000000
 
 -0.3636364E+00  0.2727273E+00  0.2691450E-17  0.1803156E-01
      1          5.006245        5.474921   1.000000   1.000000
      2          5.445563        5.824727   1.000000   1.000000
      3          5.995384        6.550467   1.000000   1.000000
      4          6.981096        7.553960   1.000000   1.000000
      5          7.571118        8.304533   1.000000   0.885407
      6         12.047221       12.302722  -0.000000  -0.000000
      7         15.282503       15.480083   0.000000   0.000000
      8         19.843239       19.952158   0.000000   0.000000
      9         27.121312       27.166994   0.000000   0.000000
     10         29.784505       29.788998   0.000000   0.000000
     11         42.650159       42.630700   0.000000   0.000000
     12         42.752913       42.663131   0.000000   0.000000
 
 -0.2727273E+00  0.2727273E+00  0.1513940E-17  0.9015778E-02
      1          4.845403        5.103522   1.000000   1.000000
      2          5.681820        6.217962   1.000000   1.000000
      3          5.745375        6.248574   1.000000   1.000000
      4          6.905708        7.454075   1.000000   1.000000
      5          7.259164        7.998098   1.000000   1.006537
      6         10.040768       10.477173  -0.000000  -0.000000
      7         18.284388       18.431659   0.000000   0.000000
      8         19.881211       19.982358   0.000000   0.000000
      9         29.154860       29.211696   0.000000   0.000000
     10         30.636964       30.615823   0.000000   0.000000
     11         40.720268       40.612516   0.000000   0.000000
     12         41.666931       41.645578   0.000000   0.000000
 
  0.3636364E+00  0.3636364E+00  0.1907880E-16  0.4507889E-02
      1          4.076305        4.288369   1.000000   1.000000
      2          4.864763        5.443232   1.000000   1.000000
      3          7.574228        8.132536   1.000000   1.032181
      4          7.574276        8.321728   1.000000   0.836988
      5          7.768265        8.321777   1.000028   0.836837
      6          7.943563        8.367314   1.002359   0.677138
      7         21.783670       21.877406   0.000000   0.000000
      8         23.982102       23.997972   0.000000   0.000000
      9         23.982163       23.998057   0.000000   0.000000
     10         27.691194       27.774635   0.000000   0.000000
     11         30.775035       30.878641   0.000000   0.000000
     12         50.944998       50.939027   0.000000   0.000000
 
  0.4545455E+00  0.3636364E+00 -0.1177509E-17  0.1803156E-01
      1          4.292446        4.591781   1.000000   1.000000
      2          4.784531        5.350433   1.000000   1.000000
      3          7.329030        7.918504   1.000000   1.001389
      4          7.607297        8.255910   1.000000   0.982457
      5          7.897482        8.606763   1.000866  -0.023219
      6          9.694483        9.933728  -0.000000  -0.000000
      7         19.684265       19.814724   0.000000   0.000000
      8         21.305917       21.355380   0.000000   0.000000
      9         23.533358       23.540568   0.000000   0.000000
     10         28.379309       28.451900   0.000000   0.000000
     11         32.005272       32.088854   0.000000   0.000000
     12         49.033215       48.993313   0.000000   0.000000
 
 -0.4545455E+00  0.3636364E+00  0.7721096E-16  0.1803156E-01
      1          4.565951        4.927529   1.000000   1.000000
      2          4.880746        5.420063   1.000000   1.000000
      3          6.880599        7.454806   1.000000   1.000000
      4          7.511368        8.114902   1.000000   1.028674
      5          7.868542        8.615756   1.000434  -0.027751
      6         12.013009       12.190758  -0.000000  -0.000000
      7         17.697199       17.803014   0.000000   0.000000
      8         18.366645       18.516915   0.000000   0.000000
      9         23.961027       23.973836   0.000000   0.000000
     10         28.795838       28.857340   0.000000   0.000000
     11         35.560550       35.617120   0.000000   0.000000
     12         47.241417       47.195296   0.000000   0.000000
 
 -0.3636364E+00  0.3636364E+00  0.1497119E-16  0.9015778E-02
      1          4.892443        5.329208   1.000000   1.000000
      2          5.107500        5.571160   1.000000   1.000000
      3          6.357301        6.916512   1.000000   1.000000
      4          7.322498        7.890520   1.000000   1.000737
      5          7.687796        8.449911   1.000002   0.335806
      6         14.317979       14.472606   0.000000   0.000000
      7         14.660371       14.819882   0.000000   0.000000
      8         17.884924       18.051020   0.000000   0.000000
      9         25.207784       25.236894   0.000000   0.000000
     10         29.179868       29.217518   0.000000   0.000000
     11         40.062091       40.103824   0.000000   0.000000
     12         45.339794       45.291286   0.000000   0.000000
 
  0.4545455E+00  0.4545455E+00 -0.5294849E-17  0.4507889E-02
      1          4.192997        4.521506   1.000000   1.000000
      2          4.637176        5.200040   1.000000   1.000000
      3          7.865646        8.468874   1.000404   0.263383
      4          7.909351        8.681643   1.001135  -0.033223
      5          7.909403        8.681698   1.001136  -0.033215
      6         10.286585       10.269478  -0.000000  -0.000000
      7         17.813824       18.002782   0.000000   0.000000
      8         22.782275       22.774725   0.000000   0.000000
      9         22.782345       22.774820   0.000000   0.000000
     10         27.384707       27.490623   0.000000   0.000000
     11         30.438470       30.542526   0.000000   0.000000
     12         51.427283       51.386479   0.000000   0.000000
 
 -0.4545455E+00  0.4545455E+00 -0.1042937E-16  0.9015778E-02
      1          4.289867        4.633914   1.000000   1.000000
      2          4.671587        5.230261   1.000000   1.000000
      3          7.599749        8.269152   1.000000   0.961786
      4          7.798930        8.396923   1.000068   0.556276
      5          7.926787        8.701310   1.001662  -0.029592
      6         11.413006       11.458192  -0.000000  -0.000000
      7         17.121256       17.337532   0.000000   0.000000
      8         20.765458       20.801450   0.000000   0.000000
      9         22.932141       22.927085   0.000000   0.000000
     10         28.196949       28.279092   0.000000   0.000000