       N       E                     dE             d eps       ncg     rms          rms(c)
DAV:   1     0.172789436522E+02    0.17279E+02   -0.30324E+03  2984   0.618E+02
DAV:   2    -0.599635242415E+01   -0.23275E+02   -0.21881E+02  2916   0.118E+02
DAV:   3    -0.644749906543E+01   -0.45115E+00   -0.44888E+00  3128   0.182E+01
DAV:   4    -0.644979630180E+01   -0.22972E-02   -0.22969E-02  3052   0.116E+00
DAV:   5    -0.644982697829E+01   -0.30676E-04   -0.30678E-04  3068   0.127E-01    0.932E+00
DAV:   6    -0.584527746561E+01    0.60455E+00   -0.15631E+01  3260   0.461E+01    0.647E+00
DAV:   7    -0.544886402645E+01    0.39641E+00   -0.30197E+00  3260   0.183E+01    0.157E+00
DAV:   8    -0.543672519523E+01    0.12139E-01   -0.14851E-02  3376   0.962E-01    0.844E-01
DAV:   9    -0.543459836041E+01    0.21268E-02   -0.12715E-03  2828   0.246E-01    0.251E-01
DAV:  10    -0.543396061725E+01    0.63774E-03   -0.11425E-03  2436   0.210E-01    0.547E-02
DAV:  11    -0.543396341624E+01   -0.27990E-05   -0.15091E-05  1452   0.373E-02
   1 F= -.54339634E+01 E0= -.54327772E+01  d E =-.355875E-02  mag=     0.5764
