 vasp.6.3.0 20Jan22 (build Feb 01 2022 16:52:37) complex                        
  
 executed on           TETRA_NSC1 date 2022.02.23  15:19:28
 running    4 mpi-ranks, with    1 threads/rank
 distrk:  each k-point on    4 cores,    1 groups
 distr:  one band on NCORE=   1 cores,    4 groups


--------------------------------------------------------------------------------------------------------


 INCAR:
   SYSTEM = fcc Ni
   ISTART = 0
   ICHARG = 2
   ENCUT = 270
   ISMEAR = 1
   SIGMA = 0.2
   LORBIT = 11
   ISPIN = 2
   MAGMOM = 1

 POTCAR:    PAW_PBE Ni 02Aug2007                  
 POTCAR:    PAW_PBE Ni 02Aug2007                  
   VRHFIN =Ni:                                                                                      
   LEXCH  = PE                                                                                      
   EATOM  =  1077.6739 eV,   79.2068 Ry                                                             
                                                                                                    
   TITEL  = PAW_PBE Ni 02Aug2007                                                                    
   LULTRA =        F    use ultrasoft PP ?                                                          
   IUNSCR =        1    unscreen: 0-lin 1-nonlin 2-no                                               
   RPACOR =    2.000    partial core radius                                                         
   POMASS =   58.690; ZVAL   =   10.000    mass and valenz                                          
   RCORE  =    2.300    outmost cutoff radius                                                       
   RWIGS  =    2.430; RWIGS  =    1.286    wigner-seitz radius (au A)                               
   ENMAX  =  269.532; ENMIN  =  202.149 eV                                                          
   RCLOC  =    1.201    cutoff for local pot                                                        
   LCOR   =        T    correct aug charges                                                         
   LPAW   =        T    paw PP                                                                      
   EAUG   =  544.565                                                                                
   DEXC   =    0.000                                                                                
   RMAX   =    2.357    core radius for proj-oper                                                   
   RAUG   =    1.300    factor for augmentation sphere                                              
   RDEP   =    2.390    radius for radial grids                                                     
   RDEPT  =    1.838    core radius for aug-charge                                                  
                                                                                                    
   Atomic configuration                                                                             
    9 entries                                                                                       
     n  l   j            E        occ.                                                              
     1  0  0.50     -8206.4253   2.0000                                                             
     2  0  0.50      -976.1748   2.0000                                                             
     2  1  1.50      -839.0571   6.0000                                                             
     3  0  0.50      -105.9991   2.0000                                                             
     3  1  1.50       -66.4603   6.0000                                                             
     3  2  2.50        -4.6458   9.0000                                                             
     4  0  0.50        -4.4926   1.0000                                                             
     4  1  1.50        -4.0817   0.0000                                                             
     4  3  2.50        -1.3606   0.0000                                                             
   Description                                                                                      
     l       E           TYP  RCUT    TYP  RCUT                                                     
     2     -4.6457903     23  2.300                                                                 
     2     -6.0063729     23  2.300                                                                 
     0     -4.4925590     23  2.300                                                                 
     0      5.0102601     23  2.300                                                                 
     1     -2.7211652     23  2.300                                                                 
     1     16.5183231     23  2.300                                                                 
  local pseudopotential read in
  partial core-charges read in
  partial kinetic energy density read in
  atomic valenz-charges read in
  non local Contribution for L=           2  read in
    real space projection operators read in
  non local Contribution for L=           2  read in
    real space projection operators read in
  non local Contribution for L=           0  read in
    real space projection operators read in
  non local Contribution for L=           0  read in
    real space projection operators read in
  non local Contribution for L=           1  read in
    real space projection operators read in
  non local Contribution for L=           1  read in
    real space projection operators read in
    PAW grid and wavefunctions read in
 
   number of l-projection  operators is LMAX  =           6
   number of lm-projection operators is LMMAX =          18
 
  PAW_PBE Ni 02Aug2007                  :
 energy of atom  1       EATOM=-1077.6739
 kinetic energy error for atom=    0.0378 (will be added to EATOM!!)
 
 
 POSCAR: fcc Ni
  positions in cartesian coordinates
  No initial velocities read in
 exchange correlation table for  LEXCH =        8
   RHO(1)=    0.500       N(1)  =     2000
   RHO(2)=  100.500       N(2)  =     4000
 


--------------------------------------------------------------------------------------------------------


 ion  position               nearest neighbor table
   1  0.000  0.000  0.000-
 
  LATTYP: Found a face centered cubic cell.
 ALAT       =     3.6000000000
  
  Lattice vectors:
  
 A1 = (   1.8000000000,   1.8000000000,   0.0000000000)
 A2 = (   0.0000000000,   1.8000000000,   1.8000000000)
 A3 = (   1.8000000000,   0.0000000000,   1.8000000000)


Analysis of symmetry for initial positions (statically):
=====================================================================
 Subroutine PRICEL returns:
 Original cell was already a primitive cell.
 

 Routine SETGRP: Setting up the symmetry group for a 
 face centered cubic supercell.


 Subroutine GETGRP returns: Found 48 space group operations
 (whereof 48 operations were pure point group operations)
 out of a pool of 48 trial point group operations.


The static configuration has the point symmetry O_h .


Analysis of symmetry for dynamics (positions and initial velocities):
=====================================================================
 Subroutine PRICEL returns:
 Original cell was already a primitive cell.
 

 Routine SETGRP: Setting up the symmetry group for a 
 face centered cubic supercell.


 Subroutine GETGRP returns: Found 48 space group operations
 (whereof 48 operations were pure point group operations)
 out of a pool of 48 trial point group operations.


The dynamic configuration has the point symmetry O_h .


Analysis of structural, dynamic, and magnetic symmetry:
=====================================================================
 Subroutine PRICEL returns:
 Original cell was already a primitive cell.
 

 Routine SETGRP: Setting up the symmetry group for a 
 face centered cubic supercell.


 Subroutine GETGRP returns: Found 48 space group operations
 (whereof 48 operations were pure point group operations)
 out of a pool of 48 trial point group operations.


The overall configuration has the point symmetry O_h .


 Subroutine INISYM returns: Found 48 space group operations
 (whereof 48 operations are pure point group operations),
 and found     1 'primitive' translations


----------------------------------------------------------------------------------------

                                     Primitive cell                                     

  volume of cell :      11.6640

  direct lattice vectors                    reciprocal lattice vectors
     1.800000000  1.800000000  0.000000000     0.277777778  0.277777778 -0.277777778
     0.000000000  1.800000000  1.800000000    -0.277777778  0.277777778  0.277777778
     1.800000000  0.000000000  1.800000000     0.277777778 -0.277777778  0.277777778

  length of vectors
     2.545584412  2.545584412  2.545584412     0.481125224  0.481125224  0.481125224

  position of ions in fractional coordinates (direct lattice)
     0.000000000  0.000000000  0.000000000

  ion indices of the primitive-cell ions
   primitive index   ion index
                 1           1

----------------------------------------------------------------------------------------

 
 
 KPOINTS: k-points                                

Automatic generation of k-mesh.
 Grid dimensions read from file:
 generate k-points for:   11   11   11

 Generating k-lattice:

  Cartesian coordinates                     Fractional coordinates (reciprocal lattice)
     0.025252525  0.025252525 -0.025252525     0.090909091  0.000000000  0.000000000
    -0.025252525  0.025252525  0.025252525     0.000000000  0.090909091 -0.000000000
     0.025252525 -0.025252525  0.025252525    -0.000000000 -0.000000000  0.090909091

  Length of vectors
     0.043738657  0.043738657  0.043738657

  Shift w.r.t. Gamma in fractional coordinates (k-lattice)
     0.000000000  0.000000000  0.000000000

 
 Subroutine IBZKPT returns following result:
 ===========================================
 
 Found     56 irreducible k-points:
 
 Following reciprocal coordinates:
            Coordinates               Weight
  0.000000  0.000000  0.000000      1.000000
  0.090909  0.000000  0.000000      8.000000
  0.181818  0.000000 -0.000000      8.000000
  0.272727 -0.000000 -0.000000      8.000000
  0.363636  0.000000 -0.000000      8.000000
  0.454545  0.000000  0.000000      8.000000
  0.090909  0.090909  0.000000      6.000000
  0.181818  0.090909 -0.000000     24.000000
  0.272727  0.090909  0.000000     24.000000
  0.363636  0.090909 -0.000000     24.000000
  0.454545  0.090909 -0.000000     24.000000
 -0.454545  0.090909  0.000000     24.000000
 -0.363636  0.090909  0.000000     24.000000
 -0.272727  0.090909  0.000000     24.000000
 -0.181818  0.090909  0.000000     24.000000
 -0.090909  0.090909  0.000000     12.000000
  0.181818  0.181818 -0.000000      6.000000
  0.272727  0.181818 -0.000000     24.000000
  0.363636  0.181818  0.000000     24.000000
  0.454545  0.181818 -0.000000     24.000000
 -0.454545  0.181818  0.000000     24.000000
 -0.363636  0.181818  0.000000     24.000000
 -0.272727  0.181818 -0.000000     24.000000
 -0.181818  0.181818 -0.000000     12.000000
  0.272727  0.272727  0.000000      6.000000
  0.363636  0.272727  0.000000     24.000000
  0.454545  0.272727  0.000000     24.000000
 -0.454545  0.272727  0.000000     24.000000
 -0.363636  0.272727  0.000000     24.000000
 -0.272727  0.272727  0.000000     12.000000
  0.363636  0.363636  0.000000      6.000000
  0.454545  0.363636 -0.000000     24.000000
 -0.454545  0.363636  0.000000     24.000000
 -0.363636  0.363636  0.000000     12.000000
  0.454545  0.454545 -0.000000      6.000000
 -0.454545  0.454545 -0.000000     12.000000
  0.272727  0.181818  0.090909     24.000000
  0.363636  0.181818  0.090909     48.000000
  0.454545  0.181818  0.090909     48.000000
 -0.454545  0.181818  0.090909     48.000000
  0.363636  0.272727  0.090909     24.000000
  0.454545  0.272727  0.090909     48.000000
 -0.454545  0.272727  0.090909     48.000000
 -0.363636  0.272727  0.090909     48.000000
 -0.272727  0.272727  0.090909     48.000000
 -0.181818  0.272727  0.090909     24.000000
  0.454545  0.363636  0.090909     24.000000
 -0.454545  0.363636  0.090909     48.000000
 -0.363636  0.363636  0.090909     48.000000
 -0.272727  0.363636  0.090909     24.000000
 -0.454545  0.454545  0.090909     24.000000
 -0.363636  0.454545  0.090909     24.000000
 -0.454545  0.363636  0.181818     24.000000
 -0.363636  0.363636  0.181818     48.000000
 -0.363636  0.454545  0.181818     24.000000
 -0.272727  0.454545  0.181818     24.000000
 
 Following cartesian coordinates:
            Coordinates               Weight
  0.000000  0.000000  0.000000      1.000000
  0.090909  0.090909 -0.090909      8.000000
  0.181818  0.181818 -0.181818      8.000000
  0.272727  0.272727 -0.272727      8.000000
  0.363636  0.363636 -0.363636      8.000000
  0.454545  0.454545 -0.454545      8.000000
  0.000000  0.181818  0.000000      6.000000
  0.090909  0.272727 -0.090909     24.000000
  0.181818  0.363636 -0.181818     24.000000
  0.272727  0.454545 -0.272727     24.000000
  0.363636  0.545455 -0.363636     24.000000
 -0.545455 -0.363636  0.545455     24.000000
 -0.454545 -0.272727  0.454545     24.000000
 -0.363636 -0.181818  0.363636     24.000000
 -0.272727 -0.090909  0.272727     24.000000
 -0.181818  0.000000  0.181818     12.000000
  0.000000  0.363636 -0.000000      6.000000
  0.090909  0.454545 -0.090909     24.000000
  0.181818  0.545455 -0.181818     24.000000
  0.272727  0.636364 -0.272727     24.000000
 -0.636364 -0.272727  0.636364     24.000000
 -0.545455 -0.181818  0.545455     24.000000
 -0.454545 -0.090909  0.454545     24.000000
 -0.363636  0.000000  0.363636     12.000000
  0.000000  0.545455  0.000000      6.000000
  0.090909  0.636364 -0.090909     24.000000
  0.181818  0.727273 -0.181818     24.000000
 -0.727273 -0.181818  0.727273     24.000000
 -0.636364 -0.090909  0.636364     24.000000
 -0.545455  0.000000  0.545455     12.000000
  0.000000  0.727273  0.000000      6.000000
  0.090909  0.818182 -0.090909     24.000000
 -0.818182 -0.090909  0.818182     24.000000
 -0.727273  0.000000  0.727273     12.000000
  0.000000  0.909091 -0.000000      6.000000
 -0.909091  0.000000  0.909091     12.000000
  0.181818  0.363636 -0.000000     24.000000
  0.272727  0.454545 -0.090909     48.000000
  0.363636  0.545455 -0.181818     48.000000
 -0.545455 -0.363636  0.727273     48.000000
  0.181818  0.545455  0.000000     24.000000
  0.272727  0.636364 -0.090909     48.000000
 -0.636364 -0.272727  0.818182     48.000000
 -0.545455 -0.181818  0.727273     48.000000
 -0.454545 -0.090909  0.636364     48.000000
 -0.363636  0.000000  0.545455     24.000000
  0.181818  0.727273  0.000000     24.000000
 -0.727273 -0.181818  0.909091     48.000000
 -0.636364 -0.090909  0.818182     48.000000
 -0.545455  0.000000  0.727273     24.000000
 -0.818182 -0.090909  1.000000     24.000000
 -0.727273 -0.000000  0.909091     24.000000
 -0.636364 -0.272727  1.000000     24.000000
 -0.545455 -0.181818  0.909091     48.000000
 -0.636364 -0.090909  1.000000     24.000000
 -0.545455 -0.000000  0.909091     24.000000
 


--------------------------------------------------------------------------------------------------------




 Dimension of arrays:
   k-points           NKPTS =     56   k-points in BZ     NKDIM =     56   number of bands    NBANDS=     12
   number of dos      NEDOS =    301   number of ions     NIONS =      1
   non local maximal  LDIM  =      6   non local SUM 2l+1 LMDIM =     18
   total plane-waves  NPLWV =   1000
   max r-space proj   IRMAX =      1   max aug-charges    IRDMAX=   2978
   dimension x,y,z NGX =    10 NGY =   10 NGZ =   10
   dimension x,y,z NGXF=    20 NGYF=   20 NGZF=   20
   support grid    NGXF=    20 NGYF=   20 NGZF=   20
   ions per type =               1
   NGX,Y,Z   is equivalent  to a cutoff of   6.53,  6.53,  6.53 a.u.
   NGXF,Y,Z  is equivalent  to a cutoff of  13.06, 13.06, 13.06 a.u.

 SYSTEM =  fcc Ni                                  
 POSCAR =  fcc Ni                                  

 Startparameter for this run:
   NWRITE =      2    write-flag & timer
   PREC   = normal    normal or accurate (medium, high low for compatibility)
   ISTART =      0    job   : 0-new  1-cont  2-samecut
   ICHARG =      2    charge: 1-file 2-atom 10-const
   ISPIN  =      2    spin polarized calculation?
   LNONCOLLINEAR =      F non collinear calculations
   LSORBIT =      F    spin-orbit coupling
   INIWAV =      1    electr: 0-lowe 1-rand  2-diag
   LASPH  =      F    aspherical Exc in radial PAW
 Electronic Relaxation 1
   ENCUT  =  270.0 eV  19.84 Ry    4.45 a.u.   3.41  3.41  3.41*2*pi/ulx,y,z
   ENINI  =  270.0     initial cutoff
   ENAUG  =  544.6 eV  augmentation charge cutoff
   NELM   =     60;   NELMIN=  2; NELMDL= -5     # of ELM steps 
   EDIFF  = 0.1E-03   stopping-criterion for ELM
   LREAL  =      F    real-space projection
   NLSPLINE    = F    spline interpolate recip. space projectors
   LCOMPAT=      F    compatible to vasp.4.4
   GGA_COMPAT  = T    GGA compatible to vasp.4.4-vasp.4.6
   LMAXPAW     = -100 max onsite density
   LMAXMIX     =    2 max onsite mixed and CHGCAR
   VOSKOWN=      0    Vosko Wilk Nusair interpolation
   ROPT   =    0.00000
 Ionic relaxation
   EDIFFG = 0.1E-02   stopping-criterion for IOM
   NSW    =      0    number of steps for IOM
   NBLOCK =      1;   KBLOCK =      1    inner block; outer block 
   IBRION =     -1    ionic relax: 0-MD 1-quasi-New 2-CG
   NFREE  =      0    steps in history (QN), initial steepest desc. (CG)
   ISIF   =      2    stress and relaxation
   IWAVPR =     10    prediction:  0-non 1-charg 2-wave 3-comb
   ISYM   =      2    0-nonsym 1-usesym 2-fastsym
   LCORR  =      T    Harris-Foulkes like correction to forces

   POTIM  = 0.5000    time-step for ionic-motion
   TEIN   =    0.0    initial temperature
   TEBEG  =    0.0;   TEEND  =   0.0 temperature during run
   SMASS  =  -3.00    Nose mass-parameter (am)
   estimated Nose-frequenzy (Omega)   =  0.10E-29 period in steps = 0.13E+47 mass=  -0.148E-27a.u.
   SCALEE = 1.0000    scale energy and forces
   NPACO  =    256;   APACO  = 10.0  distance and # of slots for P.C.
   PSTRESS=    0.0 pullay stress

  Mass of Ions in am
   POMASS =  58.69
  Ionic Valenz
   ZVAL   =  10.00
  Atomic Wigner-Seitz radii
   RWIGS  =  -1.00
  virtual crystal weights 
   VCA    =   1.00
   NELECT =      10.0000    total number of electrons
   NUPDOWN=      -1.0000    fix difference up-down

 DOS related values:
   EMIN   =  10.00;   EMAX   =-10.00  energy-range for DOS
   EFERMI =   0.00
   ISMEAR =     1;   SIGMA  =   0.20  broadening in eV -4-tet -1-fermi 0-gaus

 Electronic relaxation 2 (details)
   IALGO  =     38    algorithm
   LDIAG  =      T    sub-space diagonalisation (order eigenvalues)
   LSUBROT=      F    optimize rotation matrix (better conditioning)
   TURBO    =      0    0=normal 1=particle mesh
   IRESTART =      0    0=no restart 2=restart with 2 vectors
   NREBOOT  =      0    no. of reboots
   NMIN     =      0    reboot dimension
   EREF     =   0.00    reference energy to select bands
   IMIX   =      4    mixing-type and parameters
     AMIX     =   0.40;   BMIX     =  1.00
     AMIX_MAG =   1.60;   BMIX_MAG =  1.00
     AMIN     =   0.10
     WC   =   100.;   INIMIX=   1;  MIXPRE=   1;  MAXMIX= -45

 Intra band minimization:
   WEIMIN = 0.0000     energy-eigenvalue tresh-hold
   EBREAK =  0.21E-05  absolut break condition
   DEPER  =   0.30     relativ break condition  

   TIME   =   0.40     timestep for ELM

  volume/ion in A,a.u.               =      11.66        78.71
  Fermi-wavevector in a.u.,A,eV,Ry     =   1.555222  2.938943 32.908612  2.418715
  Thomas-Fermi vector in A             =   2.659194
 
 Write flags
   LWAVE        =      T    write WAVECAR
   LDOWNSAMPLE  =      F    k-point downsampling of WAVECAR
   LCHARG       =      T    write CHGCAR
   LVTOT        =      F    write LOCPOT, total local potential
   LVHAR        =      F    write LOCPOT, Hartree potential only
   LELF         =      F    write electronic localiz. function (ELF)
   LORBIT       =     11    0 simple, 1 ext, 2 COOP (PROOUT), +10 PAW based schemes


 Dipole corrections
   LMONO  =      F    monopole corrections only (constant potential shift)
   LDIPOL =      F    correct potential (dipole corrections)
   IDIPOL =      0    1-x, 2-y, 3-z, 4-all directions 
   EPSILON=  1.0000000 bulk dielectric constant

 Exchange correlation treatment:
   GGA     =    --    GGA type
   LEXCH   =     8    internal setting for exchange type
   LIBXC   =     F    Libxc                    
   VOSKOWN =     0    Vosko Wilk Nusair interpolation
   LHFCALC =     F    Hartree Fock is set to
   LHFONE  =     F    Hartree Fock one center treatment
   AEXX    =    0.0000 exact exchange contribution

 Linear response parameters
   LEPSILON=     F    determine dielectric tensor
   LRPA    =     F    only Hartree local field effects (RPA)
   LNABLA  =     F    use nabla operator in PAW spheres
   LVEL    =     F    velocity operator in full k-point grid
   CSHIFT  =0.1000    complex shift for real part using Kramers Kronig
   OMEGAMAX=  -1.0    maximum frequency
   DEG_THRESHOLD= 0.2000000E-02 threshold for treating states as degnerate
   RTIME   =   -0.100 relaxation time in fs
  (WPLASMAI=    0.000 imaginary part of plasma frequency in eV, 0.658/RTIME)
   DFIELD  = 0.0000000 0.0000000 0.0000000 field for delta impulse in time
 
  Optional k-point grid parameters
   LKPOINTS_OPT  =     F    use optional k-point grid
   KPOINTS_OPT_MODE=     1    mode for optional k-point grid
 
 Orbital magnetization related:
   ORBITALMAG=     F  switch on orbital magnetization
   LCHIMAG   =     F  perturbation theory with respect to B field
   DQ        =  0.001000  dq finite difference perturbation B field
   LLRAUG    =     F  two centre corrections for induced B field



--------------------------------------------------------------------------------------------------------


 Static calculation
 charge density and potential will be updated during run
 spin polarized calculation
 Variant of blocked Davidson
 Davidson routine will perform the subspace rotation
 perform sub-space diagonalisation
    after iterative eigenvector-optimisation
 modified Broyden-mixing scheme, WC =      100.0
 initial mixing is a Kerker type mixing with AMIX =  0.4000 and BMIX =      1.0000
 Hartree-type preconditioning will be used
 using additional bands            7
 reciprocal scheme for non local part
 use partial core corrections
 calculate Harris-corrections to forces 
   (improved forces if not selfconsistent)
 use gradient corrections 
 use of overlap-Matrix (Vanderbilt PP)
 Methfessel and Paxton  Order N= 1 SIGMA  =   0.20


--------------------------------------------------------------------------------------------------------


  energy-cutoff  :      270.00
  volume of cell :       11.66
      direct lattice vectors                 reciprocal lattice vectors
     1.800000000  1.800000000  0.000000000     0.277777778  0.277777778 -0.277777778
     0.000000000  1.800000000  1.800000000    -0.277777778  0.277777778  0.277777778
     1.800000000  0.000000000  1.800000000     0.277777778 -0.277777778  0.277777778

  length of vectors
     2.545584412  2.545584412  2.545584412     0.481125224  0.481125224  0.481125224


 
 k-points in units of 2pi/SCALE and weight: k-points                                
   0.00000000  0.00000000  0.00000000       0.001
   0.09090909  0.09090909 -0.09090909       0.006
   0.18181818  0.18181818 -0.18181818       0.006
   0.27272727  0.27272727 -0.27272727       0.006
   0.36363636  0.36363636 -0.36363636       0.006
   0.45454545  0.45454545 -0.45454545       0.006
   0.00000000  0.18181818  0.00000000       0.005
   0.09090909  0.27272727 -0.09090909       0.018
   0.18181818  0.36363636 -0.18181818       0.018
   0.27272727  0.45454545 -0.27272727       0.018
   0.36363636  0.54545455 -0.36363636       0.018
  -0.54545455 -0.36363636  0.54545455       0.018
  -0.45454545 -0.27272727  0.45454545       0.018
  -0.36363636 -0.18181818  0.36363636       0.018
  -0.27272727 -0.09090909  0.27272727       0.018
  -0.18181818  0.00000000  0.18181818       0.009
   0.00000000  0.36363636 -0.00000000       0.005
   0.09090909  0.45454545 -0.09090909       0.018
   0.18181818  0.54545455 -0.18181818       0.018
   0.27272727  0.63636364 -0.27272727       0.018
  -0.63636364 -0.27272727  0.63636364       0.018
  -0.54545455 -0.18181818  0.54545455       0.018
  -0.45454545 -0.09090909  0.45454545       0.018
  -0.36363636  0.00000000  0.36363636       0.009
   0.00000000  0.54545455  0.00000000       0.005
   0.09090909  0.63636364 -0.09090909       0.018
   0.18181818  0.72727273 -0.18181818       0.018
  -0.72727273 -0.18181818  0.72727273       0.018
  -0.63636364 -0.09090909  0.63636364       0.018
  -0.54545455  0.00000000  0.54545455       0.009
   0.00000000  0.72727273  0.00000000       0.005
   0.09090909  0.81818182 -0.09090909       0.018
  -0.81818182 -0.09090909  0.81818182       0.018
  -0.72727273  0.00000000  0.72727273       0.009
   0.00000000  0.90909091 -0.00000000       0.005
  -0.90909091  0.00000000  0.90909091       0.009
   0.18181818  0.36363636 -0.00000000       0.018
   0.27272727  0.45454545 -0.09090909       0.036
   0.36363636  0.54545455 -0.18181818       0.036
  -0.54545455 -0.36363636  0.72727273       0.036
   0.18181818  0.54545455  0.00000000       0.018
   0.27272727  0.63636364 -0.09090909       0.036
  -0.63636364 -0.27272727  0.81818182       0.036
  -0.54545455 -0.18181818  0.72727273       0.036
  -0.45454545 -0.09090909  0.63636364       0.036
  -0.36363636  0.00000000  0.54545455       0.018
   0.18181818  0.72727273  0.00000000       0.018
  -0.72727273 -0.18181818  0.90909091       0.036
  -0.63636364 -0.09090909  0.81818182       0.036
  -0.54545455  0.00000000  0.72727273       0.018
  -0.81818182 -0.09090909  1.00000000       0.018
  -0.72727273 -0.00000000  0.90909091       0.018
  -0.63636364 -0.27272727  1.00000000       0.018
  -0.54545455 -0.18181818  0.90909091       0.036
  -0.63636364 -0.09090909  1.00000000       0.018
  -0.54545455 -0.00000000  0.90909091       0.018
 
 k-points in reciprocal lattice and weights: k-points                                
   0.00000000  0.00000000  0.00000000       0.001
   0.09090909  0.00000000  0.00000000       0.006
   0.18181818  0.00000000 -0.00000000       0.006
   0.27272727 -0.00000000 -0.00000000       0.006
   0.36363636  0.00000000 -0.00000000       0.006
   0.45454545  0.00000000  0.00000000       0.006
   0.09090909  0.09090909  0.00000000       0.005
   0.18181818  0.09090909 -0.00000000       0.018
   0.27272727  0.09090909  0.00000000       0.018
   0.36363636  0.09090909 -0.00000000       0.018
   0.45454545  0.09090909 -0.00000000       0.018
  -0.45454545  0.09090909  0.00000000       0.018
  -0.36363636  0.09090909  0.00000000       0.018
  -0.27272727  0.09090909  0.00000000       0.018
  -0.18181818  0.09090909  0.00000000       0.018
  -0.09090909  0.09090909  0.00000000       0.009
   0.18181818  0.18181818 -0.00000000       0.005
   0.27272727  0.18181818 -0.00000000       0.018
   0.36363636  0.18181818  0.00000000       0.018
   0.45454545  0.18181818 -0.00000000       0.018
  -0.45454545  0.18181818  0.00000000       0.018
  -0.36363636  0.18181818  0.00000000       0.018
  -0.27272727  0.18181818 -0.00000000       0.018
  -0.18181818  0.18181818 -0.00000000       0.009
   0.27272727  0.27272727  0.00000000       0.005
   0.36363636  0.27272727  0.00000000       0.018
   0.45454545  0.27272727  0.00000000       0.018
  -0.45454545  0.27272727  0.00000000       0.018
  -0.36363636  0.27272727  0.00000000       0.018
  -0.27272727  0.27272727  0.00000000       0.009
   0.36363636  0.36363636  0.00000000       0.005
   0.45454545  0.36363636 -0.00000000       0.018
  -0.45454545  0.36363636  0.00000000       0.018
  -0.36363636  0.36363636  0.00000000       0.009
   0.45454545  0.45454545 -0.00000000       0.005
  -0.45454545  0.45454545 -0.00000000       0.009
   0.27272727  0.18181818  0.09090909       0.018
   0.36363636  0.18181818  0.09090909       0.036
   0.45454545  0.18181818  0.09090909       0.036
  -0.45454545  0.18181818  0.09090909       0.036
   0.36363636  0.27272727  0.09090909       0.018
   0.45454545  0.27272727  0.09090909       0.036
  -0.45454545  0.27272727  0.09090909       0.036
  -0.36363636  0.27272727  0.09090909       0.036
  -0.27272727  0.27272727  0.09090909       0.036
  -0.18181818  0.27272727  0.09090909       0.018
   0.45454545  0.36363636  0.09090909       0.018
  -0.45454545  0.36363636  0.09090909       0.036
  -0.36363636  0.36363636  0.09090909       0.036
  -0.27272727  0.36363636  0.09090909       0.018
  -0.45454545  0.45454545  0.09090909       0.018
  -0.36363636  0.45454545  0.09090909       0.018
  -0.45454545  0.36363636  0.18181818       0.018
  -0.36363636  0.36363636  0.18181818       0.036
  -0.36363636  0.45454545  0.18181818       0.018
  -0.27272727  0.45454545  0.18181818       0.018
 
 position of ions in fractional coordinates (direct lattice) 
   0.00000000  0.00000000  0.00000000
 
 position of ions in cartesian coordinates  (Angst):
   0.00000000  0.00000000  0.00000000
 


--------------------------------------------------------------------------------------------------------


 k-point   1 :   0.0000 0.0000 0.0000  plane waves:     113
 k-point   2 :   0.0909 0.0000 0.0000  plane waves:     116
 k-point   3 :   0.1818 0.0000-0.0000  plane waves:     122
 k-point   4 :   0.2727-0.0000-0.0000  plane waves:     117
 k-point   5 :   0.3636 0.0000-0.0000  plane waves:     117
 k-point   6 :   0.4545 0.0000 0.0000  plane waves:     120
 k-point   7 :   0.0909 0.0909 0.0000  plane waves:     117
 k-point   8 :   0.1818 0.0909-0.0000  plane waves:     121
 k-point   9 :   0.2727 0.0909 0.0000  plane waves:     121
 k-point  10 :   0.3636 0.0909-0.0000  plane waves:     120
 k-point  11 :   0.4545 0.0909-0.0000  plane waves:     116
 k-point  12 :  -0.4545 0.0909 0.0000  plane waves:     116
 k-point  13 :  -0.3636 0.0909 0.0000  plane waves:     119
 k-point  14 :  -0.2727 0.0909 0.0000  plane waves:     118
 k-point  15 :  -0.1818 0.0909 0.0000  plane waves:     119
 k-point  16 :  -0.0909 0.0909 0.0000  plane waves:     119
 k-point  17 :   0.1818 0.1818-0.0000  plane waves:     125
 k-point  18 :   0.2727 0.1818-0.0000  plane waves:     123
 k-point  19 :   0.3636 0.1818 0.0000  plane waves:     118
 k-point  20 :   0.4545 0.1818-0.0000  plane waves:     117
 k-point  21 :  -0.4545 0.1818 0.0000  plane waves:     115
 k-point  22 :  -0.3636 0.1818 0.0000  plane waves:     121
 k-point  23 :  -0.2727 0.1818-0.0000  plane waves:     119
 k-point  24 :  -0.1818 0.1818-0.0000  plane waves:     125
 k-point  25 :   0.2727 0.2727 0.0000  plane waves:     125
 k-point  26 :   0.3636 0.2727 0.0000  plane waves:     120
 k-point  27 :   0.4545 0.2727 0.0000  plane waves:     120
 k-point  28 :  -0.4545 0.2727 0.0000  plane waves:     116
 k-point  29 :  -0.3636 0.2727 0.0000  plane waves:     118
 k-point  30 :  -0.2727 0.2727 0.0000  plane waves:     121
 k-point  31 :   0.3636 0.3636 0.0000  plane waves:     117
 k-point  32 :   0.4545 0.3636-0.0000  plane waves:     118
 k-point  33 :  -0.4545 0.3636 0.0000  plane waves:     114
 k-point  34 :  -0.3636 0.3636 0.0000  plane waves:     116
 k-point  35 :   0.4545 0.4545-0.0000  plane waves:     116
 k-point  36 :  -0.4545 0.4545-0.0000  plane waves:     116
 k-point  37 :   0.2727 0.1818 0.0909  plane waves:     122
 k-point  38 :   0.3636 0.1818 0.0909  plane waves:     120
 k-point  39 :   0.4545 0.1818 0.0909  plane waves:     119
 k-point  40 :  -0.4545 0.1818 0.0909  plane waves:     120
 k-point  41 :   0.3636 0.2727 0.0909  plane waves:     122
 k-point  42 :   0.4545 0.2727 0.0909  plane waves:     117
 k-point  43 :  -0.4545 0.2727 0.0909  plane waves:     116
 k-point  44 :  -0.3636 0.2727 0.0909  plane waves:     116
 k-point  45 :  -0.2727 0.2727 0.0909  plane waves:     118
 k-point  46 :  -0.1818 0.2727 0.0909  plane waves:     118
 k-point  47 :   0.4545 0.3636 0.0909  plane waves:     118
 k-point  48 :  -0.4545 0.3636 0.0909  plane waves:     113
 k-point  49 :  -0.3636 0.3636 0.0909  plane waves:     114
 k-point  50 :  -0.2727 0.3636 0.0909  plane waves:     115
 k-point  51 :  -0.4545 0.4545 0.0909  plane waves:     115
 k-point  52 :  -0.3636 0.4545 0.0909  plane waves:     115
 k-point  53 :  -0.4545 0.3636 0.1818  plane waves:     114
 k-point  54 :  -0.3636 0.3636 0.1818  plane waves:     112
 k-point  55 :  -0.3636 0.4545 0.1818  plane waves:     114
 k-point  56 :  -0.2727 0.4545 0.1818  plane waves:     110

 maximum and minimum number of plane-waves per node :       125      110

 maximum number of plane-waves:       125
 maximum index in each direction: 
   IXMAX=    3   IYMAX=    3   IZMAX=    3
   IXMIN=   -3   IYMIN=   -3   IZMIN=   -3


 serial   3D FFT for wavefunctions
 parallel 3D FFT for charge:
    minimum data exchange during FFTs selected (reduces bandwidth)


 total amount of memory used by VASP MPI-rank0    32169. kBytes
=======================================================================

   base      :      30000. kBytes
   nonl-proj :       1034. kBytes
   fftplans  :         71. kBytes
   grid      :        238. kBytes
   one-center:         31. kBytes
   wavefun   :        795. kBytes
 
     INWAV:  cpu time      0.0000: real time      0.0001
 Broyden mixing: mesh for mixing (old mesh)
   NGX =  7   NGY =  7   NGZ =  7
  (NGX  = 20   NGY  = 20   NGZ  = 20)
  gives a total of    343 points

 initial charge density was supplied:
 charge density of overlapping atoms calculated
 number of electron      10.0000000 magnetization       1.0000000
 keeping initial charge density in first step


--------------------------------------------------------------------------------------------------------


 Maximum index for augmentation-charges          685 (set IRDMAX)


--------------------------------------------------------------------------------------------------------


 First call to EWALD:  gamma=   0.782
 Maximum number of real-space cells 3x 3x 3
 Maximum number of reciprocal cells 3x 3x 3

    FEWALD:  cpu time      0.0012: real time      0.0012


--------------------------------------- Iteration      1(   1)  ---------------------------------------


    POTLOK:  cpu time      0.0024: real time      0.0025
    SETDIJ:  cpu time      0.0035: real time      0.0035
     EDDAV:  cpu time      0.1642: real time      0.1647
       DOS:  cpu time      0.0012: real time      0.0012
    --------------------------------------------
      LOOP:  cpu time      0.1713: real time      0.1720

 eigenvalue-minimisations  :  2984
 total energy-change (2. order) : 0.1727894E+02  (-0.3032404E+03)
 number of electron      10.0000000 magnetization       1.0000000
 augmentation part       10.0000000 magnetization       1.0000000

 Free energy of the ion-electron system (eV)
  ---------------------------------------------------
  alpha Z        PSCENC =        43.72376629
  Ewald energy   TEWEN  =      -916.95886177
  -Hartree energ DENC   =      -255.43669129
  -exchange      EXHF   =         0.00000000
  -V(xc)+E(xc)   XCENC  =        31.57023004
  PAW double counting   =       962.83317360    -1029.67071227
  entropy T*S    EENTRO =        -0.00151015
  eigenvalues    EBANDS =       103.58347453
  atomic energy  EATOM  =      1077.63607467
  Solvation  Ediel_sol  =         0.00000000
  ---------------------------------------------------
  free energy    TOTEN  =        17.27894365 eV

  energy without entropy =       17.28045380  energy(sigma->0) =       17.27944703


--------------------------------------------------------------------------------------------------------




--------------------------------------- Iteration      1(   2)  ---------------------------------------


     EDDAV:  cpu time      0.1655: real time      0.1660
       DOS:  cpu time      0.0012: real time      0.0012
    --------------------------------------------
      LOOP:  cpu time      0.1668: real time      0.1672

 eigenvalue-minimisations  :  2916
 total energy-change (2. order) :-0.2327530E+02  (-0.2188056E+02)
 number of electron      10.0000000 magnetization       1.0000000
 augmentation part       10.0000000 magnetization       1.0000000

 Free energy of the ion-electron system (eV)
  ---------------------------------------------------
  alpha Z        PSCENC =        43.72376629
  Ewald energy   TEWEN  =      -916.95886177
  -Hartree energ DENC   =      -255.43669129
  -exchange      EXHF   =         0.00000000
  -V(xc)+E(xc)   XCENC  =        31.57023004
  PAW double counting   =       962.83317360    -1029.67071227
  entropy T*S    EENTRO =        -0.00227638
  eigenvalues    EBANDS =        80.30894469
  atomic energy  EATOM  =      1077.63607467
  Solvation  Ediel_sol  =         0.00000000
  ---------------------------------------------------
  free energy    TOTEN  =        -5.99635242 eV

  energy without entropy =       -5.99407605  energy(sigma->0) =       -5.99559363


--------------------------------------------------------------------------------------------------------




--------------------------------------- Iteration      1(   3)  ---------------------------------------


     EDDAV:  cpu time      0.1720: real time      0.1725
       DOS:  cpu time      0.0012: real time      0.0012
    --------------------------------------------
      LOOP:  cpu time      0.1732: real time      0.1737

 eigenvalue-minimisations  :  3128
 total energy-change (2. order) :-0.4511466E+00  (-0.4488797E+00)
 number of electron      10.0000000 magnetization       1.0000000
 augmentation part       10.0000000 magnetization       1.0000000

 Free energy of the ion-electron system (eV)
  ---------------------------------------------------
  alpha Z        PSCENC =        43.72376629
  Ewald energy   TEWEN  =      -916.95886177
  -Hartree energ DENC   =      -255.43669129
  -exchange      EXHF   =         0.00000000
  -V(xc)+E(xc)   XCENC  =        31.57023004
  PAW double counting   =       962.83317360    -1029.67071227
  entropy T*S    EENTRO =        -0.00229568
  eigenvalues    EBANDS =        79.85781735
  atomic energy  EATOM  =      1077.63607467
  Solvation  Ediel_sol  =         0.00000000
  ---------------------------------------------------
  free energy    TOTEN  =        -6.44749907 eV

  energy without entropy =       -6.44520338  energy(sigma->0) =       -6.44673384


--------------------------------------------------------------------------------------------------------




--------------------------------------- Iteration      1(   4)  ---------------------------------------


     EDDAV:  cpu time      0.1602: real time      0.1606
       DOS:  cpu time      0.0012: real time      0.0012
    --------------------------------------------
      LOOP:  cpu time      0.1614: real time      0.1619

 eigenvalue-minimisations  :  3052
 total energy-change (2. order) :-0.2297236E-02  (-0.2296899E-02)
 number of electron      10.0000000 magnetization       1.0000000
 augmentation part       10.0000000 magnetization       1.0000000

 Free energy of the ion-electron system (eV)
  ---------------------------------------------------
  alpha Z        PSCENC =        43.72376629
  Ewald energy   TEWEN  =      -916.95886177
  -Hartree energ DENC   =      -255.43669129
  -exchange      EXHF   =         0.00000000
  -V(xc)+E(xc)   XCENC  =        31.57023004
  PAW double counting   =       962.83317360    -1029.67071227
  entropy T*S    EENTRO =        -0.00228508
  eigenvalues    EBANDS =        79.85550951
  atomic energy  EATOM  =      1077.63607467
  Solvation  Ediel_sol  =         0.00000000
  ---------------------------------------------------
  free energy    TOTEN  =        -6.44979630 eV

  energy without entropy =       -6.44751123  energy(sigma->0) =       -6.44903461


--------------------------------------------------------------------------------------------------------




--------------------------------------- Iteration      1(   5)  ---------------------------------------


     EDDAV:  cpu time      0.1580: real time      0.1584
       DOS:  cpu time      0.0013: real time      0.0013
    CHARGE:  cpu time      0.0028: real time      0.0028
    MIXING:  cpu time      0.0002: real time      0.0002
    --------------------------------------------
      LOOP:  cpu time      0.1622: real time      0.1627

 eigenvalue-minimisations  :  3068
 total energy-change (2. order) :-0.3067649E-04  (-0.3067780E-04)
 number of electron      10.0000061 magnetization       0.7673892
 augmentation part        5.6055830 magnetization       0.6324133

 Broyden mixing:
  rms(total) = 0.93193E+00    rms(broyden)= 0.93161E+00
  rms(prec ) = 0.31852E+01
  weight for this iteration     100.00

 Free energy of the ion-electron system (eV)
  ---------------------------------------------------
  alpha Z        PSCENC =        43.72376629
  Ewald energy   TEWEN  =      -916.95886177
  -Hartree energ DENC   =      -255.43669129
  -exchange      EXHF   =         0.00000000
  -V(xc)+E(xc)   XCENC  =        31.57023004
  PAW double counting   =       962.83317360    -1029.67071227
  entropy T*S    EENTRO =        -0.00228491
  eigenvalues    EBANDS =        79.85547867
  atomic energy  EATOM  =      1077.63607467
  Solvation  Ediel_sol  =         0.00000000
  ---------------------------------------------------
  free energy    TOTEN  =        -6.44982698 eV

  energy without entropy =       -6.44754207  energy(sigma->0) =       -6.44906534


--------------------------------------------------------------------------------------------------------




--------------------------------------- Iteration      1(   6)  ---------------------------------------


    POTLOK:  cpu time      0.0020: real time      0.0020
    SETDIJ:  cpu time      0.0029: real time      0.0029
     EDDAV:  cpu time      0.1653: real time      0.1657
       DOS:  cpu time      0.0010: real time      0.0010
    CHARGE:  cpu time      0.0027: real time      0.0027
    MIXING:  cpu time      0.0002: real time      0.0002
    --------------------------------------------
      LOOP:  cpu time      0.1742: real time      0.1747

 eigenvalue-minimisations  :  3260
 total energy-change (2. order) : 0.6045495E+00  (-0.1563084E+01)
 number of electron      10.0000077 magnetization       0.5539025
 augmentation part        6.5381007 magnetization       0.5584065

 Broyden mixing:
  rms(total) = 0.64679E+00    rms(broyden)= 0.64673E+00
  rms(prec ) = 0.16928E+01
  weight for this iteration     100.00

 eigenvalues of (default mixing * dielectric matrix)
  average eigenvalue GAMMA=   0.6016
  0.6016

 Free energy of the ion-electron system (eV)
  ---------------------------------------------------
  alpha Z        PSCENC =        43.72376629
  Ewald energy   TEWEN  =      -916.95886177
  -Hartree energ DENC   =      -230.39687655
  -exchange      EXHF   =         0.00000000
  -V(xc)+E(xc)   XCENC  =        30.30634236
  PAW double counting   =      1007.91979439    -1070.06924866
  entropy T*S    EENTRO =        -0.00450983
  eigenvalues    EBANDS =        51.99824163
  atomic energy  EATOM  =      1077.63607467
  Solvation  Ediel_sol  =         0.00000000
  ---------------------------------------------------
  free energy    TOTEN  =        -5.84527747 eV

  energy without entropy =       -5.84076764  energy(sigma->0) =       -5.84377419


--------------------------------------------------------------------------------------------------------




--------------------------------------- Iteration      1(   7)  ---------------------------------------


    POTLOK:  cpu time      0.0021: real time      0.0022
    SETDIJ:  cpu time      0.0030: real time      0.0030
     EDDAV:  cpu time      0.1685: real time      0.1689
       DOS:  cpu time      0.0012: real time      0.0012
    CHARGE:  cpu time      0.0028: real time      0.0028
    MIXING:  cpu time      0.0002: real time      0.0002
    --------------------------------------------
      LOOP:  cpu time      0.1777: real time      0.1782

 eigenvalue-minimisations  :  3260
 total energy-change (2. order) : 0.3964134E+00  (-0.3019669E+00)
 number of electron      10.0000070 magnetization       0.5774026
 augmentation part        6.1390212 magnetization       0.5633457

 Broyden mixing:
  rms(total) = 0.15669E+00    rms(broyden)= 0.15664E+00
  rms(prec ) = 0.34510E+00
  weight for this iteration     100.00

 eigenvalues of (default mixing * dielectric matrix)
  average eigenvalue GAMMA=   0.8536
  1.1106  0.5967

 Free energy of the ion-electron system (eV)
  ---------------------------------------------------
  alpha Z        PSCENC =        43.72376629
  Ewald energy   TEWEN  =      -916.95886177
  -Hartree energ DENC   =      -238.71974365
  -exchange      EXHF   =         0.00000000
  -V(xc)+E(xc)   XCENC  =        30.69021477
  PAW double counting   =      1038.90532000    -1104.92447473
  entropy T*S    EENTRO =        -0.00335810
  eigenvalues    EBANDS =        64.20219849
  atomic energy  EATOM  =      1077.63607467
  Solvation  Ediel_sol  =         0.00000000
  ---------------------------------------------------
  free energy    TOTEN  =        -5.44886403 eV

  energy without entropy =       -5.44550593  energy(sigma->0) =       -5.44774466


--------------------------------------------------------------------------------------------------------




--------------------------------------- Iteration      1(   8)  ---------------------------------------


    POTLOK:  cpu time      0.0021: real time      0.0022
    SETDIJ:  cpu time      0.0031: real time      0.0031
     EDDAV:  cpu time      0.1866: real time      0.1870
       DOS:  cpu time      0.0013: real time      0.0013
    CHARGE:  cpu time      0.0029: real time      0.0029
    MIXING:  cpu time      0.0002: real time      0.0002
    --------------------------------------------
      LOOP:  cpu time      0.1962: real time      0.1967

 eigenvalue-minimisations  :  3376
 total energy-change (2. order) : 0.1213883E-01  (-0.1485080E-02)
 number of electron      10.0000070 magnetization       0.5735822
 augmentation part        6.1633258 magnetization       0.5541833

 Broyden mixing:
  rms(total) = 0.84405E-01    rms(broyden)= 0.84401E-01
  rms(prec ) = 0.14852E+00
  weight for this iteration     100.00

 eigenvalues of (default mixing * dielectric matrix)
  average eigenvalue GAMMA=   0.9590
  1.6738  0.6016  0.6016

 Free energy of the ion-electron system (eV)
  ---------------------------------------------------
  alpha Z        PSCENC =        43.72376629
  Ewald energy   TEWEN  =      -916.95886177
  -Hartree energ DENC   =      -236.65290519
  -exchange      EXHF   =         0.00000000
  -V(xc)+E(xc)   XCENC  =        30.59573904
  PAW double counting   =      1073.27692921    -1140.47458116
  entropy T*S    EENTRO =        -0.00349684
  eigenvalues    EBANDS =        63.42061056
  atomic energy  EATOM  =      1077.63607467
  Solvation  Ediel_sol  =         0.00000000
  ---------------------------------------------------
  free energy    TOTEN  =        -5.43672520 eV

  energy without entropy =       -5.43322836  energy(sigma->0) =       -5.43555958


--------------------------------------------------------------------------------------------------------




--------------------------------------- Iteration      1(   9)  ---------------------------------------


    POTLOK:  cpu time      0.0023: real time      0.0023
    SETDIJ:  cpu time      0.0031: real time      0.0031
     EDDAV:  cpu time      0.1530: real time      0.1534
       DOS:  cpu time      0.0012: real time      0.0012
    CHARGE:  cpu time      0.0023: real time      0.0023
    MIXING:  cpu time      0.0002: real time      0.0002
    --------------------------------------------
      LOOP:  cpu time      0.1621: real time      0.1625

 eigenvalue-minimisations  :  2828
 total energy-change (2. order) : 0.2126835E-02  (-0.1271457E-03)
 number of electron      10.0000070 magnetization       0.5758072
 augmentation part        6.1707015 magnetization       0.5571208

 Broyden mixing:
  rms(total) = 0.25085E-01    rms(broyden)= 0.25084E-01
  rms(prec ) = 0.63793E-01
  weight for this iteration     100.00

 eigenvalues of (default mixing * dielectric matrix)
  average eigenvalue GAMMA=   1.1659
  2.3805  1.0501  0.5881  0.6450

 Free energy of the ion-electron system (eV)
  ---------------------------------------------------
  alpha Z        PSCENC =        43.72376629
  Ewald energy   TEWEN  =      -916.95886177
  -Hartree energ DENC   =      -235.87794157
  -exchange      EXHF   =         0.00000000
  -V(xc)+E(xc)   XCENC  =        30.55955147
  PAW double counting   =      1088.02743216    -1155.71269661
  entropy T*S    EENTRO =        -0.00353193
  eigenvalues    EBANDS =        63.17160893
  atomic energy  EATOM  =      1077.63607467
  Solvation  Ediel_sol  =         0.00000000
  ---------------------------------------------------
  free energy    TOTEN  =        -5.43459836 eV

  energy without entropy =       -5.43106643  energy(sigma->0) =       -5.43342105


--------------------------------------------------------------------------------------------------------




--------------------------------------- Iteration      1(  10)  ---------------------------------------


    POTLOK:  cpu time      0.0022: real time      0.0023
    SETDIJ:  cpu time      0.0029: real time      0.0029
     EDDAV:  cpu time      0.1345: real time      0.1348
       DOS:  cpu time      0.0012: real time      0.0012
    CHARGE:  cpu time      0.0023: real time      0.0023
    MIXING:  cpu time      0.0002: real time      0.0002
    --------------------------------------------
      LOOP:  cpu time      0.1433: real time      0.1437

 eigenvalue-minimisations  :  2436
 total energy-change (2. order) : 0.6377432E-03  (-0.1142460E-03)
 number of electron      10.0000071 magnetization       0.5768127
 augmentation part        6.1774777 magnetization       0.5595513

 Broyden mixing:
  rms(total) = 0.54685E-02    rms(broyden)= 0.54665E-02
  rms(prec ) = 0.59950E-02
  weight for this iteration     100.00

 eigenvalues of (default mixing * dielectric matrix)
  average eigenvalue GAMMA=   1.1104
  2.3337  1.0819  0.9077  0.6143  0.6143

 Free energy of the ion-electron system (eV)
  ---------------------------------------------------
  alpha Z        PSCENC =        43.72376629
  Ewald energy   TEWEN  =      -916.95886177
  -Hartree energ DENC   =      -235.14238232
  -exchange      EXHF   =         0.00000000
  -V(xc)+E(xc)   XCENC  =        30.52849162
  PAW double counting   =      1103.22414680    -1171.37868070
  entropy T*S    EENTRO =        -0.00356012
  eigenvalues    EBANDS =        62.93704491
  atomic energy  EATOM  =      1077.63607467
  Solvation  Ediel_sol  =         0.00000000
  ---------------------------------------------------
  free energy    TOTEN  =        -5.43396062 eV

  energy without entropy =       -5.43040050  energy(sigma->0) =       -5.43277391


--------------------------------------------------------------------------------------------------------




--------------------------------------- Iteration      1(  11)  ---------------------------------------


    POTLOK:  cpu time      0.0022: real time      0.0023
    SETDIJ:  cpu time      0.0031: real time      0.0031
     EDDAV:  cpu time      0.1005: real time      0.1008
       DOS:  cpu time      0.0012: real time      0.0012
    --------------------------------------------
      LOOP:  cpu time      0.1071: real time      0.1074

 eigenvalue-minimisations  :  1452
 total energy-change (2. order) :-0.2798985E-05  (-0.1509115E-05)
 number of electron      10.0000071 magnetization       0.5768127
 augmentation part        6.1774777 magnetization       0.5595513

 Free energy of the ion-electron system (eV)
  ---------------------------------------------------
  alpha Z        PSCENC =        43.72376629
  Ewald energy   TEWEN  =      -916.95886177
  -Hartree energ DENC   =      -235.16589002
  -exchange      EXHF   =         0.00000000
  -V(xc)+E(xc)   XCENC  =        30.52982790
  PAW double counting   =      1103.36986419    -1171.50329199
  entropy T*S    EENTRO =        -0.00355875
  eigenvalues    EBANDS =        62.93810606
  atomic energy  EATOM  =      1077.63607467
  Solvation  Ediel_sol  =         0.00000000
  ---------------------------------------------------
  free energy    TOTEN  =        -5.43396342 eV

  energy without entropy =       -5.43040467  energy(sigma->0) =       -5.43277717


--------------------------------------------------------------------------------------------------------




 average (electrostatic) potential at core
  the test charge radii are     0.9791
  (the norm of the test charge is              1.0000)
       1 -82.8506
 
 
 
 E-fermi :   8.4103     XC(G=0): -12.8485     alpha+bet :-15.3561

 Fermi energy:         8.4102558310

 spin component 1

 k-point     1 :       0.0000    0.0000    0.0000
  band No.  band energies     occupation 
      1      -0.1025      1.00000
      2       6.1972      1.00000
      3       6.1972      1.00000
      4       6.1972      1.00000
      5       7.2434      1.00000
      6       7.2434      1.00000
      7      31.5961      0.00000
      8      34.8987      0.00000
      9      34.8988      0.00000
     10      34.8988      0.00000
     11      37.8328      0.00000
     12      37.8329      0.00000

 k-point     2 :       0.0909    0.0000    0.0000
  band No.  band energies     occupation 
      1       0.2033      1.00000
      2       6.1231      1.00000
      3       6.2598      1.00000
      4       6.2598      1.00000
      5       7.2190      1.00000
      6       7.2190      1.00000
      7      30.0280      0.00000
      8      32.7158      0.00000
      9      34.2388      0.00000
     10      34.2390      0.00000
     11      38.8465      0.00000
     12      38.8466      0.00000

 k-point     3 :       0.1818    0.0000   -0.0000
  band No.  band energies     occupation 
      1       1.0838      1.00000
      2       5.9683      1.00000
      3       6.3749      1.00000
      4       6.3749      1.00000
      5       7.2099      1.00000
      6       7.2099      1.00000
      7      25.5664      0.00000
      8      32.1156      0.00000
      9      33.2765      0.00000
     10      33.2766      0.00000
     11      38.9626      0.00000
     12      39.6030      0.00000

 k-point     4 :       0.2727   -0.0000   -0.0000
  band No.  band energies     occupation 
      1       2.3723      1.00000
      2       5.9335      1.00000
      3       6.3885      1.00000
      4       6.3885      1.00000
      5       7.3655      1.00000
      6       7.3655      1.00000
      7      21.1059      0.00000
      8      31.4108      0.00000
      9      32.5671      0.00000
     10      32.5671      0.00000
     11      37.7908      0.00000
     12      37.7909      0.00000

 k-point     5 :       0.3636    0.0000   -0.0000
  band No.  band energies     occupation 
      1       3.5238      1.00000
      2       6.2973      1.00000
      3       6.2973      1.00000
      4       6.5287      1.00000
      5       7.6245      1.00000
      6       7.6246      1.00000
      7      17.1263      0.00000
      8      30.6452      0.00000
      9      32.1364      0.00000
     10      32.1365      0.00000
     11      36.0370      0.00000
     12      36.0374      0.00000

 k-point     6 :       0.4545    0.0000    0.0000
  band No.  band energies     occupation 
      1       3.9444      1.00000
      2       6.2199      1.00000
      3       6.2199      1.00000
      4       7.8108      1.00009
      5       7.8109      1.00009
      6       7.9283      1.00172
      7      14.1613      0.00000
      8      30.1716      0.00000
      9      31.9426      0.00000
     10      31.9429      0.00000
     11      35.0476      0.00000
     12      35.0483      0.00000

 k-point     7 :       0.0909    0.0909    0.0000
  band No.  band energies     occupation 
      1       0.3047      1.00000
      2       6.0627      1.00000
      3       6.3035      1.00000
      4       6.3035      1.00000
      5       7.1204      1.00000
      6       7.2931      1.00000
      7      30.7364      0.00000
      8      32.3523      0.00000
      9      32.3524      0.00000
     10      33.3579      0.00000
     11      39.5654      0.00000
     12      40.3428      0.00000

 k-point     8 :       0.1818    0.0909   -0.0000
  band No.  band energies     occupation 
      1       0.9930      1.00000
      2       5.9008      1.00000
      3       6.4241      1.00000
      4       6.4333      1.00000
      5       7.0293      1.00000
      6       7.3391      1.00000
      7      27.3067      0.00000
      8      30.8953      0.00000
      9      31.0864      0.00000
     10      34.3700      0.00000
     11      37.3894      0.00000
     12      39.8242      0.00000

 k-point     9 :       0.2727    0.0909    0.0000
  band No.  band energies     occupation 
      1       2.1591      1.00000
      2       5.7680      1.00000
      3       6.4116      1.00000
      4       6.5022      1.00000
      5       7.1946      1.00000
      6       7.4687      1.00000
      7      22.7508      0.00000
      8      29.9359      0.00000
      9      30.4070      0.00000
     10      33.8962      0.00000
     11      37.0929      0.00000
     12      39.6085      0.00000

 k-point    10 :       0.3636    0.0909   -0.0000
  band No.  band energies     occupation 
      1       3.4201      1.00000
      2       5.9520      1.00000
      3       6.2570      1.00000
      4       6.4436      1.00000
      5       7.6869      1.00000
      6       7.7027      1.00000
      7      18.5735      0.00000
      8      29.5075      0.00000
      9      29.6685      0.00000
     10      31.9931      0.00000
     11      37.4757      0.00000
     12      39.2006      0.00000

 k-point    11 :       0.4545    0.0909   -0.0000
  band No.  band energies     occupation 
      1       4.0492      1.00000
      2       6.1231      1.00000
      3       6.3549      1.00000
      4       6.6757      1.00000
      5       7.8375      1.00020
      6       8.6570     -0.03545
      7      15.0969      0.00000
      8      28.8069      0.00000
      9      29.6943      0.00000
     10      30.8785      0.00000
     11      37.3439      0.00000
     12      37.7107      0.00000

 k-point    12 :      -0.4545    0.0909    0.0000
  band No.  band energies     occupation 
      1       4.1453      1.00000
      2       6.1005      1.00000
      3       6.3167      1.00000
      4       6.9950      1.00000
      5       7.7993      1.00007
      6       9.3635     -0.00000
      7      13.7703     -0.00000
      8      27.9582      0.00000
      9      30.5559      0.00000
     10      30.7271      0.00000
     11      36.6793      0.00000
     12      37.4002      0.00000

 k-point    13 :      -0.3636    0.0909    0.0000
  band No.  band energies     occupation 
      1       3.9319      1.00000
      2       6.1799      1.00000
      3       6.3599      1.00000
      4       6.4917      1.00000
      5       7.5689      1.00000
      6       8.4247      0.43913
      7      16.1429      0.00000
      8      27.5055      0.00000
      9      31.3329      0.00000
     10      32.1123      0.00000
     11      36.1075      0.00000
     12      37.5296      0.00000

 k-point    14 :      -0.2727    0.0909    0.0000
  band No.  band energies     occupation 
      1       3.0412      1.00000
      2       5.8695      1.00000
      3       6.3175      1.00000
      4       6.4634      1.00000
      5       7.2452      1.00000
      6       7.8195      1.00012
      7      19.9198      0.00000
      8      27.5533      0.00000
      9      32.5408      0.00000
     10      34.3198      0.00000
     11      36.0068      0.00000
     12      37.2428      0.00000

 k-point    15 :      -0.1818    0.0909    0.0000
  band No.  band energies     occupation 
      1       1.7324      1.00000
      2       5.8351      1.00000
      3       6.4076      1.00000
      4       6.4946      1.00000
      5       7.0372      1.00000
      6       7.4678      1.00000
      7      24.2483      0.00000
      8      28.0787      0.00000
      9      33.9687      0.00000
     10      36.1547      0.00000
     11      36.5457      0.00000
     12      37.1154      0.00000

 k-point    16 :      -0.0909    0.0909    0.0000
  band No.  band energies     occupation 
      1       0.7016      1.00000
      2       5.9978      1.00000
      3       6.3529      1.00000
      4       6.3600      1.00000
      5       7.0976      1.00000
      6       7.2940      1.00000
      7      28.4804      0.00000
      8      29.4591      0.00000
      9      34.0287      0.00000
     10      36.0556      0.00000
     11      37.2981      0.00000
     12      38.1960      0.00000

 k-point    17 :       0.1818    0.1818   -0.0000
  band No.  band energies     occupation 
      1       1.4661      1.00000
      2       5.7051      1.00000
      3       6.6117      1.00000
      4       6.6117      1.00000
      5       6.8361      1.00000
      6       7.4229      1.00000
      7      29.0398      0.00000
      8      29.0398      0.00000
      9      29.3772      0.00000
     10      30.7152      0.00000
     11      35.0633      0.00000
     12      43.3951      0.00000

 k-point    18 :       0.2727    0.1818   -0.0000
  band No.  band energies     occupation 
      1       2.4223      1.00000
      2       5.5088      1.00000
      3       6.5039      1.00000
      4       6.7685      1.00000
      5       7.1001      1.00000
      6       7.5394      1.00000
      7      24.7928      0.00000
      8      27.7629      0.00000
      9      29.0059      0.00000
     10      30.6327      0.00000
     11      34.3995      0.00000
     12      42.9749      0.00000

 k-point    19 :       0.3636    0.1818    0.0000
  band No.  band energies     occupation 
      1       3.5949      1.00000
      2       5.4375      1.00000
      3       6.2453      1.00000
      4       6.7732      1.00000
      5       7.7376      1.00001
      6       7.8636      1.00038
      7      20.4774      0.00000
      8      27.1186      0.00000
      9      27.3207      0.00000
     10      30.1093      0.00000
     11      37.1142      0.00000
     12      42.0313      0.00000

 k-point    20 :       0.4545    0.1818   -0.0000
  band No.  band energies     occupation 
      1       4.3641      1.00000
      2       5.6393      1.00000
      3       6.1427      1.00000
      4       6.6894      1.00000
      5       7.8662      1.00041
      6       9.2168     -0.00000
      7      16.6468      0.00000
      8      25.5822      0.00000
      9      27.1794      0.00000
     10      29.8366      0.00000
     11      40.4772      0.00000
     12      41.2241      0.00000

 k-point    21 :      -0.4545    0.1818    0.0000
  band No.  band energies     occupation 
      1       4.5646      1.00000
      2       5.7515      1.00000
      3       6.3177      1.00000
      4       6.6202      1.00000
      5       7.8061      1.00008
      6      10.8830     -0.00000
      7      14.0073      0.00000
      8      24.2306      0.00000
      9      27.9906      0.00000
     10      29.9742      0.00000
     11      40.0542      0.00000
     12      40.4229      0.00000

 k-point    22 :      -0.3636    0.1818    0.0000
  band No.  band energies     occupation 
      1       4.5286      1.00000
      2       5.8682      1.00000
      3       6.1481      1.00000
      4       6.6126      1.00000
      5       7.5417      1.00000
      6       9.9726     -0.00000
      7      15.5801      0.00000
      8      23.4063      0.00000
      9      29.5136      0.00000
     10      30.6047      0.00000
     11      39.3072      0.00000
     12      39.6715      0.00000

 k-point    23 :      -0.2727    0.1818   -0.0000
  band No.  band energies     occupation 
      1       4.0066      1.00000
      2       5.7077      1.00000
      3       6.0829      1.00000
      4       6.6918      1.00000
      5       7.1664      1.00000
      6       8.6724     -0.03445
      7      19.1775      0.00000
      8      23.1811      0.00000
      9      31.6700      0.00000
     10      31.8085      0.00000
     11      38.3610      0.00000
     12      39.1010      0.00000

 k-point    24 :      -0.1818    0.1818   -0.0000
  band No.  band energies     occupation 
      1       2.8324      1.00000
      2       5.6662      1.00000
      3       6.3022      1.00000
      4       6.7560      1.00000
      5       6.8666      1.00000
      6       7.9270      1.00167
      7      23.0589      0.00000
      8      23.8229      0.00000
      9      33.5183      0.00000
     10      34.2636      0.00000
     11      36.5616      0.00000
     12      39.3566      0.00000

 k-point    25 :       0.2727    0.2727    0.0000
  band No.  band energies     occupation 
      1       3.0694      1.00000
      2       5.2598      1.00000
      3       6.7524      1.00000
      4       7.0736      1.00000
      5       7.0736      1.00000
      6       7.5996      1.00000
      7      26.1570      0.00000
      8      26.1571      0.00000
      9      26.6745      0.00000
     10      28.3420      0.00000
     11      31.8636      0.00000
     12      47.2004      0.00000

 k-point    26 :       0.3636    0.2727    0.0000
  band No.  band energies     occupation 
      1       3.8622      1.00000
      2       5.0933      1.00000
      3       6.6565      1.00000
      4       7.2034      1.00000
      5       7.7547      1.00002
      6       7.8719      1.00047
      7      22.6974      0.00000
      8      24.4246      0.00000
      9      25.2240      0.00000
     10      28.9734      0.00000
     11      32.7451      0.00000
     12      46.7665      0.00000

 k-point    27 :       0.4545    0.2727    0.0000
  band No.  band energies     occupation 
      1       4.4779      1.00000
      2       5.0932      1.00000
      3       6.4469      1.00000
      4       7.1504      1.00000
      5       7.8891      1.00071
      6       9.5134     -0.00000
      7      18.7796      0.00000
      8      22.3891      0.00000
      9      25.0597      0.00000
     10      29.1244      0.00000
     11      36.0439      0.00000
     12      45.0775      0.00000

 k-point    28 :      -0.4545    0.2727    0.0000
  band No.  band energies     occupation 
      1       4.8137      1.00000
      2       5.2487      1.00000
      3       6.2557      1.00000
      4       7.0576      1.00000
      5       7.8296      1.00016
      6      11.8294     -0.00000
      7      15.3680      0.00000
      8      20.8348      0.00000
      9      25.7109      0.00000
     10      29.3078      0.00000
     11      40.2222      0.00000
     12      43.6725      0.00000

 k-point    29 :      -0.3636    0.2727    0.0000
  band No.  band energies     occupation 
      1       5.0062      1.00000
      2       5.4456      1.00000
      3       5.9954      1.00000
      4       6.9811      1.00000
      5       7.5711      1.00000
      6      12.0472     -0.00000
      7      15.2825      0.00000
      8      19.8432      0.00000
      9      27.1213      0.00000
     10      29.7845      0.00000
     11      42.6502      0.00000
     12      42.7529      0.00000

 k-point    30 :      -0.2727    0.2727    0.0000
  band No.  band energies     occupation 
      1       4.8454      1.00000
      2       5.6818      1.00000
      3       5.7454      1.00000
      4       6.9057      1.00000
      5       7.2592      1.00000
      6      10.0408     -0.00000
      7      18.2844      0.00000
      8      19.8812      0.00000
      9      29.1549      0.00000
     10      30.6370      0.00000
     11      40.7203      0.00000
     12      41.6669      0.00000

 k-point    31 :       0.3636    0.3636    0.0000
  band No.  band energies     occupation 
      1       4.0763      1.00000
      2       4.8648      1.00000
      3       7.5742      1.00000
      4       7.5743      1.00000
      5       7.7683      1.00003
      6       7.9436      1.00236
      7      21.7837      0.00000
      8      23.9821      0.00000
      9      23.9822      0.00000
     10      27.6912      0.00000
     11      30.7750      0.00000
     12      50.9450      0.00000

 k-point    32 :       0.4545    0.3636   -0.0000
  band No.  band energies     occupation 
      1       4.2924      1.00000
      2       4.7845      1.00000
      3       7.3290      1.00000
      4       7.6073      1.00000
      5       7.8975      1.00087
      6       9.6945     -0.00000
      7      19.6843      0.00000
      8      21.3059      0.00000
      9      23.5334      0.00000
     10      28.3793      0.00000
     11      32.0053      0.00000
     12      49.0332      0.00000

 k-point    33 :      -0.4545    0.3636    0.0000
  band No.  band energies     occupation 
      1       4.5660      1.00000
      2       4.8807      1.00000
      3       6.8806      1.00000
      4       7.5114      1.00000
      5       7.8685      1.00043
      6      12.0130     -0.00000
      7      17.6972      0.00000
      8      18.3666      0.00000
      9      23.9610      0.00000
     10      28.7958      0.00000
     11      35.5605      0.00000
     12      47.2414      0.00000

 k-point    34 :      -0.3636    0.3636    0.0000
  band No.  band energies     occupation 
      1       4.8924      1.00000
      2       5.1075      1.00000
      3       6.3573      1.00000
      4       7.3225      1.00000
      5       7.6878      1.00000
      6      14.3180      0.00000
      7      14.6604      0.00000
      8      17.8849      0.00000
      9      25.2078      0.00000
     10      29.1799      0.00000
     11      40.0621      0.00000
     12      45.3398      0.00000

 k-point    35 :       0.4545    0.4545   -0.0000
  band No.  band energies     occupation 
      1       4.1930      1.00000
      2       4.6372      1.00000
      3       7.8656      1.00040
      4       7.9094      1.00113
      5       7.9094      1.00114
      6      10.2866     -0.00000
      7      17.8138      0.00000
      8      22.7823      0.00000
      9      22.7823      0.00000
     10      27.3847      0.00000
     11      30.4385      0.00000
     12      51.4273      0.00000

 k-point    36 :      -0.4545    0.4545   -0.0000
  band No.  band energies     occupation 
      1       4.2899      1.00000
      2       4.6716      1.00000
      3       7.5997      1.00000
      4       7.7989      1.00007
      5       7.9268      1.00166
      6      11.4130     -0.00000
      7      17.1213      0.00000
      8      20.7655      0.00000
      9      22.9321      0.00000
     10      28.1969      0.00000
     11      31.8089      0.00000
     12      50.0973      0.00000

 k-point    37 :       0.2727    0.1818    0.0909
  band No.  band energies     occupation 
      1       1.8287      1.00000
      2       5.7164      1.00000
      3       6.4480      1.00000
      4       6.6253      1.00000
      5       6.9660      1.00000
      6       7.4980      1.00000
      7      25.8860      0.00000
      8      26.5544      0.00000
      9      32.5515      0.00000
     10      33.0266      0.00000
     11      36.3862      0.00000
     12      39.9802      0.00000

 k-point    38 :       0.3636    0.1818    0.0909
  band No.  band energies     occupation 
      1       3.0384      1.00000
      2       5.6001      1.00000
      3       6.2713      1.00000
      4       6.7097      1.00000
      5       7.1736      1.00000
      6       7.8890      1.00071
      7      21.7065      0.00000
      8      25.5707      0.00000
      9      30.4698      0.00000
     10      33.4080      0.00000
     11      37.2565      0.00000
     12      39.0331      0.00000

 k-point    39 :       0.4545    0.1818    0.0909
  band No.  band energies     occupation 
      1       4.0853      1.00000
      2       5.8109      1.00000
      3       6.0727      1.00000
      4       6.6224      1.00000
      5       7.5526      1.00000
      6       8.6656     -0.03507
      7      17.6894      0.00000
      8      25.3927      0.00000
      9      28.5226      0.00000
     10      32.7684      0.00000
     11      37.1873      0.00000
     12      40.6388      0.00000

 k-point    40 :      -0.4545    0.1818    0.0909
  band No.  band energies     occupation 
      1       4.4261      1.00000
      2       5.8817      1.00000
      3       6.3630      1.00000
      4       6.5436      1.00000
      5       7.7637      1.00002
      6      10.0855     -0.00000
      7      14.4965      0.00000
      8      25.7330      0.00000
      9      27.0557      0.00000
     10      32.2836      0.00000
     11      36.8410      0.00000
     12      41.1359      0.00000

 k-point    41 :       0.3636    0.2727    0.0909
  band No.  band energies     occupation 
      1       3.3700      1.00000
      2       5.3240      1.00000
      3       6.3400      1.00000
      4       7.0734      1.00000
      5       7.2610      1.00000
      6       7.8779      1.00055
      7      23.6242      0.00000
      8      24.1635      0.00000
      9      27.3104      0.00000
     10      31.4090      0.00000
     11      34.1393      0.00000
     12      42.5855      0.00000

 k-point    42 :       0.4545    0.2727    0.0909
  band No.  band energies     occupation 
      1       4.3099      1.00000
      2       5.2877      1.00000
      3       6.1072      1.00000
      4       7.0757      1.00000
      5       7.6043      1.00000
      6       8.8505     -0.00396
      7      19.7203      0.00000
      8      23.5599      0.00000
      9      25.1550      0.00000
     10      31.9473      0.00000
     11      36.4879      0.00000
     12      41.2382      0.00000

 k-point    43 :      -0.4545    0.2727    0.0909
  band No.  band energies     occupation 
      1       4.7750      1.00000
      2       5.4321      1.00000
      3       6.0243      1.00000
      4       6.9509      1.00000
      5       7.7831      1.00004
      6      10.6676     -0.00000
      7      16.0779      0.00000
      8      23.1990      0.00000
      9      24.0392      0.00000
     10      32.0438      0.00000
     11      38.7945      0.00000
     12      41.6645      0.00000

 k-point    44 :      -0.3636    0.2727    0.0909
  band No.  band energies     occupation 
      1       4.9145      1.00000
      2       5.4958      1.00000
      3       6.0394      1.00000
      4       6.8697      1.00000
      5       7.7235      1.00001
      6      12.0248     -0.00000
      7      14.3222      0.00000
      8      22.0495      0.00000
      9      24.8697      0.00000
     10      32.5039      0.00000
     11      38.3838      0.00000
     12      44.8894      0.00000

 k-point    45 :      -0.2727    0.2727    0.0909
  band No.  band energies     occupation 
      1       4.8207      1.00000
      2       5.6301      1.00000
      3       5.7735      1.00000
      4       6.9193      1.00000
      5       7.4713      1.00000
      6      10.1556     -0.00000
      7      17.2255      0.00000
      8      21.4058      0.00000
      9      26.3371      0.00000
     10      33.5227      0.00000
     11      37.5032      0.00000
     12      42.7168      0.00000

 k-point    46 :      -0.1818    0.2727    0.0909
  band No.  band energies     occupation 
      1       4.1242      1.00000
      2       5.4939      1.00000
      3       5.9989      1.00000
      4       7.0183      1.00000
      5       7.1081      1.00000
      6       8.7286     -0.02344
      7      20.7359      0.00000
      8      21.7151      0.00000
      9      28.2714      0.00000
     10      35.0768      0.00000
     11      35.9201      0.00000
     12      40.2745      0.00000

 k-point    47 :       0.4545    0.3636    0.0909
  band No.  band energies     occupation 
      1       4.3181      1.00000
      2       4.9710      1.00000
      3       6.6763      1.00000
      4       7.5722      1.00000
      5       7.6412      1.00000
      6       9.0181     -0.00007
      7      21.8560      0.00000
      8      21.9179      0.00000
      9      22.6470      0.00000
     10      30.3273      0.00000
     11      33.0397      0.00000
     12      45.1704      0.00000

 k-point    48 :      -0.4545    0.3636    0.0909
  band No.  band energies     occupation 
      1       4.6680      1.00000
      2       5.0225      1.00000
      3       6.4546      1.00000
      4       7.4252      1.00000
      5       7.8263      1.00015
      6      11.0182     -0.00000
      7      18.3747      0.00000
      8      20.2502      0.00000
      9      22.3439      0.00000
     10      31.1918      0.00000
     11      35.9210      0.00000
     12      43.5361      0.00000

 k-point    49 :      -0.3636    0.3636    0.0909
  band No.  band energies     occupation 
      1       4.9689      1.00000
      2       5.1769      1.00000
      3       6.1539      1.00000
      4       7.2340      1.00000
      5       7.7867      1.00005
      6      13.5619     -0.00000
      7      15.1497      0.00000
      8      18.9687      0.00000
      9      23.1183      0.00000
     10      31.7022      0.00000
     11      40.0486      0.00000
     12      42.0750      0.00000

 k-point    50 :      -0.2727    0.3636    0.0909
  band No.  band energies     occupation 
      1       5.2246      1.00000
      2       5.3337      1.00000
      3       5.7888      1.00000
      4       7.1091      1.00000
      5       7.5881      1.00000
      6      12.2432     -0.00000
      7      16.3980      0.00000
      8      18.7439      0.00000
      9      24.4973      0.00000
     10      32.5338      0.00000
     11      39.9428      0.00000
     12      43.8587      0.00000

 k-point    51 :      -0.4545    0.4545    0.0909
  band No.  band energies     occupation 
      1       4.3952      1.00000
      2       4.7661      1.00000
      3       7.1986      1.00000
      4       7.7249      1.00001
      5       7.9102      1.00116
      6      11.2765     -0.00000
      7      17.9964      0.00000
      8      20.8490      0.00000
      9      21.4950      0.00000
     10      29.8120      0.00000
     11      32.6261      0.00000
     12      47.5033      0.00000

 k-point    52 :      -0.3636    0.4545    0.0909
  band No.  band energies     occupation 
      1       4.6377      1.00000
      2       4.9257      1.00000
      3       6.7157      1.00000
      4       7.5167      1.00000
      5       7.9067      1.00107
      6      13.0231     -0.00000
      7      17.2848      0.00000
      8      18.0296      0.00000
      9      21.8620      0.00000
     10      30.9464      0.00000
     11      35.7424      0.00000
     12      45.0653      0.00000

 k-point    53 :      -0.4545    0.3636    0.1818
  band No.  band energies     occupation 
      1       4.8914      1.00000
      2       5.2885      1.00000
      3       5.8610      1.00000
      4       7.3041      1.00000
      5       7.5700      1.00000
      6      10.4527     -0.00000
      7      18.9762      0.00000
      8      20.2593      0.00000
      9      23.0489      0.00000
     10      34.7564      0.00000
     11      36.2703      0.00000
[...]
  band No.  band energies     occupation 
      1       5.3801      1.00000
      2       5.8821      1.00000
      3       6.5901      1.00000
      4       7.4518      1.00000
      5       8.4474      0.34562
      6      12.2395     -0.00000
      7      14.5810      0.00000
      8      22.1254      0.00000
      9      24.9269      0.00000
     10      32.4937      0.00000
     11      38.3666      0.00000
     12      44.8370      0.00000

 k-point    45 :      -0.2727    0.2727    0.0909
  band No.  band energies     occupation 
      1       5.1189      1.00000
      2       6.0863      1.00000
      3       6.3398      1.00000
      4       7.4912      1.00000
      5       8.1875      1.03326
      6      10.5627     -0.00000
      7      17.3863      0.00000
      8      21.4885      0.00000
      9      26.3861      0.00000
     10      33.5104      0.00000
     11      37.4723      0.00000
     12      42.7652      0.00000

 k-point    46 :      -0.1818    0.2727    0.0909
  band No.  band energies     occupation 
      1       4.2080      1.00000
      2       6.0788      1.00000
      3       6.5417      1.00000
      4       7.5607      1.00000
      5       7.8350      1.00018
      6       9.3044     -0.00000
      7      20.8585      0.00000
      8      21.7854      0.00000
      9      28.3045      0.00000
     10      35.0805      0.00000
     11      35.8728      0.00000
     12      40.3344      0.00000

 k-point    47 :       0.4545    0.3636    0.0909
  band No.  band energies     occupation 
      1       4.5449      1.00000
      2       5.5458      1.00000
      3       7.1910      1.00000
      4       8.2080      1.02625
      5       8.3201      0.84182
      6       9.4509     -0.00000
      7      21.9307      0.00000
      8      21.9842      0.00000
      9      22.7122      0.00000
     10      30.3514      0.00000
     11      33.1237      0.00000
     12      45.1288      0.00000

 k-point    48 :      -0.4545    0.3636    0.0909
  band No.  band energies     occupation 
      1       5.0011      1.00000
      2       5.5692      1.00000
      3       6.9944      1.00000
      4       8.0215      1.00955
      5       8.5652      0.01676
      6      11.2929     -0.00000
      7      18.4774      0.00000
      8      20.3635      0.00000
      9      22.3965      0.00000
     10      31.2132      0.00000
     11      35.9771      0.00000
     12      43.4983      0.00000

 k-point    49 :      -0.3636    0.3636    0.0909
  band No.  band energies     occupation 
      1       5.3824      1.00000
      2       5.6627      1.00000
      3       6.7088      1.00000
      4       7.8062      1.00008
      5       8.5412      0.05687
      6      13.7419     -0.00000
      7      15.3187      0.00000
      8      19.0989      0.00000
      9      23.1744      0.00000
     10      31.7150      0.00000
     11      40.0773      0.00000
     12      42.0379      0.00000

 k-point    50 :      -0.2727    0.3636    0.0909
  band No.  band energies     occupation 
      1       5.6191      1.00000
      2       5.7982      1.00000
      3       6.3459      1.00000
      4       7.6644      1.00000
      5       8.3422      0.77044
      6      12.5043     -0.00000
      7      16.5490      0.00000
      8      18.8698      0.00000
      9      24.5550      0.00000
     10      32.5338      0.00000
     11      39.8846      0.00000
     12      43.9128      0.00000

 k-point    51 :      -0.4545    0.4545    0.0909
  band No.  band energies     occupation 
      1       4.7341      1.00000
      2       5.3262      1.00000
      3       7.8070      1.00009
      4       8.3176      0.84928
      5       8.6825     -0.03310
      6      11.4181     -0.00000
      7      18.1712      0.00000
      8      20.9063      0.00000
      9      21.5214      0.00000
     10      29.8520      0.00000
     11      32.7116      0.00000
     12      47.4443      0.00000

 k-point    52 :      -0.3636    0.4545    0.0909
  band No.  band energies     occupation 
      1       5.0034      1.00000
      2       5.4730      1.00000
      3       7.2946      1.00000
      4       8.0945      1.02404
      5       8.6795     -0.03355
      6      13.1534     -0.00000
      7      17.4547      0.00000
      8      18.1435      0.00000
      9      21.9071      0.00000
     10      30.9740      0.00000
     11      35.8041      0.00000
     12      44.9954      0.00000

 k-point    53 :      -0.4545    0.3636    0.1818
  band No.  band energies     occupation 
      1       5.1636      1.00000
      2       5.8541      1.00000
      3       6.3837      1.00000
      4       7.8595      1.00035
      5       8.3197      0.84303
      6      10.8194     -0.00000
      7      19.0983      0.00000
      8      20.3375      0.00000
      9      23.1272      0.00000
     10      34.7312      0.00000
     11      36.2966      0.00000
     12      40.5381      0.00000

 k-point    54 :      -0.3636    0.3636    0.1818
  band No.  band energies     occupation 
      1       5.5099      1.00000
      2       5.8788      1.00000
      3       6.3083      1.00000
      4       7.7186      1.00001
      5       8.5267      0.08806
      6      12.9597     -0.00000
      7      16.0773      0.00000
      8      20.3842      0.00000
      9      21.5523      0.00000
     10      35.2454      0.00000
     11      37.4255      0.00000
     12      41.8592      0.00000

 k-point    55 :      -0.3636    0.4545    0.1818
  band No.  band energies     occupation 
      1       5.2136      1.00000
      2       5.7119      1.00000
      3       6.7458      1.00000
      4       7.9196      1.00142
      5       8.6813     -0.03327
      6      13.3214     -0.00000
      7      18.0897      0.00000
      8      18.7011      0.00000
      9      19.7351      0.00000
     10      34.1344      0.00000
     11      36.9760      0.00000
     12      41.6448      0.00000

 k-point    56 :      -0.2727    0.4545    0.1818
  band No.  band energies     occupation 
      1       5.4027      1.00000
      2       5.9601      1.00000
      3       6.3727      1.00000
      4       7.7577      1.00002
      5       8.6805     -0.03340
      6      15.4491      0.00000
      7      15.4735      0.00000
      8      18.3003      0.00000
      9      20.1195      0.00000
     10      35.5342      0.00000
     11      39.2554      0.00000
     12      40.2388      0.00000


--------------------------------------------------------------------------------------------------------


 soft charge-density along one line, spin component           1
         0         1         2         3         4         5         6         7         8         9
 total charge-density along one line
 
 soft charge-density along one line, spin component           2
         0         1         2         3         4         5         6         7         8         9
 total charge-density along one line
 
 pseudopotential strength for first ion, spin component:           1
 -1.180   0.000   0.000   0.000  -0.000  -1.832   0.000   0.000
  0.000  -1.180  -0.000   0.000   0.000   0.000  -1.832  -0.000
  0.000  -0.000  -1.081  -0.000  -0.000   0.000  -0.000  -1.737
  0.000   0.000  -0.000  -1.180  -0.000   0.000   0.000  -0.000
 -0.000   0.000  -0.000  -0.000  -1.081  -0.000   0.000  -0.000
 -1.832   0.000   0.000   0.000  -0.000  -2.414   0.000   0.000
  0.000  -1.832  -0.000   0.000   0.000   0.000  -2.414  -0.000
  0.000  -0.000  -1.737  -0.000  -0.000   0.000  -0.000  -2.323
  0.000   0.000  -0.000  -1.832  -0.000   0.000   0.000  -0.000
 -0.000   0.000  -0.000  -0.000  -1.737  -0.000   0.000  -0.000
  0.000   0.000  -0.000   0.000  -0.000   0.000   0.000  -0.000
  0.000   0.000  -0.000   0.000  -0.000   0.000   0.000  -0.000
 -0.000  -0.000   0.000   0.000   0.000  -0.000  -0.000   0.000
  0.000  -0.000  -0.000  -0.000  -0.000   0.000  -0.000  -0.000
 -0.000   0.000   0.000  -0.000  -0.000  -0.000   0.000   0.000
 -0.000  -0.000   0.000   0.000   0.000  -0.000  -0.000   0.000
  0.000  -0.000  -0.000  -0.000  -0.000   0.000  -0.000  -0.000
 -0.000   0.000   0.000  -0.000  -0.000  -0.000   0.000   0.000
 pseudopotential strength for first ion, spin component:           2
 -0.594   0.000   0.000   0.000   0.000  -1.273   0.000   0.000
  0.000  -0.594  -0.000   0.000   0.000   0.000  -1.273  -0.000
  0.000  -0.000  -0.618  -0.000  -0.000   0.000  -0.000  -1.297
  0.000   0.000  -0.000  -0.594  -0.000   0.000   0.000  -0.000
  0.000   0.000  -0.000  -0.000  -0.618   0.000   0.000  -0.000
 -1.273   0.000   0.000   0.000   0.000  -1.881   0.000   0.000
  0.000  -1.273  -0.000   0.000   0.000   0.000  -1.881  -0.000
  0.000  -0.000  -1.297  -0.000  -0.000   0.000  -0.000  -1.904
  0.000   0.000  -0.000  -1.273  -0.000   0.000   0.000  -0.000
  0.000   0.000  -0.000  -0.000  -1.297   0.000   0.000  -0.000
  0.000   0.000  -0.000   0.000  -0.000   0.000   0.000  -0.000
  0.000   0.000  -0.000   0.000  -0.000   0.000   0.000  -0.000
 -0.000  -0.000   0.000   0.000   0.000  -0.000  -0.000   0.000
  0.000  -0.000  -0.000  -0.000  -0.000   0.000  -0.000  -0.000
 -0.000   0.000   0.000  -0.000  -0.000  -0.000   0.000   0.000
 -0.000  -0.000   0.000   0.000   0.000  -0.000  -0.000   0.000
  0.000  -0.000  -0.000  -0.000  -0.000   0.000  -0.000  -0.000
 -0.000   0.000   0.000  -0.000  -0.000  -0.000   0.000   0.000
 total augmentation occupancy for first ion, spin component:           1
  2.565   0.000  -0.000  -0.000  -0.000  -1.008   0.000   0.000   0.000   0.000  -0.000  -0.000   0.000   0.000   0.000   0.000
  0.000   2.565  -0.000   0.000   0.000   0.000  -1.008   0.000   0.000   0.000   0.000   0.000   0.000   0.000   0.000   0.000
 -0.000  -0.000   3.255  -0.000  -0.000  -0.000   0.000  -1.307   0.000   0.000   0.000  -0.000   0.000   0.000   0.000   0.000
 -0.000   0.000  -0.000   2.565  -0.000   0.000   0.000  -0.000  -1.008   0.000   0.000   0.000   0.000   0.000   0.000   0.000
  0.000  -0.000  -0.000   0.000   3.255  -0.000   0.000   0.000  -0.000  -1.307  -0.000  -0.000   0.000   0.000   0.000   0.000
 -1.008   0.000   0.000   0.000   0.000   1.158   0.000  -0.000  -0.000  -0.000  -0.000   0.000   0.000   0.000   0.000   0.000
  0.000  -1.008   0.000  -0.000   0.000   0.000   1.158   0.000   0.000   0.000  -0.000  -0.000   0.000   0.000   0.000   0.000
 -0.000   0.000  -1.307   0.000   0.000   0.000  -0.000   1.183   0.000  -0.000  -0.000   0.000   0.000   0.000   0.000   0.000
  0.000   0.000  -0.000  -1.008   0.000  -0.000   0.000   0.000   1.158   0.000  -0.000   0.000   0.000   0.000   0.000   0.000
 -0.000   0.000   0.000   0.000  -1.307  -0.000   0.000   0.000  -0.000   1.183  -0.000  -0.000   0.000   0.000   0.000   0.000
  0.000  -0.000   0.000   0.000  -0.000  -0.000  -0.000  -0.000  -0.000  -0.000   2.099  -0.276   0.000   0.000   0.000   0.000
 -0.000   0.000  -0.000   0.000   0.000   0.000   0.000   0.000   0.000  -0.000  -0.276   0.043   0.000   0.000   0.000   0.000
  0.000   0.000   0.000   0.000   0.000   0.000   0.000   0.000   0.000   0.000   0.000   0.000   0.263   0.000  -0.000  -0.027
  0.000   0.000   0.000   0.000   0.000   0.000   0.000   0.000   0.000   0.000   0.000   0.000   0.000   0.263  -0.000   0.000
  0.000   0.000   0.000   0.000   0.000   0.000   0.000   0.000   0.000   0.000   0.000   0.000  -0.000  -0.000   0.263   0.000
  0.000   0.000   0.000   0.000   0.000   0.000   0.000   0.000   0.000   0.000   0.000   0.000  -0.027   0.000   0.000   0.003
  0.000   0.000   0.000   0.000   0.000   0.000   0.000   0.000   0.000   0.000   0.000   0.000  -0.000  -0.027  -0.000   0.000
  0.000   0.000   0.000   0.000   0.000   0.000   0.000   0.000   0.000   0.000   0.000   0.000   0.000   0.000  -0.027   0.000
 total augmentation occupancy for first ion, spin component:           2
  0.890   0.000   0.000   0.000   0.000  -0.421  -0.000  -0.000   0.000   0.000  -0.000   0.000   0.000   0.000   0.000   0.000
  0.000   0.890   0.000  -0.000   0.000  -0.000  -0.421   0.000   0.000  -0.000   0.000   0.000   0.000   0.000   0.000   0.000
  0.000  -0.000   0.498   0.000   0.000  -0.000  -0.000  -0.235  -0.000   0.000   0.000   0.000   0.000   0.000   0.000   0.000
 -0.000  -0.000   0.000   0.890   0.000   0.000  -0.000   0.000  -0.421   0.000   0.000  -0.000   0.000   0.000   0.000   0.000
  0.000   0.000  -0.000   0.000   0.498   0.000   0.000   0.000  -0.000  -0.235  -0.000  -0.000   0.000   0.000   0.000   0.000
 -0.421   0.000   0.000  -0.000   0.000   0.122  -0.000   0.000  -0.000   0.000  -0.000  -0.000   0.000   0.000   0.000   0.000
 -0.000  -0.421  -0.000  -0.000  -0.000  -0.000   0.122   0.000  -0.000   0.000   0.000   0.000   0.000   0.000   0.000   0.000
  0.000  -0.000  -0.235   0.000   0.000   0.000   0.000   0.053   0.000  -0.000   0.000   0.000   0.000   0.000   0.000   0.000
 -0.000  -0.000  -0.000  -0.421  -0.000  -0.000  -0.000   0.000   0.122   0.000   0.000   0.000   0.000   0.000   0.000   0.000
 -0.000   0.000   0.000   0.000  -0.235  -0.000  -0.000  -0.000  -0.000   0.053  -0.000   0.000   0.000   0.000   0.000   0.000
  0.000   0.000   0.000   0.000  -0.000  -0.000   0.000   0.000   0.000  -0.000  -0.119   0.036   0.000   0.000   0.000   0.000
  0.000   0.000   0.000  -0.000  -0.000  -0.000   0.000  -0.000   0.000   0.000   0.036  -0.007   0.000   0.000   0.000   0.000
  0.000   0.000   0.000   0.000   0.000   0.000   0.000   0.000   0.000   0.000   0.000   0.000  -0.017   0.000   0.000   0.002
  0.000   0.000   0.000   0.000   0.000   0.000   0.000   0.000   0.000   0.000   0.000   0.000   0.000  -0.017   0.000   0.000
  0.000   0.000   0.000   0.000   0.000   0.000   0.000   0.000   0.000   0.000   0.000   0.000   0.000   0.000  -0.017   0.000
  0.000   0.000   0.000   0.000   0.000   0.000   0.000   0.000   0.000   0.000   0.000   0.000   0.002   0.000   0.000  -0.000
  0.000   0.000   0.000   0.000   0.000   0.000   0.000   0.000   0.000   0.000   0.000   0.000   0.000   0.002  -0.000  -0.000
  0.000   0.000   0.000   0.000   0.000   0.000   0.000   0.000   0.000   0.000   0.000   0.000   0.000  -0.000   0.002  -0.000


------------------------ aborting loop because EDIFF is reached ----------------------------------------





 total charge

# of ion       s       p       d       tot
------------------------------------------
    1        0.467   0.437   8.289   9.194



 magnetization (x)

# of ion       s       p       d       tot
------------------------------------------
    1       -0.008  -0.026   0.632   0.598
 
    CHARGE:  cpu time      0.0028: real time      0.0028
    FORLOC:  cpu time      0.0001: real time      0.0001
    FORNL :  cpu time      0.0042: real time      0.0042
    STRESS:  cpu time      0.0357: real time      0.0358
    FORCOR:  cpu time      0.0020: real time      0.0020
    FORHAR:  cpu time      0.0007: real time      0.0007
    MIXING:  cpu time      0.0003: real time      0.0003
    OFIELD:  cpu time      0.0000: real time      0.0000

  FORCE on cell =-STRESS in cart. coord.  units (eV):
  Direction    XX          YY          ZZ          XY          YZ          ZX
  --------------------------------------------------------------------------------------
  Alpha Z    43.72377    43.72377    43.72377
  Ewald    -305.65296  -305.65296  -305.65296     0.00000    -0.00000     0.00000
  Hartree    78.38993    78.38993    78.38993     0.00000     0.00000     0.00000
  E(xc)     -54.84579   -54.84577   -54.84579    -0.00003    -0.00003    -0.00003
  Local      -7.18924    -7.18917    -7.18924     0.00090     0.00090     0.00088
  n-local    -8.53526   -11.12265    -8.78034    -3.15405     1.58395     2.65737
  augment   176.35728   176.35717   176.35728    -0.00055    -0.00055    -0.00052
  Kinetic    76.82635    79.39939    76.35010     1.38336    -1.26984    -1.16255
  Fock        0.00000     0.00000     0.00000     0.00000     0.00000     0.00000
  -------------------------------------------------------------------------------------
  Total      -1.17116    -1.17116    -1.17116    -0.00000     0.00000     0.00000
  in kB    -160.87109  -160.87109  -160.87109    -0.00000     0.00000     0.00000
  external pressure =     -160.87 kB  Pullay stress =        0.00 kB


 VOLUME and BASIS-vectors are now :
 -----------------------------------------------------------------------------
  energy-cutoff  :      270.00
  volume of cell :       11.66
      direct lattice vectors                 reciprocal lattice vectors
     1.800000000  1.800000000  0.000000000     0.277777778  0.277777778 -0.277777778
     0.000000000  1.800000000  1.800000000    -0.277777778  0.277777778  0.277777778
     1.800000000  0.000000000  1.800000000     0.277777778 -0.277777778  0.277777778

  length of vectors
     2.545584412  2.545584412  2.545584412     0.481125224  0.481125224  0.481125224


 FORCES acting on ions
    electron-ion (+dipol)            ewald-force                    non-local-force                 convergence-correction
 -----------------------------------------------------------------------------------------------
   0.345E-13 0.518E-13 0.273E-13   -.349E-15 0.446E-16 0.578E-16   -.117E-22 0.517E-23 0.153E-23   0.171E-13 0.373E-13 0.234E-13
 -----------------------------------------------------------------------------------------------
   0.345E-13 0.518E-13 0.273E-13   -.349E-15 0.446E-16 0.578E-16   -.117E-22 0.517E-23 0.153E-23   0.171E-13 0.373E-13 0.234E-13
 
 
 POSITION                                       TOTAL-FORCE (eV/Angst)
 -----------------------------------------------------------------------------------
      0.00000      0.00000      0.00000         0.000000     -0.000000      0.000000
 -----------------------------------------------------------------------------------
    total drift:                                0.000000      0.000000      0.000000


--------------------------------------------------------------------------------------------------------



  FREE ENERGIE OF THE ION-ELECTRON SYSTEM (eV)
  ---------------------------------------------------
  free  energy   TOTEN  =        -5.43396342 eV

  energy  without entropy=       -5.43040467  energy(sigma->0) =       -5.43277717
 


--------------------------------------------------------------------------------------------------------


    POTLOK:  cpu time      0.0060: real time      0.0060


--------------------------------------------------------------------------------------------------------


 writing wavefunctions
     LOOP+:  cpu time      1.8899: real time      1.8990
    4ORBIT:  cpu time      0.0000: real time      0.0000



 total charge

# of ion       s       p       d       tot
------------------------------------------
    1        0.467   0.437   8.289   9.194



 magnetization (x)

# of ion       s       p       d       tot
------------------------------------------
    1       -0.008  -0.026   0.632   0.598
 

 total amount of memory used by VASP MPI-rank0    32169. kBytes
=======================================================================

   base      :      30000. kBytes
   nonl-proj :       1034. kBytes
   fftplans  :         71. kBytes
   grid      :        238. kBytes
   one-center:         31. kBytes
   wavefun   :        795. kBytes
 
  
  
 General timing and accounting informations for this job:
 ========================================================
  
                  Total CPU time used (sec):        2.146
                            User time (sec):        1.958
                          System time (sec):        0.188
                         Elapsed time (sec):        2.143
  
                   Maximum memory used (kb):       58180.
                   Average memory used (kb):          N/A
  
                          Minor page faults:        18010
                          Major page faults:            0
                 Voluntary context switches:          279
