PROCAR lm decomposed
# of k-points:   56         # of bands:   12         # of ions:    1

 k-point     1 :    0.00000000 0.00000000 0.00000000     weight = 0.00075131

band     1 # energy   -0.10246163 # occ.  1.00000000
 
ion      s     py     pz     px    dxy    dyz    dz2    dxz  x2-y2    tot
    1  0.676  0.000  0.000  0.000  0.000  0.000  0.000  0.000  0.000  0.676
 
band     2 # energy    6.19718547 # occ.  1.00000000
 
ion      s     py     pz     px    dxy    dyz    dz2    dxz  x2-y2    tot
    1  0.000  0.000  0.000  0.000  0.486  0.486  0.000  0.000  0.000  0.973
 
band     3 # energy    6.19719091 # occ.  1.00000000
 
ion      s     py     pz     px    dxy    dyz    dz2    dxz  x2-y2    tot
    1  0.000  0.000  0.000  0.000  0.136  0.136  0.000  0.701  0.000  0.973
 
band     4 # energy    6.19721390 # occ.  1.00000000
 
ion      s     py     pz     px    dxy    dyz    dz2    dxz  x2-y2    tot
    1  0.000  0.000  0.000  0.000  0.351  0.351  0.000  0.271  0.000  0.973
 
band     5 # energy    7.24339838 # occ.  1.00000000
 
ion      s     py     pz     px    dxy    dyz    dz2    dxz  x2-y2    tot
    1  0.000  0.000  0.000  0.000  0.000  0.000  0.247  0.000  0.740  0.987
 
band     6 # energy    7.24339929 # occ.  1.00000000
 
ion      s     py     pz     px    dxy    dyz    dz2    dxz  x2-y2    tot
    1  0.000  0.000  0.000  0.000  0.000  0.000  0.740  0.000  0.247  0.987
 
band     7 # energy   31.59609810 # occ.  0.00000000
 
ion      s     py     pz     px    dxy    dyz    dz2    dxz  x2-y2    tot
    1  0.000  0.000  0.000  0.000  0.000  0.000  0.000  0.000  0.000  0.000
 
band     8 # energy   34.89865276 # occ.  0.00000000
 
ion      s     py     pz     px    dxy    dyz    dz2    dxz  x2-y2    tot
    1  0.000  0.133  0.134  0.134  0.000  0.000  0.000  0.000  0.000  0.402
 
band     9 # energy   34.89879399 # occ.  0.00000000
 
ion      s     py     pz     px    dxy    dyz    dz2    dxz  x2-y2    tot
    1  0.000  0.269  0.067  0.067  0.000  0.000  0.000  0.000  0.000  0.402
 
band    10 # energy   34.89879472 # occ.  0.00000000
 
ion      s     py     pz     px    dxy    dyz    dz2    dxz  x2-y2    tot
    1  0.000  0.000  0.201  0.201  0.000  0.000  0.000  0.000  0.000  0.402
 
band    11 # energy   37.83278991 # occ.  0.00000000
 
ion      s     py     pz     px    dxy    dyz    dz2    dxz  x2-y2    tot
    1  0.000  0.000  0.000  0.000  0.103  0.248  0.000  0.752  0.000  1.104
 
band    12 # energy   37.83290921 # occ.  0.00000000
 
ion      s     py     pz     px    dxy    dyz    dz2    dxz  x2-y2    tot
    1  0.000  0.000  0.000  0.000  0.306  0.699  0.000  0.098  0.000  1.104
 

 k-point     2 :    0.09090909 0.00000000 0.00000000     weight = 0.00601052

band     1 # energy    0.20333863 # occ.  1.00000000
 
ion      s     py     pz     px    dxy    dyz    dz2    dxz  x2-y2    tot
    1  0.656  0.006  0.006  0.006  0.000  0.000  0.000  0.000  0.000  0.676
 
band     2 # energy    6.12306181 # occ.  1.00000000
 
ion      s     py     pz     px    dxy    dyz    dz2    dxz  x2-y2    tot
    1  0.000  0.001  0.001  0.001  0.322  0.322  0.000  0.322  0.000  0.967
 
band     3 # energy    6.25980811 # occ.  1.00000000
 
ion      s     py     pz     px    dxy    dyz    dz2    dxz  x2-y2    tot
    1  0.000  0.000  0.000  0.000  0.003  0.442  0.000  0.523  0.004  0.973
 
band     4 # energy    6.25983565 # occ.  1.00000000
 
ion      s     py     pz     px    dxy    dyz    dz2    dxz  x2-y2    tot
    1  0.000  0.000  0.000  0.000  0.642  0.204  0.004  0.122  0.000  0.973
 
band     5 # energy    7.21895341 # occ.  1.00000000
 
ion      s     py     pz     px    dxy    dyz    dz2    dxz  x2-y2    tot
    1  0.000  0.000  0.000  0.000  0.003  0.001  0.980  0.001  0.001  0.985
 
band     6 # energy    7.21896378 # occ.  1.00000000
 
ion      s     py     pz     px    dxy    dyz    dz2    dxz  x2-y2    tot
    1  0.000  0.000  0.000  0.000  0.000  0.002  0.001  0.002  0.980  0.985
 
band     7 # energy   30.02798609 # occ.  0.00000000
 
ion      s     py     pz     px    dxy    dyz    dz2    dxz  x2-y2    tot
    1  0.011  0.049  0.049  0.049  0.100  0.100  0.000  0.100  0.000  0.456
 
band     8 # energy   32.71576041 # occ.  0.00000000
 
ion      s     py     pz     px    dxy    dyz    dz2    dxz  x2-y2    tot
    1  0.025  0.061  0.061  0.061  0.002  0.002  0.000  0.002  0.000  0.216
 
band     9 # energy   34.23884286 # occ.  0.00000000
 
ion      s     py     pz     px    dxy    dyz    dz2    dxz  x2-y2    tot
    1  0.000  0.061  0.242  0.060  0.144  0.036  0.017  0.036  0.000  0.596
 
band    10 # energy   34.23897076 # occ.  0.00000000
 
ion      s     py     pz     px    dxy    dyz    dz2    dxz  x2-y2    tot
    1  0.000  0.181  0.000  0.181  0.000  0.108  0.000  0.108  0.017  0.596
 
band    11 # energy   38.84650903 # occ.  0.00000000
 
ion      s     py     pz     px    dxy    dyz    dz2    dxz  x2-y2    tot
    1  0.000  0.007  0.012  0.003  0.433  0.105  0.015  0.269  0.004  0.849
 
band    12 # energy   38.84658599 # occ.  0.00000000
 
ion      s     py     pz     px    dxy    dyz    dz2    dxz  x2-y2    tot
    1  0.000  0.008  0.003  0.012  0.107  0.427  0.004  0.272  0.016  0.848
 

 k-point     3 :    0.18181818 0.00000000-0.00000000     weight = 0.00601052

band     1 # energy    1.08378955 # occ.  1.00000000
 
ion      s     py     pz     px    dxy    dyz    dz2    dxz  x2-y2    tot
    1  0.598  0.023  0.023  0.023  0.004  0.004  0.000  0.004  0.000  0.679
 
band     2 # energy    5.96826070 # occ.  1.00000000
 
ion      s     py     pz     px    dxy    dyz    dz2    dxz  x2-y2    tot
    1  0.002  0.005  0.005  0.005  0.312  0.312  0.000  0.312  0.000  0.953
 
band     3 # energy    6.37485040 # occ.  1.00000000
 
ion      s     py     pz     px    dxy    dyz    dz2    dxz  x2-y2    tot
    1  0.000  0.001  0.000  0.001  0.002  0.416  0.000  0.472  0.081  0.972
 
band     4 # energy    6.37489251 # occ.  1.00000000
 
ion      s     py     pz     px    dxy    dyz    dz2    dxz  x2-y2    tot
    1  0.000  0.000  0.001  0.000  0.592  0.177  0.081  0.121  0.000  0.972
 
band     5 # energy    7.20992269 # occ.  1.00000000
 
ion      s     py     pz     px    dxy    dyz    dz2    dxz  x2-y2    tot
    1  0.000  0.000  0.000  0.000  0.054  0.014  0.901  0.014  0.000  0.982
 
band     6 # energy    7.20994553 # occ.  1.00000000
 
ion      s     py     pz     px    dxy    dyz    dz2    dxz  x2-y2    tot
    1  0.000  0.000  0.000  0.000  0.000  0.041  0.000  0.041  0.901  0.982
 
band     7 # energy   25.56637817 # occ.  0.00000000
 
ion      s     py     pz     px    dxy    dyz    dz2    dxz  x2-y2    tot
    1  0.060  0.093  0.093  0.093  0.115  0.115  0.000  0.115  0.000  0.683
 
band     8 # energy   32.11558726 # occ.  0.00000000
 
ion      s     py     pz     px    dxy    dyz    dz2    dxz  x2-y2    tot
    1  0.032  0.008  0.008  0.008  0.020  0.020  0.000  0.020  0.000  0.115
 
band     9 # energy   33.27649492 # occ.  0.00000000
 
ion      s     py     pz     px    dxy    dyz    dz2    dxz  x2-y2    tot
    1  0.000  0.062  0.247  0.061  0.223  0.055  0.040  0.056  0.000  0.745
 
band    10 # energy   33.27659219 # occ.  0.00000000
 
ion      s     py     pz     px    dxy    dyz    dz2    dxz  x2-y2    tot
    1  0.000  0.185  0.000  0.186  0.000  0.168  0.000  0.167  0.040  0.745
 
band    11 # energy   38.96260446 # occ.  0.00000000
 
ion      s     py     pz     px    dxy    dyz    dz2    dxz  x2-y2    tot
    1  0.003  0.068  0.068  0.068  0.007  0.007  0.000  0.007  0.000  0.227
 
band    12 # energy   39.60302326 # occ.  0.00000000
 
ion      s     py     pz     px    dxy    dyz    dz2    dxz  x2-y2    tot
    1  0.000  0.005  0.026  0.010  0.091  0.037  0.340  0.018  0.024  0.551
 

 k-point     4 :    0.27272727-0.00000000-0.00000000     weight = 0.00601052

band     1 # energy    2.37233508 # occ.  1.00000000
 
ion      s     py     pz     px    dxy    dyz    dz2    dxz  x2-y2    tot
    1  0.491  0.040  0.040  0.040  0.030  0.030  0.000  0.030  0.000  0.700
 
band     2 # energy    5.93349408 # occ.  1.00000000
 
ion      s     py     pz     px    dxy    dyz    dz2    dxz  x2-y2    tot
    1  0.019  0.023  0.023  0.023  0.276  0.276  0.000  0.276  0.000  0.914
 
band     3 # energy    6.38849075 # occ.  1.00000000
 
ion      s     py     pz     px    dxy    dyz    dz2    dxz  x2-y2    tot
    1  0.000  0.000  0.000  0.000  0.001  0.311  0.001  0.347  0.310  0.970
 
band     4 # energy    6.38853814 # occ.  1.00000000
 
ion      s     py     pz     px    dxy    dyz    dz2    dxz  x2-y2    tot
    1  0.000  0.000  0.001  0.000  0.438  0.129  0.310  0.092  0.001  0.970
 
band     5 # energy    7.36545246 # occ.  1.00000000
 
ion      s     py     pz     px    dxy    dyz    dz2    dxz  x2-y2    tot
    1  0.000  0.000  0.001  0.000  0.210  0.053  0.668  0.052  0.000  0.984
 
band     6 # energy    7.36548185 # occ.  1.00000000
 
ion      s     py     pz     px    dxy    dyz    dz2    dxz  x2-y2    tot
    1  0.000  0.000  0.000  0.000  0.000  0.157  0.000  0.158  0.668  0.984
 
band     7 # energy   21.10588060 # occ.  0.00000000
 
ion      s     py     pz     px    dxy    dyz    dz2    dxz  x2-y2    tot
    1  0.132  0.099  0.099  0.099  0.104  0.104  0.000  0.104  0.000  0.741
 
band     8 # energy   31.41078907 # occ.  0.00000000
 
ion      s     py     pz     px    dxy    dyz    dz2    dxz  x2-y2    tot
    1  0.021  0.000  0.000  0.000  0.024  0.024  0.000  0.024  0.000  0.095
 
band     9 # energy   32.56706155 # occ.  0.00000000
 
ion      s     py     pz     px    dxy    dyz    dz2    dxz  x2-y2    tot
    1  0.000  0.217  0.000  0.213  0.000  0.149  0.000  0.152  0.048  0.780
 
band    10 # energy   32.56707120 # occ.  0.00000000
 
ion      s     py     pz     px    dxy    dyz    dz2    dxz  x2-y2    tot
    1  0.000  0.070  0.287  0.074  0.201  0.052  0.048  0.049  0.000  0.780
 
band    11 # energy   37.79076404 # occ.  0.00000000
 
ion      s     py     pz     px    dxy    dyz    dz2    dxz  x2-y2    tot
    1  0.000  0.024  0.091  0.021  0.011  0.003  0.539  0.003  0.000  0.693
 
band    12 # energy   37.79088066 # occ.  0.00000000
 
ion      s     py     pz     px    dxy    dyz    dz2    dxz  x2-y2    tot
    1  0.000  0.067  0.000  0.070  0.000  0.009  0.000  0.008  0.539  0.693
 

 k-point     5 :    0.36363636 0.00000000-0.00000000     weight = 0.00601052

band     1 # energy    3.52379707 # occ.  1.00000000
 
ion      s     py     pz     px    dxy    dyz    dz2    dxz  x2-y2    tot
    1  0.307  0.026  0.026  0.026  0.133  0.133  0.000  0.133  0.000  0.786
 
band     2 # energy    6.29725783 # occ.  1.00000000
 
ion      s     py     pz     px    dxy    dyz    dz2    dxz  x2-y2    tot
    1  0.000  0.000  0.000  0.000  0.001  0.229  0.002  0.261  0.475  0.967
 
band     3 # energy    6.29729379 # occ.  1.00000000
 
ion      s     py     pz     px    dxy    dyz    dz2    dxz  x2-y2    tot
    1  0.000  0.000  0.000  0.000  0.326  0.099  0.475  0.066  0.002  0.967
 
band     4 # energy    6.52871070 # occ.  1.00000000
 
ion      s     py     pz     px    dxy    dyz    dz2    dxz  x2-y2    tot
    1  0.076  0.086  0.086  0.086  0.154  0.154  0.000  0.154  0.000  0.798
 
band     5 # energy    7.62452278 # occ.  1.00000021
 
ion      s     py     pz     px    dxy    dyz    dz2    dxz  x2-y2    tot
    1  0.000  0.000  0.001  0.000  0.326  0.080  0.499  0.083  0.000  0.988
 
band     6 # energy    7.62455451 # occ.  1.00000021
 
ion      s     py     pz     px    dxy    dyz    dz2    dxz  x2-y2    tot
    1  0.000  0.000  0.000  0.000  0.000  0.245  0.000  0.243  0.499  0.988
 
band     7 # energy   17.12629241 # occ.  0.00000000
 
ion      s     py     pz     px    dxy    dyz    dz2    dxz  x2-y2    tot
    1  0.241  0.078  0.078  0.078  0.103  0.103  0.000  0.103  0.000  0.786
 
band     8 # energy   30.64523608 # occ.  0.00000000
 
ion      s     py     pz     px    dxy    dyz    dz2    dxz  x2-y2    tot
    1  0.008  0.005  0.005  0.005  0.011  0.011  0.000  0.011  0.000  0.055
 
band     9 # energy   32.13635713 # occ.  0.00000000
 
ion      s     py     pz     px    dxy    dyz    dz2    dxz  x2-y2    tot
    1  0.000  0.264  0.000  0.266  0.000  0.086  0.000  0.085  0.033  0.734
 
band    10 # energy   32.13653083 # occ.  0.00000000
 
ion      s     py     pz     px    dxy    dyz    dz2    dxz  x2-y2    tot
    1  0.000  0.089  0.353  0.087  0.114  0.028  0.033  0.029  0.000  0.734
 
band    11 # energy   36.03699035 # occ.  0.00000000
 
ion      s     py     pz     px    dxy    dyz    dz2    dxz  x2-y2    tot
    1  0.000  0.015  0.059  0.015  0.095  0.023  0.586  0.024  0.000  0.818
 
band    12 # energy   36.03737355 # occ.  0.00000000
 
ion      s     py     pz     px    dxy    dyz    dz2    dxz  x2-y2    tot
    1  0.000  0.044  0.000  0.045  0.000  0.072  0.000  0.071  0.586  0.818
 

 k-point     6 :    0.45454545 0.00000000 0.00000000     weight = 0.00601052

band     1 # energy    3.94443133 # occ.  1.00000000
 
ion      s     py     pz     px    dxy    dyz    dz2    dxz  x2-y2    tot
    1  0.177  0.003  0.003  0.003  0.227  0.227  0.000  0.227  0.000  0.865
 
band     2 # energy    6.21988529 # occ.  1.00000000
 
ion      s     py     pz     px    dxy    dyz    dz2    dxz  x2-y2    tot
    1  0.000  0.000  0.000  0.000  0.002  0.192  0.004  0.233  0.534  0.965
 
band     3 # energy    6.21990866 # occ.  1.00000000
 
ion      s     py     pz     px    dxy    dyz    dz2    dxz  x2-y2    tot
    1  0.000  0.000  0.000  0.000  0.282  0.093  0.534  0.051  0.004  0.965
 
band     4 # energy    7.81083414 # occ.  1.00009492
 
ion      s     py     pz     px    dxy    dyz    dz2    dxz  x2-y2    tot
    1  0.000  0.000  0.000  0.000  0.371  0.089  0.435  0.096  0.000  0.992
 
band     5 # energy    7.81085702 # occ.  1.00009498
 
ion      s     py     pz     px    dxy    dyz    dz2    dxz  x2-y2    tot
    1  0.000  0.000  0.000  0.000  0.000  0.282  0.000  0.275  0.435  0.991
 
band     6 # energy    7.92827188 # occ.  1.00171536
 
ion      s     py     pz     px    dxy    dyz    dz2    dxz  x2-y2    tot
    1  0.037  0.183  0.183  0.183  0.024  0.024  0.000  0.024  0.000  0.657
 
band     7 # energy   14.16128013 # occ.  0.00000000
 
ion      s     py     pz     px    dxy    dyz    dz2    dxz  x2-y2    tot
    1  0.399  0.021  0.021  0.021  0.130  0.130  0.000  0.130  0.000  0.852
 
band     8 # energy   30.17160921 # occ.  0.00000000
 
ion      s     py     pz     px    dxy    dyz    dz2    dxz  x2-y2    tot
    1  0.001  0.009  0.009  0.009  0.001  0.001  0.000  0.001  0.000  0.031
 
band     9 # energy   31.94260902 # occ.  0.00000000
 
ion      s     py     pz     px    dxy    dyz    dz2    dxz  x2-y2    tot
    1  0.000  0.312  0.000  0.314  0.000  0.013  0.000  0.013  0.006  0.658
 
band    10 # energy   31.94294287 # occ.  0.00000000
 
ion      s     py     pz     px    dxy    dyz    dz2    dxz  x2-y2    tot
    1  0.000  0.106  0.417  0.103  0.017  0.004  0.006  0.004  0.000  0.658
 
band    11 # energy   35.04764028 # occ.  0.00000000
 
ion      s     py     pz     px    dxy    dyz    dz2    dxz  x2-y2    tot
    1  0.000  0.002  0.010  0.002  0.191  0.047  0.631  0.048  0.000  0.931
 
band    12 # energy   35.04825049 # occ.  0.00000000
 
ion      s     py     pz     px    dxy    dyz    dz2    dxz  x2-y2    tot
    1  0.000  0.007  0.000  0.007  0.000  0.144  0.000  0.142  0.631  0.931
 

 k-point     7 :    0.09090909 0.09090909 0.00000000     weight = 0.00450789

band     1 # energy    0.30470674 # occ.  1.00000000
 
ion      s     py     pz     px    dxy    dyz    dz2    dxz  x2-y2    tot
    1  0.650  0.026  0.000  0.000  0.000  0.000  0.000  0.000  0.001  0.676
 
band     2 # energy    6.06265827 # occ.  1.00000000
 
ion      s     py     pz     px    dxy    dyz    dz2    dxz  x2-y2    tot
    1  0.000  0.000  0.000  0.000  0.000  0.000  0.000  0.968  0.000  0.968
 
band     3 # energy    6.30350579 # occ.  1.00000000
 
ion      s     py     pz     px    dxy    dyz    dz2    dxz  x2-y2    tot
    1  0.000  0.000  0.001  0.001  0.485  0.485  0.000  0.000  0.000  0.972
 
band     4 # energy    6.30352209 # occ.  1.00000000
 
ion      s     py     pz     px    dxy    dyz    dz2    dxz  x2-y2    tot
    1  0.000  0.000  0.001  0.001  0.485  0.485  0.000  0.000  0.000  0.972
 
band     5 # energy    7.12035633 # occ.  1.00000000
 
ion      s     py     pz     px    dxy    dyz    dz2    dxz  x2-y2    tot
    1  0.001  0.000  0.000  0.000  0.000  0.000  0.245  0.000  0.736  0.982
 
band     6 # energy    7.29307336 # occ.  1.00000000
 
ion      s     py     pz     px    dxy    dyz    dz2    dxz  x2-y2    tot
    1  0.000  0.000  0.000  0.000  0.000  0.000  0.740  0.000  0.247  0.987
 
band     7 # energy   30.73638963 # occ.  0.00000000
 
ion      s     py     pz     px    dxy    dyz    dz2    dxz  x2-y2    tot
    1  0.000  0.000  0.000  0.000  0.000  0.000  0.000  0.259  0.000  0.259
 
band     8 # energy   32.35229391 # occ.  0.00000000
 
ion      s     py     pz     px    dxy    dyz    dz2    dxz  x2-y2    tot
    1  0.000  0.000  0.192  0.192  0.154  0.154  0.000  0.000  0.000  0.691
 
band     9 # energy   32.35237627 # occ.  0.00000000
 
ion      s     py     pz     px    dxy    dyz    dz2    dxz  x2-y2    tot
    1  0.000  0.000  0.192  0.192  0.154  0.154  0.000  0.000  0.000  0.691
 
band    10 # energy   33.35789201 # occ.  0.00000000
 
ion      s     py     pz     px    dxy    dyz    dz2    dxz  x2-y2    tot
    1  0.053  0.202  0.000  0.000  0.000  0.000  0.017  0.000  0.052  0.324
 
band    11 # energy   39.56543890 # occ.  0.00000000
 
ion      s     py     pz     px    dxy    dyz    dz2    dxz  x2-y2    tot
    1  0.000  0.000  0.000  0.000  0.000  0.000  0.000  0.849  0.000  0.849
 
band    12 # energy   40.34283613 # occ.  0.00000000
 
ion      s     py     pz     px    dxy    dyz    dz2    dxz  x2-y2    tot
    1  0.000  0.013  0.018  0.002  0.048  0.561  0.001  0.000  0.004  0.648
 

 k-point     8 :    0.18181818 0.09090909-0.00000000     weight = 0.01803156

band     1 # energy    0.99302344 # occ.  1.00000000
 
ion      s     py     pz     px    dxy    dyz    dz2    dxz  x2-y2    tot
    1  0.604  0.055  0.006  0.006  0.002  0.002  0.001  0.000  0.003  0.678
 
band     2 # energy    5.90075072 # occ.  1.00000000
 
ion      s     py     pz     px    dxy    dyz    dz2    dxz  x2-y2    tot
    1  0.000  0.000  0.002  0.002  0.054  0.054  0.000  0.845  0.000  0.958
 
band     3 # energy    6.42410869 # occ.  1.00000000
 
ion      s     py     pz     px    dxy    dyz    dz2    dxz  x2-y2    tot
    1  0.000  0.001  0.001  0.001  0.401  0.404  0.013  0.109  0.039  0.971
 
band     4 # energy    6.43329760 # occ.  1.00000000
 
ion      s     py     pz     px    dxy    dyz    dz2    dxz  x2-y2    tot
    1  0.000  0.000  0.002  0.002  0.468  0.465  0.027  0.000  0.009  0.972
 
band     5 # energy    7.02934869 # occ.  1.00000000
 
ion      s     py     pz     px    dxy    dyz    dz2    dxz  x2-y2    tot
    1  0.003  0.001  0.000  0.000  0.023  0.023  0.230  0.006  0.691  0.977
 
band     6 # energy    7.33913984 # occ.  1.00000000
 
ion      s     py     pz     px    dxy    dyz    dz2    dxz  x2-y2    tot
    1  0.000  0.000  0.000  0.000  0.018  0.018  0.712  0.000  0.237  0.986
 
band     7 # energy   27.30672734 # occ.  0.00000000
 
ion      s     py     pz     px    dxy    dyz    dz2    dxz  x2-y2    tot
    1  0.033  0.038  0.112  0.112  0.098  0.098  0.001  0.161  0.004  0.657
 
band     8 # energy   30.89525034 # occ.  0.00000000
 
ion      s     py     pz     px    dxy    dyz    dz2    dxz  x2-y2    tot
    1  0.000  0.000  0.208  0.208  0.157  0.157  0.007  0.000  0.002  0.738
 
band     9 # energy   31.08643348 # occ.  0.00000000
 
ion      s     py     pz     px    dxy    dyz    dz2    dxz  x2-y2    tot
    1  0.038  0.050  0.007  0.007  0.005  0.005  0.010  0.195  0.030  0.348
 
band    10 # energy   34.36997757 # occ.  0.00000000
 
ion      s     py     pz     px    dxy    dyz    dz2    dxz  x2-y2    tot
    1  0.003  0.003  0.076  0.076  0.025  0.025  0.040  0.024  0.121  0.394
 
band    11 # energy   37.38935719 # occ.  0.00000000
 
ion      s     py     pz     px    dxy    dyz    dz2    dxz  x2-y2    tot
    1  0.040  0.503  0.027  0.027  0.014  0.014  0.019  0.048  0.058  0.751
 
band    12 # energy   39.82423489 # occ.  0.00000000
 
ion      s     py     pz     px    dxy    dyz    dz2    dxz  x2-y2    tot
    1  0.036  0.083  0.003  0.003  0.151  0.151  0.034  0.311  0.101  0.872
 

 k-point     9 :    0.27272727 0.09090909 0.00000000     weight = 0.01803156

band     1 # energy    2.15914879 # occ.  1.00000000
 
ion      s     py     pz     px    dxy    dyz    dz2    dxz  x2-y2    tot
    1  0.514  0.084  0.019  0.019  0.018  0.018  0.002  0.008  0.007  0.690
 
band     2 # energy    5.76799861 # occ.  1.00000000
 
ion      s     py     pz     px    dxy    dyz    dz2    dxz  x2-y2    tot
    1  0.005  0.006  0.011  0.011  0.094  0.094  0.001  0.715  0.002  0.938
 
band     3 # energy    6.41164801 # occ.  1.00000000
 
ion      s     py     pz     px    dxy    dyz    dz2    dxz  x2-y2    tot
    1  0.000  0.000  0.001  0.001  0.218  0.219  0.092  0.157  0.277  0.967
 
band     4 # energy    6.50224222 # occ.  1.00000000
 
ion      s     py     pz     px    dxy    dyz    dz2    dxz  x2-y2    tot
    1  0.000  0.000  0.002  0.002  0.377  0.377  0.161  0.000  0.053  0.972
 
band     5 # energy    7.19463094 # occ.  1.00000000
 
ion      s     py     pz     px    dxy    dyz    dz2    dxz  x2-y2    tot
    1  0.010  0.008  0.001  0.001  0.146  0.146  0.148  0.070  0.442  0.973
 
band     6 # energy    7.46870544 # occ.  1.00000000
 
ion      s     py     pz     px    dxy    dyz    dz2    dxz  x2-y2    tot
    1  0.000  0.000  0.000  0.000  0.108  0.108  0.577  0.000  0.192  0.986
 
band     7 # energy   22.75075591 # occ.  0.00000000
 
ion      s     py     pz     px    dxy    dyz    dz2    dxz  x2-y2    tot
    1  0.096  0.055  0.126  0.126  0.093  0.093  0.001  0.132  0.004  0.727
 
band     8 # energy   29.93593227 # occ.  0.00000000
 
ion      s     py     pz     px    dxy    dyz    dz2    dxz  x2-y2    tot
    1  0.000  0.000  0.226  0.226  0.133  0.133  0.025  0.000  0.008  0.751
 
band     9 # energy   30.40696875 # occ.  0.00000000
 
ion      s     py     pz     px    dxy    dyz    dz2    dxz  x2-y2    tot
    1  0.030  0.012  0.001  0.001  0.000  0.000  0.022  0.205  0.067  0.339
 
band    10 # energy   33.89619932 # occ.  0.00000000
 
ion      s     py     pz     px    dxy    dyz    dz2    dxz  x2-y2    tot
    1  0.050  0.329  0.001  0.001  0.001  0.001  0.055  0.084  0.165  0.688
 
band    11 # energy   37.09285209 # occ.  0.00000000
 
ion      s     py     pz     px    dxy    dyz    dz2    dxz  x2-y2    tot
    1  0.004  0.138  0.080  0.080  0.018  0.018  0.028  0.015  0.084  0.463
 
band    12 # energy   39.60846913 # occ.  0.00000000
 
ion      s     py     pz     px    dxy    dyz    dz2    dxz  x2-y2    tot
    1  0.013  0.049  0.078  0.079  0.077  0.077  0.032  0.217  0.097  0.720
 

 k-point    10 :    0.36363636 0.09090909-0.00000000     weight = 0.01803156

band     1 # energy    3.42013855 # occ.  1.00000000
 
ion      s     py     pz     px    dxy    dyz    dz2    dxz  x2-y2    tot
    1  0.354  0.080  0.020  0.020  0.092  0.092  0.004  0.076  0.012  0.751
 
band     2 # energy    5.95201466 # occ.  1.00000000
 
ion      s     py     pz     px    dxy    dyz    dz2    dxz  x2-y2    tot
    1  0.033  0.039  0.042  0.042  0.062  0.062  0.016  0.535  0.047  0.878
 
band     3 # energy    6.25695773 # occ.  1.00000000
 
ion      s     py     pz     px    dxy    dyz    dz2    dxz  x2-y2    tot
    1  0.001  0.000  0.000  0.000  0.114  0.114  0.126  0.229  0.378  0.962
 
band     4 # energy    6.44361058 # occ.  1.00000000
 
ion      s     py     pz     px    dxy    dyz    dz2    dxz  x2-y2    tot
    1  0.000  0.000  0.001  0.001  0.277  0.277  0.309  0.000  0.103  0.969
 
band     5 # energy    7.68687204 # occ.  1.00000197
 
ion      s     py     pz     px    dxy    dyz    dz2    dxz  x2-y2    tot
    1  0.000  0.000  0.000  0.000  0.211  0.211  0.425  0.000  0.141  0.989
 
band     6 # energy    7.70274094 # occ.  1.00000338
 
ion      s     py     pz     px    dxy    dyz    dz2    dxz  x2-y2    tot
    1  0.032  0.028  0.010  0.010  0.199  0.199  0.096  0.093  0.288  0.953
 
band     7 # energy   18.57351993 # occ.  0.00000000
 
ion      s     py     pz     px    dxy    dyz    dz2    dxz  x2-y2    tot
    1  0.188  0.049  0.116  0.116  0.084  0.084  0.001  0.123  0.004  0.766
 
band     8 # energy   29.50746927 # occ.  0.00000000
 
ion      s     py     pz     px    dxy    dyz    dz2    dxz  x2-y2    tot
    1  0.000  0.000  0.244  0.243  0.095  0.095  0.050  0.000  0.016  0.743
 
band     9 # energy   29.66850096 # occ.  0.00000000
 
ion      s     py     pz     px    dxy    dyz    dz2    dxz  x2-y2    tot
    1  0.006  0.008  0.003  0.003  0.001  0.001  0.040  0.125  0.120  0.305
 
band    10 # energy   31.99309634 # occ.  0.00000000
 
ion      s     py     pz     px    dxy    dyz    dz2    dxz  x2-y2    tot
    1  0.083  0.388  0.032  0.032  0.002  0.002  0.024  0.095  0.073  0.732
 
band    11 # energy   37.47570975 # occ.  0.00000000
 
ion      s     py     pz     px    dxy    dyz    dz2    dxz  x2-y2    tot
    1  0.000  0.031  0.005  0.005  0.051  0.051  0.089  0.118  0.266  0.615
 
band    12 # energy   39.20057346 # occ.  0.00000000
 
ion      s     py     pz     px    dxy    dyz    dz2    dxz  x2-y2    tot
    1  0.000  0.000  0.063  0.063  0.038  0.038  0.374  0.000  0.125  0.701
 

 k-point    11 :    0.45454545 0.09090909-0.00000000     weight = 0.01803156

band     1 # energy    4.04922109 # occ.  1.00000000
 
ion      s     py     pz     px    dxy    dyz    dz2    dxz  x2-y2    tot
    1  0.185  0.029  0.002  0.002  0.200  0.200  0.002  0.226  0.005  0.852
 
band     2 # energy    6.12314859 # occ.  1.00000000
 
ion      s     py     pz     px    dxy    dyz    dz2    dxz  x2-y2    tot
    1  0.000  0.001  0.005  0.005  0.088  0.088  0.158  0.133  0.473  0.950
 
band     3 # energy    6.35485304 # occ.  1.00000000
 
ion      s     py     pz     px    dxy    dyz    dz2    dxz  x2-y2    tot
    1  0.000  0.000  0.001  0.001  0.223  0.223  0.390  0.000  0.130  0.967
 
band     4 # energy    6.67566356 # occ.  1.00000000
 
ion      s     py     pz     px    dxy    dyz    dz2    dxz  x2-y2    tot
    1  0.026  0.070  0.066  0.066  0.014  0.014  0.024  0.495  0.072  0.849
 
band     5 # energy    7.83748572 # occ.  1.00019592
 
ion      s     py     pz     px    dxy    dyz    dz2    dxz  x2-y2    tot
    1  0.000  0.000  0.000  0.000  0.268  0.268  0.342  0.000  0.114  0.993
 
band     6 # energy    8.65699622 # occ. -0.03544569
 
ion      s     py     pz     px    dxy    dyz    dz2    dxz  x2-y2    tot
    1  0.055  0.102  0.064  0.064  0.141  0.141  0.059  0.048  0.176  0.850
 
band     7 # energy   15.09689379 # occ.  0.00000000
 
ion      s     py     pz     px    dxy    dyz    dz2    dxz  x2-y2    tot
    1  0.328  0.017  0.068  0.068  0.097  0.097  0.001  0.140  0.003  0.819
 
band     8 # energy   28.80689793 # occ.  0.00000000
 
ion      s     py     pz     px    dxy    dyz    dz2    dxz  x2-y2    tot
    1  0.004  0.110  0.001  0.001  0.010  0.010  0.049  0.048  0.148  0.382
 
band     9 # energy   29.69432864 # occ.  0.00000000
 
ion      s     py     pz     px    dxy    dyz    dz2    dxz  x2-y2    tot
    1  0.000  0.000  0.257  0.257  0.051  0.051  0.080  0.000  0.027  0.724
 
band    10 # energy   30.87853041 # occ.  0.00000000
 
ion      s     py     pz     px    dxy    dyz    dz2    dxz  x2-y2    tot
    1  0.076  0.269  0.071  0.071  0.006  0.006  0.003  0.078  0.008  0.586
 
band    11 # energy   37.34386666 # occ.  0.00000000
 
ion      s     py     pz     px    dxy    dyz    dz2    dxz  x2-y2    tot
    1  0.010  0.020  0.000  0.000  0.023  0.022  0.101  0.208  0.303  0.687
 
band    12 # energy   37.71067460 # occ.  0.00000000
 
ion      s     py     pz     px    dxy    dyz    dz2    dxz  x2-y2    tot
    1  0.000  0.000  0.062  0.062  0.093  0.093  0.361  0.000  0.121  0.791
 

 k-point    12 :   -0.45454545 0.09090909 0.00000000     weight = 0.01803156

band     1 # energy    4.14532608 # occ.  1.00000000
 
ion      s     py     pz     px    dxy    dyz    dz2    dxz  x2-y2    tot
    1  0.148  0.004  0.003  0.003  0.226  0.226  0.000  0.265  0.000  0.876
 
band     2 # energy    6.10054313 # occ.  1.00000000
 
ion      s     py     pz     px    dxy    dyz    dz2    dxz  x2-y2    tot
    1  0.000  0.000  0.004  0.004  0.061  0.061  0.151  0.220  0.453  0.953
 
band     3 # energy    6.31667565 # occ.  1.00000000
 
ion      s     py     pz     px    dxy    dyz    dz2    dxz  x2-y2    tot
    1  0.000  0.000  0.001  0.001  0.202  0.202  0.421  0.000  0.140  0.966
 
band     4 # energy    6.99500713 # occ.  1.00000000
 
ion      s     py     pz     px    dxy    dyz    dz2    dxz  x2-y2    tot
    1  0.001  0.066  0.066  0.066  0.101  0.101  0.047  0.273  0.143  0.864
 
band     5 # energy    7.79929524 # occ.  1.00006852
 
ion      s     py     pz     px    dxy    dyz    dz2    dxz  x2-y2    tot
    1  0.000  0.000  0.000  0.000  0.290  0.290  0.308  0.000  0.103  0.991
 
band     6 # energy    9.36354808 # occ. -0.00000000
 
ion      s     py     pz     px    dxy    dyz    dz2    dxz  x2-y2    tot
    1  0.006  0.132  0.136  0.136  0.015  0.015  0.045  0.148  0.135  0.767
 
band     7 # energy   13.77029009 # occ. -0.00000000
 
ion      s     py     pz     px    dxy    dyz    dz2    dxz  x2-y2    tot
    1  0.435  0.025  0.000  0.000  0.138  0.138  0.000  0.129  0.001  0.865
 
band     8 # energy   27.95820258 # occ.  0.00000000
 
ion      s     py     pz     px    dxy    dyz    dz2    dxz  x2-y2    tot