<?xml version="1.0" encoding="ISO-8859-1"?>
<modeling>
 <generator>
  <i name="program" type="string">vasp </i>
  <i name="version" type="string">6.3.0  </i>
  <i name="subversion" type="string">20Jan22 (build Feb 01 2022 16:52:37) complex                          parallel </i>
  <i name="platform" type="string">TETRA_NSC1 </i>
  <i name="date" type="string">2022 02 23 </i>
  <i name="time" type="string">15:19:28 </i>
 </generator>
 <incar>
  <i type="string" name="SYSTEM">fcc Ni</i>
  <i type="int" name="ISTART">     0</i>
  <i type="int" name="ISPIN">     2</i>
  <i type="int" name="ICHARG">     2</i>
  <i name="ENCUT">    270.00000000</i>
  <v name="MAGMOM">      1.00000000</v>
  <i type="int" name="ISMEAR">     1</i>
  <i name="SIGMA">      0.20000000</i>
  <i type="int" name="LORBIT">    11</i>
 </incar>
 <primitive_cell>
  <structure name="primitive_cell" >
   <crystal>
    <varray name="basis" >
     <v>       1.80000000       1.80000000       0.00000000 </v>
     <v>       0.00000000       1.80000000       1.80000000 </v>
     <v>       1.80000000       0.00000000       1.80000000 </v>
    </varray>
    <i name="volume">     11.66400000 </i>
    <varray name="rec_basis" >
     <v>       0.27777778       0.27777778      -0.27777778 </v>
     <v>      -0.27777778       0.27777778       0.27777778 </v>
     <v>       0.27777778      -0.27777778       0.27777778 </v>
    </varray>
   </crystal>
   <varray name="positions" >
    <v>       0.00000000       0.00000000       0.00000000 </v>
   </varray>
  </structure>
  <varray name="primitive_index" >
   <v type="int" >        1 </v>
  </varray>
 </primitive_cell>
 <kpoints>
  <generation param="Monkhorst-Pack">
   <v type="int" name="divisions">      11       11       11 </v>
   <v name="usershift">      0.00000000       0.00000000       0.00000000 </v>
   <v name="genvec1">      0.09090909       0.00000000       0.00000000 </v>
   <v name="genvec2">      0.00000000       0.09090909      -0.00000000 </v>
   <v name="genvec3">     -0.00000000      -0.00000000       0.09090909 </v>
   <v name="shift">      0.00000000       0.00000000       0.00000000 </v>
  </generation>
  <varray name="kpointlist" >
   <v>       0.00000000       0.00000000       0.00000000 </v>
   <v>       0.09090909       0.00000000       0.00000000 </v>
   <v>       0.18181818       0.00000000      -0.00000000 </v>
   <v>       0.27272727      -0.00000000      -0.00000000 </v>
   <v>       0.36363636       0.00000000      -0.00000000 </v>
   <v>       0.45454545       0.00000000       0.00000000 </v>
   <v>       0.09090909       0.09090909       0.00000000 </v>
   <v>       0.18181818       0.09090909      -0.00000000 </v>
   <v>       0.27272727       0.09090909       0.00000000 </v>
   <v>       0.36363636       0.09090909      -0.00000000 </v>
   <v>       0.45454545       0.09090909      -0.00000000 </v>
   <v>      -0.45454545       0.09090909       0.00000000 </v>
   <v>      -0.36363636       0.09090909       0.00000000 </v>
   <v>      -0.27272727       0.09090909       0.00000000 </v>
   <v>      -0.18181818       0.09090909       0.00000000 </v>
   <v>      -0.09090909       0.09090909       0.00000000 </v>
   <v>       0.18181818       0.18181818      -0.00000000 </v>
   <v>       0.27272727       0.18181818      -0.00000000 </v>
   <v>       0.36363636       0.18181818       0.00000000 </v>
   <v>       0.45454545       0.18181818      -0.00000000 </v>
   <v>      -0.45454545       0.18181818       0.00000000 </v>
   <v>      -0.36363636       0.18181818       0.00000000 </v>
   <v>      -0.27272727       0.18181818      -0.00000000 </v>
   <v>      -0.18181818       0.18181818      -0.00000000 </v>
   <v>       0.27272727       0.27272727       0.00000000 </v>
   <v>       0.36363636       0.27272727       0.00000000 </v>
   <v>       0.45454545       0.27272727       0.00000000 </v>
   <v>      -0.45454545       0.27272727       0.00000000 </v>
   <v>      -0.36363636       0.27272727       0.00000000 </v>
   <v>      -0.27272727       0.27272727       0.00000000 </v>
   <v>       0.36363636       0.36363636       0.00000000 </v>
   <v>       0.45454545       0.36363636      -0.00000000 </v>
   <v>      -0.45454545       0.36363636       0.00000000 </v>
   <v>      -0.36363636       0.36363636       0.00000000 </v>
   <v>       0.45454545       0.45454545      -0.00000000 </v>
   <v>      -0.45454545       0.45454545      -0.00000000 </v>
   <v>       0.27272727       0.18181818       0.09090909 </v>
   <v>       0.36363636       0.18181818       0.09090909 </v>
   <v>       0.45454545       0.18181818       0.09090909 </v>
   <v>      -0.45454545       0.18181818       0.09090909 </v>
   <v>       0.36363636       0.27272727       0.09090909 </v>
   <v>       0.45454545       0.27272727       0.09090909 </v>
   <v>      -0.45454545       0.27272727       0.09090909 </v>
   <v>      -0.36363636       0.27272727       0.09090909 </v>
   <v>      -0.27272727       0.27272727       0.09090909 </v>
   <v>      -0.18181818       0.27272727       0.09090909 </v>
   <v>       0.45454545       0.36363636       0.09090909 </v>
   <v>      -0.45454545       0.36363636       0.09090909 </v>
   <v>      -0.36363636       0.36363636       0.09090909 </v>
   <v>      -0.27272727       0.36363636       0.09090909 </v>
   <v>      -0.45454545       0.45454545       0.09090909 </v>
   <v>      -0.36363636       0.45454545       0.09090909 </v>
   <v>      -0.45454545       0.36363636       0.18181818 </v>
   <v>      -0.36363636       0.36363636       0.18181818 </v>
   <v>      -0.36363636       0.45454545       0.18181818 </v>
   <v>      -0.27272727       0.45454545       0.18181818 </v>
  </varray>
  <varray name="weights" >
   <v>       0.00075131 </v>
   <v>       0.00601052 </v>
   <v>       0.00601052 </v>
   <v>       0.00601052 </v>
   <v>       0.00601052 </v>
   <v>       0.00601052 </v>
   <v>       0.00450789 </v>
   <v>       0.01803156 </v>
   <v>       0.01803156 </v>
   <v>       0.01803156 </v>
   <v>       0.01803156 </v>
   <v>       0.01803156 </v>
   <v>       0.01803156 </v>
   <v>       0.01803156 </v>
   <v>       0.01803156 </v>
   <v>       0.00901578 </v>
   <v>       0.00450789 </v>
   <v>       0.01803156 </v>
   <v>       0.01803156 </v>
   <v>       0.01803156 </v>
   <v>       0.01803156 </v>
   <v>       0.01803156 </v>
   <v>       0.01803156 </v>
   <v>       0.00901578 </v>
   <v>       0.00450789 </v>
   <v>       0.01803156 </v>
   <v>       0.01803156 </v>
   <v>       0.01803156 </v>
   <v>       0.01803156 </v>
   <v>       0.00901578 </v>
   <v>       0.00450789 </v>
   <v>       0.01803156 </v>
   <v>       0.01803156 </v>
   <v>       0.00901578 </v>
   <v>       0.00450789 </v>
   <v>       0.00901578 </v>
   <v>       0.01803156 </v>
   <v>       0.03606311 </v>
   <v>       0.03606311 </v>
   <v>       0.03606311 </v>
   <v>       0.01803156 </v>
   <v>       0.03606311 </v>
   <v>       0.03606311 </v>
   <v>       0.03606311 </v>
   <v>       0.03606311 </v>
   <v>       0.01803156 </v>
   <v>       0.01803156 </v>
   <v>       0.03606311 </v>
   <v>       0.03606311 </v>
   <v>       0.01803156 </v>
   <v>       0.01803156 </v>
   <v>       0.01803156 </v>
   <v>       0.01803156 </v>
   <v>       0.03606311 </v>
   <v>       0.01803156 </v>
   <v>       0.01803156 </v>
  </varray>
 </kpoints>
 <parameters>
  <separator name="general" >
   <i type="string" name="SYSTEM">fcc Ni</i>
   <i type="logical" name="LCOMPAT"> F  </i>
  </separator>
  <separator name="electronic" >
   <i type="string" name="PREC">normal</i>
   <i name="ENMAX">    270.00000000</i>
   <i name="ENAUG">    544.56500000</i>
   <i name="EDIFF">      0.00010000</i>
   <i type="int" name="IALGO">    38</i>
   <i type="int" name="IWAVPR">    10</i>
   <i type="int" name="NBANDS">    12</i>
   <i type="int" name="NBANDSLOW">    -1</i>
   <i type="int" name="NBANDSHIGH">    -1</i>
   <i name="NELECT">     10.00000000</i>
   <i type="int" name="TURBO">     0</i>
   <i type="int" name="IRESTART">     0</i>
   <i type="int" name="NREBOOT">     0</i>
   <i type="int" name="NMIN">     0</i>
   <i name="EREF">      0.00000000</i>
   <separator name="electronic smearing" >
    <i type="int" name="ISMEAR">     1</i>
    <i name="SIGMA">      0.20000000</i>
    <i name="KSPACING">      0.50000000</i>
    <i type="logical" name="KGAMMA"> T  </i>
    <i type="logical" name="KBLOWUP"> T  </i>
   </separator>
   <separator name="electronic projectors" >
    <i type="logical" name="LREAL"> F  </i>
    <v name="ROPT">      0.00000000</v>
    <i type="int" name="LMAXPAW">  -100</i>
    <i type="int" name="LMAXMIX">     2</i>
    <i type="logical" name="NLSPLINE"> F  </i>
   </separator>
   <separator name="electronic startup" >
    <i type="int" name="ISTART">     0</i>
    <i type="int" name="ICHARG">     2</i>
    <i type="int" name="INIWAV">     1</i>
   </separator>
   <separator name="electronic spin" >
    <i type="int" name="ISPIN">     2</i>
    <i type="logical" name="LNONCOLLINEAR"> F  </i>
    <v name="MAGMOM">      1.00000000</v>
    <i name="NUPDOWN">     -1.00000000</i>
    <i type="logical" name="LSORBIT"> F  </i>
    <v name="SAXIS">      0.00000000      0.00000000      1.00000000</v>
    <i type="logical" name="LSPIRAL"> F  </i>
    <v name="QSPIRAL">      0.00000000      0.00000000      0.00000000</v>
    <i type="logical" name="LZEROZ"> F  </i>
   </separator>
   <separator name="electronic exchange-correlation" >
    <i type="logical" name="LASPH"> F  </i>
    <i type="logical" name="LMETAGGA"> F  </i>
   </separator>
   <separator name="electronic convergence" >
    <i type="int" name="NELM">    60</i>
    <i type="int" name="NELMDL">    -5</i>
    <i type="int" name="NELMIN">     2</i>
    <i name="ENINI">    270.00000000</i>
    <separator name="electronic convergence detail" >
     <i type="logical" name="LDIAG"> T  </i>
     <i type="logical" name="LSUBROT"> F  </i>
     <i name="WEIMIN">      0.00000000</i>
     <i name="EBREAK">      0.00000208</i>
     <i name="DEPER">      0.30000000</i>
     <i type="int" name="NRMM">     4</i>
     <i name="TIME">      0.40000000</i>
    </separator>
   </separator>
   <separator name="electronic mixer" >
    <i name="AMIX">      0.40000000</i>
    <i name="BMIX">      1.00000000</i>
    <i name="AMIN">      0.10000000</i>
    <i name="AMIX_MAG">      1.60000000</i>
    <i name="BMIX_MAG">      1.00000000</i>
    <separator name="electronic mixer details" >
     <i type="int" name="IMIX">     4</i>
     <i type="logical" name="MIXFIRST"> F  </i>
     <i type="int" name="MAXMIX">   -45</i>
     <i name="WC">    100.00000000</i>
     <i type="int" name="INIMIX">     1</i>
     <i type="int" name="MIXPRE">     1</i>
     <i type="int" name="MREMOVE">     5</i>
    </separator>
   </separator>
   <separator name="electronic dipolcorrection" >
    <i type="logical" name="LDIPOL"> F  </i>
    <i type="logical" name="LMONO"> F  </i>
    <i type="int" name="IDIPOL">     0</i>
    <i name="EPSILON">      1.00000000</i>
    <v name="DIPOL">   -100.00000000   -100.00000000   -100.00000000</v>
    <i name="EFIELD">      0.00000000</i>
   </separator>
  </separator>
  <separator name="grids" >
   <i type="int" name="NGX">    10</i>
   <i type="int" name="NGY">    10</i>
   <i type="int" name="NGZ">    10</i>
   <i type="int" name="NGXF">    20</i>
   <i type="int" name="NGYF">    20</i>
   <i type="int" name="NGZF">    20</i>
   <i type="logical" name="ADDGRID"> F  </i>
  </separator>
  <separator name="ionic" >
   <i type="int" name="NSW">     0</i>
   <i type="int" name="IBRION">    -1</i>
   <i type="int" name="MDALGO">     0</i>
   <i type="int" name="ISIF">     2</i>
   <i name="PSTRESS">      0.00000000</i>
   <i name="EDIFFG">      0.00100000</i>
   <i type="int" name="NFREE">     0</i>
   <i name="POTIM">      0.50000000</i>
   <i name="SMASS">     -3.00000000</i>
   <i name="SCALEE">      1.00000000</i>
  </separator>
  <separator name="ionic md" >
   <i name="TEBEG">      0.00010000</i>
   <i name="TEEND">      0.00010000</i>
   <i type="int" name="NBLOCK">     1</i>
   <i type="int" name="KBLOCK">     1</i>
   <i type="int" name="NPACO">   256</i>
   <i name="APACO">     10.00000000</i>
  </separator>
  <separator name="symmetry" >
   <i type="int" name="ISYM">     2</i>
   <i name="SYMPREC">      0.00001000</i>
  </separator>
  <separator name="dos" >
   <i type="int" name="LORBIT">    11</i>
   <v name="RWIGS">     -1.00000000</v>
   <i type="int" name="NEDOS">   301</i>
   <i name="EMIN">     10.00000000</i>
   <i name="EMAX">    -10.00000000</i>
   <i name="EFERMI">      0.00000000</i>
  </separator>
  <separator name="writing" >
   <i type="int" name="NWRITE">     2</i>
   <i type="logical" name="LWAVE"> T  </i>
   <i type="logical" name="LDOWNSAMPLE"> F  </i>
   <i type="logical" name="LCHARG"> T  </i>
   <i type="logical" name="LPARD"> F  </i>
   <i type="logical" name="LVTOT"> F  </i>
   <i type="logical" name="LVHAR"> F  </i>
   <i type="logical" name="LELF"> F  </i>
   <i type="logical" name="LOPTICS"> F  </i>
   <v name="STM">      0.00000000      0.00000000      0.00000000      0.00000000      0.00000000      0.00000000      0.00000000</v>
  </separator>
  <separator name="performance" >
   <i type="int" name="NPAR">     4</i>
   <i type="int" name="NSIM">     4</i>
   <i type="int" name="NBLK">    -1</i>
   <i type="logical" name="LPLANE"> T  </i>
   <i type="logical" name="LSCALAPACK"> T  </i>
   <i type="logical" name="LSCAAWARE"> F  </i>
   <i type="logical" name="LSCALU"> F  </i>
   <i type="logical" name="LASYNC"> F  </i>
   <i type="logical" name="LORBITALREAL"> F  </i>
  </separator>
  <separator name="miscellaneous" >
   <i type="int" name="IDIOT">     3</i>
   <i type="int" name="PHON_NSTRUCT">    -1</i>
   <i type="logical" name="LMUSIC"> F  </i>
   <v name="POMASS">     58.69000000</v>
   <v name="DARWINR">      0.00000000</v>
   <v name="DARWINV">      1.00000000</v>
   <i type="logical" name="LCORR"> T  </i>
  </separator>
  <i type="logical" name="GGA_COMPAT"> T  </i>
  <i type="logical" name="LBERRY"> F  </i>
  <i type="int" name="ICORELEVEL">     0</i>
  <i type="logical" name="LDAU"> F  </i>
  <i type="int" name="I_CONSTRAINED_M">     0</i>
  <separator name="electronic exchange-correlation" >
   <i type="string" name="GGA">--</i>
   <i type="int" name="VOSKOWN">     0</i>
   <i type="logical" name="LHFCALC"> F  </i>
   <i type="string" name="PRECFOCK"></i>
   <i type="logical" name="LSYMGRAD"> F  </i>
   <i type="logical" name="LHFONE"> F  </i>
   <i type="logical" name="LRHFCALC"> F  </i>
   <i type="logical" name="LTHOMAS"> F  </i>
   <i type="logical" name="LMODELHF"> F  </i>
   <i type="logical" name="LFOCKACE"> F  </i>
   <i name="ENCUT4O">     -1.00000000</i>
   <i type="int" name="EXXOEP">     0</i>
   <i type="int" name="FOURORBIT">     0</i>
   <i name="AEXX">      0.00000000</i>
   <i name="HFALPHA">      0.00000000</i>
   <i name="MCALPHA">      0.00000000</i>
   <i name="ALDAX">      1.00000000</i>
   <i name="AGGAX">      1.00000000</i>
   <i name="ALDAC">      1.00000000</i>
   <i name="AGGAC">      1.00000000</i>
   <i type="int" name="NKREDX">     1</i>
   <i type="int" name="NKREDY">     1</i>
   <i type="int" name="NKREDZ">     1</i>
   <i type="logical" name="SHIFTRED"> F  </i>
   <i type="logical" name="ODDONLY"> F  </i>
   <i type="logical" name="EVENONLY"> F  </i>
   <i type="int" name="LMAXFOCK">     0</i>
   <i type="int" name="NMAXFOCKAE">     0</i>
   <i type="logical" name="LFOCKAEDFT"> F  </i>
   <i name="HFSCREEN">      0.00000000</i>
   <i name="HFSCREENC">      0.00000000</i>
   <i type="int" name="NBANDSGWLOW">     0</i>
  </separator>
  <separator name="vdW DFT" >
   <i type="logical" name="LUSE_VDW"> F  </i>
   <i name="Zab_VDW">     -0.84910000</i>
   <i name="PARAM1">      0.12340000</i>
   <i name="PARAM2">      1.00000000</i>
   <i name="PARAM3">      0.00000000</i>
  </separator>
  <separator name="model GW" >
   <i type="int" name="MODEL_GW">     0</i>
   <i name="MODEL_EPS0">      6.99840000</i>
   <i name="MODEL_ALPHA">      1.00000000</i>
  </separator>
  <separator name="linear response parameters" >
   <i type="logical" name="LEPSILON"> F  </i>
   <i type="logical" name="LRPA"> F  </i>
   <i type="logical" name="LNABLA"> F  </i>
   <i type="logical" name="LVEL"> F  </i>
   <i name="CSHIFT">      0.10000000</i>
   <i name="OMEGAMAX">     -1.00000000</i>
   <i name="DEG_THRESHOLD">      0.00200000</i>
   <i name="RTIME">     -0.10000000</i>
   <i name="WPLASMAI">      0.00000000</i>
   <v name="DFIELD">      0.00000000      0.00000000      0.00000000</v>
   <v name="WPLASMA">      0.00000000      0.00000000      0.00000000      0.00000000      0.00000000      0.00000000      0.00000000      0.00000000      0.00000000</v>
  </separator>
  <separator name="orbital magnetization" >
   <i type="logical" name="NUCIND"> F  </i>
   <v name="MAGPOS">      0.00000000      0.00000000      0.00000000</v>
   <i type="logical" name="LNICSALL"> T  </i>
   <i type="logical" name="ORBITALMAG"> F  </i>
   <i type="logical" name="LMAGBLOCH"> F  </i>
   <i type="logical" name="LCHIMAG"> F  </i>
   <i type="logical" name="LGAUGE"> T  </i>
   <i type="int" name="MAGATOM">     0</i>
   <v name="MAGDIPOL">      0.00000000      0.00000000      0.00000000</v>
   <v name="AVECCONST">      0.00000000      0.00000000      0.00000000</v>
  </separator>
  <separator name="response functions" >
   <i type="logical" name="LFINITE_TEMPERATURE"> F  </i>
   <i type="logical" name="LADDER"> F  </i>
   <i type="logical" name="LRPAFORCE"> F  </i>
   <i type="logical" name="LFXC"> F  </i>
   <i type="logical" name="LHARTREE"> T  </i>
   <i type="int" name="IBSE">     0</i>
   <v type="int" name="KPOINT">    -1     0     0     0</v>
   <i type="logical" name="LTCTC"> F  </i>
   <i type="logical" name="LTCTE"> F  </i>
   <i type="logical" name="LTETE"> F  </i>
   <i type="logical" name="LTRIPLET"> F  </i>
   <i type="logical" name="LFXCEPS"> F  </i>
   <i type="logical" name="LFXHEG"> F  </i>
   <i type="int" name="NATURALO">     2</i>
   <i type="logical" name="LHOLEGF"> F  </i>
   <i type="logical" name="L2ORDER"> F  </i>
   <i type="logical" name="LDMP1"> F  </i>
   <i type="logical" name="LMP2LT"> F  </i>
   <i type="logical" name="LSMP2LT"> F  </i>
   <i type="logical" name="LGWLF"> F  </i>
   <i name="ENCUTGW">     -2.00000000</i>
   <i name="ENCUTGWSOFT">     -2.00000000</i>
   <i name="ENCUTLF">     -1.00000000</i>
   <i type="logical" name="LESF_SPLINES"> F  </i>
   <i type="int" name="LMAXMP2">    -1</i>
   <i name="SCISSOR">      0.00000000</i>
   <i type="int" name="NOMEGA">     0</i>
   <i type="int" name="NOMEGAR">     0</i>
   <i type="int" name="NBANDSGW">    -1</i>
   <i type="int" name="NBANDSO">    -1</i>
   <i type="int" name="NBANDSV">    -1</i>
   <i type="int" name="NELMGW">     1</i>
   <i type="int" name="NELMHF">     1</i>
   <i type="int" name="DIM">     3</i>
   <i type="int" name="IESPILON">     4</i>
   <i type="int" name="ANTIRES">     0</i>
   <i name="OMEGAMAX">    -30.00000000</i>
   <i name="OMEGAMIN">    -30.00000000</i>
   <i name="OMEGATL">   -200.00000000</i>
   <i type="int" name="OMEGAGRID">     0</i>
   <i name="CSHIFT">     -0.10000000</i>
   <i type="logical" name="LSELFENERGY"> F  </i>
   <i type="logical" name="LSPECTRAL"> F  </i>
   <i type="logical" name="LSPECTRALGW"> F  </i>
   <i type="logical" name="LSINGLES"> F  </i>
   <i type="logical" name="LFERMIGW"> F  </i>
   <i type="logical" name="ODDONLYGW"> F  </i>
   <i type="logical" name="EVENONLYGW"> F  </i>
   <i type="int" name="NKREDLFX">     1</i>
   <i type="int" name="NKREDLFY">     1</i>
   <i type="int" name="NKREDLFZ">     1</i>
   <i type="int" name="MAXMEM">  2800</i>
   <i type="int" name="TELESCOPE">     0</i>
   <i type="int" name="NTAUPAR">    -1</i>
   <i type="int" name="NOMEGAPAR">    -1</i>
   <i name="DAMP_NEWTON">      0.80000001</i>
   <i name="LAMBDA">      1.00000000</i>
  </separator>
  <separator name="External order field" >
   <i name="OFIELD_KAPPA">      0.00000000</i>
   <v name="OFIELD_K">      0.00000000      0.00000000      0.00000000</v>
   <i name="OFIELD_Q6_NEAR">      0.00000000</i>
   <i name="OFIELD_Q6_FAR">      0.00000000</i>
   <i name="OFIELD_A">      0.00000000</i>
  </separator>
  <separator name="optional k-points parameters" >
   <i type="int" name="KPOINTS_OPT_MODE">     1</i>
   <i type="logical" name="LKPOINTS_OPT"> F  </i>
  </separator>
 </parameters>
 <atominfo>
  <atoms>       1 </atoms>
  <types>       1 </types>
  <array name="atoms" >
   <dimension dim="1">ion</dimension>
   <field type="string">element</field>
   <field type="int">atomtype</field>
   <set>
    <rc><c>Ni</c><c>   1</c></rc>
   </set>
  </array>
  <array name="atomtypes" >
   <dimension dim="1">type</dimension>
   <field type="int">atomspertype</field>
   <field type="string">element</field>
   <field>mass</field>
   <field>valence</field>
   <field type="string">pseudopotential</field>
   <set>
    <rc><c>   1</c><c>Ni</c><c>     58.69000000</c><c>     10.00000000</c><c>  PAW_PBE Ni 02Aug2007                  </c></rc>
   </set>
  </array>
 </atominfo>
 <structure name="initialpos" >
  <crystal>
   <varray name="basis" >
    <v>       1.80000000       1.80000000       0.00000000 </v>
    <v>       0.00000000       1.80000000       1.80000000 </v>
    <v>       1.80000000       0.00000000       1.80000000 </v>
   </varray>
   <i name="volume">     11.66400000 </i>
   <varray name="rec_basis" >
    <v>       0.27777778       0.27777778      -0.27777778 </v>
    <v>      -0.27777778       0.27777778       0.27777778 </v>
    <v>       0.27777778      -0.27777778       0.27777778 </v>
   </varray>
  </crystal>
  <varray name="positions" >
   <v>       0.00000000       0.00000000       0.00000000 </v>
  </varray>
 </structure>
 <calculation>
  <scstep>
   <time name="dav">    0.16    0.16</time>
   <time name="total">    0.17    0.17</time>
   <energy>
    <i name="alphaZ">     43.72376629 </i>
    <i name="ewald">   -916.95886177 </i>
    <i name="hartreedc">   -255.43669129 </i>
    <i name="XCdc">     31.57023004 </i>
    <i name="pawpsdc">    962.83317360 </i>
    <i name="pawaedc">  -1029.67071227 </i>
    <i name="eentropy">     -0.00151015 </i>
    <i name="bandstr">    103.58347453 </i>
    <i name="atom">   1077.63607467 </i>
    <i name="e_fr_energy">     17.27894365 </i>
    <i name="e_wo_entrp">     17.28045380 </i>
    <i name="e_0_energy">     17.27944703 </i>
   </energy>
  </scstep>
  <scstep>
   <time name="dav">    0.17    0.17</time>
   <time name="total">    0.17    0.17</time>
   <energy>
    <i name="e_fr_energy">     -5.99635242 </i>
    <i name="e_wo_entrp">     -5.99407605 </i>
    <i name="e_0_energy">     -5.99559363 </i>
   </energy>
  </scstep>
  <scstep>
   <time name="dav">    0.17    0.17</time>
   <time name="total">    0.17    0.17</time>
   <energy>
    <i name="e_fr_energy">     -6.44749907 </i>
    <i name="e_wo_entrp">     -6.44520338 </i>
    <i name="e_0_energy">     -6.44673384 </i>
   </energy>
  </scstep>
  <scstep>
   <time name="dav">    0.16    0.16</time>
   <time name="total">    0.16    0.16</time>
   <energy>
    <i name="e_fr_energy">     -6.44979630 </i>
    <i name="e_wo_entrp">     -6.44751123 </i>
    <i name="e_0_energy">     -6.44903461 </i>
   </energy>
  </scstep>
  <scstep>
   <time name="dav">    0.16    0.16</time>
   <time name="total">    0.16    0.16</time>
   <energy>
    <i name="e_fr_energy">     -6.44982698 </i>
    <i name="e_wo_entrp">     -6.44754207 </i>
    <i name="e_0_energy">     -6.44906534 </i>
   </energy>
  </scstep>
  <scstep>
   <time name="dav">    0.17    0.17</time>
   <time name="total">    0.17    0.17</time>
   <energy>
    <i name="e_fr_energy">     -5.84527747 </i>
    <i name="e_wo_entrp">     -5.84076764 </i>
    <i name="e_0_energy">     -5.84377419 </i>
   </energy>
  </scstep>
  <scstep>
   <time name="dav">    0.17    0.17</time>
   <time name="total">    0.18    0.18</time>
   <energy>
    <i name="e_fr_energy">     -5.44886403 </i>
    <i name="e_wo_entrp">     -5.44550593 </i>
    <i name="e_0_energy">     -5.44774466 </i>
   </energy>
  </scstep>
  <scstep>
   <time name="dav">    0.19    0.19</time>
   <time name="total">    0.20    0.20</time>
   <energy>
    <i name="e_fr_energy">     -5.43672520 </i>
    <i name="e_wo_entrp">     -5.43322836 </i>
    <i name="e_0_energy">     -5.43555958 </i>
   </energy>
  </scstep>
  <scstep>
   <time name="dav">    0.15    0.15</time>
   <time name="total">    0.16    0.16</time>
   <energy>
    <i name="e_fr_energy">     -5.43459836 </i>
    <i name="e_wo_entrp">     -5.43106643 </i>
    <i name="e_0_energy">     -5.43342105 </i>
   </energy>
  </scstep>
  <scstep>
   <time name="dav">    0.13    0.13</time>
   <time name="total">    0.14    0.14</time>
   <energy>
    <i name="e_fr_energy">     -5.43396062 </i>
    <i name="e_wo_entrp">     -5.43040050 </i>
    <i name="e_0_energy">     -5.43277391 </i>
   </energy>
  </scstep>
  <scstep>
   <time name="dav">    0.10    0.10</time>
   <time name="total">    0.11    0.11</time>
   <energy>
    <i name="alphaZ">     43.72376629 </i>
    <i name="ewald">   -916.95886177 </i>
    <i name="hartreedc">   -235.16589002 </i>
    <i name="XCdc">     30.52982790 </i>
    <i name="pawpsdc">   1103.36986419 </i>
    <i name="pawaedc">  -1171.50329199 </i>
    <i name="eentropy">     -0.00355875 </i>
    <i name="bandstr">     62.93810606 </i>
    <i name="atom">   1077.63607467 </i>
    <i name="e_fr_energy">     -5.43396342 </i>
    <i name="e_wo_entrp">     -5.43040467 </i>
    <i name="e_0_energy">     -5.43277717 </i>
   </energy>
  </scstep>
  <structure>
   <crystal>
    <varray name="basis" >
     <v>       1.80000000       1.80000000       0.00000000 </v>
     <v>       0.00000000       1.80000000       1.80000000 </v>
     <v>       1.80000000       0.00000000       1.80000000 </v>
    </varray>
    <i name="volume">     11.66400000 </i>
    <varray name="rec_basis" >
     <v>       0.27777778       0.27777778      -0.27777778 </v>
     <v>      -0.27777778       0.27777778       0.27777778 </v>
     <v>       0.27777778      -0.27777778       0.27777778 </v>
    </varray>
   </crystal>
   <varray name="positions" >
    <v>       0.00000000       0.00000000       0.00000000 </v>
   </varray>
  </structure>
  <varray name="forces" >
   <v>       0.00000000      -0.00000000       0.00000000 </v>
  </varray>
  <varray name="stress" >
   <v>    -160.87109132       0.00000000       0.00000000 </v>
   <v>      -0.00000000    -160.87109132      -0.00000000 </v>
   <v>       0.00000000       0.00000000    -160.87109132 </v>
  </varray>
  <energy>
   <i name="e_fr_energy">     -5.43396342 </i>
   <i name="e_wo_entrp">     -5.43040467 </i>
   <i name="e_0_energy">     -5.43277717 </i>
  </energy>
  <time name="totalsc">    1.89    1.90</time>
  <eigenvalues>
   <array>
    <dimension dim="1">band</dimension>
    <dimension dim="2">kpoint</dimension>
    <dimension dim="3">spin</dimension>
    <field>eigene</field>
    <field>occ</field>
    <set>
     <set comment="spin 1">
      <set comment="kpoint 1">
       <r>   -0.1025    1.0000 </r>
       <r>    6.1972    1.0000 </r>
       <r>    6.1972    1.0000 </r>
       <r>    6.1972    1.0000 </r>
       <r>    7.2434    1.0000 </r>
       <r>    7.2434    1.0000 </r>
       <r>   31.5961    0.0000 </r>
       <r>   34.8987    0.0000 </r>
       <r>   34.8988    0.0000 </r>
       <r>   34.8988    0.0000 </r>
       <r>   37.8328    0.0000 </r>
       <r>   37.8329    0.0000 </r>
      </set>
      <set comment="kpoint 2">
       <r>    0.2033    1.0000 </r>
       <r>    6.1231    1.0000 </r>
       <r>    6.2598    1.0000 </r>
       <r>    6.2598    1.0000 </r>
       <r>    7.2190    1.0000 </r>
       <r>    7.2190    1.0000 </r>
       <r>   30.0280    0.0000 </r>
       <r>   32.7158    0.0000 </r>
       <r>   34.2388    0.0000 </r>
       <r>   34.2390    0.0000 </r>
       <r>   38.8465    0.0000 </r>
       <r>   38.8466    0.0000 </r>
      </set>
      <set comment="kpoint 3">
       <r>    1.0838    1.0000 </r>
       <r>    5.9683    1.0000 </r>
       <r>    6.3749    1.0000 </r>
       <r>    6.3749    1.0000 </r>
       <r>    7.2099    1.0000 </r>
       <r>    7.2099    1.0000 </r>
       <r>   25.5664    0.0000 </r>
       <r>   32.1156    0.0000 </r>
       <r>   33.2765    0.0000 </r>
       <r>   33.2766    0.0000 </r>
       <r>   38.9626    0.0000 </r>
       <r>   39.6030    0.0000 </r>
      </set>
      <set comment="kpoint 4">
       <r>    2.3723    1.0000 </r>
       <r>    5.9335    1.0000 </r>
       <r>    6.3885    1.0000 </r>
       <r>    6.3885    1.0000 </r>
       <r>    7.3655    1.0000 </r>
       <r>    7.3655    1.0000 </r>
       <r>   21.1059    0.0000 </r>
       <r>   31.4108    0.0000 </r>
       <r>   32.5671    0.0000 </r>
       <r>   32.5671    0.0000 </r>
       <r>   37.7908    0.0000 </r>
       <r>   37.7909    0.0000 </r>
      </set>
      <set comment="kpoint 5">
       <r>    3.5238    1.0000 </r>
       <r>    6.2973    1.0000 </r>
       <r>    6.2973    1.0000 </r>
       <r>    6.5287    1.0000 </r>
       <r>    7.6245    1.0000 </r>
       <r>    7.6246    1.0000 </r>
       <r>   17.1263    0.0000 </r>
       <r>   30.6452    0.0000 </r>
       <r>   32.1364    0.0000 </r>
       <r>   32.1365    0.0000 </r>
       <r>   36.0370    0.0000 </r>
       <r>   36.0374    0.0000 </r>
      </set>
      <set comment="kpoint 6">
       <r>    3.9444    1.0000 </r>
       <r>    6.2199    1.0000 </r>
       <r>    6.2199    1.0000 </r>
       <r>    7.8108    1.0001 </r>
       <r>    7.8109    1.0001 </r>
       <r>    7.9283    1.0017 </r>
       <r>   14.1613    0.0000 </r>
       <r>   30.1716    0.0000 </r>
       <r>   31.9426    0.0000 </r>
       <r>   31.9429    0.0000 </r>
       <r>   35.0476    0.0000 </r>
       <r>   35.0483    0.0000 </r>
      </set>
      <set comment="kpoint 7">
       <r>    0.3047    1.0000 </r>
       <r>    6.0627    1.0000 </r>
       <r>    6.3035    1.0000 </r>
       <r>    6.3035    1.0000 </r>
       <r>    7.1204    1.0000 </r>
       <r>    7.2931    1.0000 </r>
       <r>   30.7364    0.0000 </r>
       <r>   32.3523    0.0000 </r>
       <r>   32.3524    0.0000 </r>
       <r>   33.3579    0.0000 </r>
       <r>   39.5654    0.0000 </r>
       <r>   40.3428    0.0000 </r>
      </set>
      <set comment="kpoint 8">
       <r>    0.9930    1.0000 </r>
       <r>    5.9008    1.0000 </r>
       <r>    6.4241    1.0000 </r>
       <r>    6.4333    1.0000 </r>
       <r>    7.0293    1.0000 </r>
       <r>    7.3391    1.0000 </r>
       <r>   27.3067    0.0000 </r>
       <r>   30.8953    0.0000 </r>
       <r>   31.0864    0.0000 </r>
       <r>   34.3700    0.0000 </r>
       <r>   37.3894    0.0000 </r>
       <r>   39.8242    0.0000 </r>
      </set>
      <set comment="kpoint 9">
       <r>    2.1591    1.0000 </r>
       <r>    5.7680    1.0000 </r>
       <r>    6.4116    1.0000 </r>
       <r>    6.5022    1.0000 </r>
       <r>    7.1946    1.0000 </r>
       <r>    7.4687    1.0000 </r>
       <r>   22.7508    0.0000 </r>
       <r>   29.9359    0.0000 </r>
       <r>   30.4070    0.0000 </r>
       <r>   33.8962    0.0000 </r>
       <r>   37.0929    0.0000 </r>
       <r>   39.6085    0.0000 </r>
      </set>
      <set comment="kpoint 10">
       <r>    3.4201    1.0000 </r>
       <r>    5.9520    1.0000 </r>
       <r>    6.2570    1.0000 </r>
       <r>    6.4436    1.0000 </r>
       <r>    7.6869    1.0000 </r>
       <r>    7.7027    1.0000 </r>
       <r>   18.5735    0.0000 </r>
       <r>   29.5075    0.0000 </r>
       <r>   29.6685    0.0000 </r>
       <r>   31.9931    0.0000 </r>
       <r>   37.4757    0.0000 </r>
       <r>   39.2006    0.0000 </r>
      </set>
      <set comment="kpoint 11">
       <r>    4.0492    1.0000 </r>
       <r>    6.1231    1.0000 </r>
       <r>    6.3549    1.0000 </r>
       <r>    6.6757    1.0000 </r>
       <r>    7.8375    1.0002 </r>
       <r>    8.6570   -0.0354 </r>
       <r>   15.0969    0.0000 </r>
       <r>   28.8069    0.0000 </r>
       <r>   29.6943    0.0000 </r>
       <r>   30.8785    0.0000 </r>
       <r>   37.3439    0.0000 </r>
       <r>   37.7107    0.0000 </r>
      </set>
      <set comment="kpoint 12">
       <r>    4.1453    1.0000 </r>
       <r>    6.1005    1.0000 </r>
       <r>    6.3167    1.0000 </r>
       <r>    6.9950    1.0000 </r>
       <r>    7.7993    1.0001 </r>
       <r>    9.3635   -0.0000 </r>
       <r>   13.7703   -0.0000 </r>
       <r>   27.9582    0.0000 </r>
       <r>   30.5559    0.0000 </r>
       <r>   30.7271    0.0000 </r>
       <r>   36.6793    0.0000 </r>
       <r>   37.4002    0.0000 </r>
      </set>
      <set comment="kpoint 13">
       <r>    3.9319    1.0000 </r>
       <r>    6.1799    1.0000 </r>
       <r>    6.3599    1.0000 </r>
       <r>    6.4917    1.0000 </r>
       <r>    7.5689    1.0000 </r>
       <r>    8.4247    0.4391 </r>
       <r>   16.1429    0.0000 </r>
       <r>   27.5055    0.0000 </r>
       <r>   31.3329    0.0000 </r>
       <r>   32.1123    0.0000 </r>
       <r>   36.1075    0.0000 </r>
       <r>   37.5296    0.0000 </r>
      </set>
      <set comment="kpoint 14">
       <r>    3.0412    1.0000 </r>
       <r>    5.8695    1.0000 </r>
       <r>    6.3175    1.0000 </r>
       <r>    6.4634    1.0000 </r>
       <r>    7.2452    1.0000 </r>
       <r>    7.8195    1.0001 </r>
       <r>   19.9198    0.0000 </r>
       <r>   27.5533    0.0000 </r>
       <r>   32.5408    0.0000 </r>
       <r>   34.3198    0.0000 </r>
       <r>   36.0068    0.0000 </r>
       <r>   37.2428    0.0000 </r>
      </set>
      <set comment="kpoint 15">
       <r>    1.7324    1.0000 </r>
       <r>    5.8351    1.0000 </r>
       <r>    6.4076    1.0000 </r>
       <r>    6.4946    1.0000 </r>
       <r>    7.0372    1.0000 </r>
       <r>    7.4678    1.0000 </r>
       <r>   24.2483    0.0000 </r>
       <r>   28.0787    0.0000 </r>
       <r>   33.9687    0.0000 </r>
       <r>   36.1547    0.0000 </r>
       <r>   36.5457    0.0000 </r>
       <r>   37.1154    0.0000 </r>
      </set>
      <set comment="kpoint 16">
       <r>    0.7016    1.0000 </r>
       <r>    5.9978    1.0000 </r>
       <r>    6.3529    1.0000 </r>
       <r>    6.3600    1.0000 </r>
       <r>    7.0976    1.0000 </r>
       <r>    7.2940    1.0000 </r>
       <r>   28.4804    0.0000 </r>
       <r>   29.4591    0.0000 </r>
       <r>   34.0287    0.0000 </r>
       <r>   36.0556    0.0000 </r>
       <r>   37.2981    0.0000 </r>
       <r>   38.1960    0.0000 </r>
      </set>
      <set comment="kpoint 17">
       <r>    1.4661    1.0000 </r>
       <r>    5.7051    1.0000 </r>
       <r>    6.6117    1.0000 </r>
       <r>    6.6117    1.0000 </r>
       <r>    6.8361    1.0000 </r>
       <r>    7.4229    1.0000 </r>
       <r>   29.0398    0.0000 </r>
       <r>   29.0398    0.0000 </r>
       <r>   29.3772    0.0000 </r>
       <r>   30.7152    0.0000 </r>
       <r>   35.0633    0.0000 </r>
       <r>   43.3951    0.0000 </r>
      </set>
      <set comment="kpoint 18">
       <r>    2.4223    1.0000 </r>
       <r>    5.5088    1.0000 </r>
       <r>    6.5039    1.0000 </r>
       <r>    6.7685    1.0000 </r>
       <r>    7.1001    1.0000 </r>
       <r>    7.5394    1.0000 </r>
       <r>   24.7928    0.0000 </r>
       <r>   27.7629    0.0000 </r>
       <r>   29.0059    0.0000 </r>
       <r>   30.6327    0.0000 </r>
       <r>   34.3995    0.0000 </r>
       <r>   42.9749    0.0000 </r>
      </set>
      <set comment="kpoint 19">
       <r>    3.5949    1.0000 </r>
       <r>    5.4375    1.0000 </r>
       <r>    6.2453    1.0000 </r>
       <r>    6.7732    1.0000 </r>
       <r>    7.7376    1.0000 </r>
       <r>    7.8636    1.0004 </r>
       <r>   20.4774    0.0000 </r>
       <r>   27.1186    0.0000 </r>
       <r>   27.3207    0.0000 </r>
       <r>   30.1093    0.0000 </r>
       <r>   37.1142    0.0000 </r>
       <r>   42.0313    0.0000 </r>
      </set>
      <set comment="kpoint 20">
       <r>    4.3641    1.0000 </r>
       <r>    5.6393    1.0000 </r>
       <r>    6.1427    1.0000 </r>
       <r>    6.6894    1.0000 </r>
       <r>    7.8662    1.0004 </r>
       <r>    9.2168   -0.0000 </r>
       <r>   16.6468    0.0000 </r>
       <r>   25.5822    0.0000 </r>
       <r>   27.1794    0.0000 </r>
       <r>   29.8366    0.0000 </r>
       <r>   40.4772    0.0000 </r>
       <r>   41.2241    0.0000 </r>
      </set>
      <set comment="kpoint 21">
       <r>    4.5646    1.0000 </r>
       <r>    5.7515    1.0000 </r>
       <r>    6.3177    1.0000 </r>
       <r>    6.6202    1.0000 </r>
       <r>    7.8061    1.0001 </r>
       <r>   10.8830   -0.0000 </r>
       <r>   14.0073    0.0000 </r>
       <r>   24.2306    0.0000 </r>
       <r>   27.9906    0.0000 </r>
       <r>   29.9742    0.0000 </r>
       <r>   40.0542    0.0000 </r>
       <r>   40.4229    0.0000 </r>
      </set>
      <set comment="kpoint 22">
       <r>    4.5286    1.0000 </r>
       <r>    5.8682    1.0000 </r>
       <r>    6.1481    1.0000 </r>
       <r>    6.6126    1.0000 </r>
       <r>    7.5417    1.0000 </r>
       <r>    9.9726   -0.0000 </r>
       <r>   15.5801    0.0000 </r>
       <r>   23.4063    0.0000 </r>
       <r>   29.5136    0.0000 </r>
       <r>   30.6047    0.0000 </r>
       <r>   39.3072    0.0000 </r>
       <r>   39.6715    0.0000 </r>
      </set>
      <set comment="kpoint 23">
       <r>    4.0066    1.0000 </r>
       <r>    5.7077    1.0000 </r>
       <r>    6.0829    1.0000 </r>
       <r>    6.6918    1.0000 </r>
       <r>    7.1664    1.0000 </r>
       <r>    8.6724   -0.0345 </r>
       <r>   19.1775    0.0000 </r>
       <r>   23.1811    0.0000 </r>
       <r>   31.6700    0.0000 </r>
       <r>   31.8085    0.0000 </r>
       <r>   38.3610    0.0000 </r>
       <r>   39.1010    0.0000 </r>
      </set>
      <set comment="kpoint 24">
       <r>    2.8324    1.0000 </r>
       <r>    5.6662    1.0000 </r>
       <r>    6.3022    1.0000 </r>
       <r>    6.7560    1.0000 </r>
       <r>    6.8666    1.0000 </r>
       <r>    7.9270    1.0017 </r>
       <r>   23.0589    0.0000 </r>
       <r>   23.8229    0.0000 </r>
       <r>   33.5183    0.0000 </r>
       <r>   34.2636    0.0000 </r>
       <r>   36.5616    0.0000 </r>
       <r>   39.3566    0.0000 </r>
      </set>
      <set comment="kpoint 25">
       <r>    3.0694    1.0000 </r>
       <r>    5.2598    1.0000 </r>
       <r>    6.7524    1.0000 </r>
       <r>    7.0736    1.0000 </r>
       <r>    7.0736    1.0000 </r>
       <r>    7.5996    1.0000 </r>
       <r>   26.1570    0.0000 </r>
       <r>   26.1571    0.0000 </r>
       <r>   26.6745    0.0000 </r>
       <r>   28.3420    0.0000 </r>
       <r>   31.8636    0.0000 </r>
       <r>   47.2004    0.0000 </r>
      </set>
      <set comment="kpoint 26">
       <r>    3.8622    1.0000 </r>
       <r>    5.0933    1.0000 </r>
       <r>    6.6565    1.0000 </r>
       <r>    7.2034    1.0000 </r>
       <r>    7.7547    1.0000 </r>
       <r>    7.8719    1.0005 </r>
       <r>   22.6974    0.0000 </r>
       <r>   24.4246    0.0000 </r>
       <r>   25.2240    0.0000 </r>
       <r>   28.9734    0.0000 </r>
       <r>   32.7451    0.0000 </r>
       <r>   46.7665    0.0000 </r>
      </set>
      <set comment="kpoint 27">
       <r>    4.4779    1.0000 </r>
       <r>    5.0932    1.0000 </r>
       <r>    6.4469    1.0000 </r>
       <r>    7.1504    1.0000 </r>
       <r>    7.8891    1.0007 </r>
       <r>    9.5134   -0.0000 </r>
       <r>   18.7796    0.0000 </r>
       <r>   22.3891    0.0000 </r>
       <r>   25.0597    0.0000 </r>
       <r>   29.1244    0.0000 </r>
       <r>   36.0439    0.0000 </r>
       <r>   45.0775    0.0000 </r>
      </set>
      <set comment="kpoint 28">
       <r>    4.8137    1.0000 </r>
       <r>    5.2487    1.0000 </r>
       <r>    6.2557    1.0000 </r>
       <r>    7.0576    1.0000 </r>
       <r>    7.8296    1.0002 </r>
       <r>   11.8294   -0.0000 </r>
       <r>   15.3680    0.0000 </r>
       <r>   20.8348    0.0000 </r>
       <r>   25.7109    0.0000 </r>
       <r>   29.3078    0.0000 </r>
       <r>   40.2222    0.0000 </r>
       <r>   43.6725    0.0000 </r>
      </set>
      <set comment="kpoint 29">
       <r>    5.0062    1.0000 </r>
       <r>    5.4456    1.0000 </r>
       <r>    5.9954    1.0000 </r>
       <r>    6.9811    1.0000 </r>
       <r>    7.5711    1.0000 </r>
       <r>   12.0472   -0.0000 </r>
       <r>   15.2825    0.0000 </r>
       <r>   19.8432    0.0000 </r>
       <r>   27.1213    0.0000 </r>
       <r>   29.7845    0.0000 </r>
       <r>   42.6502    0.0000 </r>
       <r>   42.7529    0.0000 </r>
      </set>
      <set comment="kpoint 30">
       <r>    4.8454    1.0000 </r>
       <r>    5.6818    1.0000 </r>
       <r>    5.7454    1.0000 </r>
       <r>    6.9057    1.0000 </r>
       <r>    7.2592    1.0000 </r>
       <r>   10.0408   -0.0000 </r>
       <r>   18.2844    0.0000 </r>
       <r>   19.8812    0.0000 </r>
       <r>   29.1549    0.0000 </r>
       <r>   30.6370    0.0000 </r>
       <r>   40.7203    0.0000 </r>
       <r>   41.6669    0.0000 </r>
      </set>
      <set comment="kpoint 31">
       <r>    4.0763    1.0000 </r>
       <r>    4.8648    1.0000 </r>
       <r>    7.5742    1.0000 </r>
       <r>    7.5743    1.0000 </r>
       <r>    7.7683    1.0000 </r>
       <r>    7.9436    1.0024 </r>
       <r>   21.7837    0.0000 </r>
       <r>   23.9821    0.0000 </r>
       <r>   23.9822    0.0000 </r>
       <r>   27.6912    0.0000 </r>
       <r>   30.7750    0.0000 </r>
       <r>   50.9450    0.0000 </r>
      </set>
      <set comment="kpoint 32">
       <r>    4.2924    1.0000 </r>
       <r>    4.7845    1.0000 </r>
       <r>    7.3290    1.0000 </r>
       <r>    7.6073    1.0000 </r>
       <r>    7.8975    1.0009 </r>
       <r>    9.6945   -0.0000 </r>
       <r>   19.6843    0.0000 </r>
       <r>   21.3059    0.0000 </r>
       <r>   23.5334    0.0000 </r>
       <r>   28.3793    0.0000 </r>
       <r>   32.0053    0.0000 </r>
       <r>   49.0332    0.0000 </r>
      </set>
      <set comment="kpoint 33">
       <r>    4.5660    1.0000 </r>
       <r>    4.8807    1.0000 </r>
       <r>    6.8806    1.0000 </r>
       <r>    7.5114    1.0000 </r>
       <r>    7.8685    1.0004 </r>
       <r>   12.0130   -0.0000 </r>
       <r>   17.6972    0.0000 </r>
       <r>   18.3666    0.0000 </r>
       <r>   23.9610    0.0000 </r>
       <r>   28.7958    0.0000 </r>
       <r>   35.5605    0.0000 </r>
       <r>   47.2414    0.0000 </r>
      </set>
      <set comment="kpoint 34">
       <r>    4.8924    1.0000 </r>
       <r>    5.1075    1.0000 </r>
       <r>    6.3573    1.0000 </r>
       <r>    7.3225    1.0000 </r>
       <r>    7.6878    1.0000 </r>
       <r>   14.3180    0.0000 </r>
       <r>   14.6604    0.0000 </r>
       <r>   17.8849    0.0000 </r>
       <r>   25.2078    0.0000 </r>
       <r>   29.1799    0.0000 </r>
       <r>   40.0621    0.0000 </r>
       <r>   45.3398    0.0000 </r>
      </set>
      <set comment="kpoint 35">
       <r>    4.1930    1.0000 </r>
       <r>    4.6372    1.0000 </r>
       <r>    7.8656    1.0004 </r>
       <r>    7.9094    1.0011 </r>
       <r>    7.9094    1.0011 </r>
       <r>   10.2866   -0.0000 </r>
       <r>   17.8138    0.0000 </r>
       <r>   22.7823    0.0000 </r>
       <r>   22.7823    0.0000 </r>
       <r>   27.3847    0.0000 </r>
       <r>   30.4385    0.0000 </r>
       <r>   51.4273    0.0000 </r>
      </set>
      <set comment="kpoint 36">
       <r>    4.2899    1.0000 </r>
       <r>    4.6716    1.0000 </r>
       <r>    7.5997    1.0000 </r>
       <r>    7.7989    1.0001 </r>
       <r>    7.9268    1.0017 </r>
       <r>   11.4130   -0.0000 </r>
       <r>   17.1213    0.0000 </r>
       <r>   20.7655    0.0000 </r>
       <r>   22.9321    0.0000 </r>
       <r>   28.1969    0.0000 </r>
       <r>   31.8089    0.0000 </r>
       <r>   50.0973    0.0000 </r>
      </set>
      <set comment="kpoint 37">
       <r>    1.8287    1.0000 </r>
       <r>    5.7164    1.0000 </r>
       <r>    6.4480    1.0000 </r>
       <r>    6.6253    1.0000 </r>
       <r>    6.9660    1.0000 </r>
       <r>    7.4980    1.0000 </r>
       <r>   25.8860    0.0000 </r>
       <r>   26.5544    0.0000 </r>
       <r>   32.5515    0.0000 </r>
       <r>   33.0266    0.0000 </r>
       <r>   36.3862    0.0000 </r>
       <r>   39.9802    0.0000 </r>
      </set>
      <set comment="kpoint 38">
       <r>    3.0384    1.0000 </r>
       <r>    5.6001    1.0000 </r>
       <r>    6.2713    1.0000 </r>
       <r>    6.7097    1.0000 </r>
       <r>    7.1736    1.0000 </r>
       <r>    7.8890    1.0007 </r>
       <r>   21.7065    0.0000 </r>
       <r>   25.5707    0.0000 </r>
       <r>   30.4698    0.0000 </r>
       <r>   33.4080    0.0000 </r>
       <r>   37.2565    0.0000 </r>
       <r>   39.0331    0.0000 </r>
      </set>
      <set comment="kpoint 39">
       <r>    4.0853    1.0000 </r>
       <r>    5.8109    1.0000 </r>
       <r>    6.0727    1.0000 </r>
       <r>    6.6224    1.0000 </r>
       <r>    7.5526    1.0000 </r>
       <r>    8.6656   -0.0351 </r>
       <r>   17.6894    0.0000 </r>
       <r>   25.3927    0.0000 </r>
       <r>   28.5226    0.0000 </r>
       <r>   32.7684    0.0000 </r>
       <r>   37.1873    0.0000 </r>
       <r>   40.6388    0.0000 </r>
      </set>
      <set comment="kpoint 40">
       <r>    4.4261    1.0000 </r>
       <r>    5.8817    1.0000 </r>
       <r>    6.3630    1.0000 </r>
       <r>    6.5436    1.0000 </r>
       <r>    7.7637    1.0000 </r>
       <r>   10.0855   -0.0000 </r>
       <r>   14.4965    0.0000 </r>
       <r>   25.7330    0.0000 </r>
       <r>   27.0557    0.0000 </r>
       <r>   32.2836    0.0000 </r>
       <r>   36.8410    0.0000 </r>
       <r>   41.1359    0.0000 </r>
      </set>
      <set comment="kpoint 41">
       <r>    3.3700    1.0000 </r>
       <r>    5.3240    1.0000 </r>
       <r>    6.3400    1.0000 </r>
       <r>    7.0734    1.0000 </r>
       <r>    7.2610    1.0000 </r>
       <r>    7.8779    1.0005 </r>
       <r>   23.6242    0.0000 </r>
       <r>   24.1635    0.0000 </r>
       <r>   27.3104    0.0000 </r>
       <r>   31.4090    0.0000 </r>
       <r>   34.1393    0.0000 </r>
       <r>   42.5855    0.0000 </r>
      </set>
      <set comment="kpoint 42">
       <r>    4.3099    1.0000 </r>
       <r>    5.2877    1.0000 </r>
       <r>    6.1072    1.0000 </r>
       <r>    7.0757    1.0000 </r>
       <r>    7.6043    1.0000 </r>
       <r>    8.8505   -0.0040 </r>
       <r>   19.7203    0.0000 </r>
       <r>   23.5599    0.0000 </r>
       <r>   25.1550    0.0000 </r>
       <r>   31.9473    0.0000 </r>
       <r>   36.4879    0.0000 </r>
       <r>   41.2382    0.0000 </r>
      </set>
      <set comment="kpoint 43">
       <r>    4.7750    1.0000 </r>
       <r>    5.4321    1.0000 </r>
       <r>    6.0243    1.0000 </r>
       <r>    6.9509    1.0000 </r>
       <r>    7.7831    1.0000 </r>
       <r>   10.6676   -0.0000 </r>
       <r>   16.0779    0.0000 </r>
       <r>   23.1990    0.0000 </r>
       <r>   24.0392    0.0000 </r>
       <r>   32.0438    0.0000 </r>
       <r>   38.7945    0.0000 </r>
       <r>   41.6645    0.0000 </r>
      </set>
      <set comment="kpoint 44">
       <r>    4.9145    1.0000 </r>
       <r>    5.4958    1.0000 </r>
       <r>    6.0394    1.0000 </r>
       <r>    6.8697    1.0000 </r>
       <r>    7.7235    1.0000 </r>
       <r>   12.0248   -0.0000 </r>
       <r>   14.3222    0.0000 </r>
       <r>   22.0495    0.0000 </r>
       <r>   24.8697    0.0000 </r>
       <r>   32.5039    0.0000 </r>
       <r>   38.3838    0.0000 </r>
       <r>   44.8894    0.0000 </r>
      </set>
      <set comment="kpoint 45">
       <r>    4.8207    1.0000 </r>
       <r>    5.6301    1.0000 </r>
       <r>    5.7735    1.0000 </r>
       <r>    6.9193    1.0000 </r>
       <r>    7.4713    1.0000 </r>
       <r>   10.1556   -0.0000 </r>
       <r>   17.2255    0.0000 </r>
       <r>   21.4058    0.0000 </r>
       <r>   26.3371    0.0000 </r>
       <r>   33.5227    0.0000 </r>
       <r>   37.5032    0.0000 </r>
       <r>   42.7168    0.0000 </r>
      </set>
      <set comment="kpoint 46">
       <r>    4.1242    1.0000 </r>
       <r>    5.4939    1.0000 </r>
       <r>    5.9989    1.0000 </r>
       <r>    7.0183    1.0000 </r>
       <r>    7.1081    1.0000 </r>
       <r>    8.7286   -0.0234 </r>
       <r>   20.7359    0.0000 </r>
       <r>   21.7151    0.0000 </r>
       <r>   28.2714    0.0000 </r>
       <r>   35.0768    0.0000 </r>
       <r>   35.9201    0.0000 </r>
       <r>   40.2745    0.0000 </r>
      </set>
      <set comment="kpoint 47">
       <r>    4.3181    1.0000 </r>
       <r>    4.9710    1.0000 </r>
       <r>    6.6763    1.0000 </r>
       <r>    7.5722    1.0000 </r>
       <r>    7.6412    1.0000 </r>
       <r>    9.0181   -0.0001 </r>
       <r>   21.8560    0.0000 </r>
       <r>   21.9179    0.0000 </r>
       <r>   22.6470    0.0000 </r>
       <r>   30.3273    0.0000 </r>
       <r>   33.0397    0.0000 </r>
       <r>   45.1704    0.0000 </r>
      </set>
      <set comment="kpoint 48">
       <r>    4.6680    1.0000 </r>
       <r>    5.0225    1.0000 </r>
       <r>    6.4546    1.0000 </r>
       <r>    7.4252    1.0000 </r>
       <r>    7.8263    1.0001 </r>
       <r>   11.0182   -0.0000 </r>
       <r>   18.3747    0.0000 </r>
       <r>   20.2502    0.0000 </r>
       <r>   22.3439    0.0000 </r>
       <r>   31.1918    0.0000 </r>
       <r>   35.9210    0.0000 </r>
       <r>   43.5361    0.0000 </r>
      </set>
      <set comment="kpoint 49">
       <r>    4.9689    1.0000 </r>
       <r>    5.1769    1.0000 </r>
       <r>    6.1539    1.0000 </r>
       <r>    7.2340    1.0000 </r>
       <r>    7.7867    1.0000 </r>
       <r>   13.5619   -0.0000 </r>
       <r>   15.1497    0.0000 </r>
       <r>   18.9687    0.0000 </r>
       <r>   23.1183    0.0000 </r>
       <r>   31.7022    0.0000 </r>
       <r>   40.0486    0.0000 </r>
       <r>   42.0750    0.0000 </r>
      </set>
      <set comment="kpoint 50">
       <r>    5.2246    1.0000 </r>
       <r>    5.3337    1.0000 </r>
       <r>    5.7888    1.0000 </r>
       <r>    7.1091    1.0000 </r>
       <r>    7.5881    1.0000 </r>
       <r>   12.2432   -0.0000 </r>
       <r>   16.3980    0.0000 </r>
       <r>   18.7439    0.0000 </r>
       <r>   24.4973    0.0000 </r>
       <r>   32.5338    0.0000 </r>
       <r>   39.9428    0.0000 </r>
       <r>   43.8587    0.0000 </r>
      </set>
      <set comment="kpoint 51">
       <r>    4.3952    1.0000 </r>
       <r>    4.7661    1.0000 </r>
       <r>    7.1986    1.0000 </r>
       <r>    7.7249    1.0000 </r>
       <r>    7.9102    1.0012 </r>
       <r>   11.2765   -0.0000 </r>
       <r>   17.9964    0.0000 </r>
       <r>   20.8490    0.0000 </r>
       <r>   21.4950    0.0000 </r>
       <r>   29.8120    0.0000 </r>
       <r>   32.6261    0.0000 </r>
       <r>   47.5033    0.0000 </r>
      </set>
      <set comment="kpoint 52">
       <r>    4.6377    1.0000 </r>
       <r>    4.9257    1.0000 </r>
       <r>    6.7157    1.0000 </r>
       <r>    7.5167    1.0000 </r>
       <r>    7.9067    1.0011 </r>
       <r>   13.0231   -0.0000 </r>
       <r>   17.2848    0.0000 </r>
       <r>   18.0296    0.0000 </r>
       <r>   21.8620    0.0000 </r>
       <r>   30.9464    0.0000 </r>
       <r>   35.7424    0.0000 </r>
       <r>   45.0653    0.0000 </r>
      </set>
      <set comment="kpoint 53">
       <r>    4.8914    1.0000 </r>
       <r>    5.2885    1.0000 </r>
       <r>    5.8610    1.0000 </r>
       <r>    7.3041    1.0000 </r>
       <r>    7.5700    1.0000 </r>
       <r>   10.4527   -0.0000 </r>
       <r>   18.9762    0.0000 </r>
       <r>   20.2593    0.0000 </r>
       <r>   23.0489    0.0000 </r>
       <r>   34.7564    0.0000 </r>
       <r>   36.2703    0.0000 </r>
       <r>   40.5125    0.0000 </r>
      </set>
      <set comment="kpoint 54">
       <r>    5.1391    1.0000 </r>
       <r>    5.3618    1.0000 </r>
       <r>    5.7593    1.0000 </r>
       <r>    7.1548    1.0000 </r>
       <r>    7.7718    1.0000 </r>
       <r>   12.7323   -0.0000 </r>
       <r>   15.9149    0.0000 </r>
       <r>   20.2955    0.0000 </r>
       <r>   21.4623    0.0000 </r>
       <r>   35.2599    0.0000 </r>
       <r>   37.4498    0.0000 </r>
       <r>   41.8139    0.0000 </r>
      </set>
      <set comment="kpoint 55">
       <r>    4.8497    1.0000 </r>
       <r>    5.1571    1.0000 </r>
       <r>    6.1935    1.0000 </r>
       <r>    7.3537    1.0000 </r>
       <r>    7.9090    1.0011 </r>
       <r>   13.1399   -0.0000 </r>
       <r>   17.9793    0.0000 </r>
       <r>   18.5681    0.0000 </r>
       <r>   19.6485    0.0000 </r>
       <r>   34.1503    0.0000 </r>
       <r>   36.9090    0.0000 </r>
       <r>   41.6883    0.0000 </r>
      </set>
      <set comment="kpoint 56">
       <r>    5.0239    1.0000 </r>
       <r>    5.4170    1.0000 </r>
       <r>    5.8182    1.0000 </r>
       <r>    7.2018    1.0000 </r>
       <r>    7.9081    1.0011 </r>
       <r>   15.3106    0.0000 </r>
       <r>   15.3217    0.0000 </r>
       <r>   18.1610    0.0000 </r>
       <r>   20.0255    0.0000 </r>
       <r>   35.5475    0.0000 </r>
       <r>   39.3082    0.0000 </r>
       <r>   40.1932    0.0000 </r>
      </set>
     </set>
     <set comment="spin 2">
      <set comment="kpoint 1">
       <r>   -0.1557    1.0000 </r>
       <r>    6.8781    1.0000 </r>
       <r>    6.8781    1.0000 </r>
       <r>    6.8781    1.0000 </r>
       <r>    7.8214    1.0001 </r>
       <r>    7.8214    1.0001 </r>
       <r>   31.4165    0.0000 </r>
       <r>   34.8727    0.0000 </r>
       <r>   34.8728    0.0000 </r>
       <r>   34.8728    0.0000 </r>
       <r>   37.8801    0.0000 </r>
       <r>   37.8801    0.0000 </r>
      </set>
      <set comment="kpoint 2">
       <r>    0.1505    1.0000 </r>
       <r>    6.7945    1.0000 </r>
       <r>    6.9427    1.0000 </r>
       <r>    6.9427    1.0000 </r>
       <r>    7.7957    1.0001 </r>
       <r>    7.7957    1.0001 </r>
       <r>   29.9804    0.0000 </r>
       <r>   32.6184    0.0000 </r>
       <r>   34.2476    0.0000 </r>
       <r>   34.2478    0.0000 </r>
       <r>   38.8470    0.0000 </r>
       <r>   38.8472    0.0000 </r>
      </set>
      <set comment="kpoint 3">
       <r>    1.0359    1.0000 </r>
       <r>    6.6079    1.0000 </r>
       <r>    7.0484    1.0000 </r>
       <r>    7.0485    1.0000 </r>
       <r>    7.7995    1.0001 </r>
       <r>    7.7995    1.0001 </r>
       <r>   25.6201    0.0000 </r>
       <r>   31.9747    0.0000 </r>
       <r>   33.3207    0.0000 </r>
       <r>   33.3208    0.0000 </r>
       <r>   38.8858    0.0000 </r>
       <r>   39.5599    0.0000 </r>
      </set>
      <set comment="kpoint 4">
       <r>    2.3614    1.0000 </r>
       <r>    6.4922    1.0000 </r>
       <r>    7.0207    1.0000 </r>
       <r>    7.0208    1.0000 </r>
       <r>    8.0022    1.0070 </r>
       <r>    8.0023    1.0070 </r>
       <r>   21.2194    0.0000 </r>
       <r>   31.2616    0.0000 </r>
       <r>   32.6307    0.0000 </r>
       <r>   32.6307    0.0000 </r>
       <r>   37.7896    0.0000 </r>
       <r>   37.7897    0.0000 </r>
      </set>
      <set comment="kpoint 5">
       <r>    3.6865    1.0000 </r>
       <r>    6.8417    1.0000 </r>
       <r>    6.8973    1.0000 </r>
       <r>    6.8973    1.0000 </r>
       <r>    8.3023    0.8910 </r>
       <r>    8.3024    0.8909 </r>
       <r>   17.3175    0.0000 </r>
       <r>   30.4856    0.0000 </r>
       <r>   32.2058    0.0000 </r>
       <r>   32.2059    0.0000 </r>
       <r>   36.0448    0.0000 </r>
       <r>   36.0452    0.0000 </r>
      </set>
      <set comment="kpoint 6">
       <r>    4.3067    1.0000 </r>
       <r>    6.8061    1.0000 </r>
       <r>    6.8061    1.0000 </r>
       <r>    7.9131    1.0012 </r>
       <r>    8.5093    0.1325 </r>
       <r>    8.5093    0.1324 </r>
       <r>   14.4833    0.0000 </r>
       <r>   30.0055    0.0000 </r>
       <r>   32.0095    0.0000 </r>
       <r>   32.0097    0.0000 </r>
       <r>   35.0615    0.0000 </r>
       <r>   35.0620    0.0000 </r>
      </set>
      <set comment="kpoint 7">
       <r>    0.2519    1.0000 </r>
       <r>    6.7321    1.0000 </r>
       <r>    6.9883    1.0000 </r>
       <r>    6.9883    1.0000 </r>
       <r>    7.6900    1.0000 </r>
       <r>    7.8729    1.0005 </r>
       <r>   30.6231    0.0000 </r>
       <r>   32.3856    0.0000 </r>
       <r>   32.3857    0.0000 </r>
       <r>   33.2920    0.0000 </r>
       <r>   39.5595    0.0000 </r>
       <r>   40.3037    0.0000 </r>
      </set>
      <set comment="kpoint 8">
       <r>    0.9430    1.0000 </r>
       <r>    6.5512    1.0000 </r>
       <r>    7.1018    1.0000 </r>
       <r>    7.1163    1.0000 </r>
       <r>    7.6006    1.0000 </r>
       <r>    7.9274    1.0017 </r>
       <r>   27.3389    0.0000 </r>
       <r>   30.9441    0.0000 </r>
       <r>   31.0079    0.0000 </r>
       <r>   34.3037    0.0000 </r>
       <r>   37.4986    0.0000 </r>
       <r>   39.8579    0.0000 </r>
      </set>
      <set comment="kpoint 9">
       <r>    2.1300    1.0000 </r>
       <r>    6.3738    1.0000 </r>
       <r>    7.0298    1.0000 </r>
       <r>    7.1551    1.0000 </r>
       <r>    7.8164    1.0001 </r>
       <r>    8.0948    1.0241 </r>
       <r>   22.8405    0.0000 </r>
       <r>   29.9926    0.0000 </r>
       <r>   30.3216    0.0000 </r>
       <r>   33.9429    0.0000 </r>
       <r>   37.0708    0.0000 </r>
       <r>   39.6298    0.0000 </r>
      </set>
      <set comment="kpoint 10">
       <r>    3.5085    1.0000 </r>
       <r>    6.4227    1.0000 </r>
       <r>    6.8485    1.0000 </r>
       <r>    7.0599    1.0000 </r>
       <r>    8.3207    0.8400 </r>
       <r>    8.3574    0.7154 </r>
       <r>   18.7264    0.0000 </r>
       <r>   29.5652    0.0000 </r>
       <r>   29.5715    0.0000 </r>
       <r>   32.0737    0.0000 </r>
       <r>   37.4292    0.0000 </r>
       <r>   39.1983    0.0000 </r>
      </set>
      <set comment="kpoint 11">
       <r>    4.3770    1.0000 </r>
       <r>    6.6449    1.0000 </r>
       <r>    6.9491    1.0000 </r>
       <r>    7.0677    1.0000 </r>
       <r>    8.5341    0.0716 </r>
       <r>    9.0930   -0.0000 </r>
       <r>   15.3538    0.0000 </r>
       <r>   28.7371    0.0000 </r>
       <r>   29.7496    0.0000 </r>
       <r>   30.9159    0.0000 </r>
       <r>   37.3107    0.0000 </r>
       <r>   37.7213    0.0000 </r>
      </set>
      <set comment="kpoint 12">
       <r>    4.5408    1.0000 </r>
       <r>    6.6418    1.0000 </r>
       <r>    6.9024    1.0000 </r>
       <r>    7.3823    1.0000 </r>
       <r>    8.5014    0.1553 </r>
       <r>    9.6366   -0.0000 </r>
       <r>   14.1159    0.0000 </r>
       <r>   27.9378    0.0000 </r>
       <r>   30.6125    0.0000 </r>
       <r>   30.6997    0.0000 </r>
       <r>   36.6973    0.0000 </r>
       <r>   37.3771    0.0000 </r>
      </set>
      <set comment="kpoint 13">
       <r>    4.1879    1.0000 </r>
       <r>    6.7179    1.0000 </r>
       <r>    6.8709    1.0000 </r>
       <r>    6.9504    1.0000 </r>
       <r>    8.2565    0.9816 </r>
       <r>    8.9783   -0.0002 </r>
       <r>   16.3587    0.0000 </r>
       <r>   27.5142    0.0000 </r>
       <r>   31.2697    0.0000 </r>
       <r>   32.1778    0.0000 </r>
       <r>   36.1264    0.0000 </r>
       <r>   37.5070    0.0000 </r>
      </set>
      <set comment="kpoint 14">
       <r>    3.0692    1.0000 </r>
       <r>    6.4047    1.0000 </r>
       <r>    6.9146    1.0000 </r>
       <r>    7.0780    1.0000 </r>
       <r>    7.8974    1.0009 </r>
       <r>    8.4626    0.2866 </r>
       <r>   20.0500    0.0000 </r>
       <r>   27.5755    0.0000 </r>
       <r>   32.4629    0.0000 </r>
       <r>   34.4019    0.0000 </r>
       <r>   36.0102    0.0000 </r>
       <r>   37.1996    0.0000 </r>
      </set>
      <set comment="kpoint 15">
       <r>    1.6919    1.0000 </r>
       <r>    6.4609    1.0000 </r>
       <r>    7.0462    1.0000 </r>
       <r>    7.1690    1.0000 </r>
       <r>    7.6221    1.0000 </r>
       <r>    8.0885    1.0227 </r>
       <r>   24.3204    0.0000 </r>
       <r>   28.1001    0.0000 </r>
       <r>   33.8815    0.0000 </r>
       <r>   36.1721    0.0000 </r>
       <r>   36.4778    0.0000 </r>
       <r>   37.1610    0.0000 </r>
      </set>
      <set comment="kpoint 16">
       <r>    0.6502    1.0000 </r>
       <r>    6.6560    1.0000 </r>
       <r>    7.0347    1.0000 </r>
       <r>    7.0421    1.0000 </r>
       <r>    7.6657    1.0000 </r>
       <r>    7.8817    1.0006 </r>
       <r>   28.4852    0.0000 </r>
       <r>   29.4720    0.0000 </r>
       <r>   33.9404    0.0000 </r>
       <r>   36.0278    0.0000 </r>
       <r>   37.2335    0.0000 </r>
       <r>   38.2328    0.0000 </r>
      </set>
      <set comment="kpoint 17">
       <r>    1.4189    1.0000 </r>
       <r>    6.3461    1.0000 </r>
       <r>    7.3085    1.0000 </r>
       <r>    7.3086    1.0000 </r>
       <r>    7.3763    1.0000 </r>
       <r>    8.0084    1.0078 </r>
       <r>   29.0910    0.0000 </r>
       <r>   29.0911    0.0000 </r>
       <r>   29.3506    0.0000 </r>
       <r>   30.6275    0.0000 </r>
       <r>   35.2463    0.0000 </r>
       <r>   43.3406    0.0000 </r>
      </set>
      <set comment="kpoint 18">
       <r>    2.3933    1.0000 </r>
       <r>    6.1275    1.0000 </r>
       <r>    7.0759    1.0000 </r>
       <r>    7.4523    1.0000 </r>
       <r>    7.7414    1.0000 </r>
       <r>    8.1494    1.0346 </r>
       <r>   24.8558    0.0000 </r>
       <r>   27.8135    0.0000 </r>
       <r>   28.9598    0.0000 </r>
       <r>   30.6597    0.0000 </r>
       <r>   34.5232    0.0000 </r>
       <r>   42.8897    0.0000 </r>
      </set>
      <set comment="kpoint 19">
       <r>    3.6483    1.0000 </r>
       <r>    6.0030    1.0000 </r>
       <r>    6.8021    1.0000 </r>
       <r>    7.4150    1.0000 </r>
       <r>    8.3990    0.5473 </r>
       <r>    8.4556    0.3134 </r>
       <r>   20.5871    0.0000 </r>
       <r>   27.1657    0.0000 </r>
       <r>   27.3181    0.0000 </r>
       <r>   30.1600    0.0000 </r>
       <r>   37.1665    0.0000 </r>
       <r>   41.9507    0.0000 </r>
      </set>
      <set comment="kpoint 20">
       <r>    4.6522    1.0000 </r>
       <r>    6.0678    1.0000 </r>
       <r>    6.7057    1.0000 </r>
       <r>    7.3002    1.0000 </r>
       <r>    8.5625    0.0205 </r>
       <r>    9.6502   -0.0000 </r>
       <r>   16.8244    0.0000 </r>
       <r>   25.6137    0.0000 </r>
       <r>   27.2245    0.0000 </r>
       <r>   29.8572    0.0000 </r>
       <r>   40.4692    0.0000 </r>
       <r>   41.2190    0.0000 </r>
      </set>
      <set comment="kpoint 21">
       <r>    4.9971    1.0000 </r>
       <r>    6.1640    1.0000 </r>
       <r>    6.8443    1.0000 </r>
       <r>    7.2122    1.0000 </r>
       <r>    8.5150    0.1172 </r>
       <r>   11.1155   -0.0000 </r>
       <r>   14.3074    0.0000 </r>
       <r>   24.2806    0.0000 </r>
       <r>   28.0388    0.0000 </r>
       <r>   29.9641    0.0000 </r>
       <r>   40.0578    0.0000 </r>
       <r>   40.3652    0.0000 </r>
      </set>
      <set comment="kpoint 22">
       <r>    4.8867    1.0000 </r>
       <r>    6.3084    1.0000 </r>
       <r>    6.6561    1.0000 </r>
       <r>    7.1961    1.0000 </r>
       <r>    8.2462    0.9950 </r>
       <r>   10.3605   -0.0000 </r>
       <r>   15.7996    0.0000 </r>
       <r>   23.4683    0.0000 </r>
       <r>   29.5697    0.0000 </r>
       <r>   30.5706    0.0000 </r>
       <r>   39.3197    0.0000 </r>
       <r>   39.6050    0.0000 </r>
      </set>
      <set comment="kpoint 23">
       <r>    4.1126    1.0000 </r>
       <r>    6.2519    1.0000 </r>
       <r>    6.6266    1.0000 </r>
       <r>    7.2750    1.0000 </r>
       <r>    7.8560    1.0003 </r>
       <r>    9.2552   -0.0000 </r>
       <r>   19.3152    0.0000 </r>
       <r>   23.2497    0.0000 </r>
       <r>   31.7314    0.0000 </r>
       <r>   31.7595    0.0000 </r>
       <r>   38.2703    0.0000 </r>
       <r>   39.1191    0.0000 </r>
      </set>
      <set comment="kpoint 24">
       <r>    2.8187    1.0000 </r>
       <r>    6.2754    1.0000 </r>
       <r>    6.8889    1.0000 </r>
       <r>    7.4180    1.0000 </r>
       <r>    7.4675    1.0000 </r>
       <r>    8.5653    0.0165 </r>
       <r>   23.1604    0.0000 </r>
       <r>   23.8757    0.0000 </r>
       <r>   33.4615    0.0000 </r>
       <r>   34.3168    0.0000 </r>
       <r>   36.4559    0.0000 </r>
       <r>   39.3688    0.0000 </r>
      </set>
      <set comment="kpoint 25">
       <r>    3.0741    1.0000 </r>
       <r>    5.8665    1.0000 </r>
       <r>    7.2029    1.0000 </r>
       <r>    7.7921    1.0001 </r>
       <r>    7.7921    1.0001 </r>
       <r>    8.1921    1.0322 </r>
       <r>   26.1985    0.0000 </r>
       <r>   26.1986    0.0000 </r>
       <r>   26.6768    0.0000 </r>
       <r>   28.3805    0.0000 </r>
       <r>   31.9965    0.0000 </r>
       <r>   47.0964    0.0000 </r>
      </set>
      <set comment="kpoint 26">
       <r>    3.9652    1.0000 </r>
       <r>    5.6804    1.0000 </r>
       <r>    7.1399    1.0000 </r>
       <r>    7.8832    1.0006 </r>
       <r>    8.4001    0.5428 </r>
       <r>    8.4511    0.3310 </r>
       <r>   22.7599    0.0000 </r>
       <r>   24.4825    0.0000 </r>
       <r>   25.2561    0.0000 </r>
       <r>   29.0228    0.0000 </r>
       <r>   32.8303    0.0000 </r>
       <r>   46.7670    0.0000 </r>
      </set>
      <set comment="kpoint 27">
       <r>    4.7446    1.0000 </r>
       <r>    5.6313    1.0000 </r>
       <r>    6.9656    1.0000 </r>
       <r>    7.7842    1.0000 </r>
       <r>    8.5866   -0.0081 </r>
       <r>    9.9093   -0.0000 </r>
       <r>   18.8873    0.0000 </r>
       <r>   22.4721    0.0000 </r>
       <r>   25.0879    0.0000 </r>
       <r>   29.1731    0.0000 </r>
       <r>   36.0969    0.0000 </r>
       <r>   45.0529    0.0000 </r>
      </set>
      <set comment="kpoint 28">
       <r>    5.2509    1.0000 </r>
       <r>    5.6763    1.0000 </r>
       <r>    6.8051    1.0000 </r>
       <r>    7.6593    1.0000 </r>
       <r>    8.5515    0.0379 </r>
       <r>   12.0753   -0.0000 </r>
       <r>   15.5478    0.0000 </r>
       <r>   20.9340    0.0000 </r>
       <r>   25.7446    0.0000 </r>
       <r>   29.3376    0.0000 </r>
       <r>   40.2567    0.0000 </r>
       <r>   43.6533    0.0000 </r>
      </set>
      <set comment="kpoint 29">
       <r>    5.4749    1.0000 </r>
       <r>    5.8247    1.0000 </r>
       <r>    6.5505    1.0000 </r>
       <r>    7.5540    1.0000 </r>
       <r>    8.3045    0.8854 </r>
       <r>   12.3027   -0.0000 </r>
       <r>   15.4801    0.0000 </r>
       <r>   19.9522    0.0000 </r>
       <r>   27.1670    0.0000 </r>
       <r>   29.7890    0.0000 </r>
       <r>   42.6307    0.0000 </r>
       <r>   42.6631    0.0000 </r>
      </set>
      <set comment="kpoint 30">
       <r>    5.1035    1.0000 </r>
       <r>    6.2180    1.0000 </r>
       <r>    6.2486    1.0000 </r>
       <r>    7.4541    1.0000 </r>
       <r>    7.9981    1.0065 </r>
       <r>   10.4772   -0.0000 </r>
       <r>   18.4317    0.0000 </r>
       <r>   19.9824    0.0000 </r>
       <r>   29.2117    0.0000 </r>
       <r>   30.6158    0.0000 </r>
       <r>   40.6125    0.0000 </r>
       <r>   41.6456    0.0000 </r>
      </set>
      <set comment="kpoint 31">
       <r>    4.2884    1.0000 </r>
       <r>    5.4432    1.0000 </r>
       <r>    8.1325    1.0322 </r>
       <r>    8.3217    0.8370 </r>
       <r>    8.3218    0.8368 </r>
       <r>    8.3673    0.6771 </r>
       <r>   21.8774    0.0000 </r>
       <r>   23.9980    0.0000 </r>
       <r>   23.9981    0.0000 </r>
       <r>   27.7746    0.0000 </r>
       <r>   30.8786    0.0000 </r>
       <r>   50.9390    0.0000 </r>
      </set>
      <set comment="kpoint 32">
       <r>    4.5918    1.0000 </r>
       <r>    5.3504    1.0000 </r>
       <r>    7.9185    1.0014 </r>
       <r>    8.2559    0.9825 </r>
       <r>    8.6068   -0.0232 </r>
       <r>    9.9337   -0.0000 </r>
       <r>   19.8147    0.0000 </r>
       <r>   21.3554    0.0000 </r>
       <r>   23.5406    0.0000 </r>
       <r>   28.4519    0.0000 </r>
       <r>   32.0889    0.0000 </r>
       <r>   48.9933    0.0000 </r>
      </set>
      <set comment="kpoint 33">
       <r>    4.9275    1.0000 </r>
       <r>    5.4201    1.0000 </r>
       <r>    7.4548    1.0000 </r>
       <r>    8.1149    1.0287 </r>
       <r>    8.6158   -0.0278 </r>
       <r>   12.1908   -0.0000 </r>
       <r>   17.8030    0.0000 </r>
       <r>   18.5169    0.0000 </r>
       <r>   23.9738    0.0000 </r>
       <r>   28.8573    0.0000 </r>
       <r>   35.6171    0.0000 </r>
       <r>   47.1953    0.0000 </r>
      </set>
      <set comment="kpoint 34">
       <r>    5.3292    1.0000 </r>
       <r>    5.5712    1.0000 </r>
       <r>    6.9165    1.0000 </r>
       <r>    7.8905    1.0007 </r>
       <r>    8.4499    0.3358 </r>
       <r>   14.4726    0.0000 </r>
       <r>   14.8199    0.0000 </r>
       <r>   18.0510    0.0000 </r>
       <r>   25.2369    0.0000 </r>
       <r>   29.2175    0.0000 </r>
       <r>   40.1038    0.0000 </r>
       <r>   45.2913    0.0000 </r>
      </set>
      <set comment="kpoint 35">
       <r>    4.5215    1.0000 </r>
       <r>    5.2000    1.0000 </r>
       <r>    8.4689    0.2634 </r>
       <r>    8.6816   -0.0332 </r>
       <r>    8.6817   -0.0332 </r>
       <r>   10.2695   -0.0000 </r>
       <r>   18.0028    0.0000 </r>
       <r>   22.7747    0.0000 </r>
       <r>   22.7748    0.0000 </r>
       <r>   27.4906    0.0000 </r>
       <r>   30.5425    0.0000 </r>
       <r>   51.3865    0.0000 </r>
      </set>
      <set comment="kpoint 36">
       <r>    4.6339    1.0000 </r>
       <r>    5.2303    1.0000 </r>
       <r>    8.2692    0.9618 </r>
       <r>    8.3969    0.5563 </r>
       <r>    8.7013   -0.0296 </r>
       <r>   11.4582   -0.0000 </r>
       <r>   17.3375    0.0000 </r>
       <r>   20.8014    0.0000 </r>
       <r>   22.9271    0.0000 </r>
       <r>   28.2791    0.0000 </r>
       <r>   31.8949    0.0000 </r>
       <r>   50.0440    0.0000 </r>
      </set>
      <set comment="kpoint 37">
       <r>    1.7871    1.0000 </r>
       <r>    6.3483    1.0000 </r>
       <r>    7.0734    1.0000 </r>
       <r>    7.3257    1.0000 </r>
       <r>    7.5394    1.0000 </r>
       <r>    8.1131    1.0283 </r>
       <r>   25.9485    0.0000 </r>
       <r>   26.5868    0.0000 </r>
       <r>   32.5074    0.0000 </r>
       <r>   32.9830    0.0000 </r>
       <r>   36.5468    0.0000 </r>
       <r>   39.9062    0.0000 </r>
      </set>
      <set comment="kpoint 38">
       <r>    3.0394    1.0000 </r>
       <r>    6.1926    1.0000 </r>
       <r>    6.8508    1.0000 </r>
       <r>    7.3485    1.0000 </r>
       <r>    7.8037    1.0001 </r>
       <r>    8.5266    0.0884 </r>
       <r>   21.8075    0.0000 </r>
       <r>   25.6177    0.0000 </r>
       <r>   30.4665    0.0000 </r>
       <r>   33.4147    0.0000 </r>
       <r>   37.2831    0.0000 </r>
       <r>   39.0134    0.0000 </r>
      </set>
      <set comment="kpoint 39">
       <r>    4.2694    1.0000 </r>
       <r>    6.2633    1.0000 </r>
       <r>    6.6521    1.0000 </r>
       <r>    7.2230    1.0000 </r>
       <r>    8.2252    1.0156 </r>
       <r>    9.2134   -0.0000 </r>
       <r>   17.8527    0.0000 </r>
       <r>   25.4342    0.0000 </r>
       <r>   28.5489    0.0000 </r>
       <r>   32.7671    0.0000 </r>
       <r>   37.1776    0.0000 </r>
       <r>   40.6069    0.0000 </r>
      </set>
      <set comment="kpoint 40">
       <r>    4.8228    1.0000 </r>
       <r>    6.3295    1.0000 </r>
       <r>    6.8590    1.0000 </r>
       <r>    7.1291    1.0000 </r>
       <r>    8.4671    0.2700 </r>
       <r>   10.3948   -0.0000 </r>
       <r>   14.7708    0.0000 </r>
       <r>   25.7547    0.0000 </r>
       <r>   27.1114    0.0000 </r>
       <r>   32.2608    0.0000 </r>
       <r>   36.8508    0.0000 </r>
       <r>   41.0913    0.0000 </r>
      </set>
      <set comment="kpoint 41">
       <r>    3.3885    1.0000 </r>
       <r>    5.9249    1.0000 </r>
       <r>    6.8849    1.0000 </r>
       <r>    7.7939    1.0001 </r>
       <r>    7.8255    1.0001 </r>
       <r>    8.5112    0.1273 </r>
       <r>   23.7079    0.0000 </r>
       <r>   24.2045    0.0000 </r>
       <r>   27.3454    0.0000 </r>
       <r>   31.4051    0.0000 </r>
       <r>   34.2395    0.0000 </r>
       <r>   42.5340    0.0000 </r>
      </set>
      <set comment="kpoint 42">
       <r>    4.4636    1.0000 </r>
       <r>    5.8455    1.0000 </r>
       <r>    6.6444    1.0000 </r>
       <r>    7.6960    1.0000 </r>
       <r>    8.2716    0.9574 </r>
       <r>    9.3713   -0.0000 </r>
       <r>   19.8317    0.0000 </r>
       <r>   23.6114    0.0000 </r>
       <r>   25.2178    0.0000 </r>
       <r>   31.9566    0.0000 </r>
       <r>   36.5334    0.0000 </r>
       <r>   41.2184    0.0000 </r>
      </set>
      <set comment="kpoint 43">
       <r>    5.1556    1.0000 </r>
       <r>    5.8649    1.0000 </r>
       <r>    6.5778    1.0000 </r>
       <r>    7.5465    1.0000 </r>
       <r>    8.4956    0.1727 </r>
       <r>   10.9953   -0.0000 </r>
       <r>   16.2548    0.0000 </r>
       <r>   23.2560    0.0000 </r>
       <r>   24.1089    0.0000 </r>
       <r>   32.0455    0.0000 </r>
       <r>   38.7805    0.0000 </r>
       <r>   41.7006    0.0000 </r>
      </set>
      <set comment="kpoint 44">
       <r>    5.3801    1.0000 </r>
       <r>    5.8821    1.0000 </r>
       <r>    6.5901    1.0000 </r>
       <r>    7.4518    1.0000 </r>
       <r>    8.4474    0.3456 </r>
       <r>   12.2395   -0.0000 </r>
       <r>   14.5810    0.0000 </r>
       <r>   22.1254    0.0000 </r>
       <r>   24.9269    0.0000 </r>
       <r>   32.4937    0.0000 </r>
       <r>   38.3666    0.0000 </r>
       <r>   44.8370    0.0000 </r>
      </set>
      <set comment="kpoint 45">
       <r>    5.1189    1.0000 </r>
       <r>    6.0863    1.0000 </r>
       <r>    6.3398    1.0000 </r>
       <r>    7.4912    1.0000 </r>
       <r>    8.1875    1.0333 </r>
       <r>   10.5627   -0.0000 </r>
       <r>   17.3863    0.0000 </r>
       <r>   21.4885    0.0000 </r>
       <r>   26.3861    0.0000 </r>
       <r>   33.5104    0.0000 </r>
       <r>   37.4723    0.0000 </r>
       <r>   42.7652    0.0000 </r>
      </set>
      <set comment="kpoint 46">
       <r>    4.2080    1.0000 </r>
       <r>    6.0788    1.0000 </r>
       <r>    6.5417    1.0000 </r>
       <r>    7.5607    1.0000 </r>
       <r>    7.8350    1.0002 </r>
       <r>    9.3044   -0.0000 </r>
       <r>   20.8585    0.0000 </r>
       <r>   21.7854    0.0000 </r>
       <r>   28.3045    0.0000 </r>
       <r>   35.0805    0.0000 </r>
       <r>   35.8728    0.0000 </r>
       <r>   40.3344    0.0000 </r>
      </set>
      <set comment="kpoint 47">
       <r>    4.5449    1.0000 </r>
       <r>    5.5458    1.0000 </r>
       <r>    7.1910    1.0000 </r>
       <r>    8.2080    1.0262 </r>
       <r>    8.3201    0.8418 </r>
       <r>    9.4509   -0.0000 </r>
       <r>   21.9307    0.0000 </r>
       <r>   21.9842    0.0000 </r>
       <r>   22.7122    0.0000 </r>
       <r>   30.3514    0.0000 </r>
       <r>   33.1237    0.0000 </r>
       <r>   45.1288    0.0000 </r>
      </set>
      <set comment="kpoint 48">
       <r>    5.0011    1.0000 </r>
       <r>    5.5692    1.0000 </r>
       <r>    6.9944    1.0000 </r>
       <r>    8.0215    1.0096 </r>
       <r>    8.5652    0.0168 </r>
       <r>   11.2929   -0.0000 </r>
       <r>   18.4774    0.0000 </r>
       <r>   20.3635    0.0000 </r>
       <r>   22.3965    0.0000 </r>
       <r>   31.2132    0.0000 </r>
       <r>   35.9771    0.0000 </r>
       <r>   43.4983    0.0000 </r>
      </set>
      <set comment="kpoint 49">
       <r>    5.3824    1.0000 </r>
       <r>    5.6627    1.0000 </r>
       <r>    6.7088    1.0000 </r>
       <r>    7.8062    1.0001 </r>
       <r>    8.5412    0.0569 </r>
       <r>   13.7419   -0.0000 </r>
       <r>   15.3187    0.0000 </r>
       <r>   19.0989    0.0000 </r>
       <r>   23.1744    0.0000 </r>
       <r>   31.7150    0.0000 </r>
       <r>   40.0773    0.0000 </r>
       <r>   42.0379    0.0000 </r>
      </set>
      <set comment="kpoint 50">
       <r>    5.6191    1.0000 </r>
       <r>    5.7982    1.0000 </r>
       <r>    6.3459    1.0000 </r>
       <r>    7.6644    1.0000 </r>
       <r>    8.3422    0.7704 </r>
       <r>   12.5043   -0.0000 </r>
       <r>   16.5490    0.0000 </r>
       <r>   18.8698    0.0000 </r>
       <r>   24.5550    0.0000 </r>
       <r>   32.5338    0.0000 </r>
       <r>   39.8846    0.0000 </r>
       <r>   43.9128    0.0000 </r>
      </set>
      <set comment="kpoint 51">
       <r>    4.7341    1.0000 </r>
       <r>    5.3262    1.0000 </r>
       <r>    7.8070    1.0001 </r>
       <r>    8.3176    0.8493 </r>
       <r>    8.6825   -0.0331 </r>
       <r>   11.4181   -0.0000 </r>
       <r>   18.1712    0.0000 </r>
       <r>   20.9063    0.0000 </r>
       <r>   21.5214    0.0000 </r>
       <r>   29.8520    0.0000 </r>
       <r>   32.7116    0.0000 </r>
       <r>   47.4443    0.0000 </r>
      </set>
      <set comment="kpoint 52">
       <r>    5.0034    1.0000 </r>
       <r>    5.4730    1.0000 </r>
       <r>    7.2946    1.0000 </r>
       <r>    8.0945    1.0240 </r>
       <r>    8.6795   -0.0335 </r>
       <r>   13.1534   -0.0000 </r>
       <r>   17.4547    0.0000 </r>
       <r>   18.1435    0.0000 </r>
       <r>   21.9071    0.0000 </r>
       <r>   30.9740    0.0000 </r>
       <r>   35.8041    0.0000 </r>
       <r>   44.9954    0.0000 </r>
      </set>
      <set comment="kpoint 53">
       <r>    5.1636    1.0000 </r>
       <r>    5.8541    1.0000 </r>
       <r>    6.3837    1.0000 </r>
       <r>    7.8595    1.0003 </r>
       <r>    8.3197    0.8430 </r>
       <r>   10.8194   -0.0000 </r>
       <r>   19.0983    0.0000 </r>
       <r>   20.3375    0.0000 </r>
       <r>   23.1272    0.0000 </r>
       <r>   34.7312    0.0000 </r>
       <r>   36.2966    0.0000 </r>
       <r>   40.5381    0.0000 </r>
      </set>
      <set comment="kpoint 54">
       <r>    5.5099    1.0000 </r>
       <r>    5.8788    1.0000 </r>
       <r>    6.3083    1.0000 </r>
       <r>    7.7186    1.0000 </r>
       <r>    8.5267    0.0881 </r>
       <r>   12.9597   -0.0000 </r>
       <r>   16.0773    0.0000 </r>
       <r>   20.3842    0.0000 </r>
       <r>   21.5523    0.0000 </r>
       <r>   35.2454    0.0000 </r>
       <r>   37.4255    0.0000 </r>
       <r>   41.8592    0.0000 </r>
      </set>
      <set comment="kpoint 55">
       <r>    5.2136    1.0000 </r>
       <r>    5.7119    1.0000 </r>
       <r>    6.7458    1.0000 </r>
       <r>    7.9196    1.0014 </r>
[...]
       </set>
       <set comment="band 5">
        <r>  0.0000  0.0022  0.0015  0.0001  0.1749  0.6578  0.0487  0.0114  0.0868 </r>
       </set>
       <set comment="band 6">
        <r>  0.1224  0.0076  0.1077  0.0516  0.0014  0.0024  0.1092  0.3777  0.0970 </r>
       </set>
       <set comment="band 7">
        <r>  0.1550  0.2743  0.0097  0.0401  0.1561  0.0882  0.0124  0.0278  0.0184 </r>
       </set>
       <set comment="band 8">
        <r>  0.1616  0.1706  0.0210  0.0939  0.0597  0.0307  0.0465  0.0361  0.0867 </r>
       </set>
       <set comment="band 9">
        <r>  0.0900  0.0041  0.2866  0.0325  0.0004  0.0026  0.2325  0.0365  0.0015 </r>
       </set>
       <set comment="band 10">
        <r>  0.0114  0.0099  0.0265  0.2738  0.0086  0.0001  0.0061  0.0580  0.0842 </r>
       </set>
       <set comment="band 11">
        <r>  0.0273  0.0524  0.0020  0.0007  0.3447  0.0268  0.0242  0.0460  0.0784 </r>
       </set>
       <set comment="band 12">
        <r>  0.0774  0.0298  0.0644  0.1487  0.0207  0.0062  0.2222  0.0634  0.1054 </r>
       </set>
      </set>
      <set comment="kpoint 46">
       <set comment="band 1">
        <r>  0.3098  0.0000  0.1370  0.0625  0.0000  0.0000  0.0719  0.1374  0.0080 </r>
       </set>
       <set comment="band 2">
        <r>  0.0000  0.0371  0.0000  0.0000  0.7158  0.1753  0.0000  0.0000  0.0000 </r>
       </set>
       <set comment="band 3">
        <r>  0.0040  0.0000  0.0000  0.0084  0.0000  0.0000  0.4327  0.3336  0.1611 </r>
       </set>
       <set comment="band 4">
        <r>  0.0036  0.0000  0.0138  0.0018  0.0000  0.0000  0.3309  0.0130  0.6019 </r>
       </set>
       <set comment="band 5">
        <r>  0.0000  0.0033  0.0000  0.0000  0.2057  0.7701  0.0000  0.0000  0.0000 </r>
       </set>
       <set comment="band 6">
        <r>  0.0689  0.0000  0.0421  0.0199  0.0000  0.0000  0.1202  0.4953  0.2008 </r>
       </set>
       <set comment="band 7">
        <r>  0.0000  0.4205  0.0000  0.0000  0.2218  0.1432  0.0000  0.0000  0.0000 </r>
       </set>
       <set comment="band 8">
        <r>  0.2333  0.0000  0.0528  0.1804  0.0000  0.0000  0.0464  0.0950  0.0623 </r>
       </set>
       <set comment="band 9">
        <r>  0.0717  0.0000  0.2767  0.0052  0.0000  0.0000  0.2839  0.0146  0.0009 </r>
       </set>
       <set comment="band 10">
        <r>  0.0004  0.0000  0.0449  0.3272  0.0000  0.0000  0.0172  0.0079  0.0996 </r>
       </set>
       <set comment="band 11">
        <r>  0.0000  0.1046  0.0000  0.0000  0.3707  0.0317  0.0000  0.0000  0.0000 </r>
       </set>
       <set comment="band 12">
        <r>  0.1198  0.0000  0.1148  0.0861  0.0000  0.0000  0.1885  0.1010  0.1854 </r>
       </set>
      </set>
      <set comment="kpoint 47">
       <set comment="band 1">
        <r>  0.1506  0.0893  0.0000  0.0140  0.0152  0.0000  0.1515  0.0000  0.3711 </r>
       </set>
       <set comment="band 2">
        <r>  0.0000  0.0000  0.0116  0.0000  0.0000  0.0108  0.0000  0.9050  0.0000 </r>
       </set>
       <set comment="band 3">
        <r>  0.0536  0.1007  0.0000  0.0013  0.5102  0.0000  0.1532  0.0000  0.0859 </r>
       </set>
       <set comment="band 4">
        <r>  0.0061  0.0197  0.0000  0.0027  0.0001  0.0000  0.5217  0.0000  0.4248 </r>
       </set>
       <set comment="band 5">
        <r>  0.0000  0.0000  0.0066  0.0000  0.0000  0.9641  0.0000  0.0146  0.0000 </r>
       </set>
       <set comment="band 6">
        <r>  0.0906  0.1439  0.0000  0.0105  0.4570  0.0000  0.1392  0.0000  0.0563 </r>
       </set>
       <set comment="band 7">
        <r>  0.0000  0.0000  0.4766  0.0000  0.0000  0.0614  0.0000  0.2018  0.0000 </r>
       </set>
       <set comment="band 8">
        <r>  0.0152  0.1172  0.0000  0.1494  0.0401  0.0000  0.1327  0.0000  0.2203 </r>
       </set>
       <set comment="band 9">
        <r>  0.2716  0.1239  0.0000  0.2505  0.0244  0.0000  0.0012  0.0000  0.0419 </r>
       </set>
       <set comment="band 10">
        <r>  0.0000  0.0000  0.0997  0.0000  0.0000  0.0140  0.0000  0.6188  0.0000 </r>
       </set>
       <set comment="band 11">
        <r>  0.2624  0.0776  0.0000  0.1767  0.0118  0.0000  0.0187  0.0000  0.1093 </r>
       </set>
       <set comment="band 12">
        <r>  0.0359  0.0012  0.0000  0.0476  0.0981  0.0000  0.0549  0.0000  0.2147 </r>
       </set>
      </set>
      <set comment="kpoint 48">
       <set comment="band 1">
        <r>  0.0609  0.0347  0.0008  0.0226  0.0134  0.0024  0.2343  0.0248  0.4477 </r>
       </set>
       <set comment="band 2">
        <r>  0.0005  0.0000  0.0278  0.0059  0.0038  0.0120  0.0109  0.8426  0.0150 </r>
       </set>
       <set comment="band 3">
        <r>  0.0291  0.1038  0.0002  0.0002  0.6256  0.0383  0.0818  0.0164  0.0132 </r>
       </set>
       <set comment="band 4">
        <r>  0.0000  0.0097  0.0013  0.0036  0.0002  0.1297  0.4863  0.0020  0.3432 </r>
       </set>
       <set comment="band 5">
        <r>  0.0002  0.0002  0.0019  0.0001  0.0877  0.7709  0.0745  0.0103  0.0459 </r>
       </set>
       <set comment="band 6">
        <r>  0.1073  0.2764  0.0042  0.0186  0.2674  0.0294  0.0601  0.0008  0.0645 </r>
       </set>
       <set comment="band 7">
        <r>  0.0989  0.0000  0.2696  0.1256  0.0153  0.0224  0.0313  0.1559  0.0162 </r>
       </set>
       <set comment="band 8">
        <r>  0.2068  0.1856  0.0027  0.0229  0.0183  0.0004  0.0838  0.0086  0.2133 </r>
       </set>
       <set comment="band 9">
        <r>  0.1311  0.0123  0.2177  0.1887  0.0104  0.0115  0.0619  0.0610  0.0006 </r>
       </set>
       <set comment="band 10">
        <r>  0.0574  0.0079  0.0559  0.0575  0.0008  0.0043  0.0011  0.4550  0.0367 </r>
       </set>
       <set comment="band 11">
        <r>  0.1377  0.0243  0.0386  0.1975  0.0020  0.0024  0.0182  0.1343  0.1016 </r>
       </set>
       <set comment="band 12">
        <r>  0.0487  0.0094  0.0020  0.0256  0.2064  0.0031  0.0392  0.0014  0.1675 </r>
       </set>
      </set>
      <set comment="kpoint 49">
       <set comment="band 1">
        <r>  0.0197  0.0076  0.0017  0.0259  0.0061  0.0024  0.3077  0.0766  0.4252 </r>
       </set>
       <set comment="band 2">
        <r>  0.0116  0.0008  0.0511  0.0217  0.0155  0.0108  0.0386  0.7231  0.0253 </r>
       </set>
       <set comment="band 3">
        <r>  0.0052  0.1006  0.0015  0.0003  0.6554  0.0967  0.0128  0.0383  0.0010 </r>
       </set>
       <set comment="band 4">
        <r>  0.0025  0.0022  0.0029  0.0026  0.0007  0.0534  0.5037  0.0004  0.4037 </r>
       </set>
       <set comment="band 5">
        <r>  0.0006  0.0007  0.0001  0.0000  0.1539  0.7801  0.0288  0.0054  0.0215 </r>
       </set>
       <set comment="band 6">
        <r>  0.0247  0.3515  0.0404  0.0467  0.1683  0.0422  0.0428  0.0141  0.0509 </r>
       </set>
       <set comment="band 7">
        <r>  0.2002  0.0310  0.1921  0.0802  0.0334  0.0221  0.0273  0.1784  0.0114 </r>
       </set>
       <set comment="band 8">
        <r>  0.2915  0.1152  0.0023  0.0455  0.0211  0.0048  0.0733  0.0121  0.1833 </r>
       </set>
       <set comment="band 9">
        <r>  0.1081  0.0023  0.2605  0.1365  0.0018  0.0030  0.1268  0.0623  0.0006 </r>
       </set>
       <set comment="band 10">
        <r>  0.0667  0.0033  0.0298  0.1297  0.0001  0.0006  0.0001  0.3113  0.0776 </r>
       </set>
       <set comment="band 11">
        <r>  0.0482  0.0128  0.0442  0.1948  0.0170  0.0028  0.0299  0.2319  0.0471 </r>
       </set>
       <set comment="band 12">
        <r>  0.0499  0.0248  0.0121  0.0008  0.3079  0.0086  0.0070  0.0065  0.1092 </r>
       </set>
      </set>
      <set comment="kpoint 50">
       <set comment="band 1">
        <r>  0.0365  0.0000  0.0803  0.0631  0.0000  0.0000  0.2231  0.3263  0.1122 </r>
       </set>
       <set comment="band 2">
        <r>  0.0239  0.0000  0.0045  0.0045  0.0000  0.0000  0.2173  0.4134  0.2493 </r>
       </set>
       <set comment="band 3">
        <r>  0.0000  0.0842  0.0000  0.0000  0.6802  0.1502  0.0000  0.0000  0.0000 </r>
       </set>
       <set comment="band 4">
        <r>  0.0017  0.0000  0.0082  0.0002  0.0000  0.0000  0.4326  0.0068  0.5196 </r>
       </set>
       <set comment="band 5">
        <r>  0.0000  0.0021  0.0000  0.0000  0.1947  0.7904  0.0000  0.0000  0.0000 </r>
       </set>
       <set comment="band 6">
        <r>  0.1536  0.0000  0.1768  0.0857  0.0000  0.0000  0.0743  0.2668  0.0545 </r>
       </set>
       <set comment="band 7">
        <r>  0.0000  0.4879  0.0000  0.0000  0.2075  0.0908  0.0000  0.0000  0.0000 </r>
       </set>
       <set comment="band 8">
        <r>  0.3691  0.0000  0.0158  0.0920  0.0000  0.0000  0.0701  0.0315  0.1535 </r>
       </set>
       <set comment="band 9">
        <r>  0.0997  0.0000  0.2786  0.0828  0.0000  0.0000  0.1890  0.0543  0.0010 </r>
       </set>
       <set comment="band 10">
        <r>  0.0464  0.0000  0.0215  0.1974  0.0000  0.0000  0.0015  0.1856  0.1046 </r>
       </set>
       <set comment="band 11">
        <r>  0.0000  0.0626  0.0000  0.0000  0.3978  0.0175  0.0000  0.0000  0.0000 </r>
       </set>
       <set comment="band 12">
        <r>  0.0216  0.0000  0.0000  0.2842  0.0000  0.0000  0.1683  0.2662  0.0299 </r>
       </set>
      </set>
      <set comment="kpoint 51">
       <set comment="band 1">
        <r>  0.0512  0.0083  0.0000  0.0116  0.0009  0.0000  0.2280  0.0000  0.5498 </r>
       </set>
       <set comment="band 2">
        <r>  0.0000  0.0000  0.0123  0.0000  0.0000  0.0011  0.0000  0.9101  0.0000 </r>
       </set>
       <set comment="band 3">
        <r>  0.0084  0.1080  0.0000  0.0006  0.7645  0.0000  0.0452  0.0000  0.0001 </r>
       </set>
       <set comment="band 4">
        <r>  0.0000  0.0064  0.0000  0.0023  0.0261  0.0000  0.6488  0.0000  0.3015 </r>
       </set>
       <set comment="band 5">
        <r>  0.0000  0.0000  0.0011  0.0000  0.0000  0.9911  0.0000  0.0016  0.0000 </r>
       </set>
       <set comment="band 6">
        <r>  0.0515  0.4567  0.0000  0.0036  0.2122  0.0000  0.0189  0.0000  0.0321 </r>
       </set>
       <set comment="band 7">
        <r>  0.2872  0.0782  0.0000  0.0243  0.0052  0.0000  0.1060  0.0000  0.2792 </r>
       </set>
       <set comment="band 8">
        <r>  0.0000  0.0000  0.5221  0.0000  0.0000  0.0081  0.0000  0.1860  0.0000 </r>
       </set>
       <set comment="band 9">
        <r>  0.1708  0.0028  0.0000  0.4234  0.0066  0.0000  0.0480  0.0000  0.0019 </r>
       </set>
       <set comment="band 10">
        <r>  0.0000  0.0000  0.0865  0.0000  0.0000  0.0013  0.0000  0.6913  0.0000 </r>
       </set>
       <set comment="band 11">
        <r>  0.3009  0.0087  0.0000  0.1588  0.0012  0.0000  0.0310  0.0000  0.1744 </r>
       </set>
       <set comment="band 12">
        <r>  0.0128  0.0163  0.0000  0.0154  0.2050  0.0000  0.0202  0.0000  0.0516 </r>
       </set>
      </set>
      <set comment="kpoint 52">
       <set comment="band 1">
        <r>  0.0287  0.0000  0.0014  0.0221  0.0000  0.0000  0.2785  0.0095  0.5207 </r>
       </set>
       <set comment="band 2">
        <r>  0.0010  0.0000  0.0281  0.0045  0.0000  0.0000  0.0030  0.8780  0.0034 </r>
       </set>
       <set comment="band 3">
        <r>  0.0000  0.1199  0.0000  0.0000  0.7401  0.0560  0.0000  0.0000  0.0000 </r>
       </set>
       <set comment="band 4">
        <r>  0.0028  0.0000  0.0007  0.0039  0.0000  0.0000  0.6306  0.0002  0.3416 </r>
       </set>
       <set comment="band 5">
        <r>  0.0000  0.0006  0.0000  0.0000  0.0771  0.9162  0.0000  0.0000  0.0000 </r>
       </set>
       <set comment="band 6">
        <r>  0.0000  0.5282  0.0000  0.0000  0.2127  0.0273  0.0000  0.0000  0.0000 </r>
       </set>
       <set comment="band 7">
        <r>  0.1309  0.0000  0.0874  0.1229  0.0000  0.0000  0.1353  0.0271  0.2504 </r>
       </set>
       <set comment="band 8">
        <r>  0.3471  0.0000  0.2031  0.0422  0.0000  0.0000  0.0003  0.1416  0.0268 </r>
       </set>
       <set comment="band 9">
        <r>  0.1167  0.0000  0.2219  0.2094  0.0000  0.0000  0.0785  0.0590  0.0000 </r>
       </set>
       <set comment="band 10">
        <r>  0.0601  0.0000  0.0544  0.0506  0.0000  0.0000  0.0016  0.4928  0.0456 </r>
       </set>
       <set comment="band 11">
        <r>  0.1621  0.0000  0.0372  0.1880  0.0000  0.0000  0.0207  0.1315  0.1413 </r>
       </set>
       <set comment="band 12">
        <r>  0.0000  0.0341  0.0000  0.0000  0.3178  0.0049  0.0000  0.0000  0.0000 </r>
       </set>
      </set>
      <set comment="kpoint 53">
       <set comment="band 1">
        <r>  0.0978  0.0858  0.0000  0.0467  0.0850  0.0000  0.2244  0.0000  0.2690 </r>
       </set>
       <set comment="band 2">
        <r>  0.0000  0.0000  0.0428  0.0000  0.0000  0.0501  0.0000  0.8292  0.0000 </r>
       </set>
       <set comment="band 3">
        <r>  0.0349  0.0458  0.0000  0.0015  0.5433  0.0000  0.2330  0.0000  0.0585 </r>
       </set>
       <set comment="band 4">
        <r>  0.0002  0.0178  0.0000  0.0034  0.0081  0.0000  0.3600  0.0000  0.5793 </r>
       </set>
       <set comment="band 5">
        <r>  0.0000  0.0000  0.0049  0.0000  0.0000  0.9144  0.0000  0.0667  0.0000 </r>
       </set>
       <set comment="band 6">
        <r>  0.1308  0.1674  0.0000  0.0322  0.3601  0.0000  0.1295  0.0000  0.0443 </r>
       </set>
       <set comment="band 7">
        <r>  0.0000  0.0000  0.4733  0.0000  0.0000  0.0678  0.0000  0.2350  0.0000 </r>
       </set>
       <set comment="band 8">
        <r>  0.2412  0.0075  0.0000  0.2247  0.0488  0.0000  0.1509  0.0000  0.0113 </r>
       </set>
       <set comment="band 9">
        <r>  0.1800  0.2630  0.0000  0.0126  0.0241  0.0000  0.0469  0.0000  0.1951 </r>
       </set>
       <set comment="band 10">
        <r>  0.0000  0.0000  0.0932  0.0000  0.0000  0.0168  0.0000  0.4979  0.0000 </r>
       </set>
       <set comment="band 11">
        <r>  0.0292  0.0563  0.0000  0.3624  0.0110  0.0000  0.0313  0.0000  0.0074 </r>
       </set>
       <set comment="band 12">
        <r>  0.1555  0.0033  0.0000  0.0090  0.2023  0.0000  0.0328  0.0000  0.3654 </r>
       </set>
      </set>
      <set comment="kpoint 54">
       <set comment="band 1">
        <r>  0.0158  0.0303  0.0002  0.0499  0.0353  0.0031  0.4447  0.0218  0.2559 </r>
       </set>
       <set comment="band 2">
        <r>  0.0210  0.0134  0.0461  0.0038  0.1957  0.0430  0.0710  0.5057  0.0061 </r>
       </set>
       <set comment="band 3">
        <r>  0.0108  0.0517  0.0212  0.0018  0.5123  0.0003  0.0372  0.2791  0.0008 </r>
       </set>
       <set comment="band 4">
        <r>  0.0037  0.0079  0.0012  0.0007  0.0072  0.0447  0.2797  0.0003  0.6236 </r>
       </set>
       <set comment="band 5">
        <r>  0.0008  0.0000  0.0018  0.0000  0.0263  0.8724  0.0125  0.0504  0.0263 </r>
       </set>
       <set comment="band 6">
        <r>  0.1060  0.2554  0.0154  0.0600  0.2310  0.0061  0.0821  0.0029  0.0412 </r>
       </set>
       <set comment="band 7">
        <r>  0.1539  0.0008  0.3126  0.0342  0.0180  0.0365  0.0319  0.1921  0.0016 </r>
       </set>
       <set comment="band 8">
        <r>  0.1291  0.0005  0.1510  0.1388  0.0215  0.0059  0.1953  0.0541  0.0121 </r>
       </set>
       <set comment="band 9">
        <r>  0.2551  0.2284  0.0142  0.0284  0.0367  0.0039  0.0215  0.0000  0.1469 </r>
       </set>
       <set comment="band 10">
        <r>  0.0027  0.0219  0.0363  0.2042  0.0362  0.0016  0.0115  0.1767  0.0062 </r>
       </set>
       <set comment="band 11">
        <r>  0.0193  0.0177  0.0242  0.0481  0.1569  0.0082  0.0414  0.2355  0.0490 </r>
       </set>
       <set comment="band 12">
        <r>  0.0939  0.0002  0.0165  0.1745  0.1518  0.0001  0.0000  0.0666  0.2276 </r>
       </set>
      </set>
      <set comment="kpoint 55">
       <set comment="band 1">
        <r>  0.0181  0.0070  0.0000  0.0387  0.0031  0.0000  0.3774  0.0000  0.4151 </r>
       </set>
       <set comment="band 2">
        <r>  0.0000  0.0000  0.0455  0.0000  0.0000  0.0050  0.0000  0.8682  0.0000 </r>
       </set>
       <set comment="band 3">
        <r>  0.0098  0.1028  0.0000  0.0000  0.7726  0.0000  0.0259  0.0000  0.0000 </r>
       </set>
       <set comment="band 4">
        <r>  0.0062  0.0040  0.0000  0.0031  0.0108  0.0000  0.4780  0.0000  0.4707 </r>
       </set>
       <set comment="band 5">
        <r>  0.0000  0.0000  0.0010  0.0000  0.0000  0.9855  0.0000  0.0074  0.0000 </r>
       </set>
       <set comment="band 6">
        <r>  0.0675  0.4012  0.0000  0.0173  0.2419  0.0000  0.0295  0.0000  0.0306 </r>
       </set>
       <set comment="band 7">
        <r>  0.0000  0.0000  0.5058  0.0000  0.0000  0.0092  0.0000  0.2476  0.0000 </r>
       </set>
       <set comment="band 8">
        <r>  0.1046  0.0909  0.0000  0.1417  0.0268  0.0000  0.1635  0.0000  0.2038 </r>
       </set>
       <set comment="band 9">
        <r>  0.4716  0.0194  0.0000  0.1436  0.0007  0.0000  0.0791  0.0000  0.0075 </r>
       </set>
       <set comment="band 10">
        <r>  0.0000  0.0000  0.0891  0.0000  0.0000  0.0020  0.0000  0.5533  0.0000 </r>
       </set>
       <set comment="band 11">
        <r>  0.1169  0.0108  0.0000  0.3431  0.0016  0.0000  0.0177  0.0000  0.1430 </r>
       </set>
       <set comment="band 12">
        <r>  0.0393  0.0316  0.0000  0.0008  0.3415  0.0000  0.0137  0.0000  0.0890 </r>
       </set>
      </set>
      <set comment="kpoint 56">
       <set comment="band 1">
        <r>  0.0012  0.0000  0.0029  0.0486  0.0000  0.0000  0.5256  0.0001  0.2878 </r>
       </set>
       <set comment="band 2">
        <r>  0.0072  0.0000  0.0663  0.0016  0.0000  0.0000  0.0002  0.8339  0.0034 </r>
       </set>
       <set comment="band 3">
        <r>  0.0000  0.0887  0.0000  0.0000  0.8093  0.0156  0.0000  0.0000  0.0000 </r>
       </set>
       <set comment="band 4">
        <r>  0.0128  0.0000  0.0015  0.0004  0.0000  0.0000  0.3371  0.0034  0.6134 </r>
       </set>
       <set comment="band 5">
        <r>  0.0000  0.0009  0.0000  0.0000  0.0228  0.9704  0.0000  0.0000  0.0000 </r>
       </set>
       <set comment="band 6">
        <r>  0.0000  0.5136  0.0000  0.0000  0.2476  0.0137  0.0000  0.0000  0.0000 </r>
       </set>
       <set comment="band 7">
        <r>  0.0734  0.0000  0.3452  0.0639  0.0000  0.0000  0.0637  0.2065  0.0145 </r>
       </set>
       <set comment="band 8">
        <r>  0.2971  0.0000  0.0050  0.1267  0.0000  0.0000  0.1163  0.0167  0.1781 </r>
       </set>
       <set comment="band 9">
        <r>  0.3043  0.0000  0.1573  0.0844  0.0000  0.0000  0.1407  0.0437  0.0012 </r>
       </set>
       <set comment="band 10">
        <r>  0.0159  0.0000  0.0544  0.1103  0.0000  0.0000  0.0005  0.3524  0.0422 </r>
       </set>
       <set comment="band 11">
        <r>  0.0000  0.0622  0.0000  0.0000  0.4379  0.0023  0.0000  0.0000  0.0000 </r>
       </set>
       <set comment="band 12">
        <r>  0.0154  0.0000  0.0172  0.3499  0.0000  0.0000  0.0445  0.1510  0.0497 </r>
       </set>
      </set>
     </set>
    </set>
   </array>
  </projected>
 </calculation>
 <structure name="finalpos" >
  <crystal>
   <varray name="basis" >
    <v>       1.80000000       1.80000000       0.00000000 </v>
    <v>       0.00000000       1.80000000       1.80000000 </v>
    <v>       1.80000000       0.00000000       1.80000000 </v>
   </varray>
   <i name="volume">     11.66400000 </i>
   <varray name="rec_basis" >
    <v>       0.27777778       0.27777778      -0.27777778 </v>
    <v>      -0.27777778       0.27777778       0.27777778 </v>
    <v>       0.27777778      -0.27777778       0.27777778 </v>
   </varray>
  </crystal>
  <varray name="positions" >
   <v>       0.00000000       0.00000000       0.00000000 </v>
  </varray>
 </structure>
</modeling>
