mpprun info: Starting impi run on 1 node ( 4 rank X 1 th ) for job ID 18772279
 ----------------------------------------------------
    OOO  PPPP  EEEEE N   N M   M PPPP
   O   O P   P E     NN  N MM MM P   P
   O   O PPPP  EEEEE N N N M M M PPPP   -- VERSION
   O   O P     E     N  NN M   M P
    OOO  P     EEEEE N   N M   M P
 ----------------------------------------------------
 running    4 mpi-ranks, with    1 threads/rank
 distrk:  each k-point on    4 cores,    1 groups
 distr:  one band on    1 cores,    4 groups
 vasp.6.3.0 20Jan22 (build Feb 01 2022 16:52:37) complex                        
  
 POSCAR found type information on POSCAR Si
 POSCAR found :  1 types and       2 ions
 scaLAPACK will be used
 LDA part: xc-table for Pade appr. of Perdew
 POSCAR, INCAR and KPOINTS ok, starting setup
 FFT: planning ... GRIDC
 FFT: planning ... GRID_SOFT
 FFT: planning ... GRID
 WAVECAR not read
 entering main loop
       N       E                     dE             d eps       ncg     rms          rms(c)
DAV:   1    -0.199122590362E+01   -0.19912E+01   -0.21479E+03   912   0.430E+02
DAV:   2    -0.104764415442E+02   -0.84852E+01   -0.82138E+01  1408   0.558E+01
DAV:   3    -0.105466336385E+02   -0.70192E-01   -0.70192E-01  1128   0.626E+00
DAV:   4    -0.105467842420E+02   -0.15060E-03   -0.15060E-03  1408   0.272E-01
DAV:   5    -0.105467843240E+02   -0.82052E-07   -0.81888E-07  1192   0.510E-03    0.699E+00
DAV:   6    -0.103235577071E+02    0.22323E+00   -0.16150E-01  1024   0.213E+00    0.437E+00
DAV:   7    -0.102331736856E+02    0.90384E-01   -0.26899E-01  1136   0.288E+00    0.469E-01
DAV:   8    -0.102336904699E+02   -0.51678E-03   -0.61594E-03  1016   0.581E-01    0.842E-02
DAV:   9    -0.102338167858E+02   -0.12632E-03   -0.12200E-04  1248   0.953E-02    0.703E-02
DAV:  10    -0.102338377944E+02   -0.21009E-04   -0.28909E-05   568   0.401E-02
   1 F= -.10233838E+02 E0= -.10233747E+02  d E =-.180914E-03
 writing wavefunctions
mpprun info: Elapsed time (h:m:s):  0:00:01.645254
mpprun info: Starting impi run on 1 node ( 4 rank X 1 th ) for job ID 18772279
 ----------------------------------------------------
    OOO  PPPP  EEEEE N   N M   M PPPP
   O   O P   P E     NN  N MM MM P   P
   O   O PPPP  EEEEE N N N M M M PPPP   -- VERSION
   O   O P     E     N  NN M   M P
    OOO  P     EEEEE N   N M   M P
 ----------------------------------------------------
 running    4 mpi-ranks, with    1 threads/rank
 distrk:  each k-point on    4 cores,    1 groups
 distr:  one band on    1 cores,    4 groups
 vasp.6.3.0 20Jan22 (build Feb 01 2022 16:52:37) complex                        
  
 POSCAR found type information on POSCAR Si
 POSCAR found :  1 types and       2 ions
 scaLAPACK will be used
 LDA part: xc-table for Pade appr. of Perdew
 POSCAR, INCAR and KPOINTS ok, starting setup
 FFT: planning ... GRIDC
 FFT: planning ... GRID_SOFT
 FFT: planning ... GRID
 WAVECAR not read
 entering main loop
       N       E                     dE             d eps       ncg     rms          rms(c)
DAV:   1    -0.240769803625E+01   -0.24077E+01   -0.21364E+03   912   0.431E+02
DAV:   2    -0.107283043188E+02   -0.83206E+01   -0.80329E+01  1448   0.554E+01
DAV:   3    -0.107941532549E+02   -0.65849E-01   -0.65849E-01  1048   0.596E+00
DAV:   4    -0.107943337993E+02   -0.18054E-03   -0.18054E-03  1448   0.326E-01
DAV:   5    -0.107943338460E+02   -0.46698E-07   -0.47792E-07  1096   0.517E-03    0.649E+00
DAV:   6    -0.106059621532E+02    0.18837E+00   -0.13313E-01   992   0.192E+00    0.403E+00
DAV:   7    -0.105273431790E+02    0.78619E-01   -0.23044E-01  1160   0.266E+00    0.369E-01
DAV:   8    -0.105280325406E+02   -0.68936E-03   -0.51983E-03   968   0.533E-01    0.774E-02
DAV:   9    -0.105281762740E+02   -0.14373E-03   -0.13281E-04  1336   0.957E-02    0.657E-02
DAV:  10    -0.105282002120E+02   -0.23938E-04   -0.28553E-05   608   0.406E-02
   1 F= -.10528200E+02 E0= -.10528187E+02  d E =-.271766E-04
 writing wavefunctions
mpprun info: Elapsed time (h:m:s):  0:00:01.424673
mpprun info: Starting impi run on 1 node ( 4 rank X 1 th ) for job ID 18772279
 ----------------------------------------------------
    OOO  PPPP  EEEEE N   N M   M PPPP
   O   O P   P E     NN  N MM MM P   P
   O   O PPPP  EEEEE N N N M M M PPPP   -- VERSION
   O   O P     E     N  NN M   M P
    OOO  P     EEEEE N   N M   M P
 ----------------------------------------------------
 running    4 mpi-ranks, with    1 threads/rank
 distrk:  each k-point on    4 cores,    1 groups
 distr:  one band on    1 cores,    4 groups
 vasp.6.3.0 20Jan22 (build Feb 01 2022 16:52:37) complex                        
  
 POSCAR found type information on POSCAR Si
 POSCAR found :  1 types and       2 ions
 scaLAPACK will be used
 LDA part: xc-table for Pade appr. of Perdew
 POSCAR, INCAR and KPOINTS ok, starting setup
 FFT: planning ... GRIDC
 FFT: planning ... GRID_SOFT
 FFT: planning ... GRID
 WAVECAR not read
 entering main loop
       N       E                     dE             d eps       ncg     rms          rms(c)
DAV:   1    -0.185306480101E+01   -0.18531E+01   -0.20347E+03   904   0.421E+02
DAV:   2    -0.108519652148E+02   -0.89989E+01   -0.87330E+01  1376   0.557E+01
DAV:   3    -0.109380462836E+02   -0.86081E-01   -0.86081E-01  1112   0.676E+00
DAV:   4    -0.109383054797E+02   -0.25920E-03   -0.25920E-03  1432   0.383E-01
DAV:   5    -0.109383055576E+02   -0.77849E-07   -0.77635E-07  1168   0.588E-03    0.603E+00
DAV:   6    -0.107804313486E+02    0.15787E+00   -0.10845E-01  1032   0.172E+00    0.372E+00
DAV:   7    -0.107123229523E+02    0.68108E-01   -0.19523E-01  1136   0.244E+00    0.279E-01
DAV:   8    -0.107131414136E+02   -0.81846E-03   -0.44159E-03  1016   0.488E-01    0.739E-02
DAV:   9    -0.107133121984E+02   -0.17078E-03   -0.16068E-04  1296   0.101E-01    0.628E-02
DAV:  10    -0.107133355682E+02   -0.23370E-04   -0.25373E-05   608   0.384E-02
   1 F= -.10713336E+02 E0= -.10713334E+02  d E =-.215112E-05
 writing wavefunctions
mpprun info: Elapsed time (h:m:s):  0:00:01.465900
mpprun info: Starting impi run on 1 node ( 4 rank X 1 th ) for job ID 18772279
 ----------------------------------------------------
    OOO  PPPP  EEEEE N   N M   M PPPP
   O   O P   P E     NN  N MM MM P   P
   O   O PPPP  EEEEE N N N M M M PPPP   -- VERSION
   O   O P     E     N  NN M   M P
    OOO  P     EEEEE N   N M   M P
 ----------------------------------------------------
 running    4 mpi-ranks, with    1 threads/rank
 distrk:  each k-point on    4 cores,    1 groups
 distr:  one band on    1 cores,    4 groups
 vasp.6.3.0 20Jan22 (build Feb 01 2022 16:52:37) complex                        
  
 POSCAR found type information on POSCAR Si
 POSCAR found :  1 types and       2 ions
 scaLAPACK will be used
 LDA part: xc-table for Pade appr. of Perdew
 POSCAR, INCAR and KPOINTS ok, starting setup
 FFT: planning ... GRIDC
 FFT: planning ... GRID_SOFT
 FFT: planning ... GRID
 WAVECAR not read
 entering main loop
       N       E                     dE             d eps       ncg     rms          rms(c)
DAV:   1    -0.231295489822E+01   -0.23130E+01   -0.21357E+03   920   0.430E+02
DAV:   2    -0.109120521324E+02   -0.85991E+01   -0.80646E+01  1424   0.540E+01
DAV:   3    -0.109954768719E+02   -0.83425E-01   -0.83425E-01  1176   0.655E+00
DAV:   4    -0.109957076615E+02   -0.23079E-03   -0.23079E-03  1424   0.334E-01
DAV:   5    -0.109957077335E+02   -0.72050E-07   -0.71810E-07  1184   0.578E-03    0.559E+00
DAV:   6    -0.108643739947E+02    0.13133E+00   -0.87213E-02  1080   0.154E+00    0.343E+00
DAV:   7    -0.108055901739E+02    0.58784E-01   -0.16362E-01  1104   0.224E+00    0.212E-01
DAV:   8    -0.108065299392E+02   -0.93977E-03   -0.38450E-03   976   0.457E-01    0.715E-02
DAV:   9    -0.108067209932E+02   -0.19105E-03   -0.18344E-04  1320   0.104E-01    0.586E-02
DAV:  10    -0.108067461065E+02   -0.25113E-04   -0.28516E-05   584   0.402E-02
   1 F= -.10806746E+02 E0= -.10806746E+02  d E =-.111754E-06
 writing wavefunctions
mpprun info: Elapsed time (h:m:s):  0:00:01.499006
mpprun info: Starting impi run on 1 node ( 4 rank X 1 th ) for job ID 18772279
 ----------------------------------------------------
    OOO  PPPP  EEEEE N   N M   M PPPP
   O   O P   P E     NN  N MM MM P   P
   O   O PPPP  EEEEE N N N M M M PPPP   -- VERSION
   O   O P     E     N  NN M   M P
    OOO  P     EEEEE N   N M   M P
 ----------------------------------------------------
 running    4 mpi-ranks, with    1 threads/rank
 distrk:  each k-point on    4 cores,    1 groups
 distr:  one band on    1 cores,    4 groups
 vasp.6.3.0 20Jan22 (build Feb 01 2022 16:52:37) complex                        
  
 POSCAR found type information on POSCAR Si
 POSCAR found :  1 types and       2 ions
 scaLAPACK will be used
 LDA part: xc-table for Pade appr. of Perdew
 POSCAR, INCAR and KPOINTS ok, starting setup
 FFT: planning ... GRIDC
 FFT: planning ... GRID_SOFT
 FFT: planning ... GRID
 WAVECAR not read
 entering main loop
       N       E                     dE             d eps       ncg     rms          rms(c)
DAV:   1    -0.189343666469E+01   -0.18934E+01   -0.20040E+03   904   0.422E+02
DAV:   2    -0.108926039335E+02   -0.89992E+01   -0.87586E+01  1440   0.554E+01
DAV:   3    -0.109805531666E+02   -0.87949E-01   -0.87949E-01  1208   0.675E+00
DAV:   4    -0.109807517982E+02   -0.19863E-03   -0.19863E-03  1368   0.313E-01
DAV:   5    -0.109807519113E+02   -0.11307E-06   -0.11310E-06  1256   0.684E-03    0.519E+00
DAV:   6    -0.108723496529E+02    0.10840E+00   -0.69164E-02  1064   0.137E+00    0.317E+00
DAV:   7    -0.108218097854E+02    0.50540E-01   -0.13575E-01  1120   0.205E+00    0.163E-01
DAV:   8    -0.108228444695E+02   -0.10347E-02   -0.32972E-03   944   0.419E-01    0.706E-02
DAV:   9    -0.108230614389E+02   -0.21697E-03   -0.22028E-04  1312   0.111E-01    0.557E-02
DAV:  10    -0.108230846187E+02   -0.23180E-04   -0.25743E-05   560   0.381E-02
   1 F= -.10823085E+02 E0= -.10823085E+02  d E =-.431458E-08
 writing wavefunctions
mpprun info: Elapsed time (h:m:s):  0:00:01.738793
mpprun info: Starting impi run on 1 node ( 4 rank X 1 th ) for job ID 18772279
 ----------------------------------------------------
    OOO  PPPP  EEEEE N   N M   M PPPP
   O   O P   P E     NN  N MM MM P   P
   O   O PPPP  EEEEE N N N M M M PPPP   -- VERSION
   O   O P     E     N  NN M   M P
    OOO  P     EEEEE N   N M   M P
 ----------------------------------------------------
 running    4 mpi-ranks, with    1 threads/rank
 distrk:  each k-point on    4 cores,    1 groups
 distr:  one band on    1 cores,    4 groups
 vasp.6.3.0 20Jan22 (build Feb 01 2022 16:52:37) complex                        
  
 POSCAR found type information on POSCAR Si
 POSCAR found :  1 types and       2 ions
 scaLAPACK will be used
 LDA part: xc-table for Pade appr. of Perdew
 POSCAR, INCAR and KPOINTS ok, starting setup
 FFT: planning ... GRIDC
 FFT: planning ... GRID_SOFT
 FFT: planning ... GRID
 WAVECAR not read
 entering main loop
       N       E                     dE             d eps       ncg     rms          rms(c)
DAV:   1    -0.238979034258E+01   -0.23898E+01   -0.20462E+03   936   0.420E+02
DAV:   2    -0.108199181212E+02   -0.84301E+01   -0.81554E+01  1440   0.524E+01
DAV:   3    -0.109054799715E+02   -0.85562E-01   -0.85562E-01  1120   0.650E+00
DAV:   4    -0.109057517155E+02   -0.27174E-03   -0.27174E-03  1456   0.372E-01
DAV:   5    -0.109057518609E+02   -0.14536E-06   -0.14504E-06  1096   0.765E-03    0.482E+00
DAV:   6    -0.108170551122E+02    0.88697E-01   -0.54036E-02  1056   0.121E+00    0.293E+00
DAV:   7    -0.107737658651E+02    0.43289E-01   -0.11116E-01  1112   0.187E+00    0.142E-01
DAV:   8    -0.107748972856E+02   -0.11314E-02   -0.28658E-03   944   0.387E-01    0.710E-02
DAV:   9    -0.107751304573E+02   -0.23317E-03   -0.24930E-04  1312   0.115E-01    0.506E-02
DAV:  10    -0.107751514255E+02   -0.20968E-04   -0.23237E-05   512   0.361E-02
   1 F= -.10775151E+02 E0= -.10775151E+02  d E =-.205580E-09
 writing wavefunctions
mpprun info: Elapsed time (h:m:s):  0:00:01.658945
mpprun info: Starting impi run on 1 node ( 4 rank X 1 th ) for job ID 18772279
 ----------------------------------------------------
    OOO  PPPP  EEEEE N   N M   M PPPP
   O   O P   P E     NN  N MM MM P   P
   O   O PPPP  EEEEE N N N M M M PPPP   -- VERSION
   O   O P     E     N  NN M   M P
    OOO  P     EEEEE N   N M   M P
 ----------------------------------------------------
 running    4 mpi-ranks, with    1 threads/rank
 distrk:  each k-point on    4 cores,    1 groups
 distr:  one band on    1 cores,    4 groups
 vasp.6.3.0 20Jan22 (build Feb 01 2022 16:52:37) complex                        
  
 POSCAR found type information on POSCAR Si
 POSCAR found :  1 types and       2 ions
 scaLAPACK will be used
 LDA part: xc-table for Pade appr. of Perdew
 POSCAR, INCAR and KPOINTS ok, starting setup
 FFT: planning ... GRIDC
 FFT: planning ... GRID_SOFT
 FFT: planning ... GRID
 WAVECAR not read
 entering main loop
       N       E                     dE             d eps       ncg     rms          rms(c)
DAV:   1    -0.192998133468E+01   -0.19300E+01   -0.20157E+03   904   0.416E+02
DAV:   2    -0.106868683920E+02   -0.87569E+01   -0.85341E+01  1400   0.543E+01
DAV:   3    -0.107806178261E+02   -0.93749E-01   -0.93749E-01  1128   0.701E+00
DAV:   4    -0.107809693596E+02   -0.35153E-03   -0.35153E-03  1424   0.425E-01
DAV:   5    -0.107809695685E+02   -0.20893E-06   -0.20892E-06  1152   0.836E-03    0.448E+00
DAV:   6    -0.107093577987E+02    0.71612E-01   -0.41482E-02  1024   0.107E+00    0.271E+00
DAV:   7    -0.106721542066E+02    0.37204E-01   -0.90042E-02  1104   0.170E+00    0.147E-01
DAV:   8    -0.106733725548E+02   -0.12183E-02   -0.25240E-03   968   0.357E-01    0.694E-02
DAV:   9    -0.106736128982E+02   -0.24034E-03   -0.27495E-04  1216   0.119E-01    0.444E-02
DAV:  10    -0.106736297833E+02   -0.16885E-04   -0.18962E-05   496   0.325E-02
   1 F= -.10673630E+02 E0= -.10673630E+02  d E =-.114038E-10
 writing wavefunctions
mpprun info: Elapsed time (h:m:s):  0:00:01.579982
