fcc Si                                  
   3.90000000000000     
     0.500000    0.500000    0.000000
     0.000000    0.500000    0.500000
     0.500000    0.000000    0.500000
   Si
     1
Direct
  0.000000  0.000000  0.000000
 
   20   20   20
 -.25594069129E+01 -.17613086176E+01 0.29563785213E+00 0.27786314686E+01 0.47890237358E+01
 0.57880855615E+01 0.57838241849E+01 0.52103849192E+01 0.45945262453E+01 0.41740279470E+01
 0.40261566565E+01 0.41740279470E+01 0.45945262453E+01 0.52103849192E+01 0.57838241849E+01
 0.57880855615E+01 0.47890237358E+01 0.27786314686E+01 0.29563785213E+00 -.17613086176E+01
 -.17613086176E+01 -.33657719845E+00 0.19107764730E+01 0.40970260486E+01 0.55015177507E+01
 0.58793049810E+01 0.54844747540E+01 0.48350853295E+01 0.43079266266E+01 0.40213093886E+01
 0.40214516369E+01 0.43081439874E+01 0.48350588564E+01 0.54842623720E+01 0.58792906299E+01
 0.55018241671E+01 0.40972160900E+01 0.19103737773E+01 -.33737212706E+00 -.17617207804E+01
 0.29563785213E+00 0.19107764730E+01 0.38127485744E+01 0.52658066755E+01 0.58551393998E+01
 0.56349288857E+01 0.50092423931E+01 0.44110652804E+01 0.40094942539E+01 0.38692525099E+01
 0.40094893688E+01 0.44110432927E+01 0.50092043650E+01 0.56349047878E+01 0.58551565961E+01
 0.52658358307E+01 0.38127158655E+01 0.19106613276E+01 0.29552595110E+00 -.33737212706E+00
 0.27786314686E+01 0.40970260486E+01 0.52658066755E+01 0.58293941940E+01 0.56922680109E+01
 0.51111880668E+01 0.44783415350E+01 0.39955925828E+01 0.37383907653E+01 0.37382906166E+01
 0.39954207576E+01 0.44783044956E+01 0.51112749570E+01 0.56922555457E+01 0.58292001074E+01
 0.52657030694E+01 0.40973226700E+01 0.27791898780E+01 0.19106613276E+01 0.19103737773E+01
 0.47890237358E+01 0.55015177507E+01 0.58551393998E+01 0.56922680109E+01 0.51440990003E+01
 0.45109671250E+01 0.39846326237E+01 0.36441479468E+01 0.35272585328E+01 0.36441591826E+01
 0.39846257185E+01 0.45109563675E+01 0.51441201144E+01 0.56922983822E+01 0.58551389396E+01
 0.55015308047E+01 0.47891134991E+01 0.40973226700E+01 0.38127158655E+01 0.40972160900E+01
 0.57880855615E+01 0.58793049810E+01 0.56349288857E+01 0.51111880668E+01 0.45109671250E+01
 0.39806061161E+01 0.35953950789E+01 0.33955579898E+01 0.33956128320E+01 0.35954885376E+01
 0.39806466118E+01 0.45109945884E+01 0.51112880644E+01 0.56350506844E+01 0.58792830906E+01
 0.57878556846E+01 0.55015308047E+01 0.52657030694E+01 0.52658358307E+01 0.55018241671E+01
 0.57838241849E+01 0.54844747540E+01 0.50092423931E+01 0.44783415350E+01 0.39846326237E+01
 0.35953950789E+01 0.33511592719E+01 0.32685450382E+01 0.33511916235E+01 0.35954271573E+01
 0.39846355000E+01 0.44783243236E+01 0.50092351547E+01 0.54844905128E+01 0.57838408828E+01
 0.58792830906E+01 0.58551389396E+01 0.58292001074E+01 0.58551565961E+01 0.58792906299E+01
 0.52103849192E+01 0.48350853295E+01 0.44110652804E+01 0.39955925828E+01 0.36441479468E+01
 0.33955579898E+01 0.32685450382E+01 0.32685706358E+01 0.33955851129E+01 0.36440859633E+01
 0.39954259664E+01 0.44109132887E+01 0.48350956726E+01 0.52105692272E+01 0.54844905128E+01
 0.56350506844E+01 0.56922983822E+01 0.56922555457E+01 0.56349047878E+01 0.54842623720E+01
 0.45945262453E+01 0.43079266266E+01 0.40094942539E+01 0.37383907653E+01 0.35272585328E+01
 0.33956128320E+01 0.33511916235E+01 0.33955851129E+01 0.35272316445E+01 0.37383797298E+01
 0.40094899504E+01 0.43079272800E+01 0.45945467592E+01 0.48350956726E+01 0.50092351547E+01
 0.51112880644E+01 0.51441201144E+01 0.51112749570E+01 0.50092043650E+01 0.48350588564E+01
 0.41740279470E+01 0.40213093886E+01 0.38692525099E+01 0.37382906166E+01 0.36441591826E+01
 0.35954885376E+01 0.35954271573E+01 0.36440859633E+01 0.37383797298E+01 0.38694838358E+01
 0.40214614036E+01 0.41739444917E+01 0.43079272800E+01 0.44109132887E+01 0.44783243236E+01
 0.45109945884E+01 0.45109563675E+01 0.44783044956E+01 0.44110432927E+01 0.43081439874E+01
 0.40261566565E+01 0.40214516369E+01 0.40094893688E+01 0.39954207576E+01 0.39846257185E+01
 0.39806466118E+01 0.39846355000E+01 0.39954259664E+01 0.40094899504E+01 0.40214614036E+01
 0.40261750204E+01 0.40214614036E+01 0.40094899504E+01 0.39954259664E+01 0.39846355000E+01
 0.39806466118E+01 0.39846257185E+01 0.39954207576E+01 0.40094893688E+01 0.40214516369E+01
 0.41740279470E+01 0.43081439874E+01 0.44110432927E+01 0.44783044956E+01 0.45109563675E+01
 0.45109945884E+01 0.44783243236E+01 0.44109132887E+01 0.43079272800E+01 0.41739444917E+01
 0.40214614036E+01 0.38694838358E+01 0.37383797298E+01 0.36440859633E+01 0.35954271573E+01
 0.35954885376E+01 0.36441591826E+01 0.37382906166E+01 0.38692525099E+01 0.40213093886E+01
 0.45945262453E+01 0.48350588564E+01 0.50092043650E+01 0.51112749570E+01 0.51441201144E+01
 0.51112880644E+01 0.50092351547E+01 0.48350956726E+01 0.45945467592E+01 0.43079272800E+01
 0.40094899504E+01 0.37383797298E+01 0.35272316445E+01 0.33955851129E+01 0.33511916235E+01
 0.33956128320E+01 0.35272585328E+01 0.37383907653E+01 0.40094942539E+01 0.43079266266E+01
 0.52103849192E+01 0.54842623720E+01 0.56349047878E+01 0.56922555457E+01 0.56922983822E+01
 0.56350506844E+01 0.54844905128E+01 0.52105692272E+01 0.48350956726E+01 0.44109132887E+01
 0.39954259664E+01 0.36440859633E+01 0.33955851129E+01 0.32685706358E+01 0.32685450382E+01
 0.33955579898E+01 0.36441479468E+01 0.39955925828E+01 0.44110652804E+01 0.48350853295E+01
 0.57838241849E+01 0.58792906299E+01 0.58551565961E+01 0.58292001074E+01 0.58551389396E+01
 0.58792830906E+01 0.57838408828E+01 0.54844905128E+01 0.50092351547E+01 0.44783243236E+01
 0.39846355000E+01 0.35954271573E+01 0.33511916235E+01 0.32685450382E+01 0.33511592719E+01
 0.35953950789E+01 0.39846326237E+01 0.44783415350E+01 0.50092423931E+01 0.54844747540E+01
 0.57880855615E+01 0.55018241671E+01 0.52658358307E+01 0.52657030694E+01 0.55015308047E+01
 0.57878556846E+01 0.58792830906E+01 0.56350506844E+01 0.51112880644E+01 0.45109945884E+01
 0.39806466118E+01 0.35954885376E+01 0.33956128320E+01 0.33955579898E+01 0.35953950789E+01
 0.39806061161E+01 0.45109671250E+01 0.51111880668E+01 0.56349288857E+01 0.58793049810E+01
 0.47890237358E+01 0.40972160900E+01 0.38127158655E+01 0.40973226700E+01 0.47891134991E+01
 0.55015308047E+01 0.58551389396E+01 0.56922983822E+01 0.51441201144E+01 0.45109563675E+01
 0.39846257185E+01 0.36441591826E+01 0.35272585328E+01 0.36441479468E+01 0.39846326237E+01
 0.45109671250E+01 0.51440990003E+01 0.56922680109E+01 0.58551393998E+01 0.55015177507E+01
 0.27786314686E+01 0.19103737773E+01 0.19106613276E+01 0.27791898780E+01 0.40973226700E+01
 0.52657030694E+01 0.58292001074E+01 0.56922555457E+01 0.51112749570E+01 0.44783044956E+01
 0.39954207576E+01 0.37382906166E+01 0.37383907653E+01 0.39955925828E+01 0.44783415350E+01
 0.51111880668E+01 0.56922680109E+01 0.58293941940E+01 0.52658066755E+01 0.40970260486E+01
 0.29563785213E+00 -.33737212706E+00 0.29552595110E+00 0.19106613276E+01 0.38127158655E+01
 0.52658358307E+01 0.58551565961E+01 0.56349047878E+01 0.50092043650E+01 0.44110432927E+01
 0.40094893688E+01 0.38692525099E+01 0.40094942539E+01 0.44110652804E+01 0.50092423931E+01
 0.56349288857E+01 0.58551393998E+01 0.52658066755E+01 0.38127485744E+01 0.19107764730E+01
 -.17613086176E+01 -.17617207804E+01 -.33737212706E+00 0.19103737773E+01 0.40972160900E+01
 0.55018241671E+01 0.58792906299E+01 0.54842623720E+01 0.48350588564E+01 0.43081439874E+01
 0.40214516369E+01 0.40213093886E+01 0.43079266266E+01 0.48350853295E+01 0.54844747540E+01
 0.58793049810E+01 0.55015177507E+01 0.40970260486E+01 0.19107764730E+01 -.33657719845E+00
 -.17613324934E+01 -.33662164415E+00 0.19107489267E+01 0.40970174043E+01 0.55015013226E+01
 0.58792835902E+01 0.54844742984E+01 0.48350996550E+01 0.43079269031E+01 0.40213003509E+01
 0.40214617312E+01 0.43081682707E+01 0.48350685008E+01 0.54842620478E+01 0.58793094064E+01
 0.55018578471E+01 0.40972348277E+01 0.19103776838E+01 -.33736135078E+00 -.17617131330E+01
 -.33662164415E+00 0.14214454329E+01 0.35094602227E+01 0.51387582143E+01 0.58555594700E+01
 0.57005736916E+01 0.50884491318E+01 0.44835457113E+01 0.40752234788E+01 0.39323214850E+01
 0.40752796467E+01 0.44835187799E+01 0.50883553486E+01 0.57006574468E+01 0.58559263791E+01
 0.51390554111E+01 0.35091705177E+01 0.14205542759E+01 -.33743471469E+00 -.10236310262E+01
 0.19107489267E+01 0.35094602227E+01 0.49805300590E+01 0.57878665711E+01 0.57932980523E+01
 0.52563315222E+01 0.46128027229E+01 0.41144941204E+01 0.38472776191E+01 0.38471761491E+01
 0.41142963796E+01 0.46127191374E+01 0.52564556704E+01 0.57935007488E+01 0.57879371059E+01
 0.49804027578E+01 0.35092550721E+01 0.19106069767E+01 0.87296191789E+00 0.87300531974E+00
 0.40970174043E+01 0.51387582143E+01 0.57878665711E+01 0.58155684584E+01 0.53363679915E+01
 0.46903650099E+01 0.41388541036E+01 0.37783338085E+01 0.36539603434E+01 0.37783333808E+01
 0.41388229908E+01 0.46903008468E+01 0.53362910342E+01 0.58154888972E+01 0.57878401286E+01
 0.51389075778E+01 0.40973608827E+01 0.31458246388E+01 0.27623748047E+01 0.31455128545E+01
 0.55015013226E+01 0.58555594700E+01 0.57932980523E+01 0.53363679915E+01 0.47162228162E+01
 0.41505508558E+01 0.37342097095E+01 0.35166949453E+01 0.35167915906E+01 0.37343477032E+01
 0.41505115763E+01 0.47160494816E+01 0.53362924056E+01 0.57934139347E+01 0.58557380655E+01
 0.55016004462E+01 0.49540595101E+01 0.45551444615E+01 0.45551543244E+01 0.49540500834E+01
 0.58792835902E+01 0.57005736916E+01 0.52563315222E+01 0.46903650099E+01 0.41505508558E+01
 0.37192858673E+01 0.34465179638E+01 0.33538839148E+01 0.34465270696E+01 0.37192741132E+01
 0.41505406735E+01 0.46904271934E+01 0.52564657201E+01 0.57006648658E+01 0.58792155350E+01
 0.58039635199E+01 0.56309941461E+01 0.55462239883E+01 0.56311639125E+01 0.58041614890E+01
 0.54844742984E+01 0.50884491318E+01 0.46128027229E+01 0.41388541036E+01 0.37342097095E+01
 0.34465179638E+01 0.32990891452E+01 0.32990718944E+01 0.34464977030E+01 0.37342220102E+01
 0.41388661582E+01 0.46127623540E+01 0.50883744381E+01 0.54844487059E+01 0.57202338645E+01
 0.58025943774E+01 0.58086302371E+01 0.58085817305E+01 0.58024924534E+01 0.57201684586E+01
 0.48350996550E+01 0.44835457113E+01 0.41144941204E+01 0.37783338085E+01 0.35166949453E+01
 0.33538839148E+01 0.32990718944E+01 0.33539459212E+01 0.35167397826E+01 0.37782606307E+01
 0.41142906096E+01 0.44833488841E+01 0.48350822231E+01 0.51257841348E+01 0.53259030614E+01
 0.54302337801E+01 0.54605172330E+01 0.54300496824E+01 0.53256290671E+01 0.51255902748E+01
 0.43079269031E+01 0.40752234788E+01 0.38472776191E+01 0.36539603434E+01 0.35167915906E+01
 0.34465270696E+01 0.34464977030E+01 0.35167397826E+01 0.36539417828E+01 0.38472944800E+01
 0.40752356485E+01 0.43079205537E+01 0.45153550075E+01 0.46762381024E+01 0.47818585371E+01
 0.48330372230E+01 0.48330172410E+01 0.47818150003E+01 0.46762056639E+01 0.45153516629E+01
 0.40213003509E+01 0.39323214850E+01 0.38471761491E+01 0.37783333808E+01 0.37343477032E+01
 0.37192741132E+01 0.37342220102E+01 0.37782606307E+01 0.38472944800E+01 0.39325560860E+01
 0.40214428678E+01 0.41012378843E+01 0.41633201166E+01 0.42049562840E+01 0.42278682371E+01
 0.42350507155E+01 0.42279087690E+01 0.42050803524E+01 0.41634854762E+01 0.41012952281E+01
 0.40214617312E+01 0.40752796467E+01 0.41142963796E+01 0.41388229908E+01 0.41505115763E+01
 0.41505406735E+01 0.41388661582E+01 0.41142906096E+01 0.40752356485E+01 0.40214428678E+01
 0.39560955764E+01 0.38867139781E+01 0.38235267619E+01 0.37761556462E+01 0.37510472164E+01
 0.37510625307E+01 0.37761822642E+01 0.38235276645E+01 0.38866805467E+01 0.39560672514E+01
 0.43081682707E+01 0.44835187799E+01 0.46127191374E+01 0.46903008468E+01 0.47160494816E+01
 0.46904271934E+01 0.46127623540E+01 0.44833488841E+01 0.43079205537E+01 0.41012378843E+01
 0.38867139781E+01 0.36913083409E+01 0.35382954977E+01 0.34424033397E+01 0.34099866155E+01
 0.34424371689E+01 0.35382458153E+01 0.36911435052E+01 0.38865899192E+01 0.41013256802E+01
 0.48350685008E+01 0.50883553486E+01 0.52564556704E+01 0.53362910342E+01 0.53362924056E+01
 0.52564657201E+01 0.50883744381E+01 0.48350822231E+01 0.45153550075E+01 0.41633201166E+01
 0.38235267619E+01 0.35382954977E+01 0.33371528234E+01 0.32344544346E+01 0.32344703004E+01
 0.33371827483E+01 0.35383141204E+01 0.38235350257E+01 0.41633300318E+01 0.45153579115E+01
 0.54842620478E+01 0.57006574468E+01 0.57935007488E+01 0.58154888972E+01 0.57934139347E+01
 0.57006648658E+01 0.54844487059E+01 0.51257841348E+01 0.46762381024E+01 0.42049562840E+01
 0.37761556462E+01 0.34424033397E+01 0.32344544346E+01 0.31642964689E+01 0.32344065021E+01
 0.34424241784E+01 0.37763004504E+01 0.42051006030E+01 0.46762021441E+01 0.51255722640E+01
 0.58793094064E+01 0.58559263791E+01 0.57879371059E+01 0.57878401286E+01 0.58557380655E+01
 0.58792155350E+01 0.57202338645E+01 0.53259030614E+01 0.47818585371E+01 0.42278682371E+01
 0.37510472164E+01 0.34099866155E+01 0.32344703004E+01 0.32344065021E+01 0.34098757449E+01
 0.37510182689E+01 0.42279162683E+01 0.47818666341E+01 0.53258263764E+01 0.57201815239E+01
 0.55018578471E+01 0.51390554111E+01 0.49804027578E+01 0.51389075778E+01 0.55016004462E+01
 0.58039635199E+01 0.58025943774E+01 0.54302337801E+01 0.48330372230E+01 0.42350507155E+01
 0.37510625307E+01 0.34424371689E+01 0.33371827483E+01 0.34424241784E+01 0.37510182689E+01
 0.42349413239E+01 0.48328790724E+01 0.54301387865E+01 0.58026795159E+01 0.58042077980E+01
 0.40972348277E+01 0.35091705177E+01 0.35092550721E+01 0.40973608827E+01 0.49540595101E+01
 0.56309941461E+01 0.58086302371E+01 0.54605172330E+01 0.48330172410E+01 0.42279087690E+01
 0.37761822642E+01 0.35382458153E+01 0.35383141204E+01 0.37763004504E+01 0.42279162683E+01
 0.48328790724E+01 0.54603860027E+01 0.58086586231E+01 0.56311170196E+01 0.49540770535E+01
 0.19103776838E+01 0.14205542759E+01 0.19106069767E+01 0.31458246388E+01 0.45551444615E+01
 0.55462239883E+01 0.58085817305E+01 0.54300496824E+01 0.47818150003E+01 0.42050803524E+01
 0.38235276645E+01 0.36911435052E+01 0.38235350257E+01 0.42051006030E+01 0.47818666341E+01
 0.54301387865E+01 0.58086586231E+01 0.55461884160E+01 0.45549384124E+01 0.31455187614E+01
 -.33736135078E+00 -.33743471469E+00 0.87296191789E+00 0.27623748047E+01 0.45551543244E+01
 0.56311639125E+01 0.58024924534E+01 0.53256290671E+01 0.46762056639E+01 0.41634854762E+01
 0.38866805467E+01 0.38865899192E+01 0.41633300318E+01 0.46762021441E+01 0.53258263764E+01
 0.58026795159E+01 0.56311170196E+01 0.45549384124E+01 0.27622587945E+01 0.87303724023E+00
 -.17617131330E+01 -.10236310262E+01 0.87300531974E+00 0.31455128545E+01 0.49540500834E+01
 0.58041614890E+01 0.57201684586E+01 0.51255902748E+01 0.45153516629E+01 0.41012952281E+01
 0.39560672514E+01 0.41013256802E+01 0.45153579115E+01 0.51255722640E+01 0.57201815239E+01
 0.58042077980E+01 0.49540770535E+01 0.31455187614E+01 0.87303724023E+00 -.10235838309E+01
 0.29558847559E+00 0.19107148075E+01 0.38127312834E+01 0.52658203535E+01 0.58551328648E+01
 0.56349121265E+01 0.50092590867E+01 0.44110989754E+01 0.40094980576E+01 0.38692421253E+01
 0.40095116313E+01 0.44110821026E+01 0.50092122504E+01 0.56348975394E+01 0.58551817327E+01
 0.52658767196E+01 0.38127211051E+01 0.19106394527E+01 0.29551813229E+00 -.33738126640E+00
 0.19107148075E+01 0.35094324744E+01 0.49805318608E+01 0.57878835400E+01 0.57933037281E+01
 0.52563331180E+01 0.46128201379E+01 0.41145165790E+01 0.38472843024E+01 0.38471779117E+01
 0.41143138833E+01 0.46127409099E+01 0.52564603360E+01 0.57934991779E+01 0.57879497124E+01
 0.49804162852E+01 0.35092445910E+01 0.19105801350E+01 0.87294016665E+00 0.87298339470E+00
 0.38127312834E+01 0.49805318608E+01 0.57442054653E+01 0.58482168669E+01 0.54001674788E+01
 0.47525193756E+01 0.41928359956E+01 0.38254867677E+01 0.36984909206E+01 0.38254480892E+01
 0.41927798128E+01 0.47524892008E+01 0.54001835237E+01 0.58482367000E+01 0.57441913081E+01
 0.49805226004E+01 0.38127796108E+01 0.27623156491E+01 0.23414478313E+01 0.27622465060E+01
 0.52658203535E+01 0.57878835400E+01 0.58482168669E+01 0.54460687914E+01 0.48234874207E+01
 0.42407933130E+01 0.38086077695E+01 0.35818261484E+01 0.35819047580E+01 0.38087425527E+01
 0.42408200851E+01 0.48233749502E+01 0.54459127903E+01 0.58481194654E+01 0.57879208041E+01
 0.52660241443E+01 0.45552324351E+01 0.40552779619E+01 0.40551490853E+01 0.45549615012E+01
 0.58551328648E+01 0.57933037281E+01 0.54001674788E+01 0.48234874207E+01 0.42569679557E+01
 0.37998081428E+01 0.35089510296E+01 0.34099021259E+01 0.35089973403E+01 0.37998371630E+01
 0.42569571357E+01 0.48234754833E+01 0.54001738224E+01 0.57933056780E+01 0.58551298632E+01
 0.56311289358E+01 0.53333707274E+01 0.51998550955E+01 0.53333370796E+01 0.56311073703E+01
 0.56349121265E+01 0.52563331180E+01 0.47525193756E+01 0.42407933130E+01 0.37998081428E+01
 0.34844404316E+01 0.33222576591E+01 0.33222210090E+01 0.34843643029E+01 0.37997685267E+01
 0.42408532204E+01 0.47526649738E+01 0.52564595506E+01 0.56348946389E+01 0.58024509391E+01
 0.57990605611E+01 0.57465704948E+01 0.57466839231E+01 0.57993100973E+01 0.58026454139E+01
 0.50092590867E+01 0.46128201379E+01 0.41928359956E+01 0.38086077695E+01 0.35089510296E+01
 0.33222576591E+01 0.32593301981E+01 0.33222573197E+01 0.35089600990E+01 0.38086086983E+01
 0.41928014863E+01 0.46127684021E+01 0.50092259802E+01 0.53258132733E+01 0.55182143736E+01
 0.56006653484E+01 0.56201117567E+01 0.56007102996E+01 0.55182540172E+01 0.53258335656E+01
 0.44110989754E+01 0.41145165790E+01 0.38254867677E+01 0.35818261484E+01 0.34099021259E+01
 0.33222210090E+01 0.33222573197E+01 0.34099837840E+01 0.35818689764E+01 0.38253975853E+01
 0.41143032025E+01 0.44109081815E+01 0.46762211132E+01 0.48819168770E+01 0.50160965488E+01
 0.50793620627E+01 0.50792775567E+01 0.50159014222E+01 0.48817595451E+01 0.46762384821E+01
 0.40094980576E+01 0.38472843024E+01 0.36984909206E+01 0.35819047580E+01 0.35089973403E+01
 0.34843643029E+01 0.35089600990E+01 0.35818689764E+01 0.36984821115E+01 0.38472886042E+01
 0.40094913205E+01 0.41633140233E+01 0.42906516480E+01 0.43816703255E+01 0.44346389429E+01
 0.44518034011E+01 0.44346088201E+01 0.43816394042E+01 0.42906458238E+01 0.41633269862E+01
 0.38692421253E+01 0.38471779117E+01 0.38254480892E+01 0.38087425527E+01 0.37998371630E+01
 0.37997685267E+01 0.38086086983E+01 0.38253975853E+01 0.38472886042E+01 0.38694370512E+01
 0.38866795513E+01 0.38960667907E+01 0.38981909664E+01 0.38963158784E+01 0.38942169143E+01
 0.38942593634E+01 0.38964318062E+01 0.38983193349E+01 0.38960996834E+01 0.38865586067E+01
 0.40095116313E+01 0.41143138833E+01 0.41927798128E+01 0.42408200851E+01 0.42569571357E+01
 0.42408532204E+01 0.41928014863E+01 0.41143032025E+01 0.40094913205E+01 0.38866795513E+01
 0.37586953808E+01 0.36408942817E+01 0.35474347257E+01 0.34881460866E+01 0.34679346334E+01
 0.34881442094E+01 0.35474410187E+01 0.36409063393E+01 0.37587032290E+01 0.38866895147E+01
 0.44110821026E+01 0.46127409099E+01 0.47524892008E+01 0.48233749502E+01 0.48234754833E+01
 0.47526649738E+01 0.46127684021E+01 0.44109081815E+01 0.41633140233E+01 0.38960667907E+01
 0.36408942817E+01 0.34275370369E+01 0.32770657796E+01 0.32001327994E+01 0.32001338771E+01
 0.32770353162E+01 0.34274479468E+01 0.36408224248E+01 0.38961360307E+01 0.41635237447E+01
 0.50092122504E+01 0.52564603360E+01 0.54001835237E+01 0.54459127903E+01 0.54001738224E+01
 0.52564595506E+01 0.50092259802E+01 0.46762211132E+01 0.42906516480E+01 0.38981909664E+01
 0.35474347257E+01 0.32770657796E+01 0.31094059474E+01 0.30529815450E+01 0.31094358758E+01
 0.32770945129E+01 0.35474423385E+01 0.38981858069E+01 0.42906417421E+01 0.46762046359E+01
 0.56348975394E+01 0.57934991779E+01 0.58482367000E+01 0.58481194654E+01 0.57933056780E+01
 0.56348946389E+01 0.53258132733E+01 0.48819168770E+01 0.43816703255E+01 0.38963158784E+01
 0.34881460866E+01 0.32001327994E+01 0.30529815450E+01 0.30529462691E+01 0.32001009718E+01
 0.34882193409E+01 0.38964408294E+01 0.43816636049E+01 0.48817149466E+01 0.53255998438E+01
 0.58551817327E+01 0.57879497124E+01 0.57441913081E+01 0.57879208041E+01 0.58551298632E+01
 0.58024509391E+01 0.55182143736E+01 0.50160965488E+01 0.44346389429E+01 0.38942169143E+01
 0.34679346334E+01 0.32001338771E+01 0.31094358758E+01 0.32001009718E+01 0.34678935083E+01
 0.38941875872E+01 0.44346238859E+01 0.50161013761E+01 0.55182455742E+01 0.58025044511E+01
 0.52658767196E+01 0.49804162852E+01 0.49805226004E+01 0.52660241443E+01 0.56311289358E+01
 0.57990605611E+01 0.56006653484E+01 0.50793620627E+01 0.44518034011E+01 0.38942593634E+01
 0.34881442094E+01 0.32770353162E+01 0.32770945129E+01 0.34882193409E+01 0.38941875872E+01
 0.44516148249E+01 0.50792893364E+01 0.56008512736E+01 0.57993379910E+01 0.56312074698E+01
 0.38127211051E+01 0.35092445910E+01 0.38127796108E+01 0.45552324351E+01 0.53333707274E+01
 0.57465704948E+01 0.56201117567E+01 0.50792775567E+01 0.44346088201E+01 0.38964318062E+01
 0.35474410187E+01 0.34274479468E+01 0.35474423385E+01 0.38964408294E+01 0.44346238859E+01
 0.50792893364E+01 0.56201133546E+01 0.57465557908E+01 0.53333253051E+01 0.45551608319E+01
 0.19106394527E+01 0.19105801350E+01 0.27623156491E+01 0.40552779619E+01 0.51998550955E+01
 0.57466839231E+01 0.56007102996E+01 0.50159014222E+01 0.43816394042E+01 0.38983193349E+01
 0.36409063393E+01 0.36408224248E+01 0.38981858069E+01 0.43816636049E+01 0.50161013761E+01
 0.56008512736E+01 0.57465557908E+01 0.51995561168E+01 0.40550990964E+01 0.27623521133E+01
 0.29551813229E+00 0.87294016665E+00 0.23414478313E+01 0.40551490853E+01 0.53333370796E+01
 0.57993100973E+01 0.55182540172E+01 0.48817595451E+01 0.42906458238E+01 0.38960996834E+01
 0.37587032290E+01 0.38961360307E+01 0.42906417421E+01 0.48817149466E+01 0.55182455742E+01
 0.57993379910E+01 0.53333253051E+01 0.40550990964E+01 0.23414383591E+01 0.87297318240E+00
 -.33738126640E+00 0.87298339470E+00 0.27622465060E+01 0.45549615012E+01 0.56311073703E+01
 0.58026454139E+01 0.53258335656E+01 0.46762384821E+01 0.41633269862E+01 0.38865586067E+01
 0.38866895147E+01 0.41635237447E+01 0.46762046359E+01 0.53255998438E+01 0.58025044511E+01
 0.56312074698E+01 0.45551608319E+01 0.27623521133E+01 0.87297318240E+00 -.33740479253E+00
 0.27786024447E+01 0.40969937135E+01 0.52658236561E+01 0.58294302773E+01 0.56922660388E+01
 0.51111712893E+01 0.44783617024E+01 0.39956243254E+01 0.37383826756E+01 0.37382690834E+01
 0.39954377514E+01 0.44783336889E+01 0.51112644437E+01 0.56922320265E+01 0.58292157763E+01
 0.52657303848E+01 0.40973066025E+01 0.27791537524E+01 0.19106571834E+01 0.19103797336E+01
 0.40969937135E+01 0.51387494640E+01 0.57878972475E+01 0.58156075628E+01 0.53363786367E+01
 0.46903671731E+01 0.41388791450E+01 0.37783612747E+01 0.36539604601E+01 0.37783277195E+01
 0.41388412912E+01 0.46903209498E+01 0.53362826981E+01 0.58154737104E+01 0.57878467197E+01
 0.51389108050E+01 0.40973273270E+01 0.31457765865E+01 0.27623490161E+01 0.31454984412E+01
 0.52658236561E+01 0.57878972475E+01 0.58482447121E+01 0.54460936462E+01 0.48234960188E+01
 0.42407977521E+01 0.38086209504E+01 0.35818378639E+01 0.35819037768E+01 0.38087395613E+01
 0.42408259785E+01 0.48233785711E+01 0.54459028470E+01 0.58481064130E+01 0.57879144430E+01
 0.52660120013E+01 0.45552038059E+01 0.40552480144E+01 0.40551361798E+01 0.45549612976E+01
 0.58294302773E+01 0.58156075628E+01 0.54460936462E+01 0.48686323612E+01 0.42934537429E+01
 0.38276843157E+01 0.35307184183E+01 0.34294483894E+01 0.35307330653E+01 0.38277732219E+01
 0.42935966132E+01 0.48686621522E+01 0.54458738365E+01 0.58152740235E+01 0.58293234571E+01
 0.55464913952E+01 0.51999456721E+01 0.50473457876E+01 0.51996157863E+01 0.55462314844E+01
 0.56922660388E+01 0.53363786367E+01 0.48234960188E+01 0.42934537429E+01 0.38341500488E+01
 0.35046167205E+01 0.33348251158E+01 0.33347877177E+01 0.35045837662E+01 0.38342358246E+01
 0.42936185333E+01 0.48235559547E+01 0.53362374510E+01 0.56920549514E+01 0.58085750149E+01
 0.57466431729E+01 0.56552691690E+01 0.56552065734E+01 0.57465654452E+01 0.58086533069E+01
 0.51111712893E+01 0.46903671731E+01 0.42407977521E+01 0.38276843157E+01 0.35046167205E+01
 0.33029588513E+01 0.32349074886E+01 0.33029299948E+01 0.35045855414E+01 0.38276888484E+01
 0.42408716712E+01 0.46905026039E+01 0.51112687353E+01 0.54300317926E+01 0.56005655206E+01
 0.56561400838E+01 0.56638681913E+01 0.56563823479E+01 0.56008231992E+01 0.54301066665E+01
 0.44783617024E+01 0.41388791450E+01 0.38086209504E+01 0.35307184183E+01 0.33348251158E+01
 0.32349074886E+01 0.32348964648E+01 0.33348131385E+01 0.35307278333E+01 0.38086350504E+01
 0.41388796000E+01 0.44783574656E+01 0.47818539293E+01 0.50160273663E+01 0.51629316307E+01
 0.52281681758E+01 0.52282294873E+01 0.51630530817E+01 0.50161089153E+01 0.47818762992E+01
 0.39956243254E+01 0.37783612747E+01 0.35818378639E+01 0.34294483894E+01 0.33347877177E+01
 0.33029299948E+01 0.33348131385E+01 0.34295062669E+01 0.35818793534E+01 0.37783019349E+01
 0.39954591776E+01 0.42049784264E+01 0.43816811849E+01 0.45102314869E+01 0.45860839953E+01
 0.46108256524E+01 0.45859685411E+01 0.45101185931E+01 0.43816981136E+01 0.42051313919E+01
 0.37383826756E+01 0.36539604601E+01 0.35819037768E+01 0.35307330653E+01 0.35045837662E+01
 0.35045855414E+01 0.35307278333E+01 0.35818793534E+01 0.36539293138E+01 0.37383704813E+01
 0.38235334007E+01 0.38982021423E+01 0.39551021526E+01 0.39919171872E+01 0.40095997152E+01
 0.40095952137E+01 0.39919043236E+01 0.39550813354E+01 0.38981773388E+01 0.38235195165E+01
 0.37382690834E+01 0.37783277195E+01 0.38087395613E+01 0.38277732219E+01 0.38342358246E+01
 0.38276888484E+01 0.38086350504E+01 0.37783019349E+01 0.37383704813E+01 0.36912649331E+01
 0.36408782333E+01 0.35927628813E+01 0.35531260921E+01 0.35272162345E+01 0.35182591525E+01
 0.35272858723E+01 0.35532164537E+01 0.35927863979E+01 0.36407814642E+01 0.36911033527E+01
 0.39954377514E+01 0.41388412912E+01 0.42408259785E+01 0.42935966132E+01 0.42936185333E+01
 0.42408716712E+01 0.41388796000E+01 0.39954591776E+01 0.38235334007E+01 0.36408782333E+01
 0.34678334184E+01 0.33232976903E+01 0.32210322662E+01 0.31685131868E+01 0.31685019103E+01
 0.32210222216E+01 0.33233199633E+01 0.34678752042E+01 0.36409034726E+01 0.38235310053E+01
 0.44783336889E+01 0.46903209498E+01 0.48233785711E+01 0.48686621522E+01 0.48235559547E+01
 0.46905026039E+01 0.44783574656E+01 0.42049784264E+01 0.38982021423E+01 0.35927628813E+01
 0.33232976903E+01 0.31168043810E+01 0.29889468880E+01 0.29459002422E+01 0.29889308195E+01
 0.31167664254E+01 0.33232715731E+01 0.35928150141E+01 0.38983443460E+01 0.42051060631E+01
 0.51112644437E+01 0.53362826981E+01 0.54459028470E+01 0.54458738365E+01 0.53362374510E+01
 0.51112687353E+01 0.47818539293E+01 0.43816811849E+01 0.39551021526E+01 0.35531260921E+01
 0.32210322662E+01 0.29889468880E+01 0.28709163461E+01 0.28709229148E+01 0.29889621941E+01
 0.32210482660E+01 0.35531315896E+01 0.39550791312E+01 0.43816219741E+01 0.47817954466E+01
 0.56922320265E+01 0.58154737104E+01 0.58481064130E+01 0.58152740235E+01 0.56920549514E+01
 0.54300317926E+01 0.50160273663E+01 0.45102314869E+01 0.39919171872E+01 0.35272162345E+01
 0.31685131868E+01 0.29459002422E+01 0.28709229148E+01 0.29458978841E+01 0.31685426617E+01
 0.35272646683E+01 0.39918971066E+01 0.45100855298E+01 0.50158518036E+01 0.54300066140E+01
 0.58292157763E+01 0.57878467197E+01 0.57879144430E+01 0.58293234571E+01 0.58085750149E+01
 0.56005655206E+01 0.51629316307E+01 0.45860839953E+01 0.40095997152E+01 0.35182591525E+01
 0.31685019103E+01 0.29889308195E+01 0.29889621941E+01 0.31685426617E+01 0.35182311696E+01
 0.40095249042E+01 0.45860784917E+01 0.51630476967E+01 0.56006982967E+01 0.58085837152E+01
 0.52657303848E+01 0.51389108050E+01 0.52660120013E+01 0.55464913952E+01 0.57466431729E+01
 0.56561400838E+01 0.52281681758E+01 0.46108256524E+01 0.40095952137E+01 0.35272858723E+01
 0.32210222216E+01 0.31167664254E+01 0.32210482660E+01 0.35272646683E+01 0.40095249042E+01
 0.46108384669E+01 0.52283670634E+01 0.56564021206E+01 0.57466986258E+01 0.55462507178E+01
 0.40973066025E+01 0.40973273270E+01 0.45552038059E+01 0.51999456721E+01 0.56552691690E+01
 0.56638681913E+01 0.52282294873E+01 0.45859685411E+01 0.39919043236E+01 0.35532164537E+01
 0.33233199633E+01 0.33232715731E+01 0.35531315896E+01 0.39918971066E+01 0.45860784917E+01
 0.52283670634E+01 0.56639097212E+01 0.56551893427E+01 0.51998275226E+01 0.45551294059E+01
 0.27791537524E+01 0.31457765865E+01 0.40552480144E+01 0.50473457876E+01 0.56552065734E+01
 0.56563823479E+01 0.51630530817E+01 0.45101185931E+01 0.39550813354E+01 0.35927863979E+01
 0.34678752042E+01 0.35928150141E+01 0.39550791312E+01 0.45100855298E+01 0.51630476967E+01
 0.56564021206E+01 0.56551893427E+01 0.50472921381E+01 0.40552234698E+01 0.31457905184E+01
 0.19106571834E+01 0.27623490161E+01 0.40551361798E+01 0.51996157863E+01 0.57465654452E+01
 0.56008231992E+01 0.50161089153E+01 0.43816981136E+01 0.38981773388E+01 0.36407814642E+01
 0.36409034726E+01 0.38983443460E+01 0.43816219741E+01 0.50158518036E+01 0.56006982967E+01
 0.57466986258E+01 0.51998275226E+01 0.40552234698E+01 0.27623119819E+01 0.19106224860E+01
 0.19103797336E+01 0.31454984412E+01 0.45549612976E+01 0.55462314844E+01 0.58086533069E+01
 0.54301066665E+01 0.47818762992E+01 0.42051313919E+01 0.38235195165E+01 0.36911033527E+01
 0.38235310053E+01 0.42051060631E+01 0.47817954466E+01 0.54300066140E+01 0.58085837152E+01
 0.55462507178E+01 0.45551294059E+01 0.31457905184E+01 0.19106224860E+01 0.14205977598E+01
 0.47890177105E+01 0.55014999599E+01 0.58551559537E+01 0.56922877800E+01 0.51440767737E+01
 0.45109361047E+01 0.39846403607E+01 0.36441631449E+01 0.35272348625E+01 0.36441286278E+01
 0.39846350753E+01 0.45109741582E+01 0.51441002290E+01 0.56922732227E+01 0.58551557757E+01
 0.55015584935E+01 0.47891057621E+01 0.40973108035E+01 0.38127449264E+01 0.40972520353E+01
 0.55014999599E+01 0.58555632044E+01 0.57933295286E+01 0.53363947161E+01 0.47162147361E+01
 0.41505378557E+01 0.37342234802E+01 0.35167087748E+01 0.35167761344E+01 0.37343305484E+01