   1   1   1   0
  0.1482975E+02  0.2757716E-09  0.2757716E-09  0.2757716E-09  0.5000000E-15
  1.000000000000000E-004
  CAR 
 fcc Si                                  
     38.24482526     -6.40906964  301     12.76199732      1.00000000
     -6.409  0.0000E+00  0.0000E+00
     -6.260  0.0000E+00  0.0000E+00
     -6.111  0.0000E+00  0.0000E+00
     -5.963  0.0000E+00  0.0000E+00
     -5.814  0.0000E+00  0.0000E+00
     -5.665  0.0000E+00  0.0000E+00
     -5.516  0.0000E+00  0.0000E+00
     -5.367  0.0000E+00  0.0000E+00
     -5.218  0.0000E+00  0.0000E+00
     -5.069  0.0000E+00  0.0000E+00
     -4.921  0.9790E-14  0.1457E-14
     -4.772  0.1443E-07  0.2148E-08
     -4.623  0.2887E-03  0.4298E-04
     -4.474  0.9285E-01  0.1386E-01
     -4.325  0.9017E+00  0.1481E+00
     -4.176  0.9136E+00  0.2841E+00
     -4.028  0.2882E+00  0.3270E+00
     -3.879  0.4838E+00  0.3990E+00
     -3.730  0.3323E+00  0.4484E+00
     -3.581  0.1859E+00  0.4761E+00
     -3.432  0.1747E+00  0.5021E+00
     -3.283  0.2517E+00  0.5396E+00
     -3.134  0.3337E+00  0.5892E+00
     -2.986  0.2093E+00  0.6204E+00
     -2.837  0.1888E+00  0.6485E+00
     -2.688  0.1152E-01  0.6502E+00
     -2.539  0.9752E-01  0.6647E+00
     -2.390  0.2320E+00  0.6992E+00
     -2.241  0.2892E+00  0.7423E+00
     -2.093  0.3504E+00  0.7945E+00
     -1.944  0.3713E-01  0.8000E+00
     -1.795  0.1310E-03  0.8000E+00
     -1.646  0.9758E-03  0.8001E+00
     -1.497  0.8530E-01  0.8128E+00
     -1.348  0.2376E+00  0.8482E+00
     -1.199  0.2428E+00  0.8844E+00
     -1.051  0.3414E+00  0.9352E+00
     -0.902  0.9833E-01  0.9498E+00
     -0.753  0.1308E-02  0.9500E+00
     -0.604  0.3155E-06  0.9500E+00
     -0.455  0.1338E-04  0.9500E+00
     -0.306  0.1152E-01  0.9517E+00
     -0.158  0.2579E+00  0.9901E+00
     -0.009  0.3643E+00  0.1044E+01
      0.140  0.3875E-01  0.1050E+01
      0.289  0.7980E-01  0.1062E+01
      0.438  0.2282E+00  0.1096E+01
      0.587  0.2717E-01  0.1100E+01
      0.736  0.7740E-04  0.1100E+01
      0.884  0.5461E-05  0.1100E+01
      1.033  0.6779E-02  0.1101E+01
      1.182  0.1772E+00  0.1127E+01
      1.331  0.3358E+00  0.1177E+01
      1.480  0.1481E+00  0.1199E+01
      1.629  0.3973E-02  0.1200E+01
      1.777  0.1661E-03  0.1200E+01
      1.926  0.3900E-01  0.1206E+01
      2.075  0.2362E+00  0.1241E+01
      2.224  0.9630E-01  0.1255E+01
      2.373  0.2353E+00  0.1290E+01
      2.522  0.6442E-01  0.1300E+01
      2.671  0.4987E-03  0.1300E+01
      2.819  0.8747E-03  0.1300E+01
      2.968  0.1118E+00  0.1317E+01
      3.117  0.4647E+00  0.1386E+01
      3.266  0.9387E-01  0.1400E+01
      3.415  0.5949E-03  0.1400E+01
      3.564  0.3291E-06  0.1400E+01
      3.712  0.1160E-02  0.1400E+01
      3.861  0.9140E-01  0.1414E+01
      4.010  0.2213E+00  0.1447E+01
      4.159  0.2326E-01  0.1450E+01
      4.308  0.9434E-01  0.1464E+01
      4.457  0.2314E+00  0.1499E+01
      4.606  0.5132E+00  0.1575E+01
      4.754  0.1013E+01  0.1726E+01
      4.903  0.5072E+00  0.1801E+01
      5.052  0.3574E+00  0.1854E+01
      5.201  0.3149E+00  0.1901E+01
      5.350  0.8151E+00  0.2023E+01
      5.499  0.1234E+01  0.2206E+01
      5.647  0.7550E+00  0.2319E+01
      5.796  0.1129E+01  0.2487E+01
      5.945  0.9084E+00  0.2622E+01
      6.094  0.5996E+00  0.2711E+01
      6.243  0.2527E+00  0.2749E+01
      6.392  0.8262E-02  0.2750E+01
      6.541  0.4869E-01  0.2757E+01
      6.689  0.2464E+00  0.2794E+01
      6.838  0.3444E+00  0.2845E+01
      6.987  0.3611E+00  0.2899E+01
      7.136  0.3128E+00  0.2946E+01
      7.285  0.3509E+00  0.2998E+01
      7.434  0.8440E-01  0.3010E+01
      7.582  0.2382E+00  0.3046E+01
      7.731  0.2393E+00  0.3081E+01
      7.880  0.4210E+00  0.3144E+01
      8.029  0.2357E+00  0.3179E+01
      8.178  0.1366E+00  0.3199E+01
      8.327  0.3661E-02  0.3200E+01
      8.476  0.5904E-01  0.3209E+01
      8.624  0.4530E+00  0.3276E+01
      8.773  0.1577E+00  0.3300E+01
      8.922  0.3340E-02  0.3300E+01
      9.071  0.1018E+00  0.3315E+01
      9.220  0.2218E+00  0.3348E+01
      9.369  0.2474E+00  0.3385E+01
      9.517  0.3896E+00  0.3443E+01
      9.666  0.4552E-01  0.3450E+01
      9.815  0.1988E-01  0.3453E+01
      9.964  0.2408E+00  0.3489E+01
     10.113  0.3694E+00  0.3544E+01
     10.262  0.3268E+00  0.3592E+01
     10.411  0.5076E-01  0.3600E+01
     10.559  0.4783E-02  0.3601E+01
     10.708  0.1489E+00  0.3623E+01
     10.857  0.1782E+00  0.3649E+01
     11.006  0.1434E+00  0.3671E+01
     11.155  0.1869E+00  0.3699E+01
     11.304  0.1201E-01  0.3700E+01
     11.452  0.1148E+00  0.3717E+01
     11.601  0.2046E+00  0.3748E+01
     11.750  0.5754E-01  0.3756E+01
     11.899  0.4179E+00  0.3819E+01
     12.048  0.2073E+00  0.3849E+01
     12.197  0.7889E-01  0.3861E+01
     12.346  0.2312E+00  0.3896E+01
     12.494  0.1259E+00  0.3914E+01
     12.643  0.4709E+00  0.3984E+01
     12.792  0.1129E+00  0.4001E+01
     12.941  0.6110E+00  0.4092E+01
     13.090  0.1875E+01  0.4371E+01
     13.239  0.1074E+01  0.4531E+01
     13.387  0.8617E+00  0.4659E+01
     13.536  0.6368E+00  0.4754E+01
     13.685  0.2936E+00  0.4798E+01
     13.834  0.3760E+00  0.4854E+01
     13.983  0.8035E+00  0.4973E+01
     14.132  0.4884E+00  0.5046E+01
     14.281  0.1836E+00  0.5073E+01
     14.429  0.8195E+00  0.5195E+01
     14.578  0.9625E+00  0.5339E+01
     14.727  0.1081E+01  0.5500E+01
     14.876  0.5725E+00  0.5585E+01
     15.025  0.3026E+00  0.5630E+01
     15.174  0.3926E+00  0.5688E+01
     15.322  0.3337E+00  0.5738E+01
     15.471  0.5322E+00  0.5817E+01
     15.620  0.7732E+00  0.5932E+01
     15.769  0.4648E+00  0.6002E+01
     15.918  0.4842E+00  0.6074E+01
     16.067  0.2662E+00  0.6113E+01
     16.216  0.4491E+00  0.6180E+01
     16.364  0.3388E+00  0.6231E+01
     16.513  0.4363E+00  0.6295E+01
     16.662  0.1506E+01  0.6520E+01
     16.811  0.1281E+01  0.6710E+01
     16.960  0.6924E+00  0.6813E+01
     17.109  0.7515E+00  0.6925E+01
     17.257  0.6879E+00  0.7028E+01
     17.406  0.1922E+00  0.7056E+01
     17.555  0.3526E+00  0.7109E+01
     17.704  0.2665E+00  0.7148E+01
     17.853  0.1802E+00  0.7175E+01
     18.002  0.5289E+00  0.7254E+01
     18.151  0.1046E+01  0.7410E+01
     18.299  0.1874E+01  0.7689E+01
     18.448  0.1362E+01  0.7891E+01
     18.597  0.9526E+00  0.8033E+01
     18.746  0.8615E+00  0.8161E+01
     18.895  0.2575E+00  0.8200E+01
     19.044  0.2938E+00  0.8243E+01
     19.192  0.1104E+01  0.8408E+01
     19.341  0.3023E+00  0.8453E+01
     19.490  0.4192E+00  0.8515E+01
     19.639  0.9792E+00  0.8661E+01
     19.788  0.1119E+01  0.8827E+01
     19.937  0.6199E+00  0.8920E+01
     20.086  0.2027E+00  0.8950E+01
     20.234  0.2780E+00  0.8991E+01
     20.383  0.4943E+00  0.9065E+01
     20.532  0.4069E+00  0.9125E+01
     20.681  0.1819E+01  0.9396E+01
     20.830  0.2919E+01  0.9831E+01
     20.979  0.7311E+00  0.9940E+01
     21.127  0.2320E+00  0.9974E+01
     21.276  0.3011E+00  0.1002E+02
     21.425  0.5901E+00  0.1011E+02
     21.574  0.2844E+00  0.1015E+02
     21.723  0.8415E+00  0.1027E+02
     21.872  0.2394E+01  0.1063E+02
     22.021  0.1107E+01  0.1080E+02
     22.169  0.3712E+00  0.1085E+02
     22.318  0.3814E+00  0.1091E+02
     22.467  0.6069E+00  0.1100E+02
     22.616  0.4215E+00  0.1106E+02
     22.765  0.9495E+00  0.1120E+02
     22.914  0.2073E+01  0.1151E+02
     23.063  0.1381E+01  0.1172E+02
     23.211  0.1115E+01  0.1188E+02
     23.360  0.9667E+00  0.1203E+02
     23.509  0.2300E+00  0.1206E+02
     23.658  0.4721E+00  0.1213E+02
     23.807  0.3523E+00  0.1218E+02
     23.956  0.1145E+01  0.1235E+02
     24.104  0.6179E+00  0.1245E+02
     24.253  0.1148E+00  0.1246E+02
     24.402  0.2890E+00  0.1251E+02
     24.551  0.5371E+00  0.1259E+02
     24.700  0.5495E+00  0.1267E+02
     24.849  0.6474E+00  0.1276E+02
     24.998  0.4242E+00  0.1283E+02
     25.146  0.6470E+00  0.1292E+02
     25.295  0.1815E+00  0.1295E+02
     25.444  0.4485E-01  0.1296E+02
     25.593  0.2505E+00  0.1299E+02
     25.742  0.3149E+00  0.1304E+02
     25.891  0.6117E+00  0.1313E+02
     26.039  0.4053E+00  0.1319E+02
     26.188  0.1275E+00  0.1321E+02
     26.337  0.2835E+00  0.1325E+02
     26.486  0.2685E+00  0.1329E+02
     26.635  0.7903E-01  0.1330E+02
     26.784  0.2367E+00  0.1334E+02
     26.933  0.4007E+00  0.1340E+02
     27.081  0.1493E+01  0.1362E+02
     27.230  0.1315E+01  0.1382E+02
     27.379  0.7367E+00  0.1393E+02
     27.528  0.1603E+00  0.1395E+02
     27.677  0.2733E+00  0.1399E+02
     27.826  0.3819E+00  0.1405E+02
     27.974  0.3331E+00  0.1410E+02
     28.123  0.3234E+00  0.1415E+02
     28.272  0.2326E-01  0.1415E+02
     28.421  0.1159E-01  0.1415E+02
     28.570  0.2376E+00  0.1419E+02
     28.719  0.3658E+00  0.1424E+02
     28.868  0.5786E-01  0.1425E+02
     29.016  0.1411E+00  0.1427E+02
     29.165  0.4652E+00  0.1434E+02
     29.314  0.6444E-01  0.1435E+02
     29.463  0.2198E-03  0.1435E+02
     29.612  0.1066E-02  0.1435E+02
     29.761  0.8836E-01  0.1436E+02
     29.909  0.2232E+00  0.1440E+02
     30.058  0.2326E-01  0.1440E+02
     30.207  0.2077E-01  0.1440E+02
     30.356  0.3781E+00  0.1446E+02
     30.505  0.2666E+00  0.1450E+02
     30.654  0.6449E-02  0.1450E+02
     30.803  0.1102E-01  0.1450E+02
     30.951  0.4176E+00  0.1456E+02
     31.100  0.5512E+00  0.1465E+02
     31.249  0.2786E-01  0.1465E+02
     31.398  0.3233E-02  0.1465E+02
     31.547  0.1359E+00  0.1467E+02
     31.696  0.3877E+00  0.1473E+02
     31.844  0.4426E+00  0.1479E+02
     31.993  0.4246E-01  0.1480E+02
     32.142  0.2067E+00  0.1483E+02
     32.291  0.4324E+00  0.1490E+02
     32.440  0.2472E+00  0.1493E+02
     32.589  0.1320E+00  0.1495E+02
     32.738  0.3114E+00  0.1500E+02
     32.886  0.3277E+00  0.1505E+02
     33.035  0.1276E+00  0.1507E+02
     33.184  0.2480E+00  0.1510E+02
     33.333  0.4363E+00  0.1517E+02
     33.482  0.2104E+00  0.1520E+02
     33.631  0.4444E-01  0.1521E+02
     33.779  0.2994E+00  0.1525E+02
     33.928  0.2941E+00  0.1529E+02
     34.077  0.4962E-01  0.1530E+02
     34.226  0.3573E+00  0.1535E+02
     34.375  0.7298E+00  0.1546E+02
     34.524  0.5987E+00  0.1555E+02
     34.673  0.5831E+00  0.1564E+02
     34.821  0.1156E+00  0.1566E+02
     34.970  0.2377E+00  0.1569E+02
     35.119  0.5288E-01  0.1570E+02
     35.268  0.1380E-02  0.1570E+02
     35.417  0.8826E-01  0.1571E+02
     35.566  0.2404E+00  0.1575E+02
     35.714  0.2412E+00  0.1578E+02
     35.863  0.2699E+00  0.1583E+02
     36.012  0.1824E+00  0.1585E+02
     36.161  0.3709E+00  0.1591E+02
     36.310  0.5595E+00  0.1599E+02
     36.459  0.6166E-01  0.1600E+02
     36.608  0.1917E-03  0.1600E+02
     36.756  0.9562E-08  0.1600E+02
     36.905  0.6489E-14  0.1600E+02
     37.054  0.0000E+00  0.1600E+02
     37.203  0.0000E+00  0.1600E+02
     37.352  0.0000E+00  0.1600E+02
     37.501  0.0000E+00  0.1600E+02
     37.649  0.0000E+00  0.1600E+02
     37.798  0.0000E+00  0.1600E+02
     37.947  0.0000E+00  0.1600E+02
     38.096  0.0000E+00  0.1600E+02
     38.245  0.0000E+00  0.1600E+02
     38.24482526     -6.40906964  301     12.76199732      1.00000000
     -6.409  0.0000E+00  0.0000E+00  0.0000E+00  0.0000E+00  0.0000E+00  0.0000E+00  0.0000E+00  0.0000E+00  0.0000E+00
     -6.260  0.0000E+00  0.0000E+00  0.0000E+00  0.0000E+00  0.0000E+00  0.0000E+00  0.0000E+00  0.0000E+00  0.0000E+00
     -6.111  0.0000E+00  0.0000E+00  0.0000E+00  0.0000E+00  0.0000E+00  0.0000E+00  0.0000E+00  0.0000E+00  0.0000E+00
     -5.963  0.0000E+00  0.0000E+00  0.0000E+00  0.0000E+00  0.0000E+00  0.0000E+00  0.0000E+00  0.0000E+00  0.0000E+00
     -5.814  0.0000E+00  0.0000E+00  0.0000E+00  0.0000E+00  0.0000E+00  0.0000E+00  0.0000E+00  0.0000E+00  0.0000E+00
     -5.665  0.0000E+00  0.0000E+00  0.0000E+00  0.0000E+00  0.0000E+00  0.0000E+00  0.0000E+00  0.0000E+00  0.0000E+00
     -5.516  0.0000E+00  0.0000E+00  0.0000E+00  0.0000E+00  0.0000E+00  0.0000E+00  0.0000E+00  0.0000E+00  0.0000E+00
     -5.367  0.0000E+00  0.0000E+00  0.0000E+00  0.0000E+00  0.0000E+00  0.0000E+00  0.0000E+00  0.0000E+00  0.0000E+00
     -5.218  0.0000E+00  0.0000E+00  0.0000E+00  0.0000E+00  0.0000E+00  0.0000E+00  0.0000E+00  0.0000E+00  0.0000E+00
     -5.069  0.0000E+00  0.0000E+00  0.0000E+00  0.0000E+00  0.0000E+00  0.0000E+00  0.0000E+00  0.0000E+00  0.0000E+00
     -4.921  0.3758E-14  0.3122E-34  0.3122E-34  0.3122E-34  0.0000E+00  0.0000E+00  0.0000E+00  0.0000E+00  0.0000E+00
     -4.772  0.5541E-08  0.1425E-14  0.1425E-14  0.1425E-14  0.0000E+00  0.0000E+00  0.0000E+00  0.0000E+00  0.0000E+00
     -4.623  0.1108E-03  0.4109E-09  0.4109E-09  0.4109E-09  0.0000E+00  0.0000E+00  0.0000E+00  0.0000E+00  0.0000E+00
     -4.474  0.3564E-01  0.1919E-05  0.1919E-05  0.1919E-05  0.0000E+00  0.0000E+00  0.0000E+00  0.0000E+00  0.0000E+00
     -4.325  0.3458E+00  0.1925E-03  0.1925E-03  0.1925E-03  0.0000E+00  0.0000E+00  0.0000E+00  0.0000E+00  0.0000E+00
     -4.176  0.3495E+00  0.6939E-03  0.6939E-03  0.6939E-03  0.0000E+00  0.0000E+00  0.0000E+00  0.0000E+00  0.0000E+00
     -4.028  0.1091E+00  0.6599E-03  0.6599E-03  0.6599E-03  0.0000E+00  0.0000E+00  0.0000E+00  0.0000E+00  0.0000E+00
     -3.879  0.1813E+00  0.1819E-02  0.1819E-02  0.1819E-02  0.0000E+00  0.0000E+00  0.0000E+00  0.0000E+00  0.0000E+00
     -3.730  0.1240E+00  0.1435E-02  0.1435E-02  0.1435E-02  0.0000E+00  0.0000E+00  0.0000E+00  0.0000E+00  0.0000E+00
     -3.581  0.6830E-01  0.1186E-02  0.1186E-02  0.1186E-02  0.0000E+00  0.0000E+00  0.0000E+00  0.0000E+00  0.0000E+00
     -3.432  0.6399E-01  0.1194E-02  0.1194E-02  0.1194E-02  0.0000E+00  0.0000E+00  0.0000E+00  0.0000E+00  0.0000E+00
     -3.283  0.9076E-01  0.2244E-02  0.2244E-02  0.2244E-02  0.0000E+00  0.0000E+00  0.0000E+00  0.0000E+00  0.0000E+00
     -3.134  0.1198E+00  0.3175E-02  0.3175E-02  0.3175E-02  0.0000E+00  0.0000E+00  0.0000E+00  0.0000E+00  0.0000E+00
     -2.986  0.7435E-01  0.2259E-02  0.2259E-02  0.2259E-02  0.0000E+00  0.0000E+00  0.0000E+00  0.0000E+00  0.0000E+00
     -2.837  0.6677E-01  0.2145E-02  0.2145E-02  0.2145E-02  0.0000E+00  0.0000E+00  0.0000E+00  0.0000E+00  0.0000E+00
     -2.688  0.4059E-02  0.1365E-03  0.1365E-03  0.1365E-03  0.0000E+00  0.0000E+00  0.0000E+00  0.0000E+00  0.0000E+00
     -2.539  0.3342E-01  0.1498E-02  0.1498E-02  0.1498E-02  0.0000E+00  0.0000E+00  0.0000E+00  0.0000E+00  0.0000E+00
     -2.390  0.7944E-01  0.3583E-02  0.3583E-02  0.3583E-02  0.0000E+00  0.0000E+00  0.0000E+00  0.0000E+00  0.0000E+00
     -2.241  0.9803E-01  0.4829E-02  0.4829E-02  0.4829E-02  0.0000E+00  0.0000E+00  0.0000E+00  0.0000E+00  0.0000E+00
     -2.093  0.1186E+00  0.5938E-02  0.5938E-02  0.5938E-02  0.0000E+00  0.0000E+00  0.0000E+00  0.0000E+00  0.0000E+00
     -1.944  0.1255E-01  0.6326E-03  0.6326E-03  0.6326E-03  0.0000E+00  0.0000E+00  0.0000E+00  0.0000E+00  0.0000E+00
     -1.795  0.4428E-04  0.2236E-05  0.2236E-05  0.2236E-05  0.0000E+00  0.0000E+00  0.0000E+00  0.0000E+00  0.0000E+00
     -1.646  0.3130E-03  0.2302E-04  0.2302E-04  0.2302E-04  0.0000E+00  0.0000E+00  0.0000E+00  0.0000E+00  0.0000E+00
     -1.497  0.2736E-01  0.2012E-02  0.2012E-02  0.2012E-02  0.0000E+00  0.0000E+00  0.0000E+00  0.0000E+00  0.0000E+00
     -1.348  0.7623E-01  0.5605E-02  0.5605E-02  0.5605E-02  0.0000E+00  0.0000E+00  0.0000E+00  0.0000E+00  0.0000E+00
     -1.199  0.7809E-01  0.5747E-02  0.5747E-02  0.5747E-02  0.0000E+00  0.0000E+00  0.0000E+00  0.0000E+00  0.0000E+00
     -1.051  0.1089E+00  0.8379E-02  0.8379E-02  0.8379E-02  0.0000E+00  0.0000E+00  0.0000E+00  0.0000E+00  0.0000E+00
     -0.902  0.3119E-01  0.2466E-02  0.2466E-02  0.2466E-02  0.0000E+00  0.0000E+00  0.0000E+00  0.0000E+00  0.0000E+00
     -0.753  0.4149E-03  0.3287E-04  0.3287E-04  0.3287E-04  0.0000E+00  0.0000E+00  0.0000E+00  0.0000E+00  0.0000E+00
     -0.604  0.1000E-06  0.7929E-08  0.7929E-08  0.7929E-08  0.0000E+00  0.0000E+00  0.0000E+00  0.0000E+00  0.0000E+00
     -0.455  0.3928E-05  0.4414E-06  0.4414E-06  0.4414E-06  0.0000E+00  0.0000E+00  0.0000E+00  0.0000E+00  0.0000E+00
     -0.306  0.3389E-02  0.3786E-03  0.3786E-03  0.3786E-03  0.0000E+00  0.0000E+00  0.0000E+00  0.0000E+00  0.0000E+00
     -0.158  0.7664E-01  0.8292E-02  0.8292E-02  0.8292E-02  0.0000E+00  0.0000E+00  0.0000E+00  0.0000E+00  0.0000E+00
     -0.009  0.1102E+00  0.1124E-01  0.1124E-01  0.1124E-01  0.0000E+00  0.0000E+00  0.0000E+00  0.0000E+00  0.0000E+00
      0.140  0.1186E-01  0.1162E-02  0.1162E-02  0.1162E-02  0.0000E+00  0.0000E+00  0.0000E+00  0.0000E+00  0.0000E+00
      0.289  0.2340E-01  0.2721E-02  0.2721E-02  0.2721E-02  0.0000E+00  0.0000E+00  0.0000E+00  0.0000E+00  0.0000E+00
      0.438  0.6689E-01  0.7782E-02  0.7782E-02  0.7782E-02  0.0000E+00  0.0000E+00  0.0000E+00  0.0000E+00  0.0000E+00
      0.587  0.7966E-02  0.9269E-03  0.9269E-03  0.9269E-03  0.0000E+00  0.0000E+00  0.0000E+00  0.0000E+00  0.0000E+00
      0.736  0.2269E-04  0.2640E-05  0.2640E-05  0.2640E-05  0.0000E+00  0.0000E+00  0.0000E+00  0.0000E+00  0.0000E+00
      0.884  0.1676E-05  0.1749E-06  0.1749E-06  0.1749E-06  0.0000E+00  0.0000E+00  0.0000E+00  0.0000E+00  0.0000E+00
      1.033  0.2081E-02  0.2172E-03  0.2172E-03  0.2172E-03  0.0000E+00  0.0000E+00  0.0000E+00  0.0000E+00  0.0000E+00
      1.182  0.5400E-01  0.5782E-02  0.5782E-02  0.5782E-02  0.0000E+00  0.0000E+00  0.0000E+00  0.0000E+00  0.0000E+00
      1.331  0.9498E-01  0.1300E-01  0.1300E-01  0.1300E-01  0.0000E+00  0.0000E+00  0.0000E+00  0.0000E+00  0.0000E+00
      1.480  0.3904E-01  0.6526E-02  0.6526E-02  0.6526E-02  0.0000E+00  0.0000E+00  0.0000E+00  0.0000E+00  0.0000E+00
      1.629  0.1041E-02  0.1768E-03  0.1768E-03  0.1768E-03  0.0000E+00  0.0000E+00  0.0000E+00  0.0000E+00  0.0000E+00
      1.777  0.4506E-04  0.7135E-05  0.7135E-05  0.7135E-05  0.0000E+00  0.0000E+00  0.0000E+00  0.0000E+00  0.0000E+00
      1.926  0.1059E-01  0.1675E-02  0.1675E-02  0.1675E-02  0.0000E+00  0.0000E+00  0.0000E+00  0.0000E+00  0.0000E+00
      2.075  0.6414E-01  0.1014E-01  0.1014E-01  0.1014E-01  0.0000E+00  0.0000E+00  0.0000E+00  0.0000E+00  0.0000E+00
      2.224  0.3273E-01  0.2588E-02  0.2588E-02  0.2588E-02  0.0000E+00  0.0000E+00  0.0000E+00  0.0000E+00  0.0000E+00
      2.373  0.1068E+00  0.1837E-04  0.1837E-04  0.1837E-04  0.0000E+00  0.0000E+00  0.0000E+00  0.0000E+00  0.0000E+00
      2.522  0.2927E-01  0.2172E-08  0.2172E-08  0.2172E-08  0.0000E+00  0.0000E+00  0.0000E+00  0.0000E+00  0.0000E+00
      2.671  0.2266E-03  0.8181E-08  0.8181E-08  0.8181E-08  0.0000E+00  0.0000E+00  0.0000E+00  0.0000E+00  0.0000E+00
      2.819  0.1585E-03  0.5839E-04  0.5839E-04  0.5839E-04  0.0000E+00  0.0000E+00  0.0000E+00  0.0000E+00  0.0000E+00
      2.968  0.1633E-01  0.8307E-02  0.8307E-02  0.8307E-02  0.0000E+00  0.0000E+00  0.0000E+00  0.0000E+00  0.0000E+00
      3.117  0.4937E-01  0.3850E-01  0.3850E-01  0.3850E-01  0.0000E+00  0.0000E+00  0.0000E+00  0.0000E+00  0.0000E+00
      3.266  0.6227E-02  0.8580E-02  0.8580E-02  0.8580E-02  0.0000E+00  0.0000E+00  0.0000E+00  0.0000E+00  0.0000E+00
      3.415  0.1898E-04  0.5878E-04  0.5878E-04  0.5878E-04  0.0000E+00  0.0000E+00  0.0000E+00  0.0000E+00  0.0000E+00
      3.564  0.6975E-07  0.1985E-07  0.1985E-07  0.1985E-07  0.0000E+00  0.0000E+00  0.0000E+00  0.0000E+00  0.0000E+00
      3.712  0.3091E-03  0.5649E-04  0.5649E-04  0.5649E-04  0.0000E+00  0.0000E+00  0.0000E+00  0.0000E+00  0.0000E+00
      3.861  0.2434E-01  0.4449E-02  0.4449E-02  0.4449E-02  0.0000E+00  0.0000E+00  0.0000E+00  0.0000E+00  0.0000E+00
      4.010  0.5894E-01  0.1077E-01  0.1077E-01  0.1077E-01  0.0000E+00  0.0000E+00  0.0000E+00  0.0000E+00  0.0000E+00
      4.159  0.6044E-02  0.1163E-02  0.1163E-02  0.1163E-02  0.0000E+00  0.0000E+00  0.0000E+00  0.0000E+00  0.0000E+00
      4.308  0.1377E-01  0.6921E-02  0.6921E-02  0.6921E-02  0.0000E+00  0.0000E+00  0.0000E+00  0.0000E+00  0.0000E+00
      4.457  0.3202E-01  0.1751E-01  0.1751E-01  0.1751E-01  0.0000E+00  0.0000E+00  0.0000E+00  0.0000E+00  0.0000E+00
      4.606  0.3050E-02  0.5963E-01  0.5963E-01  0.5963E-01  0.0000E+00  0.0000E+00  0.0000E+00  0.0000E+00  0.0000E+00
      4.754  0.6676E-05  0.1194E+00  0.1194E+00  0.1194E+00  0.0000E+00  0.0000E+00  0.0000E+00  0.0000E+00  0.0000E+00
      4.903  0.3105E-09  0.5946E-01  0.5946E-01  0.5946E-01  0.0000E+00  0.0000E+00  0.0000E+00  0.0000E+00  0.0000E+00
      5.052  0.4422E-05  0.4166E-01  0.4166E-01  0.4166E-01  0.0000E+00  0.0000E+00  0.0000E+00  0.0000E+00  0.0000E+00
      5.201  0.7069E-02  0.3472E-01  0.3472E-01  0.3472E-01  0.0000E+00  0.0000E+00  0.0000E+00  0.0000E+00  0.0000E+00
      5.350  0.2483E+00  0.3159E-01  0.3159E-01  0.3159E-01  0.0000E+00  0.0000E+00  0.0000E+00  0.0000E+00  0.0000E+00
      5.499  0.4619E+00  0.2651E-01  0.2651E-01  0.2651E-01  0.0000E+00  0.0000E+00  0.0000E+00  0.0000E+00  0.0000E+00
      5.647  0.2400E+00  0.2782E-01  0.2782E-01  0.2782E-01  0.0000E+00  0.0000E+00  0.0000E+00  0.0000E+00  0.0000E+00
      5.796  0.3019E+00  0.6048E-01  0.6048E-01  0.6048E-01  0.0000E+00  0.0000E+00  0.0000E+00  0.0000E+00  0.0000E+00
      5.945  0.3575E+00  0.2541E-01  0.2541E-01  0.2541E-01  0.0000E+00  0.0000E+00  0.0000E+00  0.0000E+00  0.0000E+00
      6.094  0.2523E+00  0.1237E-01  0.1237E-01  0.1237E-01  0.0000E+00  0.0000E+00  0.0000E+00  0.0000E+00  0.0000E+00
      6.243  0.6723E-01  0.1307E-01  0.1307E-01  0.1307E-01  0.0000E+00  0.0000E+00  0.0000E+00  0.0000E+00  0.0000E+00
      6.392  0.1391E-02  0.5850E-03  0.5850E-03  0.5850E-03  0.0000E+00  0.0000E+00  0.0000E+00  0.0000E+00  0.0000E+00
      6.541  0.1435E-05  0.5382E-02  0.5382E-02  0.5382E-02  0.0000E+00  0.0000E+00  0.0000E+00  0.0000E+00  0.0000E+00
      6.689  0.8343E-03  0.2689E-01  0.2689E-01  0.2689E-01  0.0000E+00  0.0000E+00  0.0000E+00  0.0000E+00  0.0000E+00
      6.838  0.2806E-01  0.2633E-01  0.2633E-01  0.2633E-01  0.0000E+00  0.0000E+00  0.0000E+00  0.0000E+00  0.0000E+00
      6.987  0.3459E-01  0.2561E-01  0.2561E-01  0.2561E-01  0.0000E+00  0.0000E+00  0.0000E+00  0.0000E+00  0.0000E+00
      7.136  0.3853E-01  0.2346E-01  0.2346E-01  0.2346E-01  0.0000E+00  0.0000E+00  0.0000E+00  0.0000E+00  0.0000E+00
      7.285  0.4237E-01  0.2659E-01  0.2659E-01  0.2659E-01  0.0000E+00  0.0000E+00  0.0000E+00  0.0000E+00  0.0000E+00
      7.434  0.2108E-01  0.4343E-02  0.4343E-02  0.4343E-02  0.0000E+00  0.0000E+00  0.0000E+00  0.0000E+00  0.0000E+00
      7.582  0.6533E-01  0.1120E-01  0.1120E-01  0.1120E-01  0.0000E+00  0.0000E+00  0.0000E+00  0.0000E+00  0.0000E+00
      7.731  0.1098E-01  0.2270E-01  0.2270E-01  0.2270E-01  0.0000E+00  0.0000E+00  0.0000E+00  0.0000E+00  0.0000E+00
      7.880  0.8317E-02  0.4125E-01  0.4125E-01  0.4125E-01  0.0000E+00  0.0000E+00  0.0000E+00  0.0000E+00  0.0000E+00
      8.029  0.2405E-01  0.1982E-01  0.1982E-01  0.1982E-01  0.0000E+00  0.0000E+00  0.0000E+00  0.0000E+00  0.0000E+00
      8.178  0.1671E-01  0.1111E-01  0.1111E-01  0.1111E-01  0.0000E+00  0.0000E+00  0.0000E+00  0.0000E+00  0.0000E+00
      8.327  0.4413E-03  0.2985E-03  0.2985E-03  0.2985E-03  0.0000E+00  0.0000E+00  0.0000E+00  0.0000E+00  0.0000E+00
      8.476  0.7149E-02  0.4750E-02  0.4750E-02  0.4750E-02  0.0000E+00  0.0000E+00  0.0000E+00  0.0000E+00  0.0000E+00
      8.624  0.7005E-01  0.3400E-01  0.3400E-01  0.3400E-01  0.0000E+00  0.0000E+00  0.0000E+00  0.0000E+00  0.0000E+00
      8.773  0.2953E-01  0.1101E-01  0.1101E-01  0.1101E-01  0.0000E+00  0.0000E+00  0.0000E+00  0.0000E+00  0.0000E+00
      8.922  0.3992E-03  0.2744E-03  0.2744E-03  0.2744E-03  0.0000E+00  0.0000E+00  0.0000E+00  0.0000E+00  0.0000E+00
      9.071  0.4027E-06  0.1050E-01  0.1050E-01  0.1050E-01  0.0000E+00  0.0000E+00  0.0000E+00  0.0000E+00  0.0000E+00
      9.220  0.4319E-03  0.2281E-01  0.2281E-01  0.2281E-01  0.0000E+00  0.0000E+00  0.0000E+00  0.0000E+00  0.0000E+00
      9.369  0.2022E-01  0.2248E-01  0.2248E-01  0.2248E-01  0.0000E+00  0.0000E+00  0.0000E+00  0.0000E+00  0.0000E+00
      9.517  0.5532E-01  0.3228E-01  0.3228E-01  0.3228E-01  0.0000E+00  0.0000E+00  0.0000E+00  0.0000E+00  0.0000E+00
      9.666  0.8441E-02  0.3513E-02  0.3513E-02  0.3513E-02  0.0000E+00  0.0000E+00  0.0000E+00  0.0000E+00  0.0000E+00
      9.815  0.4756E-02  0.1414E-02  0.1414E-02  0.1414E-02  0.0000E+00  0.0000E+00  0.0000E+00  0.0000E+00  0.0000E+00
      9.964  0.5442E-01  0.1751E-01  0.1751E-01  0.1751E-01  0.0000E+00  0.0000E+00  0.0000E+00  0.0000E+00  0.0000E+00
     10.113  0.4771E-01  0.3133E-01  0.3133E-01  0.3133E-01  0.0000E+00  0.0000E+00  0.0000E+00  0.0000E+00  0.0000E+00
     10.262  0.1972E-01  0.3126E-01  0.3126E-01  0.3126E-01  0.0000E+00  0.0000E+00  0.0000E+00  0.0000E+00  0.0000E+00
     10.411  0.2348E-02  0.4998E-02  0.4998E-02  0.4998E-02  0.0000E+00  0.0000E+00  0.0000E+00  0.0000E+00  0.0000E+00
     10.559  0.1255E-04  0.4765E-03  0.4765E-03  0.4765E-03  0.0000E+00  0.0000E+00  0.0000E+00  0.0000E+00  0.0000E+00
     10.708  0.6067E-07  0.1484E-01  0.1484E-01  0.1484E-01  0.0000E+00  0.0000E+00  0.0000E+00  0.0000E+00  0.0000E+00
     10.857  0.1231E-03  0.1778E-01  0.1778E-01  0.1778E-01  0.0000E+00  0.0000E+00  0.0000E+00  0.0000E+00  0.0000E+00
     11.006  0.4916E-02  0.1495E-01  0.1495E-01  0.1495E-01  0.0000E+00  0.0000E+00  0.0000E+00  0.0000E+00  0.0000E+00
     11.155  0.6769E-02  0.1953E-01  0.1953E-01  0.1953E-01  0.0000E+00  0.0000E+00  0.0000E+00  0.0000E+00  0.0000E+00
     11.304  0.7768E-03  0.1219E-02  0.1219E-02  0.1219E-02  0.0000E+00  0.0000E+00  0.0000E+00  0.0000E+00  0.0000E+00
     11.452  0.2274E-01  0.1005E-01  0.1005E-01  0.1005E-01  0.0000E+00  0.0000E+00  0.0000E+00  0.0000E+00  0.0000E+00
     11.601  0.4050E-01  0.1790E-01  0.1790E-01  0.1790E-01  0.0000E+00  0.0000E+00  0.0000E+00  0.0000E+00  0.0000E+00
     11.750  0.5361E-02  0.5963E-02  0.5963E-02  0.5963E-02  0.0000E+00  0.0000E+00  0.0000E+00  0.0000E+00  0.0000E+00
     11.899  0.3865E-01  0.4343E-01  0.4343E-01  0.4343E-01  0.0000E+00  0.0000E+00  0.0000E+00  0.0000E+00  0.0000E+00
     12.048  0.2652E-01  0.2043E-01  0.2043E-01  0.2043E-01  0.0000E+00  0.0000E+00  0.0000E+00  0.0000E+00  0.0000E+00
     12.197  0.6237E-02  0.7448E-02  0.7448E-02  0.7448E-02  0.0000E+00  0.0000E+00  0.0000E+00  0.0000E+00  0.0000E+00
     12.346  0.1722E-01  0.2184E-01  0.2184E-01  0.2184E-01  0.0000E+00  0.0000E+00  0.0000E+00  0.0000E+00  0.0000E+00
     12.494  0.2566E-02  0.1345E-01  0.1345E-01  0.1345E-01  0.0000E+00  0.0000E+00  0.0000E+00  0.0000E+00  0.0000E+00
     12.643  0.2266E-02  0.5423E-01  0.5423E-01  0.5423E-01  0.0000E+00  0.0000E+00  0.0000E+00  0.0000E+00  0.0000E+00
     12.792  0.6214E-03  0.1387E-01  0.1387E-01  0.1387E-01  0.0000E+00  0.0000E+00  0.0000E+00  0.0000E+00  0.0000E+00
     12.941  0.6356E-05  0.9635E-01  0.9635E-01  0.9635E-01  0.0000E+00  0.0000E+00  0.0000E+00  0.0000E+00  0.0000E+00
     13.090  0.1431E-02  0.2949E+00  0.2949E+00  0.2949E+00  0.0000E+00  0.0000E+00  0.0000E+00  0.0000E+00  0.0000E+00
     13.239  0.2781E-01  0.1589E+00  0.1589E+00  0.1589E+00  0.0000E+00  0.0000E+00  0.0000E+00  0.0000E+00  0.0000E+00
     13.387  0.2071E-01  0.1273E+00  0.1273E+00  0.1273E+00  0.0000E+00  0.0000E+00  0.0000E+00  0.0000E+00  0.0000E+00
     13.536  0.5344E-03  0.9897E-01  0.9897E-01  0.9897E-01  0.0000E+00  0.0000E+00  0.0000E+00  0.0000E+00  0.0000E+00
     13.685  0.2613E-06  0.4566E-01  0.4566E-01  0.4566E-01  0.0000E+00  0.0000E+00  0.0000E+00  0.0000E+00  0.0000E+00
     13.834  0.1503E-09  0.5804E-01  0.5804E-01  0.5804E-01  0.0000E+00  0.0000E+00  0.0000E+00  0.0000E+00  0.0000E+00
     13.983  0.7445E-09  0.1234E+00  0.1234E+00  0.1234E+00  0.0000E+00  0.0000E+00  0.0000E+00  0.0000E+00  0.0000E+00
     14.132  0.4545E-05  0.7509E-01  0.7509E-01  0.7509E-01  0.0000E+00  0.0000E+00  0.0000E+00  0.0000E+00  0.0000E+00
     14.281  0.2734E-02  0.5932E-02  0.5932E-02  0.5932E-02  0.0000E+00  0.0000E+00  0.0000E+00  0.0000E+00  0.0000E+00
     14.429  0.3740E-01  0.2623E-01  0.2623E-01  0.2623E-01  0.0000E+00  0.0000E+00  0.0000E+00  0.0000E+00  0.0000E+00
     14.578  0.3120E-01  0.7161E-01  0.7161E-01  0.7161E-01  0.0000E+00  0.0000E+00  0.0000E+00  0.0000E+00  0.0000E+00
     14.727  0.6095E-02  0.1084E+00  0.1084E+00  0.1084E+00  0.0000E+00  0.0000E+00  0.0000E+00  0.0000E+00  0.0000E+00
     14.876  0.4024E-03  0.4622E-01  0.4622E-01  0.4622E-01  0.0000E+00  0.0000E+00  0.0000E+00  0.0000E+00  0.0000E+00
     15.025  0.8557E-02  0.1478E-01  0.1478E-01  0.1478E-01  0.0000E+00  0.0000E+00  0.0000E+00  0.0000E+00  0.0000E+00
     15.174  0.2917E-01  0.3036E-01  0.3036E-01  0.3036E-01  0.0000E+00  0.0000E+00  0.0000E+00  0.0000E+00  0.0000E+00
     15.322  0.2170E-01  0.1171E-01  0.1171E-01  0.1171E-01  0.0000E+00  0.0000E+00  0.0000E+00  0.0000E+00  0.0000E+00
     15.471  0.1802E-01  0.1362E-01  0.1362E-01  0.1362E-01  0.0000E+00  0.0000E+00  0.0000E+00  0.0000E+00  0.0000E+00
     15.620  0.2697E-01  0.7048E-01  0.7048E-01  0.7048E-01  0.0000E+00  0.0000E+00  0.0000E+00  0.0000E+00  0.0000E+00
     15.769  0.3080E-01  0.2948E-01  0.2948E-01  0.2948E-01  0.0000E+00  0.0000E+00  0.0000E+00  0.0000E+00  0.0000E+00
     15.918  0.3087E-01  0.3514E-01  0.3514E-01  0.3514E-01  0.0000E+00  0.0000E+00  0.0000E+00  0.0000E+00  0.0000E+00
     16.067  0.2791E-01  0.4323E-02  0.4323E-02  0.4323E-02  0.0000E+00  0.0000E+00  0.0000E+00  0.0000E+00  0.0000E+00
     16.216  0.3106E-01  0.4593E-04  0.4593E-04  0.4593E-04  0.0000E+00  0.0000E+00  0.0000E+00  0.0000E+00  0.0000E+00
     16.364  0.2905E-01  0.1618E-03  0.1618E-03  0.1618E-03  0.0000E+00  0.0000E+00  0.0000E+00  0.0000E+00  0.0000E+00
     16.513  0.8470E-01  0.1290E-02  0.1290E-02  0.1290E-02  0.0000E+00  0.0000E+00  0.0000E+00  0.0000E+00  0.0000E+00
     16.662  0.2643E+00  0.4916E-01  0.4916E-01  0.4916E-01  0.0000E+00  0.0000E+00  0.0000E+00  0.0000E+00  0.0000E+00
     16.811  0.1688E+00  0.1075E+00  0.1075E+00  0.1075E+00  0.0000E+00  0.0000E+00  0.0000E+00  0.0000E+00  0.0000E+00