    1    1    1    1
  0.1482975E+02  0.2757716E-09  0.2757716E-09  0.2757716E-09  0.5000000E-15
  1.000000000000000E-004
  CAR 
 fcc Si                                  
      4     40      8
 
  0.5000000E+00  0.5000000E+00  0.5000000E+00  0.2500000E-01
      1          2.311632   1.000000
      2          3.056206   1.000000
      3         18.188020   0.000000
      4         18.188020   0.000000
      5         20.733372   0.000000
      6         20.733372   0.000000
      7         22.977489   0.000000
      8         25.524288   0.000000
 
  0.4444444E+00  0.4444444E+00  0.4444444E+00  0.2500000E-01
      1          1.178221   1.000000
      2          4.348156   1.000000
      3         18.178267   0.000000
      4         18.178267   0.000000
      5         20.891999   0.000000
      6         20.891999   0.000000
      7         22.928887   0.000000
      8         25.717384   0.000000
 
  0.3888889E+00  0.3888889E+00  0.3888889E+00  0.2500000E-01
      1         -0.097570   1.000000
      2          6.100359   1.000000
      3         18.177310   0.000000
      4         18.177310   0.000000
      5         21.336738   0.000000
      6         21.336738   0.000000
      7         22.840737   0.000000
      8         26.243262   0.000000
 
  0.3333333E+00  0.3333333E+00  0.3333333E+00  0.2500000E-01
      1         -1.222282   1.000000
      2          8.014112   1.000000
      3         18.237068   0.000000
      4         18.237068   0.000000
      5         22.001576   0.000000
      6         22.001576   0.000000
      7         22.768838   0.000000
      8         27.008380   0.000000
 
  0.2777778E+00  0.2777778E+00  0.2777778E+00  0.2500000E-01
      1         -2.181393   1.000000
      2         10.068320   1.000000
      3         18.391920   0.000000
      4         18.391920   0.000000
      5         22.753181   0.000000
      6         22.807287   0.000000
      7         22.807287   0.000000
      8         27.939351   0.000000
 
  0.2222222E+00  0.2222222E+00  0.2222222E+00  0.2500000E-01
      1         -2.969487   1.000000
      2         12.250252   1.000000
      3         18.671847   0.000000
      4         18.671847   0.000000
      5         22.824903   0.000000
      6         23.598686   0.000000
      7         23.598686   0.000000
      8         27.257055   0.000000
 
  0.1666667E+00  0.1666667E+00  0.1666667E+00  0.2500000E-01
      1         -3.584855   1.000000
      2         14.535558   0.000000
      3         19.081871   0.000000
      4         19.081871   0.000000
      5         22.918042   0.000000
      6         23.885357   0.000000
      7         23.885357   0.000000
      8         26.726408   0.000000
 
  0.1111111E+00  0.1111111E+00  0.1111111E+00  0.2500000E-01
      1         -4.025667   1.000000
      2         16.878231   0.000000
      3         19.619171   0.000000
      4         19.619171   0.000000
      5         22.923769   0.000000
      6         23.254189   0.000000
      7         23.254190   0.000000
      8         27.287872   0.000000
 
  0.5555556E-01  0.5555556E-01  0.5555556E-01  0.2500000E-01
      1         -4.290669   1.000000
      2         19.146314   0.000000
      3         20.250479   0.000000
      4         20.250479   0.000000
      5         22.355920   0.000000
      6         22.355920   0.000000
      7         22.569829   0.000000
      8         27.721325   0.000000
 
  0.2775558E-16  0.2775558E-16  0.2775558E-16  0.2500000E-01
      1         -4.379347   1.000000
      2         20.693447   0.000000
      3         20.693626   0.000000
      4         20.693626   0.000000
      5         21.769395   0.000000
      6         21.769510   0.000000
      7         21.769510   0.000000
      8         26.975613   0.000000
 
  0.0000000E+00  0.0000000E+00  0.0000000E+00  0.2500000E-01
      1         -4.379347   1.000000
      2         20.693447   0.000000
      3         20.693626   0.000000
      4         20.693626   0.000000
      5         21.769395   0.000000
      6         21.769510   0.000000
      7         21.769510   0.000000
      8         26.975613   0.000000
 
  0.0000000E+00  0.5555556E-01  0.5555556E-01  0.2500000E-01
      1         -4.261113   1.000000
      2         19.470955   0.000000
      3         19.471070   0.000000
      4         20.411233   0.000000
      5         21.130892   0.000000
      6         23.188911   0.000000
      7         23.188925   0.000000
      8         27.343948   0.000000
 
  0.0000000E+00  0.1111111E+00  0.1111111E+00  0.2500000E-01
      1         -3.907862   1.000000
      2         17.995734   0.000000
      3         17.995835   0.000000
      4         19.641008   0.000000
      5         19.806069   0.000000
      6         24.721624   0.000000
      7         25.100054   0.000000
      8         25.100073   0.000000
 
  0.0000000E+00  0.1666667E+00  0.1666667E+00  0.2500000E-01
      1         -3.320472   1.000000
      2         16.679602   0.000000
      3         16.679697   0.000000
      4         18.446887   0.000000
      5         18.463346   0.000000
      6         21.964962   0.000000
      7         27.089873   0.000000
      8         27.089918   0.000000
 
  0.0000000E+00  0.2222222E+00  0.2222222E+00  0.2500000E-01
      1         -2.500816   1.000000
      2         15.554443   0.000000
      3         15.554531   0.000000
      4         16.724872   0.000000
      5         17.229499   0.000000
      6         19.817435   0.000000
      7         29.073020   0.000000
      8         29.073072   0.000000
 
  0.0000000E+00  0.2777778E+00  0.2777778E+00  0.2500000E-01
      1         -1.450949   1.000000
      2         14.399191   0.000000
      3         14.625201   0.000000
      4         14.625306   0.000000
      5         16.187883   0.000000
      6         18.462536   0.000000
      7         30.962128   0.000000
      8         30.965268   0.000000
 
  0.0000000E+00  0.3333333E+00  0.3333333E+00  0.2500000E-01
      1         -0.176139   1.000000
      2         11.885321   1.000000
      3         13.902235   0.000000
      4         13.902335   0.000000
      5         15.382080   0.000000
      6         17.583563   0.000000
      7         32.200412   0.000000
      8         32.708567   0.000000
 
  0.0000000E+00  0.3888889E+00  0.3888889E+00  0.2500000E-01
      1          1.319781   1.000000
      2          9.434864   1.000000
      3         13.385317   0.000000
      4         13.385414   0.000000
      5         14.804315   0.000000
      6         17.004499   0.000000
      7         33.283241   0.000000
      8         34.376730   0.000000
 
  0.0000000E+00  0.4444444E+00  0.4444444E+00  0.2500000E-01
      1          3.020798   1.000000
      2          7.142219   1.000000
      3         13.073920   0.000005
      4         13.074017   0.000005
      5         14.454768   0.000000
      6         16.661912   0.000000
      7         34.219162   0.000000
      8         35.681125   0.000000
 
  0.0000000E+00  0.5000000E+00  0.5000000E+00  0.2500000E-01
      1          4.613632   1.000000
      2          5.351089   1.000000
      3         12.970019   0.001631
      4         12.970115   0.001624
      5         14.338040   0.000000
      6         16.552197   0.000000
      7         34.582953   0.000000
      8         36.214949   0.000000
 
  0.0000000E+00  0.5000000E+00  0.5000000E+00  0.2500000E-01
      1          4.613632   1.000000
      2          5.351089   1.000000
      3         12.970019   0.001631
      4         12.970115   0.001624
      5         14.338040   0.000000
      6         16.552197   0.000000
      7         34.582956   0.000000
      8         36.215103   0.000000
 
  0.2777778E-01  0.5138889E+00  0.5138889E+00  0.2500000E-01
      1          4.627536   1.000000
      2          5.364719   1.000000
      3         12.582150   0.994512
      4         12.982989   0.000888
      5         14.617411   0.000000
      6         16.697654   0.000000
      7         34.491844   0.000000
      8         36.122751   0.000000
 
  0.5555556E-01  0.5277778E+00  0.5277778E+00  0.2500000E-01
      1          4.669249   1.000000
      2          5.405473   1.000000
      3         11.840585   1.000000
      4         13.021602   0.000121
      5         15.020895   0.000000
      6         17.146528   0.000000
      7         34.233074   0.000000
      8         35.861855   0.000000
 
  0.8333333E-01  0.5416667E+00  0.5416667E+00  0.2500000E-01
      1          4.738772   1.000000
      2          5.472904   1.000000
      3         11.021284   1.000000
      4         13.085939   0.000002
      5         15.311586   0.000000
      6         17.859652   0.000000
      7         33.841819   0.000000
      8         35.460978   0.000000
 
  0.1111111E+00  0.5555556E+00  0.5555556E+00  0.2500000E-01
      1          4.836102   1.000000
      2          5.565990   1.000000
      3         10.188070   1.000000
      4         13.175913   0.000000
      5         15.525644   0.000000
      6         18.737029   0.000000
      7         33.314228   0.000000
      8         34.899414   0.000000
 
  0.1388889E+00  0.5694444E+00  0.5694444E+00  0.2500000E-01
      1          4.961233   1.000000
      2          5.682803   1.000000
      3          9.363342   1.000000
      4         13.291529   0.000000
      5         15.715430   0.000000
      6         19.704523   0.000000
      7         32.772256   0.000000
      8         34.323275   0.000000
 
  0.1666667E+00  0.5833333E+00  0.5833333E+00  0.2500000E-01
      1          5.114155   1.000000
      2          5.818222   1.000000
      3          8.559280   1.000000
      4         13.432476   0.000000
      5         15.907810   0.000000
      6         20.721463   0.000000
      7         32.155923   0.000000
      8         33.713678   0.000000
 
  0.1944444E+00  0.5972222E+00  0.5972222E+00  0.2500000E-01
      1          5.295141   1.000000
      2          5.957706   1.000000
      3          7.798895   1.000000
      4         13.598992   0.000000
      5         16.117991   0.000000
      6         21.784818   0.000000
      7         31.563637   0.000000
      8         33.067163   0.000000
 
  0.2222222E+00  0.6111111E+00  0.6111111E+00  0.2500000E-01
      1          5.503667   1.000000
      2          6.037791   1.000000
      3          7.145529   1.000000
      4         13.790820   0.000000
      5         16.345121   0.000000
      6         22.857524   0.000000
      7         30.966600   0.000000
      8         32.412414   0.000000
 
  0.2500000E+00  0.6250000E+00  0.6250000E+00  0.2500000E-01
      1          5.739886   1.000000
      2          5.812025   1.000000
      3          6.846656   1.000000
      4         14.007552   0.000000
      5         16.587472   0.000000
      6         23.938661   0.000000
      7         30.339227   0.000000
      8         31.732719   0.000000
 
  0.3750000E+00  0.7500000E+00  0.3750000E+00  0.2500000E-01
      1          5.739886   1.000000
      2          5.812025   1.000000
      3          6.846656   1.000000
      4         14.007552   0.000000
      5         16.587472   0.000000
      6         23.938661   0.000000
      7         30.339227   0.000000
      8         31.732754   0.000000
 
  0.3333333E+00  0.6666667E+00  0.3333333E+00  0.2500000E-01
      1          3.903478   1.000000
      2          6.615160   1.000000
      3          7.491480   1.000000
      4         14.807324   0.000000
      5         17.487426   0.000000
      6         27.146454   0.000000
      7         28.648621   0.000000
      8         29.804730   0.000000
 
  0.2916667E+00  0.5833333E+00  0.2916667E+00  0.2500000E-01
      1          2.010631   1.000000
      2          7.738691   1.000000
      3          8.586608   1.000000
      4         15.820518   0.000000
      5         18.609978   0.000000
      6         27.121623   0.000000
      7         28.016048   0.000000
      8         28.550238   0.000000
 
  0.2500000E+00  0.5000000E+00  0.2500000E+00  0.2500000E-01
      1          0.339040   1.000000
      2          9.106499   1.000000
      3          9.925955   1.000000
      4         17.023849   0.000000
      5         19.941329   0.000000
      6         25.821440   0.000000
      7         26.409067   0.000000
      8         27.095963   0.000000
 
  0.2083333E+00  0.4166667E+00  0.2083333E+00  0.2500000E-01
      1         -1.089932   1.000000
      2         10.715953   1.000000
      3         11.480099   1.000000
      4         18.357443   0.000000
      5         21.452971   0.000000
      6         24.808381   0.000000
      7         25.016133   0.000000
      8         25.860053   0.000000
 
  0.1666667E+00  0.3333333E+00  0.1666667E+00  0.2500000E-01
      1         -2.268200   1.000000
      2         12.558959   0.997957
      3         13.224521   0.000000
      4         19.669084   0.000000
      5         23.090070   0.000000
      6         23.838757   0.000000
      7         24.302459   0.000000
      8         24.834788   0.000000
 
  0.1250000E+00  0.2500000E+00  0.1250000E+00  0.2500000E-01
      1         -3.188883   1.000000
      2         14.615957   0.000000
      3         15.124533   0.000000
      4         20.542552   0.000000
      5         22.947117   0.000000
      6         24.004740   0.000000
      7         24.515632   0.000000
      8         24.618498   0.000000
 
  0.8333333E-01  0.1666667E+00  0.8333333E-01  0.2500000E-01
      1         -3.849151   1.000000
      2         16.851969   0.000000
      3         17.135536   0.000000
      4         20.771634   0.000000
      5         22.308699   0.000000
      6         23.330335   0.000000
      7         24.482408   0.000000
      8         25.968085   0.000000
 
  0.4166667E-01  0.8333333E-01  0.4166667E-01  0.2500000E-01
      1         -4.246436   1.000000
      2         19.113662   0.000000
      3         19.162529   0.000000
      4         20.730196   0.000000
      5         21.923983   0.000000
      6         22.630920   0.000000
      7         23.140968   0.000000
      8         27.663356   0.000000
 
  0.2081668E-16  0.4163336E-16  0.2081668E-16  0.2500000E-01
      1         -4.379347   1.000000
      2         20.693447   0.000000
      3         20.693626   0.000000
      4         20.693626   0.000000
      5         21.769395   0.000000
      6         21.769510   0.000000
      7         21.769510   0.000000
      8         26.975613   0.000000
