PROCAR lm decomposed
# of k-points:   40         # of bands:    8         # of ions:    1

 k-point     1 :    0.50000000 0.50000000 0.50000000     weight = 0.02500000

band     1 # energy    2.31163158 # occ.  2.00000000
 
ion      s     py     pz     px    dxy    dyz    dz2    dxz  x2-y2    tot
    1  0.454  0.000  0.000  0.000  0.000  0.000  0.000  0.000  0.000  0.454
 
band     2 # energy    3.05620597 # occ.  2.00000000
 
ion      s     py     pz     px    dxy    dyz    dz2    dxz  x2-y2    tot
    1  0.000  0.106  0.106  0.106  0.000  0.000  0.000  0.000  0.000  0.317
 
band     3 # energy   18.18802006 # occ.  0.00000000
 
ion      s     py     pz     px    dxy    dyz    dz2    dxz  x2-y2    tot
    1  0.000  0.413  0.104  0.103  0.000  0.000  0.000  0.000  0.000  0.620
 
band     4 # energy   18.18802011 # occ.  0.00000000
 
ion      s     py     pz     px    dxy    dyz    dz2    dxz  x2-y2    tot
    1  0.000  0.000  0.309  0.311  0.000  0.000  0.000  0.000  0.000  0.620
 
band     5 # energy   20.73337191 # occ.  0.00000000
 
ion      s     py     pz     px    dxy    dyz    dz2    dxz  x2-y2    tot
    1  0.000  0.000  0.000  0.000  0.000  0.000  0.000  0.000  0.000  0.000
 
band     6 # energy   20.73337200 # occ.  0.00000000
 
ion      s     py     pz     px    dxy    dyz    dz2    dxz  x2-y2    tot
    1  0.000  0.000  0.000  0.000  0.000  0.000  0.000  0.000  0.000  0.000
 
band     7 # energy   22.97748864 # occ.  0.00000000
 
ion      s     py     pz     px    dxy    dyz    dz2    dxz  x2-y2    tot
    1  0.263  0.000  0.000  0.000  0.000  0.000  0.000  0.000  0.000  0.263
 
band     8 # energy   25.52428757 # occ.  0.00000000
 
ion      s     py     pz     px    dxy    dyz    dz2    dxz  x2-y2    tot
    1  0.000  0.008  0.008  0.008  0.000  0.000  0.000  0.000  0.000  0.024
 

 k-point     2 :    0.44444444 0.44444444 0.44444444     weight = 0.02500000

band     1 # energy    1.17822078 # occ.  2.00000000
 
ion      s     py     pz     px    dxy    dyz    dz2    dxz  x2-y2    tot
    1  0.307  0.032  0.032  0.032  0.000  0.000  0.000  0.000  0.000  0.403
 
band     2 # energy    4.34815627 # occ.  2.00000000
 
ion      s     py     pz     px    dxy    dyz    dz2    dxz  x2-y2    tot
    1  0.146  0.073  0.073  0.073  0.000  0.000  0.000  0.000  0.000  0.366
 
band     3 # energy   18.17826704 # occ.  0.00000000
 
ion      s     py     pz     px    dxy    dyz    dz2    dxz  x2-y2    tot
    1  0.000  0.402  0.100  0.101  0.000  0.000  0.000  0.000  0.000  0.603
 
band     4 # energy   18.17826709 # occ.  0.00000000
 
ion      s     py     pz     px    dxy    dyz    dz2    dxz  x2-y2    tot
    1  0.000  0.000  0.301  0.301  0.000  0.000  0.000  0.000  0.000  0.603
 
band     5 # energy   20.89199880 # occ.  0.00000000
 
ion      s     py     pz     px    dxy    dyz    dz2    dxz  x2-y2    tot
    1  0.000  0.000  0.008  0.008  0.000  0.000  0.000  0.000  0.000  0.016
 
band     6 # energy   20.89199889 # occ.  0.00000000
 
ion      s     py     pz     px    dxy    dyz    dz2    dxz  x2-y2    tot
    1  0.000  0.011  0.003  0.003  0.000  0.000  0.000  0.000  0.000  0.016
 
band     7 # energy   22.92888657 # occ.  0.00000000
 
ion      s     py     pz     px    dxy    dyz    dz2    dxz  x2-y2    tot
    1  0.251  0.001  0.001  0.001  0.000  0.000  0.000  0.000  0.000  0.256
 
band     8 # energy   25.71738419 # occ.  0.00000000
 
ion      s     py     pz     px    dxy    dyz    dz2    dxz  x2-y2    tot
    1  0.007  0.010  0.010  0.010  0.000  0.000  0.000  0.000  0.000  0.036
 

 k-point     3 :    0.38888889 0.38888889 0.38888889     weight = 0.02500000

band     1 # energy   -0.09757047 # occ.  2.00000000
 
ion      s     py     pz     px    dxy    dyz    dz2    dxz  x2-y2    tot
    1  0.308  0.030  0.030  0.030  0.000  0.000  0.000  0.000  0.000  0.396
 
band     2 # energy    6.10035928 # occ.  2.00000000
 
ion      s     py     pz     px    dxy    dyz    dz2    dxz  x2-y2    tot
    1  0.143  0.075  0.075  0.075  0.000  0.000  0.000  0.000  0.000  0.369
 
band     3 # energy   18.17730996 # occ.  0.00000000
 
ion      s     py     pz     px    dxy    dyz    dz2    dxz  x2-y2    tot
    1  0.000  0.377  0.094  0.094  0.000  0.000  0.000  0.000  0.000  0.566
 
band     4 # energy   18.17731000 # occ.  0.00000000
 
ion      s     py     pz     px    dxy    dyz    dz2    dxz  x2-y2    tot
    1  0.000  0.000  0.283  0.283  0.000  0.000  0.000  0.000  0.000  0.566
 
band     5 # energy   21.33673776 # occ.  0.00000000
 
ion      s     py     pz     px    dxy    dyz    dz2    dxz  x2-y2    tot
    1  0.000  0.000  0.025  0.025  0.000  0.000  0.000  0.000  0.000  0.050
 
band     6 # energy   21.33673784 # occ.  0.00000000
 
ion      s     py     pz     px    dxy    dyz    dz2    dxz  x2-y2    tot
    1  0.000  0.033  0.008  0.008  0.000  0.000  0.000  0.000  0.000  0.050
 
band     7 # energy   22.84073657 # occ.  0.00000000
 
ion      s     py     pz     px    dxy    dyz    dz2    dxz  x2-y2    tot
    1  0.224  0.006  0.006  0.006  0.000  0.000  0.000  0.000  0.000  0.242
 
band     8 # energy   26.24326224 # occ.  0.00000000
 
ion      s     py     pz     px    dxy    dyz    dz2    dxz  x2-y2    tot
    1  0.016  0.015  0.015  0.015  0.000  0.000  0.000  0.000  0.000  0.059
 

 k-point     4 :    0.33333333 0.33333333 0.33333333     weight = 0.02500000

band     1 # energy   -1.22228179 # occ.  2.00000000
 
ion      s     py     pz     px    dxy    dyz    dz2    dxz  x2-y2    tot
    1  0.322  0.024  0.024  0.024  0.000  0.000  0.000  0.000  0.000  0.393
 
band     2 # energy    8.01411165 # occ.  2.00000000
 
ion      s     py     pz     px    dxy    dyz    dz2    dxz  x2-y2    tot
    1  0.122  0.081  0.081  0.081  0.000  0.000  0.000  0.000  0.000  0.366
 
band     3 # energy   18.23706826 # occ.  0.00000000
 
ion      s     py     pz     px    dxy    dyz    dz2    dxz  x2-y2    tot
    1  0.000  0.353  0.088  0.088  0.000  0.000  0.000  0.000  0.000  0.530
 
band     4 # energy   18.23706828 # occ.  0.00000000
 
ion      s     py     pz     px    dxy    dyz    dz2    dxz  x2-y2    tot
    1  0.000  0.000  0.265  0.265  0.000  0.000  0.000  0.000  0.000  0.530
 
band     5 # energy   22.00157577 # occ.  0.00000000
 
ion      s     py     pz     px    dxy    dyz    dz2    dxz  x2-y2    tot
    1  0.000  0.000  0.042  0.042  0.000  0.000  0.000  0.000  0.000  0.084
 
band     6 # energy   22.00157585 # occ.  0.00000000
 
ion      s     py     pz     px    dxy    dyz    dz2    dxz  x2-y2    tot
    1  0.000  0.056  0.014  0.014  0.000  0.000  0.000  0.000  0.000  0.084
 
band     7 # energy   22.76883846 # occ.  0.00000000
 
ion      s     py     pz     px    dxy    dyz    dz2    dxz  x2-y2    tot
    1  0.195  0.013  0.013  0.013  0.000  0.000  0.000  0.000  0.000  0.235
 
band     8 # energy   27.00837959 # occ.  0.00000000
 
ion      s     py     pz     px    dxy    dyz    dz2    dxz  x2-y2    tot
    1  0.017  0.022  0.022  0.022  0.000  0.000  0.000  0.000  0.000  0.082
 

 k-point     5 :    0.27777778 0.27777778 0.27777778     weight = 0.02500000

band     1 # energy   -2.18139277 # occ.  2.00000000
 
ion      s     py     pz     px    dxy    dyz    dz2    dxz  x2-y2    tot
    1  0.338  0.017  0.017  0.017  0.000  0.000  0.000  0.000  0.000  0.389
 
band     2 # energy   10.06831980 # occ.  2.00000000
 
ion      s     py     pz     px    dxy    dyz    dz2    dxz  x2-y2    tot
    1  0.099  0.088  0.088  0.088  0.000  0.000  0.000  0.000  0.000  0.362
 
band     3 # energy   18.39192044 # occ.  0.00000000
 
ion      s     py     pz     px    dxy    dyz    dz2    dxz  x2-y2    tot
    1  0.000  0.334  0.083  0.083  0.000  0.000  0.000  0.000  0.000  0.500
 
band     4 # energy   18.39192046 # occ.  0.00000000
 
ion      s     py     pz     px    dxy    dyz    dz2    dxz  x2-y2    tot
    1  0.000  0.000  0.250  0.250  0.000  0.000  0.000  0.000  0.000  0.500
 
band     5 # energy   22.75318135 # occ.  0.00000000
 
ion      s     py     pz     px    dxy    dyz    dz2    dxz  x2-y2    tot
    1  0.162  0.025  0.025  0.025  0.000  0.000  0.000  0.000  0.000  0.236
 
band     6 # energy   22.80728686 # occ.  0.00000000
 
ion      s     py     pz     px    dxy    dyz    dz2    dxz  x2-y2    tot
    1  0.000  0.000  0.060  0.060  0.000  0.000  0.000  0.000  0.000  0.121
 
band     7 # energy   22.80728695 # occ.  0.00000000
 
ion      s     py     pz     px    dxy    dyz    dz2    dxz  x2-y2    tot
    1  0.000  0.081  0.020  0.020  0.000  0.000  0.000  0.000  0.000  0.121
 
band     8 # energy   27.93935074 # occ.  0.00000000
 
ion      s     py     pz     px    dxy    dyz    dz2    dxz  x2-y2    tot
    1  0.011  0.030  0.030  0.030  0.000  0.000  0.000  0.000  0.000  0.102
 

 k-point     6 :    0.22222222 0.22222222 0.22222222     weight = 0.02500000

band     1 # energy   -2.96948724 # occ.  2.00000000
 
ion      s     py     pz     px    dxy    dyz    dz2    dxz  x2-y2    tot
    1  0.354  0.011  0.011  0.011  0.000  0.000  0.000  0.000  0.000  0.388
 
band     2 # energy   12.25025170 # occ.  2.00000000
 
ion      s     py     pz     px    dxy    dyz    dz2    dxz  x2-y2    tot
    1  0.075  0.094  0.094  0.094  0.000  0.000  0.000  0.000  0.000  0.358
 
band     3 # energy   18.67184703 # occ.  0.00000000
 
ion      s     py     pz     px    dxy    dyz    dz2    dxz  x2-y2    tot
    1  0.000  0.320  0.080  0.080  0.000  0.000  0.000  0.000  0.000  0.480
 
band     4 # energy   18.67184704 # occ.  0.00000000
 
ion      s     py     pz     px    dxy    dyz    dz2    dxz  x2-y2    tot
    1  0.000  0.000  0.240  0.240  0.000  0.000  0.000  0.000  0.000  0.480
 
band     5 # energy   22.82490309 # occ.  0.00000000
 
ion      s     py     pz     px    dxy    dyz    dz2    dxz  x2-y2    tot
    1  0.125  0.040  0.040  0.040  0.000  0.000  0.000  0.000  0.000  0.245
 
band     6 # energy   23.59868557 # occ.  0.00000000
 
ion      s     py     pz     px    dxy    dyz    dz2    dxz  x2-y2    tot
    1  0.000  0.000  0.082  0.084  0.000  0.000  0.000  0.000  0.000  0.166
 
band     7 # energy   23.59868572 # occ.  0.00000000
 
ion      s     py     pz     px    dxy    dyz    dz2    dxz  x2-y2    tot
    1  0.000  0.110  0.028  0.027  0.000  0.000  0.000  0.000  0.000  0.166
 
band     8 # energy   27.25705502 # occ.  0.00000000
 
ion      s     py     pz     px    dxy    dyz    dz2    dxz  x2-y2    tot
    1  0.000  0.007  0.016  0.033  0.000  0.000  0.000  0.000  0.000  0.056
 

 k-point     7 :    0.16666667 0.16666667 0.16666667     weight = 0.02500000

band     1 # energy   -3.58485528 # occ.  2.00000000
 
ion      s     py     pz     px    dxy    dyz    dz2    dxz  x2-y2    tot
    1  0.367  0.007  0.007  0.007  0.000  0.000  0.000  0.000  0.000  0.387
 
band     2 # energy   14.53555810 # occ.  0.00000000
 
ion      s     py     pz     px    dxy    dyz    dz2    dxz  x2-y2    tot
    1  0.052  0.102  0.102  0.102  0.000  0.000  0.000  0.000  0.000  0.359
 
band     3 # energy   19.08187074 # occ.  0.00000000
 
ion      s     py     pz     px    dxy    dyz    dz2    dxz  x2-y2    tot
    1  0.000  0.314  0.078  0.078  0.000  0.000  0.000  0.000  0.000  0.470
 
band     4 # energy   19.08187074 # occ.  0.00000000
 
ion      s     py     pz     px    dxy    dyz    dz2    dxz  x2-y2    tot
    1  0.000  0.000  0.235  0.235  0.000  0.000  0.000  0.000  0.000  0.470
 
band     5 # energy   22.91804207 # occ.  0.00000000
 
ion      s     py     pz     px    dxy    dyz    dz2    dxz  x2-y2    tot
    1  0.084  0.058  0.058  0.058  0.000  0.000  0.000  0.000  0.000  0.257
 
band     6 # energy   23.88535685 # occ.  0.00000000
 
ion      s     py     pz     px    dxy    dyz    dz2    dxz  x2-y2    tot
    1  0.000  0.001  0.110  0.115  0.000  0.000  0.000  0.000  0.000  0.225
 
band     7 # energy   23.88535709 # occ.  0.00000000
 
ion      s     py     pz     px    dxy    dyz    dz2    dxz  x2-y2    tot
    1  0.000  0.149  0.041  0.036  0.000  0.000  0.000  0.000  0.000  0.225
 
band     8 # energy   26.72640818 # occ.  0.00000000
 
ion      s     py     pz     px    dxy    dyz    dz2    dxz  x2-y2    tot
    1  0.000  0.004  0.002  0.001  0.000  0.000  0.000  0.000  0.000  0.006
 

 k-point     8 :    0.11111111 0.11111111 0.11111111     weight = 0.02500000

band     1 # energy   -4.02566710 # occ.  2.00000000
 
ion      s     py     pz     px    dxy    dyz    dz2    dxz  x2-y2    tot
    1  0.377  0.003  0.003  0.003  0.000  0.000  0.000  0.000  0.000  0.386
 
band     2 # energy   16.87823061 # occ.  0.00000000
 
ion      s     py     pz     px    dxy    dyz    dz2    dxz  x2-y2    tot
    1  0.030  0.114  0.114  0.114  0.000  0.000  0.000  0.000  0.000  0.373
 
band     3 # energy   19.61917084 # occ.  0.00000000
 
ion      s     py     pz     px    dxy    dyz    dz2    dxz  x2-y2    tot
    1  0.000  0.318  0.084  0.075  0.000  0.000  0.000  0.000  0.000  0.477
 
band     4 # energy   19.61917086 # occ.  0.00000000
 
ion      s     py     pz     px    dxy    dyz    dz2    dxz  x2-y2    tot
    1  0.000  0.000  0.234  0.243  0.000  0.000  0.000  0.000  0.000  0.477
 
band     5 # energy   22.92376854 # occ.  0.00000000
 
ion      s     py     pz     px    dxy    dyz    dz2    dxz  x2-y2    tot
    1  0.042  0.075  0.075  0.075  0.000  0.000  0.000  0.000  0.000  0.268
 
band     6 # energy   23.25418936 # occ.  0.00000000
 
ion      s     py     pz     px    dxy    dyz    dz2    dxz  x2-y2    tot
    1  0.000  0.010  0.071  0.135  0.000  0.000  0.000  0.000  0.000  0.217
 
band     7 # energy   23.25418966 # occ.  0.00000000
 
ion      s     py     pz     px    dxy    dyz    dz2    dxz  x2-y2    tot
    1  0.000  0.134  0.073  0.009  0.000  0.000  0.000  0.000  0.000  0.217
 
band     8 # energy   27.28787169 # occ.  0.00000000
 
ion      s     py     pz     px    dxy    dyz    dz2    dxz  x2-y2    tot
    1  0.000  0.000  0.002  0.001  0.000  0.000  0.000  0.000  0.000  0.003
 

 k-point     9 :    0.05555556 0.05555556 0.05555556     weight = 0.02500000

band     1 # energy   -4.29066919 # occ.  2.00000000
 
ion      s     py     pz     px    dxy    dyz    dz2    dxz  x2-y2    tot
    1  0.383  0.001  0.001  0.001  0.000  0.000  0.000  0.000  0.000  0.385
 
band     2 # energy   19.14631439 # occ.  0.00000000
 
ion      s     py     pz     px    dxy    dyz    dz2    dxz  x2-y2    tot
    1  0.011  0.138  0.138  0.138  0.000  0.000  0.000  0.000  0.000  0.425
 
band     3 # energy   20.25047861 # occ.  0.00000000
 
ion      s     py     pz     px    dxy    dyz    dz2    dxz  x2-y2    tot
    1  0.000  0.354  0.089  0.089  0.000  0.000  0.000  0.000  0.000  0.531
 
band     4 # energy   20.25047867 # occ.  0.00000000
 
ion      s     py     pz     px    dxy    dyz    dz2    dxz  x2-y2    tot
    1  0.000  0.000  0.266  0.266  0.000  0.000  0.000  0.000  0.000  0.531
 
band     5 # energy   22.35591983 # occ.  0.00000000
 
ion      s     py     pz     px    dxy    dyz    dz2    dxz  x2-y2    tot
    1  0.000  0.000  0.076  0.076  0.000  0.000  0.000  0.000  0.000  0.151
 
band     6 # energy   22.35592008 # occ.  0.00000000
 
ion      s     py     pz     px    dxy    dyz    dz2    dxz  x2-y2    tot
    1  0.000  0.101  0.025  0.025  0.000  0.000  0.000  0.000  0.000  0.151
 
band     7 # energy   22.56982902 # occ.  0.00000000
 
ion      s     py     pz     px    dxy    dyz    dz2    dxz  x2-y2    tot
    1  0.009  0.078  0.078  0.078  0.000  0.000  0.000  0.000  0.000  0.244
 
band     8 # energy   27.72132477 # occ.  0.00000000
 
ion      s     py     pz     px    dxy    dyz    dz2    dxz  x2-y2    tot
    1  0.000  0.001  0.001  0.001  0.000  0.000  0.000  0.000  0.000  0.004
 

 k-point    10 :    0.00000000 0.00000000 0.00000000     weight = 0.02500000

band     1 # energy   -4.37934714 # occ.  2.00000000
 
ion      s     py     pz     px    dxy    dyz    dz2    dxz  x2-y2    tot
    1  0.384  0.000  0.000  0.000  0.000  0.000  0.000  0.000  0.000  0.384
 
band     2 # energy   20.69344740 # occ.  0.00000000
 
ion      s     py     pz     px    dxy    dyz    dz2    dxz  x2-y2    tot
    1  0.000  0.226  0.226  0.225  0.000  0.000  0.000  0.000  0.000  0.677
 
band     3 # energy   20.69362596 # occ.  0.00000000
 
ion      s     py     pz     px    dxy    dyz    dz2    dxz  x2-y2    tot
    1  0.000  0.422  0.034  0.221  0.000  0.000  0.000  0.000  0.000  0.678
 
band     4 # energy   20.69362611 # occ.  0.00000000
 
ion      s     py     pz     px    dxy    dyz    dz2    dxz  x2-y2    tot
    1  0.000  0.029  0.418  0.231  0.000  0.000  0.000  0.000  0.000  0.678
 
band     5 # energy   21.76939456 # occ.  0.00000000
 
ion      s     py     pz     px    dxy    dyz    dz2    dxz  x2-y2    tot
    1  0.000  0.000  0.000  0.000  0.000  0.000  0.000  0.000  0.000  0.000
 
band     6 # energy   21.76950968 # occ.  0.00000000
 
ion      s     py     pz     px    dxy    dyz    dz2    dxz  x2-y2    tot
    1  0.000  0.000  0.000  0.000  0.000  0.000  0.000  0.000  0.000  0.000
 
band     7 # energy   21.76951004 # occ.  0.00000000
 
ion      s     py     pz     px    dxy    dyz    dz2    dxz  x2-y2    tot
    1  0.000  0.000  0.000  0.000  0.000  0.000  0.000  0.000  0.000  0.000
 
band     8 # energy   26.97561338 # occ.  0.00000000
 
ion      s     py     pz     px    dxy    dyz    dz2    dxz  x2-y2    tot
    1  0.000  0.000  0.000  0.000  0.000  0.000  0.000  0.000  0.000  0.000
 

 k-point    11 :    0.00000000 0.00000000 0.00000000     weight = 0.02500000

band     1 # energy   -4.37934714 # occ.  2.00000000
 
ion      s     py     pz     px    dxy    dyz    dz2    dxz  x2-y2    tot
    1  0.384  0.000  0.000  0.000  0.000  0.000  0.000  0.000  0.000  0.384
 
band     2 # energy   20.69344740 # occ.  0.00000000
 
ion      s     py     pz     px    dxy    dyz    dz2    dxz  x2-y2    tot
    1  0.000  0.226  0.225  0.225  0.000  0.000  0.000  0.000  0.000  0.677
 
band     3 # energy   20.69362591 # occ.  0.00000000
 
ion      s     py     pz     px    dxy    dyz    dz2    dxz  x2-y2    tot
    1  0.000  0.451  0.113  0.113  0.000  0.000  0.000  0.000  0.000  0.678
 
band     4 # energy   20.69362608 # occ.  0.00000000
 
ion      s     py     pz     px    dxy    dyz    dz2    dxz  x2-y2    tot
    1  0.000  0.000  0.339  0.339  0.000  0.000  0.000  0.000  0.000  0.678
 
band     5 # energy   21.76939456 # occ.  0.00000000
 
ion      s     py     pz     px    dxy    dyz    dz2    dxz  x2-y2    tot
    1  0.000  0.000  0.000  0.000  0.000  0.000  0.000  0.000  0.000  0.000
 
band     6 # energy   21.76950960 # occ.  0.00000000
 
ion      s     py     pz     px    dxy    dyz    dz2    dxz  x2-y2    tot
    1  0.000  0.000  0.000  0.000  0.000  0.000  0.000  0.000  0.000  0.000
 
band     7 # energy   21.76950997 # occ.  0.00000000
 
ion      s     py     pz     px    dxy    dyz    dz2    dxz  x2-y2    tot
    1  0.000  0.000  0.000  0.000  0.000  0.000  0.000  0.000  0.000  0.000
 
band     8 # energy   26.97561270 # occ.  0.00000000
 
ion      s     py     pz     px    dxy    dyz    dz2    dxz  x2-y2    tot
    1  0.000  0.000  0.000  0.000  0.000  0.000  0.000  0.000  0.000  0.000
 

 k-point    12 :    0.00000000 0.05555556 0.05555556     weight = 0.02500000

band     1 # energy   -4.26111306 # occ.  2.00000000
 
ion      s     py     pz     px    dxy    dyz    dz2    dxz  x2-y2    tot
    1  0.382  0.000  0.003  0.000  0.000  0.000  0.000  0.000  0.000  0.385
 
band     2 # energy   19.47095451 # occ.  0.00000000
 
ion      s     py     pz     px    dxy    dyz    dz2    dxz  x2-y2    tot
    1  0.000  0.228  0.000  0.227  0.000  0.000  0.000  0.000  0.000  0.455
 
band     3 # energy   19.47106957 # occ.  0.00000000
 
ion      s     py     pz     px    dxy    dyz    dz2    dxz  x2-y2    tot
    1  0.000  0.227  0.000  0.228  0.000  0.000  0.000  0.000  0.000  0.455
 
band     4 # energy   20.41123343 # occ.  0.00000000
 
ion      s     py     pz     px    dxy    dyz    dz2    dxz  x2-y2    tot
    1  0.026  0.000  0.652  0.000  0.000  0.000  0.000  0.000  0.000  0.678
 
band     5 # energy   21.13089156 # occ.  0.00000000
 
ion      s     py     pz     px    dxy    dyz    dz2    dxz  x2-y2    tot
    1  0.000  0.000  0.000  0.000  0.000  0.000  0.000  0.000  0.000  0.000
 
band     6 # energy   23.18891143 # occ.  0.00000000
 
ion      s     py     pz     px    dxy    dyz    dz2    dxz  x2-y2    tot
    1  0.000  0.115  0.000  0.111  0.000  0.000  0.000  0.000  0.000  0.226
 
band     7 # energy   23.18892502 # occ.  0.00000000
 
ion      s     py     pz     px    dxy    dyz    dz2    dxz  x2-y2    tot
    1  0.000  0.111  0.000  0.115  0.000  0.000  0.000  0.000  0.000  0.226
 
band     8 # energy   27.34394848 # occ.  0.00000000
 
ion      s     py     pz     px    dxy    dyz    dz2    dxz  x2-y2    tot
    1  0.002  0.000  0.013  0.000  0.000  0.000  0.000  0.000  0.000  0.014
 

 k-point    13 :    0.00000000 0.11111111 0.11111111     weight = 0.02500000

band     1 # energy   -3.90786243 # occ.  2.00000000
 
ion      s     py     pz     px    dxy    dyz    dz2    dxz  x2-y2    tot
    1  0.374  0.000  0.012  0.000  0.000  0.000  0.000  0.000  0.000  0.386
 
band     2 # energy   17.99573414 # occ.  0.00000000
 
ion      s     py     pz     px    dxy    dyz    dz2    dxz  x2-y2    tot
    1  0.000  0.214  0.000  0.213  0.000  0.000  0.000  0.000  0.000  0.427
 
band     3 # energy   17.99583543 # occ.  0.00000000
 
ion      s     py     pz     px    dxy    dyz    dz2    dxz  x2-y2    tot
    1  0.000  0.213  0.000  0.214  0.000  0.000  0.000  0.000  0.000  0.427
 
band     4 # energy   19.64100786 # occ.  0.00000000
 
ion      s     py     pz     px    dxy    dyz    dz2    dxz  x2-y2    tot
    1  0.089  0.000  0.592  0.000  0.000  0.000  0.000  0.000  0.000  0.681
 
band     5 # energy   19.80606884 # occ.  0.00000000
 
ion      s     py     pz     px    dxy    dyz    dz2    dxz  x2-y2    tot
    1  0.000  0.000  0.000  0.000  0.000  0.000  0.000  0.000  0.000  0.000
 
band     6 # energy   24.72162414 # occ.  0.00000000
 
ion      s     py     pz     px    dxy    dyz    dz2    dxz  x2-y2    tot
    1  0.003  0.000  0.020  0.000  0.000  0.000  0.000  0.000  0.000  0.023
 
band     7 # energy   25.10005394 # occ.  0.00000000
 
ion      s     py     pz     px    dxy    dyz    dz2    dxz  x2-y2    tot
    1  0.000  0.130  0.000  0.126  0.000  0.000  0.000  0.000  0.000  0.256
 
band     8 # energy   25.10007286 # occ.  0.00000000
 
ion      s     py     pz     px    dxy    dyz    dz2    dxz  x2-y2    tot
    1  0.000  0.126  0.000  0.130  0.000  0.000  0.000  0.000  0.000  0.256
 

 k-point    14 :    0.00000000 0.16666667 0.16666667     weight = 0.02500000

band     1 # energy   -3.32047168 # occ.  2.00000000
 
ion      s     py     pz     px    dxy    dyz    dz2    dxz  x2-y2    tot
    1  0.361  0.000  0.027  0.000  0.000  0.000  0.000  0.000  0.000  0.387
 
band     2 # energy   16.67960247 # occ.  0.00000000
 
ion      s     py     pz     px    dxy    dyz    dz2    dxz  x2-y2    tot
    1  0.000  0.215  0.000  0.214  0.000  0.000  0.000  0.000  0.000  0.430
 
band     3 # energy   16.67969662 # occ.  0.00000000
 
ion      s     py     pz     px    dxy    dyz    dz2    dxz  x2-y2    tot
    1  0.000  0.214  0.000  0.215  0.000  0.000  0.000  0.000  0.000  0.430
 
band     4 # energy   18.44688655 # occ.  0.00000000
 
ion      s     py     pz     px    dxy    dyz    dz2    dxz  x2-y2    tot
    1  0.000  0.000  0.000  0.000  0.000  0.000  0.000  0.000  0.000  0.000
 
band     5 # energy   18.46334594 # occ.  0.00000000
 
ion      s     py     pz     px    dxy    dyz    dz2    dxz  x2-y2    tot
    1  0.157  0.000  0.529  0.000  0.000  0.000  0.000  0.000  0.000  0.686
 
band     6 # energy   21.96496197 # occ.  0.00000000
 
ion      s     py     pz     px    dxy    dyz    dz2    dxz  x2-y2    tot
    1  0.014  0.000  0.003  0.000  0.000  0.000  0.000  0.000  0.000  0.017
 
band     7 # energy   27.08987342 # occ.  0.00000000
 
ion      s     py     pz     px    dxy    dyz    dz2    dxz  x2-y2    tot
    1  0.000  0.125  0.000  0.129  0.000  0.000  0.000  0.000  0.000  0.254
 
band     8 # energy   27.08991767 # occ.  0.00000000
 
ion      s     py     pz     px    dxy    dyz    dz2    dxz  x2-y2    tot
    1  0.000  0.129  0.000  0.125  0.000  0.000  0.000  0.000  0.000  0.254
 

 k-point    15 :    0.00000000 0.22222222 0.22222222     weight = 0.02500000

band     1 # energy   -2.50081618 # occ.  2.00000000
 
ion      s     py     pz     px    dxy    dyz    dz2    dxz  x2-y2    tot
    1  0.343  0.000  0.046  0.000  0.000  0.000  0.000  0.000  0.000  0.389
 
band     2 # energy   15.55444329 # occ.  0.00000000
 
ion      s     py     pz     px    dxy    dyz    dz2    dxz  x2-y2    tot
    1  0.000  0.221  0.000  0.219  0.000  0.000  0.000  0.000  0.000  0.440
 
band     3 # energy   15.55453099 # occ.  0.00000000
 
ion      s     py     pz     px    dxy    dyz    dz2    dxz  x2-y2    tot
    1  0.000  0.219  0.000  0.221  0.000  0.000  0.000  0.000  0.000  0.440
 
band     4 # energy   16.72487192 # occ.  0.00000000
 
ion      s     py     pz     px    dxy    dyz    dz2    dxz  x2-y2    tot
    1  0.183  0.000  0.443  0.000  0.000  0.000  0.000  0.000  0.000  0.626
 
band     5 # energy   17.22949856 # occ.  0.00000000
 
ion      s     py     pz     px    dxy    dyz    dz2    dxz  x2-y2    tot
    1  0.000  0.000  0.000  0.000  0.000  0.000  0.000  0.000  0.000  0.000
 
band     6 # energy   19.81743498 # occ.  0.00000000
 
ion      s     py     pz     px    dxy    dyz    dz2    dxz  x2-y2    tot
    1  0.066  0.000  0.011  0.000  0.000  0.000  0.000  0.000  0.000  0.076
 
band     7 # energy   29.07301950 # occ.  0.00000000
 
ion      s     py     pz     px    dxy    dyz    dz2    dxz  x2-y2    tot
    1  0.000  0.117  0.000  0.121  0.000  0.000  0.000  0.000  0.000  0.238
 
band     8 # energy   29.07307198 # occ.  0.00000000
 
ion      s     py     pz     px    dxy    dyz    dz2    dxz  x2-y2    tot
    1  0.000  0.121  0.000  0.117  0.000  0.000  0.000  0.000  0.000  0.238
 

 k-point    16 :    0.00000000 0.27777778 0.27777778     weight = 0.02500000

band     1 # energy   -1.45094886 # occ.  2.00000000
 
ion      s     py     pz     px    dxy    dyz    dz2    dxz  x2-y2    tot
    1  0.321  0.000  0.071  0.000  0.000  0.000  0.000  0.000  0.000  0.392
 
band     2 # energy   14.39919130 # occ.  0.00000000
 
ion      s     py     pz     px    dxy    dyz    dz2    dxz  x2-y2    tot
    1  0.174  0.000  0.339  0.000  0.000  0.000  0.000  0.000  0.000  0.514
 
band     3 # energy   14.62520082 # occ.  0.00000000
 
ion      s     py     pz     px    dxy    dyz    dz2    dxz  x2-y2    tot
    1  0.000  0.225  0.000  0.224  0.000  0.000  0.000  0.000  0.000  0.448
 
band     4 # energy   14.62530569 # occ.  0.00000000
 
ion      s     py     pz     px    dxy    dyz    dz2    dxz  x2-y2    tot
    1  0.000  0.224  0.000  0.225  0.000  0.000  0.000  0.000  0.000  0.448
 
band     5 # energy   16.18788317 # occ.  0.00000000
 
ion      s     py     pz     px    dxy    dyz    dz2    dxz  x2-y2    tot
    1  0.000  0.000  0.000  0.000  0.000  0.000  0.000  0.000  0.000  0.000
 
band     6 # energy   18.46253610 # occ.  0.00000000
 
ion      s     py     pz     px    dxy    dyz    dz2    dxz  x2-y2    tot
    1  0.147  0.000  0.038  0.000  0.000  0.000  0.000  0.000  0.000  0.185
 
band     7 # energy   30.96212758 # occ.  0.00000000
 
ion      s     py     pz     px    dxy    dyz    dz2    dxz  x2-y2    tot
    1  0.000  0.163  0.000  0.050  0.000  0.000  0.000  0.000  0.000  0.213
 
band     8 # energy   30.96526809 # occ.  0.00000000
 
ion      s     py     pz     px    dxy    dyz    dz2    dxz  x2-y2    tot
    1  0.000  0.050  0.000  0.161  0.000  0.000  0.000  0.000  0.000  0.211
 

 k-point    17 :    0.00000000 0.33333333 0.33333333     weight = 0.02500000

band     1 # energy   -0.17613901 # occ.  2.00000000
 
ion      s     py     pz     px    dxy    dyz    dz2    dxz  x2-y2    tot
    1  0.294  0.000  0.099  0.000  0.000  0.000  0.000  0.000  0.000  0.393
 
band     2 # energy   11.88532112 # occ.  2.00000000
 
ion      s     py     pz     px    dxy    dyz    dz2    dxz  x2-y2    tot
    1  0.179  0.000  0.273  0.000  0.000  0.000  0.000  0.000  0.000  0.452
 
band     3 # energy   13.90223500 # occ.  0.00000000
 
ion      s     py     pz     px    dxy    dyz    dz2    dxz  x2-y2    tot
    1  0.000  0.230  0.000  0.229  0.000  0.000  0.000  0.000  0.000  0.459
 
band     4 # energy   13.90233544 # occ.  0.00000000
 
ion      s     py     pz     px    dxy    dyz    dz2    dxz  x2-y2    tot
    1  0.000  0.229  0.000  0.230  0.000  0.000  0.000  0.000  0.000  0.459
 
band     5 # energy   15.38207970 # occ.  0.00000000
 
ion      s     py     pz     px    dxy    dyz    dz2    dxz  x2-y2    tot
    1  0.000  0.000  0.000  0.000  0.000  0.000  0.000  0.000  0.000  0.000
 
band     6 # energy   17.58356276 # occ.  0.00000000
 
ion      s     py     pz     px    dxy    dyz    dz2    dxz  x2-y2    tot
    1  0.210  0.000  0.035  0.000  0.000  0.000  0.000  0.000  0.000  0.245
 
band     7 # energy   32.20041194 # occ.  0.00000000
 
ion      s     py     pz     px    dxy    dyz    dz2    dxz  x2-y2    tot
    1  0.000  0.000  0.000  0.000  0.000  0.000  0.000  0.000  0.000  0.000
 
band     8 # energy   32.70856692 # occ.  0.00000000
 
ion      s     py     pz     px    dxy    dyz    dz2    dxz  x2-y2    tot
    1  0.000  0.038  0.000  0.129  0.000  0.000  0.000  0.000  0.000  0.168
 

 k-point    18 :    0.00000000 0.38888889 0.38888889     weight = 0.02500000

band     1 # energy    1.31978143 # occ.  2.00000000
 
ion      s     py     pz     px    dxy    dyz    dz2    dxz  x2-y2    tot
    1  0.262  0.000  0.133  0.000  0.000  0.000  0.000  0.000  0.000  0.396
 
band     2 # energy    9.43486365 # occ.  2.00000000
 
ion      s     py     pz     px    dxy    dyz    dz2    dxz  x2-y2    tot