<?xml version="1.0" encoding="ISO-8859-1"?>
<modeling>
 <generator>
  <i name="program" type="string">vasp </i>
  <i name="version" type="string">6.3.0  </i>
  <i name="subversion" type="string">20Jan22 (build Feb 01 2022 16:52:37) complex                          parallel </i>
  <i name="platform" type="string">TETRA_NSC1 </i>
  <i name="date" type="string">2022 02 23 </i>
  <i name="time" type="string">05:45:02 </i>
 </generator>
 <incar>
  <i type="string" name="SYSTEM">fcc Si</i>
  <i type="int" name="ICHARG">    11</i>
  <i name="ENCUT">    240.00000000</i>
  <i type="int" name="ISMEAR">     0</i>
  <i name="SIGMA">      0.10000000</i>
  <i type="int" name="LORBIT">    11</i>
 </incar>
 <primitive_cell>
  <structure name="primitive_cell" >
   <crystal>
    <varray name="basis" >
     <v>       1.95000000       1.95000000       0.00000000 </v>
     <v>       0.00000000       1.95000000       1.95000000 </v>
     <v>       1.95000000       0.00000000       1.95000000 </v>
    </varray>
    <i name="volume">     14.82975000 </i>
    <varray name="rec_basis" >
     <v>       0.25641026       0.25641026      -0.25641026 </v>
     <v>      -0.25641026       0.25641026       0.25641026 </v>
     <v>       0.25641026      -0.25641026       0.25641026 </v>
    </varray>
   </crystal>
   <varray name="positions" >
    <v>       0.00000000       0.00000000       0.00000000 </v>
   </varray>
  </structure>
  <varray name="primitive_index" >
   <v type="int" >        1 </v>
  </varray>
 </primitive_cell>
 <kpoints>
  <generation param="listgenerated">
   <i name="divisions" type="int">      10 </i>
   <v>       0.50000000       0.50000000       0.50000000 </v>
   <v>       0.00000000       0.00000000       0.00000000 </v>
   <v>       0.00000000       0.50000000       0.50000000 </v>
   <v>       0.37500000       0.75000000       0.37500000 </v>
   <v>       0.00000000       0.00000000       0.00000000 </v>
  </generation>
  <varray name="kpointlist" >
   <v>       0.50000000       0.50000000       0.50000000 </v>
   <v>       0.44444444       0.44444444       0.44444444 </v>
   <v>       0.38888889       0.38888889       0.38888889 </v>
   <v>       0.33333333       0.33333333       0.33333333 </v>
   <v>       0.27777778       0.27777778       0.27777778 </v>
   <v>       0.22222222       0.22222222       0.22222222 </v>
   <v>       0.16666667       0.16666667       0.16666667 </v>
   <v>       0.11111111       0.11111111       0.11111111 </v>
   <v>       0.05555556       0.05555556       0.05555556 </v>
   <v>       0.00000000       0.00000000       0.00000000 </v>
   <v>       0.00000000       0.00000000       0.00000000 </v>
   <v>       0.00000000       0.05555556       0.05555556 </v>
   <v>       0.00000000       0.11111111       0.11111111 </v>
   <v>       0.00000000       0.16666667       0.16666667 </v>
   <v>       0.00000000       0.22222222       0.22222222 </v>
   <v>       0.00000000       0.27777778       0.27777778 </v>
   <v>       0.00000000       0.33333333       0.33333333 </v>
   <v>       0.00000000       0.38888889       0.38888889 </v>
   <v>       0.00000000       0.44444444       0.44444444 </v>
   <v>       0.00000000       0.50000000       0.50000000 </v>
   <v>       0.00000000       0.50000000       0.50000000 </v>
   <v>       0.02777778       0.51388889       0.51388889 </v>
   <v>       0.05555556       0.52777778       0.52777778 </v>
   <v>       0.08333333       0.54166667       0.54166667 </v>
   <v>       0.11111111       0.55555556       0.55555556 </v>
   <v>       0.13888889       0.56944444       0.56944444 </v>
   <v>       0.16666667       0.58333333       0.58333333 </v>
   <v>       0.19444444       0.59722222       0.59722222 </v>
   <v>       0.22222222       0.61111111       0.61111111 </v>
   <v>       0.25000000       0.62500000       0.62500000 </v>
   <v>       0.37500000       0.75000000       0.37500000 </v>
   <v>       0.33333333       0.66666667       0.33333333 </v>
   <v>       0.29166667       0.58333333       0.29166667 </v>
   <v>       0.25000000       0.50000000       0.25000000 </v>
   <v>       0.20833333       0.41666667       0.20833333 </v>
   <v>       0.16666667       0.33333333       0.16666667 </v>
   <v>       0.12500000       0.25000000       0.12500000 </v>
   <v>       0.08333333       0.16666667       0.08333333 </v>
   <v>       0.04166667       0.08333333       0.04166667 </v>
   <v>       0.00000000       0.00000000       0.00000000 </v>
  </varray>
  <varray name="weights" >
   <v>       0.02500000 </v>
   <v>       0.02500000 </v>
   <v>       0.02500000 </v>
   <v>       0.02500000 </v>
   <v>       0.02500000 </v>
   <v>       0.02500000 </v>
   <v>       0.02500000 </v>
   <v>       0.02500000 </v>
   <v>       0.02500000 </v>
   <v>       0.02500000 </v>
   <v>       0.02500000 </v>
   <v>       0.02500000 </v>
   <v>       0.02500000 </v>
   <v>       0.02500000 </v>
   <v>       0.02500000 </v>
   <v>       0.02500000 </v>
   <v>       0.02500000 </v>
   <v>       0.02500000 </v>
   <v>       0.02500000 </v>
   <v>       0.02500000 </v>
   <v>       0.02500000 </v>
   <v>       0.02500000 </v>
   <v>       0.02500000 </v>
   <v>       0.02500000 </v>
   <v>       0.02500000 </v>
   <v>       0.02500000 </v>
   <v>       0.02500000 </v>
   <v>       0.02500000 </v>
   <v>       0.02500000 </v>
   <v>       0.02500000 </v>
   <v>       0.02500000 </v>
   <v>       0.02500000 </v>
   <v>       0.02500000 </v>
   <v>       0.02500000 </v>
   <v>       0.02500000 </v>
   <v>       0.02500000 </v>
   <v>       0.02500000 </v>
   <v>       0.02500000 </v>
   <v>       0.02500000 </v>
   <v>       0.02500000 </v>
  </varray>
  <kpoints_labels>
   <i name="1" type="int">       1 </i>
   <i name="1" type="int">       2 </i>
   <i name="1" type="int">       3 </i>
   <i name="1" type="int">       4 </i>
   <i name="1" type="int">       5 </i>
   <i name="1" type="int">       6 </i>
   <i name="1" type="int">       7 </i>
   <i name="1" type="int">       8 </i>
  </kpoints_labels>
 </kpoints>
 <parameters>
  <separator name="general" >
   <i type="string" name="SYSTEM">fcc Si</i>
   <i type="logical" name="LCOMPAT"> F  </i>
  </separator>
  <separator name="electronic" >
   <i type="string" name="PREC">normal</i>
   <i name="ENMAX">    240.00000000</i>
   <i name="ENAUG">    322.06900000</i>
   <i name="EDIFF">      0.00010000</i>
   <i type="int" name="IALGO">    38</i>
   <i type="int" name="IWAVPR">    10</i>
   <i type="int" name="NBANDS">     8</i>
   <i type="int" name="NBANDSLOW">    -1</i>
   <i type="int" name="NBANDSHIGH">    -1</i>
   <i name="NELECT">      4.00000000</i>
   <i type="int" name="TURBO">     0</i>
   <i type="int" name="IRESTART">     0</i>
   <i type="int" name="NREBOOT">     0</i>
   <i type="int" name="NMIN">     0</i>
   <i name="EREF">      0.00000000</i>
   <separator name="electronic smearing" >
    <i type="int" name="ISMEAR">     0</i>
    <i name="SIGMA">      0.10000000</i>
    <i name="KSPACING">      0.50000000</i>
    <i type="logical" name="KGAMMA"> T  </i>
    <i type="logical" name="KBLOWUP"> T  </i>
   </separator>
   <separator name="electronic projectors" >
    <i type="logical" name="LREAL"> F  </i>
    <v name="ROPT">      0.00000000</v>
    <i type="int" name="LMAXPAW">  -100</i>
    <i type="int" name="LMAXMIX">     2</i>
    <i type="logical" name="NLSPLINE"> F  </i>
   </separator>
   <separator name="electronic startup" >
    <i type="int" name="ISTART">     0</i>
    <i type="int" name="ICHARG">    11</i>
    <i type="int" name="INIWAV">     1</i>
   </separator>
   <separator name="electronic spin" >
    <i type="int" name="ISPIN">     1</i>
    <i type="logical" name="LNONCOLLINEAR"> F  </i>
    <v name="MAGMOM">      1.00000000</v>
    <i name="NUPDOWN">     -1.00000000</i>
    <i type="logical" name="LSORBIT"> F  </i>
    <v name="SAXIS">      0.00000000      0.00000000      1.00000000</v>
    <i type="logical" name="LSPIRAL"> F  </i>
    <v name="QSPIRAL">      0.00000000      0.00000000      0.00000000</v>
    <i type="logical" name="LZEROZ"> F  </i>
   </separator>
   <separator name="electronic exchange-correlation" >
    <i type="logical" name="LASPH"> F  </i>
    <i type="logical" name="LMETAGGA"> F  </i>
   </separator>
   <separator name="electronic convergence" >
    <i type="int" name="NELM">    60</i>
    <i type="int" name="NELMDL">    -5</i>
    <i type="int" name="NELMIN">     2</i>
    <i name="ENINI">    240.00000000</i>
    <separator name="electronic convergence detail" >
     <i type="logical" name="LDIAG"> T  </i>
     <i type="logical" name="LSUBROT"> F  </i>
     <i name="WEIMIN">      0.00000000</i>
     <i name="EBREAK">      0.00000313</i>
     <i name="DEPER">      0.30000000</i>
     <i type="int" name="NRMM">     4</i>
     <i name="TIME">      0.40000000</i>
    </separator>
   </separator>
   <separator name="electronic mixer" >
    <i name="AMIX">      0.40000000</i>
    <i name="BMIX">      1.00000000</i>
    <i name="AMIN">      0.10000000</i>
    <i name="AMIX_MAG">      1.60000000</i>
    <i name="BMIX_MAG">      1.00000000</i>
    <separator name="electronic mixer details" >
     <i type="int" name="IMIX">     4</i>
     <i type="logical" name="MIXFIRST"> F  </i>
     <i type="int" name="MAXMIX">   -45</i>
     <i name="WC">    100.00000000</i>
     <i type="int" name="INIMIX">     1</i>
     <i type="int" name="MIXPRE">     1</i>
     <i type="int" name="MREMOVE">     5</i>
    </separator>
   </separator>
   <separator name="electronic dipolcorrection" >
    <i type="logical" name="LDIPOL"> F  </i>
    <i type="logical" name="LMONO"> F  </i>
    <i type="int" name="IDIPOL">     0</i>
    <i name="EPSILON">      1.00000000</i>
    <v name="DIPOL">   -100.00000000   -100.00000000   -100.00000000</v>
    <i name="EFIELD">      0.00000000</i>
   </separator>
  </separator>
  <separator name="grids" >
   <i type="int" name="NGX">    10</i>
   <i type="int" name="NGY">    10</i>
   <i type="int" name="NGZ">    10</i>
   <i type="int" name="NGXF">    20</i>
   <i type="int" name="NGYF">    20</i>
   <i type="int" name="NGZF">    20</i>
   <i type="logical" name="ADDGRID"> F  </i>
  </separator>
  <separator name="ionic" >
   <i type="int" name="NSW">     0</i>
   <i type="int" name="IBRION">    -1</i>
   <i type="int" name="MDALGO">     0</i>
   <i type="int" name="ISIF">     2</i>
   <i name="PSTRESS">      0.00000000</i>
   <i name="EDIFFG">      0.00100000</i>
   <i type="int" name="NFREE">     0</i>
   <i name="POTIM">      0.50000000</i>
   <i name="SMASS">     -3.00000000</i>
   <i name="SCALEE">      1.00000000</i>
  </separator>
  <separator name="ionic md" >
   <i name="TEBEG">      0.00010000</i>
   <i name="TEEND">      0.00010000</i>
   <i type="int" name="NBLOCK">     1</i>
   <i type="int" name="KBLOCK">     1</i>
   <i type="int" name="NPACO">   256</i>
   <i name="APACO">     10.00000000</i>
  </separator>
  <separator name="symmetry" >
   <i type="int" name="ISYM">     2</i>
   <i name="SYMPREC">      0.00001000</i>
  </separator>
  <separator name="dos" >
   <i type="int" name="LORBIT">    11</i>
   <v name="RWIGS">     -1.00000000</v>
   <i type="int" name="NEDOS">   301</i>
   <i name="EMIN">     10.00000000</i>
   <i name="EMAX">    -10.00000000</i>
   <i name="EFERMI">      0.00000000</i>
  </separator>
  <separator name="writing" >
   <i type="int" name="NWRITE">     2</i>
   <i type="logical" name="LWAVE"> T  </i>
   <i type="logical" name="LDOWNSAMPLE"> F  </i>
   <i type="logical" name="LCHARG"> T  </i>
   <i type="logical" name="LPARD"> F  </i>
   <i type="logical" name="LVTOT"> F  </i>
   <i type="logical" name="LVHAR"> F  </i>
   <i type="logical" name="LELF"> F  </i>
   <i type="logical" name="LOPTICS"> F  </i>
   <v name="STM">      0.00000000      0.00000000      0.00000000      0.00000000      0.00000000      0.00000000      0.00000000</v>
  </separator>
  <separator name="performance" >
   <i type="int" name="NPAR">     4</i>
   <i type="int" name="NSIM">     4</i>
   <i type="int" name="NBLK">    -1</i>
   <i type="logical" name="LPLANE"> T  </i>
   <i type="logical" name="LSCALAPACK"> T  </i>
   <i type="logical" name="LSCAAWARE"> F  </i>
   <i type="logical" name="LSCALU"> F  </i>
   <i type="logical" name="LASYNC"> F  </i>
   <i type="logical" name="LORBITALREAL"> F  </i>
  </separator>
  <separator name="miscellaneous" >
   <i type="int" name="IDIOT">     3</i>
   <i type="int" name="PHON_NSTRUCT">    -1</i>
   <i type="logical" name="LMUSIC"> F  </i>
   <v name="POMASS">     28.08500000</v>
   <v name="DARWINR">      0.00000000</v>
   <v name="DARWINV">      1.00000000</v>
   <i type="logical" name="LCORR"> T  </i>
  </separator>
  <i type="logical" name="GGA_COMPAT"> T  </i>
  <i type="logical" name="LBERRY"> F  </i>
  <i type="int" name="ICORELEVEL">     0</i>
  <i type="logical" name="LDAU"> F  </i>
  <i type="int" name="I_CONSTRAINED_M">     0</i>
  <separator name="electronic exchange-correlation" >
   <i type="string" name="GGA">--</i>
   <i type="int" name="VOSKOWN">     0</i>
   <i type="logical" name="LHFCALC"> F  </i>
   <i type="string" name="PRECFOCK"></i>
   <i type="logical" name="LSYMGRAD"> F  </i>
   <i type="logical" name="LHFONE"> F  </i>
   <i type="logical" name="LRHFCALC"> F  </i>
   <i type="logical" name="LTHOMAS"> F  </i>
   <i type="logical" name="LMODELHF"> F  </i>
   <i type="logical" name="LFOCKACE"> F  </i>
   <i name="ENCUT4O">     -1.00000000</i>
   <i type="int" name="EXXOEP">     0</i>
   <i type="int" name="FOURORBIT">     0</i>
   <i name="AEXX">      0.00000000</i>
   <i name="HFALPHA">      0.00000000</i>
   <i name="MCALPHA">      0.00000000</i>
   <i name="ALDAX">      1.00000000</i>
   <i name="AGGAX">      1.00000000</i>
   <i name="ALDAC">      1.00000000</i>
   <i name="AGGAC">      1.00000000</i>
   <i type="int" name="NKREDX">     1</i>
   <i type="int" name="NKREDY">     1</i>
   <i type="int" name="NKREDZ">     1</i>
   <i type="logical" name="SHIFTRED"> F  </i>
   <i type="logical" name="ODDONLY"> F  </i>
   <i type="logical" name="EVENONLY"> F  </i>
   <i type="int" name="LMAXFOCK">     0</i>
   <i type="int" name="NMAXFOCKAE">     0</i>
   <i type="logical" name="LFOCKAEDFT"> F  </i>
   <i name="HFSCREEN">      0.00000000</i>
   <i name="HFSCREENC">      0.00000000</i>
   <i type="int" name="NBANDSGWLOW">     0</i>
  </separator>
  <separator name="vdW DFT" >
   <i type="logical" name="LUSE_VDW"> F  </i>
   <i name="Zab_VDW">     -0.84910000</i>
   <i name="PARAM1">      0.12340000</i>
   <i name="PARAM2">      1.00000000</i>
   <i name="PARAM3">      0.00000000</i>
  </separator>
  <separator name="model GW" >
   <i type="int" name="MODEL_GW">     0</i>
   <i name="MODEL_EPS0">      8.89785000</i>
   <i name="MODEL_ALPHA">      1.00000000</i>
  </separator>
  <separator name="linear response parameters" >
   <i type="logical" name="LEPSILON"> F  </i>
   <i type="logical" name="LRPA"> F  </i>
   <i type="logical" name="LNABLA"> F  </i>
   <i type="logical" name="LVEL"> F  </i>
   <i name="CSHIFT">      0.10000000</i>
   <i name="OMEGAMAX">     -1.00000000</i>
   <i name="DEG_THRESHOLD">      0.00200000</i>
   <i name="RTIME">     -0.10000000</i>
   <i name="WPLASMAI">      0.00000000</i>
   <v name="DFIELD">      0.00000000      0.00000000      0.00000000</v>
   <v name="WPLASMA">      0.00000000      0.00000000      0.00000000      0.00000000      0.00000000      0.00000000      0.00000000      0.00000000      0.00000000</v>
  </separator>
  <separator name="orbital magnetization" >
   <i type="logical" name="NUCIND"> F  </i>
   <v name="MAGPOS">      0.00000000      0.00000000      0.00000000</v>
   <i type="logical" name="LNICSALL"> T  </i>
   <i type="logical" name="ORBITALMAG"> F  </i>
   <i type="logical" name="LMAGBLOCH"> F  </i>
   <i type="logical" name="LCHIMAG"> F  </i>
   <i type="logical" name="LGAUGE"> T  </i>
   <i type="int" name="MAGATOM">     0</i>
   <v name="MAGDIPOL">      0.00000000      0.00000000      0.00000000</v>
   <v name="AVECCONST">      0.00000000      0.00000000      0.00000000</v>
  </separator>
  <separator name="response functions" >
   <i type="logical" name="LFINITE_TEMPERATURE"> F  </i>
   <i type="logical" name="LADDER"> F  </i>
   <i type="logical" name="LRPAFORCE"> F  </i>
   <i type="logical" name="LFXC"> F  </i>
   <i type="logical" name="LHARTREE"> T  </i>
   <i type="int" name="IBSE">     0</i>
   <v type="int" name="KPOINT">    -1     0     0     0</v>
   <i type="logical" name="LTCTC"> F  </i>
   <i type="logical" name="LTCTE"> F  </i>
   <i type="logical" name="LTETE"> F  </i>
   <i type="logical" name="LTRIPLET"> F  </i>
   <i type="logical" name="LFXCEPS"> F  </i>
   <i type="logical" name="LFXHEG"> F  </i>
   <i type="int" name="NATURALO">     2</i>
   <i type="logical" name="LHOLEGF"> F  </i>
   <i type="logical" name="L2ORDER"> F  </i>
   <i type="logical" name="LDMP1"> F  </i>
   <i type="logical" name="LMP2LT"> F  </i>
   <i type="logical" name="LSMP2LT"> F  </i>
   <i type="logical" name="LGWLF"> F  </i>
   <i name="ENCUTGW">     -2.00000000</i>
   <i name="ENCUTGWSOFT">     -2.00000000</i>
   <i name="ENCUTLF">     -1.00000000</i>
   <i type="logical" name="LESF_SPLINES"> F  </i>
   <i type="int" name="LMAXMP2">    -1</i>
   <i name="SCISSOR">      0.00000000</i>
   <i type="int" name="NOMEGA">     0</i>
   <i type="int" name="NOMEGAR">     0</i>
   <i type="int" name="NBANDSGW">    -1</i>
   <i type="int" name="NBANDSO">    -1</i>
   <i type="int" name="NBANDSV">    -1</i>
   <i type="int" name="NELMGW">     1</i>
   <i type="int" name="NELMHF">     1</i>
   <i type="int" name="DIM">     3</i>
   <i type="int" name="IESPILON">     4</i>
   <i type="int" name="ANTIRES">     0</i>
   <i name="OMEGAMAX">    -30.00000000</i>
   <i name="OMEGAMIN">    -30.00000000</i>
   <i name="OMEGATL">   -200.00000000</i>
   <i type="int" name="OMEGAGRID">     0</i>
   <i name="CSHIFT">     -0.10000000</i>
   <i type="logical" name="LSELFENERGY"> F  </i>
   <i type="logical" name="LSPECTRAL"> F  </i>
   <i type="logical" name="LSPECTRALGW"> F  </i>
   <i type="logical" name="LSINGLES"> F  </i>
   <i type="logical" name="LFERMIGW"> F  </i>
   <i type="logical" name="ODDONLYGW"> F  </i>
   <i type="logical" name="EVENONLYGW"> F  </i>
   <i type="int" name="NKREDLFX">     1</i>
   <i type="int" name="NKREDLFY">     1</i>
   <i type="int" name="NKREDLFZ">     1</i>
   <i type="int" name="MAXMEM">  2800</i>
   <i type="int" name="TELESCOPE">     0</i>
   <i type="int" name="NTAUPAR">    -1</i>
   <i type="int" name="NOMEGAPAR">    -1</i>
   <i name="DAMP_NEWTON">      0.80000001</i>
   <i name="LAMBDA">      1.00000000</i>
  </separator>
  <separator name="External order field" >
   <i name="OFIELD_KAPPA">      0.00000000</i>
   <v name="OFIELD_K">      0.00000000      0.00000000      0.00000000</v>
   <i name="OFIELD_Q6_NEAR">      0.00000000</i>
   <i name="OFIELD_Q6_FAR">      0.00000000</i>
   <i name="OFIELD_A">      0.00000000</i>
  </separator>
  <separator name="optional k-points parameters" >
   <i type="int" name="KPOINTS_OPT_MODE">     1</i>
   <i type="logical" name="LKPOINTS_OPT"> F  </i>
  </separator>
 </parameters>
 <atominfo>
  <atoms>       1 </atoms>
  <types>       1 </types>
  <array name="atoms" >
   <dimension dim="1">ion</dimension>
   <field type="string">element</field>
   <field type="int">atomtype</field>
   <set>
    <rc><c>Si</c><c>   1</c></rc>
   </set>
  </array>
  <array name="atomtypes" >
   <dimension dim="1">type</dimension>
   <field type="int">atomspertype</field>
   <field type="string">element</field>
   <field>mass</field>
   <field>valence</field>
   <field type="string">pseudopotential</field>
   <set>
    <rc><c>   1</c><c>Si</c><c>     28.08500000</c><c>      4.00000000</c><c>  PAW_PBE Si 05Jan2001                  </c></rc>
   </set>
  </array>
 </atominfo>
 <structure name="initialpos" >
  <crystal>
   <varray name="basis" >
    <v>       1.95000000       1.95000000       0.00000000 </v>
    <v>       0.00000000       1.95000000       1.95000000 </v>
    <v>       1.95000000       0.00000000       1.95000000 </v>
   </varray>
   <i name="volume">     14.82975000 </i>
   <varray name="rec_basis" >
    <v>       0.25641026       0.25641026      -0.25641026 </v>
    <v>      -0.25641026       0.25641026       0.25641026 </v>
    <v>       0.25641026      -0.25641026       0.25641026 </v>
   </varray>
  </crystal>
  <varray name="positions" >
   <v>       0.00000000       0.00000000       0.00000000 </v>
  </varray>
 </structure>
 <calculation>
  <scstep>
   <time name="dav">    0.03    0.03</time>
   <time name="total">    0.03    0.04</time>
   <energy>
    <i name="alphaZ">      2.26997291 </i>
    <i name="ewald">   -135.42777035 </i>
    <i name="hartreedc">     -0.48465639 </i>
    <i name="XCdc">     -8.81814120 </i>
    <i name="pawpsdc">    343.71800860 </i>
    <i name="pawaedc">   -326.13286509 </i>
    <i name="eentropy">     -0.00544711 </i>
    <i name="bandstr">     17.40442655 </i>
    <i name="atom">    103.06077658 </i>
    <i name="e_fr_energy">     -4.41569549 </i>
    <i name="e_wo_entrp">     -4.41024838 </i>
    <i name="e_0_energy">     -4.41297193 </i>
   </energy>
  </scstep>
  <scstep>
   <time name="dav">    0.04    0.04</time>
   <time name="total">    0.04    0.04</time>
   <energy>
    <i name="e_fr_energy">     -5.35666443 </i>
    <i name="e_wo_entrp">     -5.35649870 </i>
    <i name="e_0_energy">     -5.35658157 </i>
   </energy>
  </scstep>
  <scstep>
   <time name="dav">    0.03    0.03</time>
   <time name="total">    0.03    0.03</time>
   <energy>
    <i name="e_fr_energy">     -5.35918703 </i>
    <i name="e_wo_entrp">     -5.35902173 </i>
    <i name="e_0_energy">     -5.35910438 </i>
   </energy>
  </scstep>
  <scstep>
   <time name="dav">    0.04    0.04</time>
   <time name="total">    0.04    0.04</time>
   <energy>
    <i name="e_fr_energy">     -5.35918840 </i>
    <i name="e_wo_entrp">     -5.35902311 </i>
    <i name="e_0_energy">     -5.35910576 </i>
   </energy>
  </scstep>
  <scstep>
   <time name="dav">    0.02    0.02</time>
   <time name="total">    0.02    0.02</time>
   <energy>
    <i name="e_fr_energy">     -5.35918840 </i>
    <i name="e_wo_entrp">     -5.35902311 </i>
    <i name="e_0_energy">     -5.35910576 </i>
   </energy>
  </scstep>
  <scstep>
   <time name="dav">    0.03    0.03</time>
   <time name="total">    0.03    0.03</time>
   <energy>
    <i name="alphaZ">      2.26997291 </i>
    <i name="ewald">   -135.42777035 </i>
    <i name="hartreedc">     -0.48465639 </i>
    <i name="XCdc">     -8.81814120 </i>
    <i name="pawpsdc">    343.71800860 </i>
    <i name="pawaedc">   -326.13286509 </i>
    <i name="eentropy">     -0.00016529 </i>
    <i name="bandstr">     16.45565182 </i>
    <i name="atom">    103.06077658 </i>
    <i name="e_fr_energy">     -5.35918840 </i>
    <i name="e_wo_entrp">     -5.35902311 </i>
    <i name="e_0_energy">     -5.35910576 </i>
   </energy>
  </scstep>
  <structure>
   <crystal>
    <varray name="basis" >
     <v>       1.95000000       1.95000000       0.00000000 </v>
     <v>       0.00000000       1.95000000       1.95000000 </v>
     <v>       1.95000000       0.00000000       1.95000000 </v>
    </varray>
    <i name="volume">     14.82975000 </i>
    <varray name="rec_basis" >
     <v>       0.25641026       0.25641026      -0.25641026 </v>
     <v>      -0.25641026       0.25641026       0.25641026 </v>
     <v>       0.25641026      -0.25641026       0.25641026 </v>
    </varray>
   </crystal>
   <varray name="positions" >
    <v>       0.00000000       0.00000000       0.00000000 </v>
   </varray>
  </structure>
  <varray name="forces" >
   <v>       0.00000000      -0.00000000      -0.00000000 </v>
  </varray>
  <varray name="stress" >
   <v>     -39.79736887       0.00000000      -0.00000000 </v>
   <v>      -0.00000000     -39.79736887      -0.00000000 </v>
   <v>      -0.00000000       0.00000000     -39.79736887 </v>
  </varray>
  <energy>
   <i name="e_fr_energy">     -5.35918840 </i>
   <i name="e_wo_entrp">     -5.35902311 </i>
   <i name="e_0_energy">     -5.35910576 </i>
  </energy>
  <time name="totalsc">    0.23    0.23</time>
  <eigenvalues>
   <array>
    <dimension dim="1">band</dimension>
    <dimension dim="2">kpoint</dimension>
    <dimension dim="3">spin</dimension>
    <field>eigene</field>
    <field>occ</field>
    <set>
     <set comment="spin 1">
      <set comment="kpoint 1">
       <r>    2.3116    1.0000 </r>
       <r>    3.0562    1.0000 </r>
       <r>   18.1880    0.0000 </r>
       <r>   18.1880    0.0000 </r>
       <r>   20.7334    0.0000 </r>
       <r>   20.7334    0.0000 </r>
       <r>   22.9775    0.0000 </r>
       <r>   25.5243    0.0000 </r>
      </set>
      <set comment="kpoint 2">
       <r>    1.1782    1.0000 </r>
       <r>    4.3482    1.0000 </r>
       <r>   18.1783    0.0000 </r>
       <r>   18.1783    0.0000 </r>
       <r>   20.8920    0.0000 </r>
       <r>   20.8920    0.0000 </r>
       <r>   22.9289    0.0000 </r>
       <r>   25.7174    0.0000 </r>
      </set>
      <set comment="kpoint 3">
       <r>   -0.0976    1.0000 </r>
       <r>    6.1004    1.0000 </r>
       <r>   18.1773    0.0000 </r>
       <r>   18.1773    0.0000 </r>
       <r>   21.3367    0.0000 </r>
       <r>   21.3367    0.0000 </r>
       <r>   22.8407    0.0000 </r>
       <r>   26.2433    0.0000 </r>
      </set>
      <set comment="kpoint 4">
       <r>   -1.2223    1.0000 </r>
       <r>    8.0141    1.0000 </r>
       <r>   18.2371    0.0000 </r>
       <r>   18.2371    0.0000 </r>
       <r>   22.0016    0.0000 </r>
       <r>   22.0016    0.0000 </r>
       <r>   22.7688    0.0000 </r>
       <r>   27.0084    0.0000 </r>
      </set>
      <set comment="kpoint 5">
       <r>   -2.1814    1.0000 </r>
       <r>   10.0683    1.0000 </r>
       <r>   18.3919    0.0000 </r>
       <r>   18.3919    0.0000 </r>
       <r>   22.7532    0.0000 </r>
       <r>   22.8073    0.0000 </r>
       <r>   22.8073    0.0000 </r>
       <r>   27.9394    0.0000 </r>
      </set>
      <set comment="kpoint 6">
       <r>   -2.9695    1.0000 </r>
       <r>   12.2503    1.0000 </r>
       <r>   18.6718    0.0000 </r>
       <r>   18.6718    0.0000 </r>
       <r>   22.8249    0.0000 </r>
       <r>   23.5987    0.0000 </r>
       <r>   23.5987    0.0000 </r>
       <r>   27.2571    0.0000 </r>
      </set>
      <set comment="kpoint 7">
       <r>   -3.5849    1.0000 </r>
       <r>   14.5356    0.0000 </r>
       <r>   19.0819    0.0000 </r>
       <r>   19.0819    0.0000 </r>
       <r>   22.9180    0.0000 </r>
       <r>   23.8854    0.0000 </r>
       <r>   23.8854    0.0000 </r>
       <r>   26.7264    0.0000 </r>
      </set>
      <set comment="kpoint 8">
       <r>   -4.0257    1.0000 </r>
       <r>   16.8782    0.0000 </r>
       <r>   19.6192    0.0000 </r>
       <r>   19.6192    0.0000 </r>
       <r>   22.9238    0.0000 </r>
       <r>   23.2542    0.0000 </r>
       <r>   23.2542    0.0000 </r>
       <r>   27.2879    0.0000 </r>
      </set>
      <set comment="kpoint 9">
       <r>   -4.2907    1.0000 </r>
       <r>   19.1463    0.0000 </r>
       <r>   20.2505    0.0000 </r>
       <r>   20.2505    0.0000 </r>
       <r>   22.3559    0.0000 </r>
       <r>   22.3559    0.0000 </r>
       <r>   22.5698    0.0000 </r>
       <r>   27.7213    0.0000 </r>
      </set>
      <set comment="kpoint 10">
       <r>   -4.3793    1.0000 </r>
       <r>   20.6934    0.0000 </r>
       <r>   20.6936    0.0000 </r>
       <r>   20.6936    0.0000 </r>
       <r>   21.7694    0.0000 </r>
       <r>   21.7695    0.0000 </r>
       <r>   21.7695    0.0000 </r>
       <r>   26.9756    0.0000 </r>
      </set>
      <set comment="kpoint 11">
       <r>   -4.3793    1.0000 </r>
       <r>   20.6934    0.0000 </r>
       <r>   20.6936    0.0000 </r>
       <r>   20.6936    0.0000 </r>
       <r>   21.7694    0.0000 </r>
       <r>   21.7695    0.0000 </r>
       <r>   21.7695    0.0000 </r>
       <r>   26.9756    0.0000 </r>
      </set>
      <set comment="kpoint 12">
       <r>   -4.2611    1.0000 </r>
       <r>   19.4710    0.0000 </r>
       <r>   19.4711    0.0000 </r>
       <r>   20.4112    0.0000 </r>
       <r>   21.1309    0.0000 </r>
       <r>   23.1889    0.0000 </r>
       <r>   23.1889    0.0000 </r>
       <r>   27.3439    0.0000 </r>
      </set>
      <set comment="kpoint 13">
       <r>   -3.9079    1.0000 </r>
       <r>   17.9957    0.0000 </r>
       <r>   17.9958    0.0000 </r>
       <r>   19.6410    0.0000 </r>
       <r>   19.8061    0.0000 </r>
       <r>   24.7216    0.0000 </r>
       <r>   25.1001    0.0000 </r>
       <r>   25.1001    0.0000 </r>
      </set>
      <set comment="kpoint 14">
       <r>   -3.3205    1.0000 </r>
       <r>   16.6796    0.0000 </r>
       <r>   16.6797    0.0000 </r>
       <r>   18.4469    0.0000 </r>
       <r>   18.4633    0.0000 </r>
       <r>   21.9650    0.0000 </r>
       <r>   27.0899    0.0000 </r>
       <r>   27.0899    0.0000 </r>
      </set>
      <set comment="kpoint 15">
       <r>   -2.5008    1.0000 </r>
       <r>   15.5544    0.0000 </r>
       <r>   15.5545    0.0000 </r>
       <r>   16.7249    0.0000 </r>
       <r>   17.2295    0.0000 </r>
       <r>   19.8174    0.0000 </r>
       <r>   29.0730    0.0000 </r>
       <r>   29.0731    0.0000 </r>
      </set>
      <set comment="kpoint 16">
       <r>   -1.4509    1.0000 </r>
       <r>   14.3992    0.0000 </r>
       <r>   14.6252    0.0000 </r>
       <r>   14.6253    0.0000 </r>
       <r>   16.1879    0.0000 </r>
       <r>   18.4625    0.0000 </r>
       <r>   30.9621    0.0000 </r>
       <r>   30.9653    0.0000 </r>
      </set>
      <set comment="kpoint 17">
       <r>   -0.1761    1.0000 </r>
       <r>   11.8853    1.0000 </r>
       <r>   13.9022    0.0000 </r>
       <r>   13.9023    0.0000 </r>
       <r>   15.3821    0.0000 </r>
       <r>   17.5836    0.0000 </r>
       <r>   32.2004    0.0000 </r>
       <r>   32.7086    0.0000 </r>
      </set>
      <set comment="kpoint 18">
       <r>    1.3198    1.0000 </r>
       <r>    9.4349    1.0000 </r>
       <r>   13.3853    0.0000 </r>
       <r>   13.3854    0.0000 </r>
       <r>   14.8043    0.0000 </r>
       <r>   17.0045    0.0000 </r>
       <r>   33.2832    0.0000 </r>
       <r>   34.3767    0.0000 </r>
      </set>
      <set comment="kpoint 19">
       <r>    3.0208    1.0000 </r>
       <r>    7.1422    1.0000 </r>
       <r>   13.0739    0.0000 </r>
       <r>   13.0740    0.0000 </r>
       <r>   14.4548    0.0000 </r>
       <r>   16.6619    0.0000 </r>
       <r>   34.2192    0.0000 </r>
       <r>   35.6811    0.0000 </r>
      </set>
      <set comment="kpoint 20">
       <r>    4.6136    1.0000 </r>
       <r>    5.3511    1.0000 </r>
       <r>   12.9700    0.0016 </r>
       <r>   12.9701    0.0016 </r>
       <r>   14.3380    0.0000 </r>
       <r>   16.5522    0.0000 </r>
       <r>   34.5830    0.0000 </r>
       <r>   36.2149    0.0000 </r>
      </set>
      <set comment="kpoint 21">
       <r>    4.6136    1.0000 </r>
       <r>    5.3511    1.0000 </r>
       <r>   12.9700    0.0016 </r>
       <r>   12.9701    0.0016 </r>
       <r>   14.3380    0.0000 </r>
       <r>   16.5522    0.0000 </r>
       <r>   34.5830    0.0000 </r>
       <r>   36.2151    0.0000 </r>
      </set>
      <set comment="kpoint 22">
       <r>    4.6275    1.0000 </r>
       <r>    5.3647    1.0000 </r>
       <r>   12.5821    0.9945 </r>
       <r>   12.9830    0.0009 </r>
       <r>   14.6174    0.0000 </r>
       <r>   16.6977    0.0000 </r>
       <r>   34.4918    0.0000 </r>
       <r>   36.1228    0.0000 </r>
      </set>
      <set comment="kpoint 23">
       <r>    4.6692    1.0000 </r>
       <r>    5.4055    1.0000 </r>
       <r>   11.8406    1.0000 </r>
       <r>   13.0216    0.0001 </r>
       <r>   15.0209    0.0000 </r>
       <r>   17.1465    0.0000 </r>
       <r>   34.2331    0.0000 </r>
       <r>   35.8619    0.0000 </r>
      </set>
      <set comment="kpoint 24">
       <r>    4.7388    1.0000 </r>
       <r>    5.4729    1.0000 </r>
       <r>   11.0213    1.0000 </r>
       <r>   13.0859    0.0000 </r>
       <r>   15.3116    0.0000 </r>
       <r>   17.8597    0.0000 </r>
       <r>   33.8418    0.0000 </r>
       <r>   35.4610    0.0000 </r>
      </set>
      <set comment="kpoint 25">
       <r>    4.8361    1.0000 </r>
       <r>    5.5660    1.0000 </r>
       <r>   10.1881    1.0000 </r>
       <r>   13.1759    0.0000 </r>
       <r>   15.5256    0.0000 </r>
       <r>   18.7370    0.0000 </r>
       <r>   33.3142    0.0000 </r>
       <r>   34.8994    0.0000 </r>
      </set>
      <set comment="kpoint 26">
       <r>    4.9612    1.0000 </r>
       <r>    5.6828    1.0000 </r>
       <r>    9.3633    1.0000 </r>
       <r>   13.2915    0.0000 </r>
       <r>   15.7154    0.0000 </r>
       <r>   19.7045    0.0000 </r>
       <r>   32.7723    0.0000 </r>
       <r>   34.3233    0.0000 </r>
      </set>
      <set comment="kpoint 27">
       <r>    5.1142    1.0000 </r>
       <r>    5.8182    1.0000 </r>
       <r>    8.5593    1.0000 </r>
       <r>   13.4325    0.0000 </r>
       <r>   15.9078    0.0000 </r>
       <r>   20.7215    0.0000 </r>
       <r>   32.1559    0.0000 </r>
       <r>   33.7137    0.0000 </r>
      </set>
      <set comment="kpoint 28">
       <r>    5.2951    1.0000 </r>
       <r>    5.9577    1.0000 </r>
       <r>    7.7989    1.0000 </r>
       <r>   13.5990    0.0000 </r>
       <r>   16.1180    0.0000 </r>
       <r>   21.7848    0.0000 </r>
       <r>   31.5636    0.0000 </r>
       <r>   33.0672    0.0000 </r>
      </set>
      <set comment="kpoint 29">
       <r>    5.5037    1.0000 </r>
       <r>    6.0378    1.0000 </r>
       <r>    7.1455    1.0000 </r>
       <r>   13.7908    0.0000 </r>
       <r>   16.3451    0.0000 </r>
       <r>   22.8575    0.0000 </r>
       <r>   30.9666    0.0000 </r>
       <r>   32.4124    0.0000 </r>
      </set>
      <set comment="kpoint 30">
       <r>    5.7399    1.0000 </r>
       <r>    5.8120    1.0000 </r>
       <r>    6.8467    1.0000 </r>
       <r>   14.0076    0.0000 </r>
       <r>   16.5875    0.0000 </r>
       <r>   23.9387    0.0000 </r>
       <r>   30.3392    0.0000 </r>
       <r>   31.7327    0.0000 </r>
      </set>
      <set comment="kpoint 31">
       <r>    5.7399    1.0000 </r>
       <r>    5.8120    1.0000 </r>
       <r>    6.8467    1.0000 </r>
       <r>   14.0076    0.0000 </r>
       <r>   16.5875    0.0000 </r>
       <r>   23.9387    0.0000 </r>
       <r>   30.3392    0.0000 </r>
       <r>   31.7328    0.0000 </r>
      </set>
      <set comment="kpoint 32">
       <r>    3.9035    1.0000 </r>
       <r>    6.6152    1.0000 </r>
       <r>    7.4915    1.0000 </r>
       <r>   14.8073    0.0000 </r>
       <r>   17.4874    0.0000 </r>
       <r>   27.1465    0.0000 </r>
       <r>   28.6486    0.0000 </r>
       <r>   29.8047    0.0000 </r>
      </set>
      <set comment="kpoint 33">
       <r>    2.0106    1.0000 </r>
       <r>    7.7387    1.0000 </r>
       <r>    8.5866    1.0000 </r>
       <r>   15.8205    0.0000 </r>
       <r>   18.6100    0.0000 </r>
       <r>   27.1216    0.0000 </r>
       <r>   28.0160    0.0000 </r>
       <r>   28.5502    0.0000 </r>
      </set>
      <set comment="kpoint 34">
       <r>    0.3390    1.0000 </r>
       <r>    9.1065    1.0000 </r>
       <r>    9.9260    1.0000 </r>
       <r>   17.0238    0.0000 </r>
       <r>   19.9413    0.0000 </r>
       <r>   25.8214    0.0000 </r>
       <r>   26.4091    0.0000 </r>
       <r>   27.0960    0.0000 </r>
      </set>
      <set comment="kpoint 35">
       <r>   -1.0899    1.0000 </r>
       <r>   10.7160    1.0000 </r>
       <r>   11.4801    1.0000 </r>
       <r>   18.3574    0.0000 </r>
       <r>   21.4530    0.0000 </r>
       <r>   24.8084    0.0000 </r>
       <r>   25.0161    0.0000 </r>
       <r>   25.8601    0.0000 </r>
      </set>
      <set comment="kpoint 36">
       <r>   -2.2682    1.0000 </r>
       <r>   12.5590    0.9980 </r>
       <r>   13.2245    0.0000 </r>
       <r>   19.6691    0.0000 </r>
       <r>   23.0901    0.0000 </r>
       <r>   23.8388    0.0000 </r>
       <r>   24.3025    0.0000 </r>
       <r>   24.8348    0.0000 </r>
      </set>
      <set comment="kpoint 37">
       <r>   -3.1889    1.0000 </r>
       <r>   14.6160    0.0000 </r>
       <r>   15.1245    0.0000 </r>
       <r>   20.5426    0.0000 </r>
       <r>   22.9471    0.0000 </r>
       <r>   24.0047    0.0000 </r>
       <r>   24.5156    0.0000 </r>
       <r>   24.6185    0.0000 </r>
      </set>
      <set comment="kpoint 38">
       <r>   -3.8492    1.0000 </r>
       <r>   16.8520    0.0000 </r>
       <r>   17.1355    0.0000 </r>
       <r>   20.7716    0.0000 </r>
       <r>   22.3087    0.0000 </r>
       <r>   23.3303    0.0000 </r>
       <r>   24.4824    0.0000 </r>
       <r>   25.9681    0.0000 </r>
      </set>
      <set comment="kpoint 39">
       <r>   -4.2464    1.0000 </r>
       <r>   19.1137    0.0000 </r>
       <r>   19.1625    0.0000 </r>
       <r>   20.7302    0.0000 </r>
       <r>   21.9240    0.0000 </r>
       <r>   22.6309    0.0000 </r>
       <r>   23.1410    0.0000 </r>
       <r>   27.6634    0.0000 </r>
      </set>
      <set comment="kpoint 40">
       <r>   -4.3793    1.0000 </r>
       <r>   20.6934    0.0000 </r>
       <r>   20.6936    0.0000 </r>
       <r>   20.6936    0.0000 </r>
       <r>   21.7694    0.0000 </r>
       <r>   21.7695    0.0000 </r>
       <r>   21.7695    0.0000 </r>
       <r>   26.9756    0.0000 </r>
      </set>
     </set>
    </set>
   </array>
  </eigenvalues>
  <separator name="orbital magnetization" >
   <v name="MAGDIPOLOUT">      0.00000000      0.00000000      0.00000000</v>
  </separator>
  <dos>
   <i name="efermi">     12.76199732 </i>
   <total>
    <array>
     <dimension dim="1">gridpoints</dimension>
     <dimension dim="2">spin</dimension>
     <field>energy</field>
     <field>total</field>
     <field>integrated</field>
     <set>
      <set comment="spin 1">
       <r>    -6.4091     0.0000     0.0000 </r>
       <r>    -6.2602     0.0000     0.0000 </r>
       <r>    -6.1114     0.0000     0.0000 </r>
       <r>    -5.9625     0.0000     0.0000 </r>
       <r>    -5.8137     0.0000     0.0000 </r>
       <r>    -5.6648     0.0000     0.0000 </r>
       <r>    -5.5160     0.0000     0.0000 </r>
       <r>    -5.3671     0.0000     0.0000 </r>
       <r>    -5.2183     0.0000     0.0000 </r>
       <r>    -5.0695     0.0000     0.0000 </r>
       <r>    -4.9206     0.0000     0.0000 </r>
       <r>    -4.7718     0.0000     0.0000 </r>
       <r>    -4.6229     0.0003     0.0000 </r>
       <r>    -4.4741     0.0929     0.0139 </r>
       <r>    -4.3252     0.9017     0.1481 </r>
       <r>    -4.1764     0.9136     0.2841 </r>
       <r>    -4.0275     0.2882     0.3270 </r>
       <r>    -3.8787     0.4838     0.3990 </r>
       <r>    -3.7298     0.3323     0.4484 </r>
       <r>    -3.5810     0.1859     0.4761 </r>
       <r>    -3.4321     0.1747     0.5021 </r>
       <r>    -3.2833     0.2517     0.5396 </r>
       <r>    -3.1345     0.3337     0.5892 </r>
       <r>    -2.9856     0.2093     0.6204 </r>
       <r>    -2.8368     0.1888     0.6485 </r>
       <r>    -2.6879     0.0115     0.6502 </r>
       <r>    -2.5391     0.0975     0.6647 </r>
       <r>    -2.3902     0.2320     0.6992 </r>
       <r>    -2.2414     0.2892     0.7423 </r>
       <r>    -2.0925     0.3504     0.7945 </r>
       <r>    -1.9437     0.0371     0.8000 </r>
       <r>    -1.7948     0.0001     0.8000 </r>
       <r>    -1.6460     0.0010     0.8001 </r>
       <r>    -1.4971     0.0853     0.8128 </r>
       <r>    -1.3483     0.2376     0.8482 </r>
       <r>    -1.1994     0.2428     0.8844 </r>
       <r>    -1.0506     0.3414     0.9352 </r>
       <r>    -0.9018     0.0983     0.9498 </r>
       <r>    -0.7529     0.0013     0.9500 </r>
       <r>    -0.6041     0.0000     0.9500 </r>
       <r>    -0.4552     0.0000     0.9500 </r>
       <r>    -0.3064     0.0115     0.9517 </r>
       <r>    -0.1575     0.2579     0.9901 </r>
       <r>    -0.0087     0.3643     1.0443 </r>
       <r>     0.1402     0.0388     1.0501 </r>
       <r>     0.2890     0.0798     1.0620 </r>
       <r>     0.4379     0.2282     1.0959 </r>
       <r>     0.5867     0.0272     1.1000 </r>
       <r>     0.7356     0.0001     1.1000 </r>
       <r>     0.8844     0.0000     1.1000 </r>
       <r>     1.0332     0.0068     1.1010 </r>
       <r>     1.1821     0.1772     1.1274 </r>
       <r>     1.3309     0.3358     1.1774 </r>
       <r>     1.4798     0.1481     1.1994 </r>
       <r>     1.6286     0.0040     1.2000 </r>
       <r>     1.7775     0.0002     1.2000 </r>
       <r>     1.9263     0.0390     1.2058 </r>
       <r>     2.0752     0.2362     1.2410 </r>
       <r>     2.2240     0.0963     1.2553 </r>
       <r>     2.3729     0.2353     1.2903 </r>
       <r>     2.5217     0.0644     1.2999 </r>
       <r>     2.6706     0.0005     1.3000 </r>
       <r>     2.8194     0.0009     1.3001 </r>
       <r>     2.9682     0.1118     1.3168 </r>
       <r>     3.1171     0.4647     1.3859 </r>
       <r>     3.2659     0.0939     1.3999 </r>
       <r>     3.4148     0.0006     1.4000 </r>
       <r>     3.5636     0.0000     1.4000 </r>
       <r>     3.7125     0.0012     1.4002 </r>
       <r>     3.8613     0.0914     1.4138 </r>
       <r>     4.0102     0.2213     1.4467 </r>
       <r>     4.1590     0.0233     1.4502 </r>
       <r>     4.3079     0.0943     1.4642 </r>
       <r>     4.4567     0.2314     1.4987 </r>
       <r>     4.6056     0.5132     1.5751 </r>
       <r>     4.7544     1.0128     1.7258 </r>
       <r>     4.9033     0.5072     1.8013 </r>
       <r>     5.0521     0.3574     1.8545 </r>
       <r>     5.2009     0.3149     1.9014 </r>
       <r>     5.3498     0.8151     2.0227 </r>
       <r>     5.4986     1.2341     2.2064 </r>
       <r>     5.6475     0.7550     2.3188 </r>
       <r>     5.7963     1.1286     2.4867 </r>
       <r>     5.9452     0.9084     2.6220 </r>
       <r>     6.0940     0.5996     2.7112 </r>
       <r>     6.2429     0.2527     2.7488 </r>
       <r>     6.3917     0.0083     2.7500 </r>
       <r>     6.5406     0.0487     2.7573 </r>
       <r>     6.6894     0.2464     2.7940 </r>
       <r>     6.8383     0.3444     2.8452 </r>
       <r>     6.9871     0.3611     2.8990 </r>
       <r>     7.1359     0.3128     2.9455 </r>
       <r>     7.2848     0.3509     2.9978 </r>
       <r>     7.4336     0.0844     3.0103 </r>
       <r>     7.5825     0.2382     3.0458 </r>
       <r>     7.7313     0.2393     3.0814 </r>
       <r>     7.8802     0.4210     3.1441 </r>
       <r>     8.0290     0.2357     3.1791 </r>
       <r>     8.1779     0.1366     3.1995 </r>
       <r>     8.3267     0.0037     3.2000 </r>
       <r>     8.4756     0.0590     3.2088 </r>
       <r>     8.6244     0.4530     3.2763 </r>
       <r>     8.7733     0.1577     3.2997 </r>
       <r>     8.9221     0.0033     3.3002 </r>
       <r>     9.0709     0.1018     3.3154 </r>
       <r>     9.2198     0.2218     3.3484 </r>
       <r>     9.3686     0.2474     3.3852 </r>
       <r>     9.5175     0.3896     3.4432 </r>
       <r>     9.6663     0.0455     3.4500 </r>
       <r>     9.8152     0.0199     3.4529 </r>
       <r>     9.9640     0.2408     3.4888 </r>
       <r>    10.1129     0.3694     3.5438 </r>
       <r>    10.2617     0.3268     3.5924 </r>
       <r>    10.4106     0.0508     3.6000 </r>
       <r>    10.5594     0.0048     3.6007 </r>
       <r>    10.7083     0.1489     3.6228 </r>
       <r>    10.8571     0.1782     3.6494 </r>
       <r>    11.0059     0.1434     3.6707 </r>
       <r>    11.1548     0.1869     3.6985 </r>
       <r>    11.3036     0.0120     3.7003 </r>
       <r>    11.4525     0.1148     3.7174 </r>
       <r>    11.6013     0.2046     3.7479 </r>
       <r>    11.7502     0.0575     3.7564 </r>
       <r>    11.8990     0.4179     3.8186 </r>
       <r>    12.0479     0.2073     3.8495 </r>
       <r>    12.1967     0.0789     3.8612 </r>
       <r>    12.3456     0.2312     3.8956 </r>
       <r>    12.4944     0.1259     3.9144 </r>
       <r>    12.6433     0.4709     3.9845 </r>
       <r>    12.7921     0.1129     4.0013 </r>
       <r>    12.9410     0.6110     4.0922 </r>
       <r>    13.0898     1.8753     4.3714 </r>
       <r>    13.2386     1.0735     4.5312 </r>
       <r>    13.3875     0.8617     4.6594 </r>
       <r>    13.5363     0.6368     4.7542 </r>
       <r>    13.6852     0.2936     4.7979 </r>
       <r>    13.8340     0.3760     4.8539 </r>
       <r>    13.9829     0.8035     4.9735 </r>
       <r>    14.1317     0.4884     5.0462 </r>
       <r>    14.2806     0.1836     5.0735 </r>
       <r>    14.4294     0.8195     5.1955 </r>
       <r>    14.5783     0.9625     5.3387 </r>
       <r>    14.7271     1.0814     5.4997 </r>
       <r>    14.8760     0.5725     5.5849 </r>
       <r>    15.0248     0.3026     5.6300 </r>
       <r>    15.1736     0.3926     5.6884 </r>
       <r>    15.3225     0.3337     5.7381 </r>
       <r>    15.4713     0.5322     5.8173 </r>
       <r>    15.6202     0.7732     5.9324 </r>
       <r>    15.7690     0.4648     6.0016 </r>
       <r>    15.9179     0.4842     6.0736 </r>
       <r>    16.0667     0.2662     6.1133 </r>
       <r>    16.2156     0.4491     6.1801 </r>
       <r>    16.3644     0.3388     6.2305 </r>
       <r>    16.5133     0.4363     6.2955 </r>
       <r>    16.6621     1.5063     6.5197 </r>
       <r>    16.8110     1.2810     6.7104 </r>
       <r>    16.9598     0.6924     6.8134 </r>
       <r>    17.1086     0.7515     6.9253 </r>
       <r>    17.2575     0.6879     7.0277 </r>
       <r>    17.4063     0.1922     7.0563 </r>
       <r>    17.5552     0.3526     7.1088 </r>
       <r>    17.7040     0.2665     7.1484 </r>
       <r>    17.8529     0.1802     7.1753 </r>
       <r>    18.0017     0.5289     7.2540 </r>
       <r>    18.1506     1.0455     7.4096 </r>
       <r>    18.2994     1.8744     7.6886 </r>
       <r>    18.4483     1.3623     7.8914 </r>
       <r>    18.5971     0.9526     8.0332 </r>
       <r>    18.7460     0.8615     8.1614 </r>
       <r>    18.8948     0.2575     8.1997 </r>
       <r>    19.0437     0.2938     8.2435 </r>
       <r>    19.1925     1.1044     8.4079 </r>
       <r>    19.3413     0.3023     8.4529 </r>
       <r>    19.4902     0.4192     8.5153 </r>
       <r>    19.6390     0.9792     8.6610 </r>
       <r>    19.7879     1.1185     8.8275 </r>
       <r>    19.9367     0.6199     8.9198 </r>
       <r>    20.0856     0.2027     8.9499 </r>
       <r>    20.2344     0.2780     8.9913 </r>
       <r>    20.3833     0.4943     9.0649 </r>
       <r>    20.5321     0.4069     9.1255 </r>
       <r>    20.6810     1.8194     9.3963 </r>
       <r>    20.8298     2.9191     9.8308 </r>
       <r>    20.9787     0.7311     9.9396 </r>
       <r>    21.1275     0.2320     9.9742 </r>
       <r>    21.2763     0.3011    10.0190 </r>
       <r>    21.4252     0.5901    10.1068 </r>
       <r>    21.5740     0.2844    10.1491 </r>
       <r>    21.7229     0.8415    10.2744 </r>
       <r>    21.8717     2.3937    10.6307 </r>
       <r>    22.0206     1.1066    10.7954 </r>
       <r>    22.1694     0.3712    10.8507 </r>
       <r>    22.3183     0.3814    10.9074 </r>
       <r>    22.4671     0.6069    10.9978 </r>
       <r>    22.6160     0.4215    11.0605 </r>
       <r>    22.7648     0.9495    11.2018 </r>
       <r>    22.9137     2.0730    11.5104 </r>
       <r>    23.0625     1.3809    11.7159 </r>
       <r>    23.2113     1.1145    11.8818 </r>
       <r>    23.3602     0.9667    12.0257 </r>
       <r>    23.5090     0.2300    12.0599 </r>
       <r>    23.6579     0.4721    12.1302 </r>
       <r>    23.8067     0.3523    12.1826 </r>
       <r>    23.9556     1.1454    12.3531 </r>
       <r>    24.1044     0.6179    12.4451 </r>
       <r>    24.2533     0.1148    12.4622 </r>
       <r>    24.4021     0.2890    12.5052 </r>
       <r>    24.5510     0.5371    12.5851 </r>
       <r>    24.6998     0.5495    12.6669 </r>
       <r>    24.8487     0.6474    12.7633 </r>
       <r>    24.9975     0.4242    12.8264 </r>
       <r>    25.1463     0.6470    12.9227 </r>
       <r>    25.2952     0.1815    12.9497 </r>
       <r>    25.4440     0.0448    12.9564 </r>
       <r>    25.5929     0.2505    12.9937 </r>
       <r>    25.7417     0.3149    13.0406 </r>
       <r>    25.8906     0.6117    13.1316 </r>
       <r>    26.0394     0.4053    13.1919 </r>
       <r>    26.1883     0.1275    13.2109 </r>
       <r>    26.3371     0.2835    13.2531 </r>
       <r>    26.4860     0.2685    13.2931 </r>
       <r>    26.6348     0.0790    13.3048 </r>
       <r>    26.7837     0.2367    13.3401 </r>
       <r>    26.9325     0.4007    13.3997 </r>
       <r>    27.0814     1.4934    13.6220 </r>
       <r>    27.2302     1.3152    13.8178 </r>
       <r>    27.3790     0.7367    13.9274 </r>
       <r>    27.5279     0.1603    13.9513 </r>
       <r>    27.6767     0.2733    13.9920 </r>
       <r>    27.8256     0.3819    14.0488 </r>
       <r>    27.9744     0.3331    14.0984 </r>
       <r>    28.1233     0.3234    14.1465 </r>
       <r>    28.2721     0.0233    14.1500 </r>
       <r>    28.4210     0.0116    14.1517 </r>
       <r>    28.5698     0.2376    14.1871 </r>
       <r>    28.7187     0.3658    14.2415 </r>
       <r>    28.8675     0.0579    14.2501 </r>
       <r>    29.0164     0.1411    14.2711 </r>
       <r>    29.1652     0.4652    14.3404 </r>
       <r>    29.3140     0.0644    14.3500 </r>
       <r>    29.4629     0.0002    14.3500 </r>
       <r>    29.6117     0.0011    14.3502 </r>
       <r>    29.7606     0.0884    14.3633 </r>
       <r>    29.9094     0.2232    14.3965 </r>
       <r>    30.0583     0.0233    14.4000 </r>
       <r>    30.2071     0.0208    14.4031 </r>
       <r>    30.3560     0.3781    14.4594 </r>
       <r>    30.5048     0.2666    14.4990 </r>
       <r>    30.6537     0.0064    14.5000 </r>
       <r>    30.8025     0.0110    14.5016 </r>
       <r>    30.9514     0.4176    14.5638 </r>
       <r>    31.1002     0.5512    14.6458 </r>
       <r>    31.2490     0.0279    14.6500 </r>
       <r>    31.3979     0.0032    14.6505 </r>
       <r>    31.5467     0.1359    14.6707 </r>
       <r>    31.6956     0.3877    14.7284 </r>
       <r>    31.8444     0.4426    14.7943 </r>
       <r>    31.9933     0.0425    14.8006 </r>
       <r>    32.1421     0.2067    14.8314 </r>
       <r>    32.2910     0.4324    14.8957 </r>
       <r>    32.4398     0.2472    14.9325 </r>
       <r>    32.5887     0.1320    14.9522 </r>
       <r>    32.7375     0.3114    14.9985 </r>
       <r>    32.8864     0.3277    15.0473 </r>
       <r>    33.0352     0.1276    15.0663 </r>
       <r>    33.1841     0.2480    15.1032 </r>
       <r>    33.3329     0.4363    15.1681 </r>
       <r>    33.4817     0.2104    15.1995 </r>
       <r>    33.6306     0.0444    15.2061 </r>
       <r>    33.7794     0.2994    15.2506 </r>
       <r>    33.9283     0.2941    15.2944 </r>
       <r>    34.0771     0.0496    15.3018 </r>
       <r>    34.2260     0.3573    15.3550 </r>
       <r>    34.3748     0.7298    15.4636 </r>
       <r>    34.5237     0.5987    15.5527 </r>
       <r>    34.6725     0.5831    15.6395 </r>
       <r>    34.8214     0.1156    15.6567 </r>
       <r>    34.9702     0.2377    15.6921 </r>
       <r>    35.1191     0.0529    15.7000 </r>
       <r>    35.2679     0.0014    15.7002 </r>
       <r>    35.4167     0.0883    15.7133 </r>
       <r>    35.5656     0.2404    15.7491 </r>
       <r>    35.7144     0.2412    15.7850 </r>
       <r>    35.8633     0.2699    15.8252 </r>
       <r>    36.0121     0.1824    15.8523 </r>
       <r>    36.1610     0.3709    15.9075 </r>
       <r>    36.3098     0.5595    15.9908 </r>
       <r>    36.4587     0.0617    16.0000 </r>
       <r>    36.6075     0.0002    16.0000 </r>
       <r>    36.7564     0.0000    16.0000 </r>
       <r>    36.9052     0.0000    16.0000 </r>
       <r>    37.0541     0.0000    16.0000 </r>
       <r>    37.2029     0.0000    16.0000 </r>
       <r>    37.3517     0.0000    16.0000 </r>
       <r>    37.5006     0.0000    16.0000 </r>
       <r>    37.6494     0.0000    16.0000 </r>
       <r>    37.7983     0.0000    16.0000 </r>
       <r>    37.9471     0.0000    16.0000 </r>
       <r>    38.0960     0.0000    16.0000 </r>
       <r>    38.2448     0.0000    16.0000 </r>
      </set>
     </set>
    </array>
   </total>
   <partial>
    <array>
     <dimension dim="1">gridpoints</dimension>
     <dimension dim="2">spin</dimension>
     <dimension dim="3">ion</dimension>
     <field>energy</field>
     <field>    s</field>
     <field>   py</field>
     <field>   pz</field>
     <field>   px</field>
     <field>  dxy</field>
     <field>  dyz</field>
     <field>  dz2</field>
     <field>  dxz</field>
     <field>x2-y2</field>
     <set>
      <set comment="ion 1">
       <set comment="spin 1">
        <r>    -6.4091     0.0000     0.0000     0.0000     0.0000     0.0000     0.0000     0.0000     0.0000     0.0000 </r>
        <r>    -6.2602     0.0000     0.0000     0.0000     0.0000     0.0000     0.0000     0.0000     0.0000     0.0000 </r>
        <r>    -6.1114     0.0000     0.0000     0.0000     0.0000     0.0000     0.0000     0.0000     0.0000     0.0000 </r>
        <r>    -5.9625     0.0000     0.0000     0.0000     0.0000     0.0000     0.0000     0.0000     0.0000     0.0000 </r>
        <r>    -5.8137     0.0000     0.0000     0.0000     0.0000     0.0000     0.0000     0.0000     0.0000     0.0000 </r>
        <r>    -5.6648     0.0000     0.0000     0.0000     0.0000     0.0000     0.0000     0.0000     0.0000     0.0000 </r>
        <r>    -5.5160     0.0000     0.0000     0.0000     0.0000     0.0000     0.0000     0.0000     0.0000     0.0000 </r>
        <r>    -5.3671     0.0000     0.0000     0.0000     0.0000     0.0000     0.0000     0.0000     0.0000     0.0000 </r>
        <r>    -5.2183     0.0000     0.0000     0.0000     0.0000     0.0000     0.0000     0.0000     0.0000     0.0000 </r>
        <r>    -5.0695     0.0000     0.0000     0.0000     0.0000     0.0000     0.0000     0.0000     0.0000     0.0000 </r>
        <r>    -4.9206     0.0000     0.0000     0.0000     0.0000     0.0000     0.0000     0.0000     0.0000     0.0000 </r>
        <r>    -4.7718     0.0000     0.0000     0.0000     0.0000     0.0000     0.0000     0.0000     0.0000     0.0000 </r>
        <r>    -4.6229     0.0001     0.0000     0.0000     0.0000     0.0000     0.0000     0.0000     0.0000     0.0000 </r>
        <r>    -4.4741     0.0356     0.0000     0.0000     0.0000     0.0000     0.0000     0.0000     0.0000     0.0000 </r>
        <r>    -4.3252     0.3458     0.0002     0.0002     0.0002     0.0000     0.0000     0.0000     0.0000     0.0000 </r>
        <r>    -4.1764     0.3495     0.0007     0.0007     0.0007     0.0000     0.0000     0.0000     0.0000     0.0000 </r>
        <r>    -4.0275     0.1091     0.0007     0.0007     0.0007     0.0000     0.0000     0.0000     0.0000     0.0000 </r>
        <r>    -3.8787     0.1813     0.0018     0.0018     0.0018     0.0000     0.0000     0.0000     0.0000     0.0000 </r>
        <r>    -3.7298     0.1240     0.0014     0.0014     0.0014     0.0000     0.0000     0.0000     0.0000     0.0000 </r>
        <r>    -3.5810     0.0683     0.0012     0.0012     0.0012     0.0000     0.0000     0.0000     0.0000     0.0000 </r>
        <r>    -3.4321     0.0640     0.0012     0.0012     0.0012     0.0000     0.0000     0.0000     0.0000     0.0000 </r>
        <r>    -3.2833     0.0908     0.0022     0.0022     0.0022     0.0000     0.0000     0.0000     0.0000     0.0000 </r>
        <r>    -3.1345     0.1198     0.0032     0.0032     0.0032     0.0000     0.0000     0.0000     0.0000     0.0000 </r>
        <r>    -2.9856     0.0743     0.0023     0.0023     0.0023     0.0000     0.0000     0.0000     0.0000     0.0000 </r>
        <r>    -2.8368     0.0668     0.0021     0.0021     0.0021     0.0000     0.0000     0.0000     0.0000     0.0000 </r>
        <r>    -2.6879     0.0041     0.0001     0.0001     0.0001     0.0000     0.0000     0.0000     0.0000     0.0000 </r>
        <r>    -2.5391     0.0334     0.0015     0.0015     0.0015     0.0000     0.0000     0.0000     0.0000     0.0000 </r>
        <r>    -2.3902     0.0794     0.0036     0.0036     0.0036     0.0000     0.0000     0.0000     0.0000     0.0000 </r>
        <r>    -2.2414     0.0980     0.0048     0.0048     0.0048     0.0000     0.0000     0.0000     0.0000     0.0000 </r>
        <r>    -2.0925     0.1186     0.0059     0.0059     0.0059     0.0000     0.0000     0.0000     0.0000     0.0000 </r>
        <r>    -1.9437     0.0126     0.0006     0.0006     0.0006     0.0000     0.0000     0.0000     0.0000     0.0000 </r>
        <r>    -1.7948     0.0000     0.0000     0.0000     0.0000     0.0000     0.0000     0.0000     0.0000     0.0000 </r>
        <r>    -1.6460     0.0003     0.0000     0.0000     0.0000     0.0000     0.0000     0.0000     0.0000     0.0000 </r>
        <r>    -1.4971     0.0274     0.0020     0.0020     0.0020     0.0000     0.0000     0.0000     0.0000     0.0000 </r>
        <r>    -1.3483     0.0762     0.0056     0.0056     0.0056     0.0000     0.0000     0.0000     0.0000     0.0000 </r>
        <r>    -1.1994     0.0781     0.0057     0.0057     0.0057     0.0000     0.0000     0.0000     0.0000     0.0000 </r>
        <r>    -1.0506     0.1089     0.0084     0.0084     0.0084     0.0000     0.0000     0.0000     0.0000     0.0000 </r>
        <r>    -0.9018     0.0312     0.0025     0.0025     0.0025     0.0000     0.0000     0.0000     0.0000     0.0000 </r>
        <r>    -0.7529     0.0004     0.0000     0.0000     0.0000     0.0000     0.0000     0.0000     0.0000     0.0000 </r>
        <r>    -0.6041     0.0000     0.0000     0.0000     0.0000     0.0000     0.0000     0.0000     0.0000     0.0000 </r>
        <r>    -0.4552     0.0000     0.0000     0.0000     0.0000     0.0000     0.0000     0.0000     0.0000     0.0000 </r>
        <r>    -0.3064     0.0034     0.0004     0.0004     0.0004     0.0000     0.0000     0.0000     0.0000     0.0000 </r>
        <r>    -0.1575     0.0766     0.0083     0.0083     0.0083     0.0000     0.0000     0.0000     0.0000     0.0000 </r>
        <r>    -0.0087     0.1102     0.0112     0.0112     0.0112     0.0000     0.0000     0.0000     0.0000     0.0000 </r>
        <r>     0.1402     0.0119     0.0012     0.0012     0.0012     0.0000     0.0000     0.0000     0.0000     0.0000 </r>
        <r>     0.2890     0.0234     0.0027     0.0027     0.0027     0.0000     0.0000     0.0000     0.0000     0.0000 </r>
        <r>     0.4379     0.0669     0.0078     0.0078     0.0078     0.0000     0.0000     0.0000     0.0000     0.0000 </r>
        <r>     0.5867     0.0080     0.0009     0.0009     0.0009     0.0000     0.0000     0.0000     0.0000     0.0000 </r>
        <r>     0.7356     0.0000     0.0000     0.0000     0.0000     0.0000     0.0000     0.0000     0.0000     0.0000 </r>
        <r>     0.8844     0.0000     0.0000     0.0000     0.0000     0.0000     0.0000     0.0000     0.0000     0.0000 </r>
        <r>     1.0332     0.0021     0.0002     0.0002     0.0002     0.0000     0.0000     0.0000     0.0000     0.0000 </r>
        <r>     1.1821     0.0540     0.0058     0.0058     0.0058     0.0000     0.0000     0.0000     0.0000     0.0000 </r>
        <r>     1.3309     0.0950     0.0130     0.0130     0.0130     0.0000     0.0000     0.0000     0.0000     0.0000 </r>
        <r>     1.4798     0.0390     0.0065     0.0065     0.0065     0.0000     0.0000     0.0000     0.0000     0.0000 </r>
        <r>     1.6286     0.0010     0.0002     0.0002     0.0002     0.0000     0.0000     0.0000     0.0000     0.0000 </r>
        <r>     1.7775     0.0000     0.0000     0.0000     0.0000     0.0000     0.0000     0.0000     0.0000     0.0000 </r>
        <r>     1.9263     0.0106     0.0017     0.0017     0.0017     0.0000     0.0000     0.0000     0.0000     0.0000 </r>
        <r>     2.0752     0.0641     0.0101     0.0101     0.0101     0.0000     0.0000     0.0000     0.0000     0.0000 </r>
        <r>     2.2240     0.0327     0.0026     0.0026     0.0026     0.0000     0.0000     0.0000     0.0000     0.0000 </r>
        <r>     2.3729     0.1068     0.0000     0.0000     0.0000     0.0000     0.0000     0.0000     0.0000     0.0000 </r>
        <r>     2.5217     0.0293     0.0000     0.0000     0.0000     0.0000     0.0000     0.0000     0.0000     0.0000 </r>
        <r>     2.6706     0.0002     0.0000     0.0000     0.0000     0.0000     0.0000     0.0000     0.0000     0.0000 </r>
        <r>     2.8194     0.0002     0.0001     0.0001     0.0001     0.0000     0.0000     0.0000     0.0000     0.0000 </r>
        <r>     2.9682     0.0163     0.0083     0.0083     0.0083     0.0000     0.0000     0.0000     0.0000     0.0000 </r>
        <r>     3.1171     0.0494     0.0385     0.0385     0.0385     0.0000     0.0000     0.0000     0.0000     0.0000 </r>
        <r>     3.2659     0.0062     0.0086     0.0086     0.0086     0.0000     0.0000     0.0000     0.0000     0.0000 </r>
        <r>     3.4148     0.0000     0.0001     0.0001     0.0001     0.0000     0.0000     0.0000     0.0000     0.0000 </r>
        <r>     3.5636     0.0000     0.0000     0.0000     0.0000     0.0000     0.0000     0.0000     0.0000     0.0000 </r>
        <r>     3.7125     0.0003     0.0001     0.0001     0.0001     0.0000     0.0000     0.0000     0.0000     0.0000 </r>
        <r>     3.8613     0.0243     0.0044     0.0044     0.0044     0.0000     0.0000     0.0000     0.0000     0.0000 </r>
        <r>     4.0102     0.0589     0.0108     0.0108     0.0108     0.0000     0.0000     0.0000     0.0000     0.0000 </r>
        <r>     4.1590     0.0060     0.0012     0.0012     0.0012     0.0000     0.0000     0.0000     0.0000     0.0000 </r>
        <r>     4.3079     0.0138     0.0069     0.0069     0.0069     0.0000     0.0000     0.0000     0.0000     0.0000 </r>
        <r>     4.4567     0.0320     0.0175     0.0175     0.0175     0.0000     0.0000     0.0000     0.0000     0.0000 </r>
        <r>     4.6056     0.0031     0.0596     0.0596     0.0596     0.0000     0.0000     0.0000     0.0000     0.0000 </r>
        <r>     4.7544     0.0000     0.1194     0.1194     0.1194     0.0000     0.0000     0.0000     0.0000     0.0000 </r>
        <r>     4.9033     0.0000     0.0595     0.0595     0.0595     0.0000     0.0000     0.0000     0.0000     0.0000 </r>
        <r>     5.0521     0.0000     0.0417     0.0417     0.0417     0.0000     0.0000     0.0000     0.0000     0.0000 </r>
        <r>     5.2009     0.0071     0.0347     0.0347     0.0347     0.0000     0.0000     0.0000     0.0000     0.0000 </r>
        <r>     5.3498     0.2483     0.0316     0.0316     0.0316     0.0000     0.0000     0.0000     0.0000     0.0000 </r>
        <r>     5.4986     0.4619     0.0265     0.0265     0.0265     0.0000     0.0000     0.0000     0.0000     0.0000 </r>
        <r>     5.6475     0.2400     0.0278     0.0278     0.0278     0.0000     0.0000     0.0000     0.0000     0.0000 </r>
        <r>     5.7963     0.3019     0.0605     0.0605     0.0605     0.0000     0.0000     0.0000     0.0000     0.0000 </r>
        <r>     5.9452     0.3575     0.0254     0.0254     0.0254     0.0000     0.0000     0.0000     0.0000     0.0000 </r>
        <r>     6.0940     0.2523     0.0124     0.0124     0.0124     0.0000     0.0000     0.0000     0.0000     0.0000 </r>
        <r>     6.2429     0.0672     0.0131     0.0131     0.0131     0.0000     0.0000     0.0000     0.0000     0.0000 </r>
        <r>     6.3917     0.0014     0.0006     0.0006     0.0006     0.0000     0.0000     0.0000     0.0000     0.0000 </r>
        <r>     6.5406     0.0000     0.0054     0.0054     0.0054     0.0000     0.0000     0.0000     0.0000     0.0000 </r>
        <r>     6.6894     0.0008     0.0269     0.0269     0.0269     0.0000     0.0000     0.0000     0.0000     0.0000 </r>
        <r>     6.8383     0.0281     0.0263     0.0263     0.0263     0.0000     0.0000     0.0000     0.0000     0.0000 </r>
        <r>     6.9871     0.0346     0.0256     0.0256     0.0256     0.0000     0.0000     0.0000     0.0000     0.0000 </r>
        <r>     7.1359     0.0385     0.0235     0.0235     0.0235     0.0000     0.0000     0.0000     0.0000     0.0000 </r>
        <r>     7.2848     0.0424     0.0266     0.0266     0.0266     0.0000     0.0000     0.0000     0.0000     0.0000 </r>
        <r>     7.4336     0.0211     0.0043     0.0043     0.0043     0.0000     0.0000     0.0000     0.0000     0.0000 </r>
        <r>     7.5825     0.0653     0.0112     0.0112     0.0112     0.0000     0.0000     0.0000     0.0000     0.0000 </r>
        <r>     7.7313     0.0110     0.0227     0.0227     0.0227     0.0000     0.0000     0.0000     0.0000     0.0000 </r>
        <r>     7.8802     0.0083     0.0413     0.0413     0.0413     0.0000     0.0000     0.0000     0.0000     0.0000 </r>
        <r>     8.0290     0.0240     0.0198     0.0198     0.0198     0.0000     0.0000     0.0000     0.0000     0.0000 </r>
        <r>     8.1779     0.0167     0.0111     0.0111     0.0111     0.0000     0.0000     0.0000     0.0000     0.0000 </r>
        <r>     8.3267     0.0004     0.0003     0.0003     0.0003     0.0000     0.0000     0.0000     0.0000     0.0000 </r>
        <r>     8.4756     0.0071     0.0048     0.0048     0.0048     0.0000     0.0000     0.0000     0.0000     0.0000 </r>
        <r>     8.6244     0.0700     0.0340     0.0340     0.0340     0.0000     0.0000     0.0000     0.0000     0.0000 </r>
        <r>     8.7733     0.0295     0.0110     0.0110     0.0110     0.0000     0.0000     0.0000     0.0000     0.0000 </r>
        <r>     8.9221     0.0004     0.0003     0.0003     0.0003     0.0000     0.0000     0.0000     0.0000     0.0000 </r>
        <r>     9.0709     0.0000     0.0105     0.0105     0.0105     0.0000     0.0000     0.0000     0.0000     0.0000 </r>
        <r>     9.2198     0.0004     0.0228     0.0228     0.0228     0.0000     0.0000     0.0000     0.0000     0.0000 </r>
        <r>     9.3686     0.0202     0.0225     0.0225     0.0225     0.0000     0.0000     0.0000     0.0000     0.0000 </r>
        <r>     9.5175     0.0553     0.0323     0.0323     0.0323     0.0000     0.0000     0.0000     0.0000     0.0000 </r>
        <r>     9.6663     0.0084     0.0035     0.0035     0.0035     0.0000     0.0000     0.0000     0.0000     0.0000 </r>
        <r>     9.8152     0.0048     0.0014     0.0014     0.0014     0.0000     0.0000     0.0000     0.0000     0.0000 </r>
        <r>     9.9640     0.0544     0.0175     0.0175     0.0175     0.0000     0.0000     0.0000     0.0000     0.0000 </r>
        <r>    10.1129     0.0477     0.0313     0.0313     0.0313     0.0000     0.0000     0.0000     0.0000     0.0000 </r>
        <r>    10.2617     0.0197     0.0313     0.0313     0.0313     0.0000     0.0000     0.0000     0.0000     0.0000 </r>
        <r>    10.4106     0.0023     0.0050     0.0050     0.0050     0.0000     0.0000     0.0000     0.0000     0.0000 </r>
        <r>    10.5594     0.0000     0.0005     0.0005     0.0005     0.0000     0.0000     0.0000     0.0000     0.0000 </r>
        <r>    10.7083     0.0000     0.0148     0.0148     0.0148     0.0000     0.0000     0.0000     0.0000     0.0000 </r>
        <r>    10.8571     0.0001     0.0178     0.0178     0.0178     0.0000     0.0000     0.0000     0.0000     0.0000 </r>
        <r>    11.0059     0.0049     0.0149     0.0149     0.0149     0.0000     0.0000     0.0000     0.0000     0.0000 </r>
        <r>    11.1548     0.0068     0.0195     0.0195     0.0195     0.0000     0.0000     0.0000     0.0000     0.0000 </r>
        <r>    11.3036     0.0008     0.0012     0.0012     0.0012     0.0000     0.0000     0.0000     0.0000     0.0000 </r>
        <r>    11.4525     0.0227     0.0100     0.0100     0.0100     0.0000     0.0000     0.0000     0.0000     0.0000 </r>
        <r>    11.6013     0.0405     0.0179     0.0179     0.0179     0.0000     0.0000     0.0000     0.0000     0.0000 </r>
        <r>    11.7502     0.0054     0.0060     0.0060     0.0060     0.0000     0.0000     0.0000     0.0000     0.0000 </r>
        <r>    11.8990     0.0386     0.0434     0.0434     0.0434     0.0000     0.0000     0.0000     0.0000     0.0000 </r>
        <r>    12.0479     0.0265     0.0204     0.0204     0.0204     0.0000     0.0000     0.0000     0.0000     0.0000 </r>
        <r>    12.1967     0.0062     0.0074     0.0074     0.0074     0.0000     0.0000     0.0000     0.0000     0.0000 </r>
        <r>    12.3456     0.0172     0.0218     0.0218     0.0218     0.0000     0.0000     0.0000     0.0000     0.0000 </r>
        <r>    12.4944     0.0026     0.0135     0.0135     0.0135     0.0000     0.0000     0.0000     0.0000     0.0000 </r>
        <r>    12.6433     0.0023     0.0542     0.0542     0.0542     0.0000     0.0000     0.0000     0.0000     0.0000 </r>
        <r>    12.7921     0.0006     0.0139     0.0139     0.0139     0.0000     0.0000     0.0000     0.0000     0.0000 </r>
        <r>    12.9410     0.0000     0.0963     0.0963     0.0963     0.0000     0.0000     0.0000     0.0000     0.0000 </r>
        <r>    13.0898     0.0014     0.2949     0.2949     0.2949     0.0000     0.0000     0.0000     0.0000     0.0000 </r>
        <r>    13.2386     0.0278     0.1589     0.1589     0.1589     0.0000     0.0000     0.0000     0.0000     0.0000 </r>
        <r>    13.3875     0.0207     0.1273     0.1273     0.1273     0.0000     0.0000     0.0000     0.0000     0.0000 </r>
        <r>    13.5363     0.0005     0.0990     0.0990     0.0990     0.0000     0.0000     0.0000     0.0000     0.0000 </r>
        <r>    13.6852     0.0000     0.0457     0.0457     0.0457     0.0000     0.0000     0.0000     0.0000     0.0000 </r>
        <r>    13.8340     0.0000     0.0580     0.0580     0.0580     0.0000     0.0000     0.0000     0.0000     0.0000 </r>
        <r>    13.9829     0.0000     0.1234     0.1234     0.1234     0.0000     0.0000     0.0000     0.0000     0.0000 </r>
        <r>    14.1317     0.0000     0.0751     0.0751     0.0751     0.0000     0.0000     0.0000     0.0000     0.0000 </r>
        <r>    14.2806     0.0027     0.0059     0.0059     0.0059     0.0000     0.0000     0.0000     0.0000     0.0000 </r>
        <r>    14.4294     0.0374     0.0262     0.0262     0.0262     0.0000     0.0000     0.0000     0.0000     0.0000 </r>
        <r>    14.5783     0.0312     0.0716     0.0716     0.0716     0.0000     0.0000     0.0000     0.0000     0.0000 </r>
        <r>    14.7271     0.0061     0.1084     0.1084     0.1084     0.0000     0.0000     0.0000     0.0000     0.0000 </r>
        <r>    14.8760     0.0004     0.0462     0.0462     0.0462     0.0000     0.0000     0.0000     0.0000     0.0000 </r>
        <r>    15.0248     0.0086     0.0148     0.0148     0.0148     0.0000     0.0000     0.0000     0.0000     0.0000 </r>
        <r>    15.1736     0.0292     0.0304     0.0304     0.0304     0.0000     0.0000     0.0000     0.0000     0.0000 </r>
        <r>    15.3225     0.0217     0.0117     0.0117     0.0117     0.0000     0.0000     0.0000     0.0000     0.0000 </r>
        <r>    15.4713     0.0180     0.0136     0.0136     0.0136     0.0000     0.0000     0.0000     0.0000     0.0000 </r>
        <r>    15.6202     0.0270     0.0705     0.0705     0.0705     0.0000     0.0000     0.0000     0.0000     0.0000 </r>
        <r>    15.7690     0.0308     0.0295     0.0295     0.0295     0.0000     0.0000     0.0000     0.0000     0.0000 </r>
        <r>    15.9179     0.0309     0.0351     0.0351     0.0351     0.0000     0.0000     0.0000     0.0000     0.0000 </r>
        <r>    16.0667     0.0279     0.0043     0.0043     0.0043     0.0000     0.0000     0.0000     0.0000     0.0000 </r>
        <r>    16.2156     0.0311     0.0000     0.0000     0.0000     0.0000     0.0000     0.0000     0.0000     0.0000 </r>
        <r>    16.3644     0.0291     0.0002     0.0002     0.0002     0.0000     0.0000     0.0000     0.0000     0.0000 </r>
        <r>    16.5133     0.0847     0.0013     0.0013     0.0013     0.0000     0.0000     0.0000     0.0000     0.0000 </r>
        <r>    16.6621     0.2643     0.0492     0.0492     0.0492     0.0000     0.0000     0.0000     0.0000     0.0000 </r>
        <r>    16.8110     0.1688     0.1075     0.1075     0.1075     0.0000     0.0000     0.0000     0.0000     0.0000 </r>
        <r>    16.9598     0.0426     0.0690     0.0690     0.0690     0.0000     0.0000     0.0000     0.0000     0.0000 </r>
        <r>    17.1086     0.0846     0.0633     0.0633     0.0633     0.0000     0.0000     0.0000     0.0000     0.0000 </r>
        <r>    17.2575     0.0643     0.0393     0.0393     0.0393     0.0000     0.0000     0.0000     0.0000     0.0000 </r>
        <r>    17.4063     0.0104     0.0028     0.0028     0.0028     0.0000     0.0000     0.0000     0.0000     0.0000 </r>
        <r>    17.5552     0.0516     0.0031     0.0031     0.0031     0.0000     0.0000     0.0000     0.0000     0.0000 </r>
        <r>    17.7040     0.0505     0.0030     0.0030     0.0030     0.0000     0.0000     0.0000     0.0000     0.0000 </r>
        <r>    17.8529     0.0275     0.0088     0.0088     0.0088     0.0000     0.0000     0.0000     0.0000     0.0000 </r>
        <r>    18.0017     0.0281     0.0588     0.0588     0.0588     0.0000     0.0000     0.0000     0.0000     0.0000 </r>
        <r>    18.1506     0.0012     0.1876     0.1876     0.1876     0.0000     0.0000     0.0000     0.0000     0.0000 </r>
        <r>    18.2994     0.0011     0.3556     0.3556     0.3556     0.0000     0.0000     0.0000     0.0000     0.0000 </r>
        <r>    18.4483     0.0419     0.1838     0.1838     0.1838     0.0000     0.0000     0.0000     0.0000     0.0000 </r>
        <r>    18.5971     0.0716     0.0827     0.0827     0.0827     0.0000     0.0000     0.0000     0.0000     0.0000 </r>
        <r>    18.7460     0.0428     0.0907     0.0907     0.0907     0.0000     0.0000     0.0000     0.0000     0.0000 </r>
        <r>    18.8948     0.0186     0.0245     0.0245     0.0245     0.0000     0.0000     0.0000     0.0000     0.0000 </r>
        <r>    19.0437     0.0011     0.0435     0.0435     0.0435     0.0000     0.0000     0.0000     0.0000     0.0000 </r>
        <r>    19.1925     0.0063     0.1611     0.1611     0.1611     0.0000     0.0000     0.0000     0.0000     0.0000 </r>
        <r>    19.3413     0.0030     0.0439     0.0439     0.0439     0.0000     0.0000     0.0000     0.0000     0.0000 </r>
        <r>    19.4902     0.0006     0.0641     0.0641     0.0641     0.0000     0.0000     0.0000     0.0000     0.0000 </r>
        <r>    19.6390     0.0196     0.1577     0.1577     0.1577     0.0000     0.0000     0.0000     0.0000     0.0000 </r>
        <r>    19.7879     0.0439     0.1305     0.1305     0.1305     0.0000     0.0000     0.0000     0.0000     0.0000 </r>
        <r>    19.9367     0.0306     0.0119     0.0119     0.0119     0.0000     0.0000     0.0000     0.0000     0.0000 </r>
        <r>    20.0856     0.0152     0.0050     0.0050     0.0050     0.0000     0.0000     0.0000     0.0000     0.0000 </r>
        <r>    20.2344     0.0006     0.0482     0.0482     0.0482     0.0000     0.0000     0.0000     0.0000     0.0000 </r>
        <r>    20.3833     0.0030     0.0923     0.0923     0.0923     0.0000     0.0000     0.0000     0.0000     0.0000 </r>
        <r>    20.5321     0.0055     0.0893     0.0893     0.0893     0.0000     0.0000     0.0000     0.0000     0.0000 </r>
        <r>    20.6810     0.0068     0.3627     0.3627     0.3627     0.0000     0.0000     0.0000     0.0000     0.0000 </r>
        <r>    20.8298     0.0150     0.4956     0.4956     0.4956     0.0000     0.0000     0.0000     0.0000     0.0000 </r>
        <r>    20.9787     0.0014     0.0445     0.0445     0.0445     0.0000     0.0000     0.0000     0.0000     0.0000 </r>
        <r>    21.1275     0.0000     0.0006     0.0006     0.0006     0.0000     0.0000     0.0000     0.0000     0.0000 </r>
        <r>    21.2763     0.0001     0.0023     0.0023     0.0023     0.0000     0.0000     0.0000     0.0000     0.0000 </r>
        <r>    21.4252     0.0074     0.0113     0.0113     0.0113     0.0000     0.0000     0.0000     0.0000     0.0000 </r>
        <r>    21.5740     0.0132     0.0073     0.0073     0.0073     0.0000     0.0000     0.0000     0.0000     0.0000 </r>
        <r>    21.7229     0.0042     0.0050     0.0050     0.0050     0.0000     0.0000     0.0000     0.0000     0.0000 </r>
        <r>    21.8717     0.0126     0.0176     0.0176     0.0176     0.0000     0.0000     0.0000     0.0000     0.0000 </r>
        <r>    22.0206     0.0051     0.0137     0.0137     0.0137     0.0000     0.0000     0.0000     0.0000     0.0000 </r>
        <r>    22.1694     0.0010     0.0075     0.0075     0.0075     0.0000     0.0000     0.0000     0.0000     0.0000 </r>
        <r>    22.3183     0.0000     0.0101     0.0101     0.0101     0.0000     0.0000     0.0000     0.0000     0.0000 </r>
        <r>    22.4671     0.0002     0.0241     0.0241     0.0241     0.0000     0.0000     0.0000     0.0000     0.0000 </r>
        <r>    22.6160     0.0046     0.0332     0.0332     0.0332     0.0000     0.0000     0.0000     0.0000     0.0000 </r>
        <r>    22.7648     0.0820     0.0445     0.0445     0.0445     0.0000     0.0000     0.0000     0.0000     0.0000 </r>
        <r>    22.9137     0.2168     0.0727     0.0727     0.0727     0.0000     0.0000     0.0000     0.0000     0.0000 </r>
        <r>    23.0625     0.1574     0.0416     0.0416     0.0416     0.0000     0.0000     0.0000     0.0000     0.0000 </r>
        <r>    23.2113     0.0268     0.0680     0.0680     0.0680     0.0000     0.0000     0.0000     0.0000     0.0000 </r>
        <r>    23.3602     0.0014     0.0784     0.0784     0.0784     0.0000     0.0000     0.0000     0.0000     0.0000 </r>
        <r>    23.5090     0.0000     0.0202     0.0202     0.0202     0.0000     0.0000     0.0000     0.0000     0.0000 </r>
        <r>    23.6579     0.0000     0.0261     0.0261     0.0261     0.0000     0.0000     0.0000     0.0000     0.0000 </r>
        <r>    23.8067     0.0005     0.0158     0.0158     0.0158     0.0000     0.0000     0.0000     0.0000     0.0000 </r>
        <r>    23.9556     0.0100     0.0737     0.0737     0.0737     0.0000     0.0000     0.0000     0.0000     0.0000 </r>
        <r>    24.1044     0.0070     0.0545     0.0545     0.0545     0.0000     0.0000     0.0000     0.0000     0.0000 </r>
        <r>    24.2533     0.0002     0.0068     0.0068     0.0068     0.0000     0.0000     0.0000     0.0000     0.0000 </r>
[...]
        <r>  0.2166  0.0379  0.0000  0.0379  0.0000  0.0000  0.0000  0.0000  0.0000 </r>
       </set>
       <set comment="band 7">
        <r>  0.0000  0.0109  0.0000  0.0109  0.0000  0.0000  0.0000  0.0000  0.0000 </r>
       </set>
       <set comment="band 8">
        <r>  0.0000  0.0000  0.0042  0.0000  0.0000  0.0000  0.0000  0.0000  0.0000 </r>
       </set>
      </set>
      <set comment="kpoint 24">
       <set comment="band 1">
        <r>  0.0000  0.0000  0.3526  0.0000  0.0000  0.0000  0.0000  0.0000  0.0000 </r>
       </set>
       <set comment="band 2">
        <r>  0.4595  0.0016  0.0000  0.0016  0.0000  0.0000  0.0000  0.0000  0.0000 </r>
       </set>
       <set comment="band 3">
        <r>  0.0362  0.1567  0.0000  0.1567  0.0000  0.0000  0.0000  0.0000  0.0000 </r>
       </set>
       <set comment="band 4">
        <r>  0.0000  0.2359  0.0000  0.2359  0.0000  0.0000  0.0000  0.0000  0.0000 </r>
       </set>
       <set comment="band 5">
        <r>  0.0734  0.0152  0.0000  0.0152  0.0000  0.0000  0.0000  0.0000  0.0000 </r>
       </set>
       <set comment="band 6">
        <r>  0.1620  0.0651  0.0000  0.0651  0.0000  0.0000  0.0000  0.0000  0.0000 </r>
       </set>
       <set comment="band 7">
        <r>  0.0000  0.0215  0.0000  0.0215  0.0000  0.0000  0.0000  0.0000  0.0000 </r>
       </set>
       <set comment="band 8">
        <r>  0.0000  0.0000  0.0201  0.0000  0.0000  0.0000  0.0000  0.0000  0.0000 </r>
       </set>
      </set>
      <set comment="kpoint 25">
       <set comment="band 1">
        <r>  0.0000  0.0000  0.3513  0.0000  0.0000  0.0000  0.0000  0.0000  0.0000 </r>
       </set>
       <set comment="band 2">
        <r>  0.4617  0.0026  0.0000  0.0026  0.0000  0.0000  0.0000  0.0000  0.0000 </r>
       </set>
       <set comment="band 3">
        <r>  0.0451  0.1480  0.0000  0.1480  0.0000  0.0000  0.0000  0.0000  0.0000 </r>
       </set>
       <set comment="band 4">
        <r>  0.0000  0.2354  0.0000  0.2354  0.0000  0.0000  0.0000  0.0000  0.0000 </r>
       </set>
       <set comment="band 5">
        <r>  0.1004  0.0063  0.0000  0.0063  0.0000  0.0000  0.0000  0.0000  0.0000 </r>
       </set>
       <set comment="band 6">
        <r>  0.1200  0.0832  0.0000  0.0832  0.0000  0.0000  0.0000  0.0000  0.0000 </r>
       </set>
       <set comment="band 7">
        <r>  0.0000  0.0318  0.0000  0.0319  0.0000  0.0000  0.0000  0.0000  0.0000 </r>
       </set>
       <set comment="band 8">
        <r>  0.0000  0.0000  0.0179  0.0000  0.0000  0.0000  0.0000  0.0000  0.0000 </r>
       </set>
      </set>
      <set comment="kpoint 26">
       <set comment="band 1">
        <r>  0.0000  0.0000  0.3497  0.0000  0.0000  0.0000  0.0000  0.0000  0.0000 </r>
       </set>
       <set comment="band 2">
        <r>  0.4668  0.0035  0.0000  0.0035  0.0000  0.0000  0.0000  0.0000  0.0000 </r>
       </set>
       <set comment="band 3">
        <r>  0.0495  0.1424  0.0000  0.1424  0.0000  0.0000  0.0000  0.0000  0.0000 </r>
       </set>
       <set comment="band 4">
        <r>  0.0000  0.2348  0.0000  0.2348  0.0000  0.0000  0.0000  0.0000  0.0000 </r>
       </set>
       <set comment="band 5">
        <r>  0.1158  0.0018  0.0000  0.0018  0.0000  0.0000  0.0000  0.0000  0.0000 </r>
       </set>
       <set comment="band 6">
        <r>  0.0904  0.0944  0.0000  0.0944  0.0000  0.0000  0.0000  0.0000  0.0000 </r>
       </set>
       <set comment="band 7">
        <r>  0.0000  0.0429  0.0000  0.0429  0.0000  0.0000  0.0000  0.0000  0.0000 </r>
       </set>
       <set comment="band 8">
        <r>  0.0000  0.0000  0.0007  0.0000  0.0000  0.0000  0.0000  0.0000  0.0000 </r>
       </set>
      </set>
      <set comment="kpoint 27">
       <set comment="band 1">
        <r>  0.0000  0.0000  0.3479  0.0000  0.0000  0.0000  0.0000  0.0000  0.0000 </r>
       </set>
       <set comment="band 2">
        <r>  0.4779  0.0036  0.0000  0.0036  0.0000  0.0000  0.0000  0.0000  0.0000 </r>
       </set>
       <set comment="band 3">
        <r>  0.0464  0.1388  0.0000  0.1388  0.0000  0.0000  0.0000  0.0000  0.0000 </r>
       </set>
       <set comment="band 4">
        <r>  0.0000  0.2341  0.0000  0.2341  0.0000  0.0000  0.0000  0.0000  0.0000 </r>
       </set>
       <set comment="band 5">
        <r>  0.1238  0.0002  0.0000  0.0002  0.0000  0.0000  0.0000  0.0000  0.0000 </r>
       </set>
       <set comment="band 6">
        <r>  0.0683  0.1020  0.0000  0.1020  0.0000  0.0000  0.0000  0.0000  0.0000 </r>
       </set>
       <set comment="band 7">
        <r>  0.0000  0.0522  0.0000  0.0521  0.0000  0.0000  0.0000  0.0000  0.0000 </r>
       </set>
       <set comment="band 8">
        <r>  0.0000  0.0000  0.0024  0.0000  0.0000  0.0000  0.0000  0.0000  0.0000 </r>
       </set>
      </set>
      <set comment="kpoint 28">
       <set comment="band 1">
        <r>  0.0000  0.0000  0.3459  0.0000  0.0000  0.0000  0.0000  0.0000  0.0000 </r>
       </set>
       <set comment="band 2">
        <r>  0.5011  0.0019  0.0000  0.0019  0.0000  0.0000  0.0000  0.0000  0.0000 </r>
       </set>
       <set comment="band 3">
        <r>  0.0299  0.1384  0.0000  0.1384  0.0000  0.0000  0.0000  0.0000  0.0000 </r>
       </set>
       <set comment="band 4">
        <r>  0.0000  0.2332  0.0000  0.2332  0.0000  0.0000  0.0000  0.0000  0.0000 </r>
       </set>
       <set comment="band 5">
        <r>  0.1271  0.0002  0.0000  0.0002  0.0000  0.0000  0.0000  0.0000  0.0000 </r>
       </set>
       <set comment="band 6">
        <r>  0.0519  0.1080  0.0000  0.1080  0.0000  0.0000  0.0000  0.0000  0.0000 </r>
       </set>
       <set comment="band 7">
        <r>  0.0000  0.0617  0.0000  0.0616  0.0000  0.0000  0.0000  0.0000  0.0000 </r>
       </set>
       <set comment="band 8">
        <r>  0.0000  0.0000  0.0006  0.0000  0.0000  0.0000  0.0000  0.0000  0.0000 </r>
       </set>
      </set>
      <set comment="kpoint 29">
       <set comment="band 1">
        <r>  0.0000  0.0000  0.3434  0.0000  0.0000  0.0000  0.0000  0.0000  0.0000 </r>
       </set>
       <set comment="band 2">
        <r>  0.5359  0.0007  0.0000  0.0007  0.0000  0.0000  0.0000  0.0000  0.0000 </r>
       </set>
       <set comment="band 3">
        <r>  0.0004  0.1387  0.0000  0.1387  0.0000  0.0000  0.0000  0.0000  0.0000 </r>
       </set>
       <set comment="band 4">
        <r>  0.0000  0.2323  0.0000  0.2323  0.0000  0.0000  0.0000  0.0000  0.0000 </r>
       </set>
       <set comment="band 5">
        <r>  0.1280  0.0012  0.0000  0.0012  0.0000  0.0000  0.0000  0.0000  0.0000 </r>
       </set>
       <set comment="band 6">
        <r>  0.0380  0.1112  0.0000  0.1112  0.0000  0.0000  0.0000  0.0000  0.0000 </r>
       </set>
       <set comment="band 7">
        <r>  0.0000  0.0704  0.0000  0.0704  0.0000  0.0000  0.0000  0.0000  0.0000 </r>
       </set>
       <set comment="band 8">
        <r>  0.0000  0.0000  0.0001  0.0000  0.0000  0.0000  0.0000  0.0000  0.0000 </r>
       </set>
      </set>
      <set comment="kpoint 30">
       <set comment="band 1">
        <r>  0.0000  0.0000  0.3410  0.0000  0.0000  0.0000  0.0000  0.0000  0.0000 </r>
       </set>
       <set comment="band 2">
        <r>  0.4449  0.0331  0.0000  0.0331  0.0000  0.0000  0.0000  0.0000  0.0000 </r>
       </set>
       <set comment="band 3">
        <r>  0.0950  0.1062  0.0000  0.1062  0.0000  0.0000  0.0000  0.0000  0.0000 </r>
       </set>
       <set comment="band 4">
        <r>  0.0000  0.2315  0.0000  0.2315  0.0000  0.0000  0.0000  0.0000  0.0000 </r>
       </set>
       <set comment="band 5">
        <r>  0.1273  0.0030  0.0000  0.0030  0.0000  0.0000  0.0000  0.0000  0.0000 </r>
       </set>
       <set comment="band 6">
        <r>  0.0264  0.1130  0.0000  0.1130  0.0000  0.0000  0.0000  0.0000  0.0000 </r>
       </set>
       <set comment="band 7">
        <r>  0.0000  0.0765  0.0000  0.0765  0.0000  0.0000  0.0000  0.0000  0.0000 </r>
       </set>
       <set comment="band 8">
        <r>  0.0000  0.0000  0.0000  0.0000  0.0000  0.0000  0.0000  0.0000  0.0000 </r>
       </set>
      </set>
      <set comment="kpoint 31">
       <set comment="band 1">
        <r>  0.0000  0.0000  0.0000  0.3410  0.0000  0.0000  0.0000  0.0000  0.0000 </r>
       </set>
       <set comment="band 2">
        <r>  0.4449  0.0331  0.0331  0.0000  0.0000  0.0000  0.0000  0.0000  0.0000 </r>
       </set>
       <set comment="band 3">
        <r>  0.0950  0.1062  0.1062  0.0000  0.0000  0.0000  0.0000  0.0000  0.0000 </r>
       </set>
       <set comment="band 4">
        <r>  0.0000  0.2315  0.2315  0.0000  0.0000  0.0000  0.0000  0.0000  0.0000 </r>
       </set>
       <set comment="band 5">
        <r>  0.1273  0.0030  0.0030  0.0000  0.0000  0.0000  0.0000  0.0000  0.0000 </r>
       </set>
       <set comment="band 6">
        <r>  0.0264  0.1130  0.1130  0.0000  0.0000  0.0000  0.0000  0.0000  0.0000 </r>
       </set>
       <set comment="band 7">
        <r>  0.0000  0.0765  0.0765  0.0000  0.0000  0.0000  0.0000  0.0000  0.0000 </r>
       </set>
       <set comment="band 8">
        <r>  0.0000  0.0000  0.0000  0.0000  0.0000  0.0000  0.0000  0.0000  0.0000 </r>
       </set>
      </set>
      <set comment="kpoint 32">
       <set comment="band 1">
        <r>  0.2663  0.0730  0.0730  0.0000  0.0000  0.0000  0.0000  0.0000  0.0000 </r>
       </set>
       <set comment="band 2">
        <r>  0.0000  0.0000  0.0000  0.3316  0.0000  0.0000  0.0000  0.0000  0.0000 </r>
       </set>
       <set comment="band 3">
        <r>  0.2800  0.0687  0.0687  0.0000  0.0000  0.0000  0.0000  0.0000  0.0000 </r>
       </set>
       <set comment="band 4">
        <r>  0.0000  0.2292  0.2292  0.0000  0.0000  0.0000  0.0000  0.0000  0.0000 </r>
       </set>
       <set comment="band 5">
        <r>  0.1173  0.0113  0.0113  0.0000  0.0000  0.0000  0.0000  0.0000  0.0000 </r>
       </set>
       <set comment="band 6">
        <r>  0.0027  0.1180  0.1180  0.0000  0.0000  0.0000  0.0000  0.0000  0.0000 </r>
       </set>
       <set comment="band 7">
        <r>  0.0000  0.0961  0.0961  0.0000  0.0000  0.0000  0.0000  0.0000  0.0000 </r>
       </set>
       <set comment="band 8">
        <r>  0.0000  0.0000  0.0000  0.0000  0.0000  0.0000  0.0000  0.0000  0.0000 </r>
       </set>
      </set>
      <set comment="kpoint 33">
       <set comment="band 1">
        <r>  0.2714  0.0644  0.0644  0.0000  0.0000  0.0000  0.0000  0.0000  0.0000 </r>
       </set>
       <set comment="band 2">
        <r>  0.0000  0.0000  0.0000  0.3203  0.0000  0.0000  0.0000  0.0000  0.0000 </r>
       </set>
       <set comment="band 3">
        <r>  0.2726  0.0840  0.0840  0.0000  0.0000  0.0000  0.0000  0.0000  0.0000 </r>
       </set>
       <set comment="band 4">
        <r>  0.0000  0.2285  0.2285  0.0000  0.0000  0.0000  0.0000  0.0000  0.0000 </r>
       </set>
       <set comment="band 5">
        <r>  0.1018  0.0221  0.0221  0.0000  0.0000  0.0000  0.0000  0.0000  0.0000 </r>
       </set>
       <set comment="band 6">
        <r>  0.0000  0.1098  0.1098  0.0000  0.0000  0.0000  0.0000  0.0000  0.0000 </r>
       </set>
       <set comment="band 7">
        <r>  0.0000  0.0000  0.0000  0.0000  0.0000  0.0000  0.0000  0.0000  0.0000 </r>
       </set>
       <set comment="band 8">
        <r>  0.0000  0.0000  0.0000  0.2576  0.0000  0.0000  0.0000  0.0000  0.0000 </r>
       </set>
      </set>
      <set comment="kpoint 34">
       <set comment="band 1">
        <r>  0.2932  0.0512  0.0512  0.0000  0.0000  0.0000  0.0000  0.0000  0.0000 </r>
       </set>
       <set comment="band 2">
        <r>  0.0000  0.0000  0.0000  0.3095  0.0000  0.0000  0.0000  0.0000  0.0000 </r>
       </set>
       <set comment="band 3">
        <r>  0.2400  0.1066  0.1066  0.0000  0.0000  0.0000  0.0000  0.0000  0.0000 </r>
       </set>
       <set comment="band 4">
        <r>  0.0000  0.2331  0.2331  0.0000  0.0000  0.0000  0.0000  0.0000  0.0000 </r>
       </set>
       <set comment="band 5">
        <r>  0.0836  0.0335  0.0335  0.0000  0.0000  0.0000  0.0000  0.0000  0.0000 </r>
       </set>
       <set comment="band 6">
        <r>  0.0000  0.1141  0.1141  0.0000  0.0000  0.0000  0.0000  0.0000  0.0000 </r>
       </set>
       <set comment="band 7">
        <r>  0.0000  0.0000  0.0000  0.0000  0.0000  0.0000  0.0000  0.0000  0.0000 </r>
       </set>
       <set comment="band 8">
        <r>  0.0000  0.0000  0.0000  0.2874  0.0000  0.0000  0.0000  0.0000  0.0000 </r>
       </set>
      </set>
      <set comment="kpoint 35">
       <set comment="band 1">
        <r>  0.3171  0.0377  0.0377  0.0000  0.0000  0.0000  0.0000  0.0000  0.0000 </r>
       </set>
       <set comment="band 2">
        <r>  0.0000  0.0000  0.0000  0.2991  0.0000  0.0000  0.0000  0.0000  0.0000 </r>
       </set>
       <set comment="band 3">
        <r>  0.1980  0.1312  0.1312  0.0000  0.0000  0.0000  0.0000  0.0000  0.0000 </r>
       </set>
       <set comment="band 4">
        <r>  0.0000  0.2508  0.2508  0.0000  0.0000  0.0000  0.0000  0.0000  0.0000 </r>
       </set>
       <set comment="band 5">
        <r>  0.0643  0.0450  0.0450  0.0000  0.0000  0.0000  0.0000  0.0000  0.0000 </r>
       </set>
       <set comment="band 6">
        <r>  0.0000  0.1017  0.1017  0.0000  0.0000  0.0000  0.0000  0.0000  0.0000 </r>
       </set>
       <set comment="band 7">
        <r>  0.0000  0.0000  0.0000  0.0000  0.0000  0.0000  0.0000  0.0000  0.0000 </r>
       </set>
       <set comment="band 8">
        <r>  0.0000  0.0000  0.0000  0.3137  0.0000  0.0000  0.0000  0.0000  0.0000 </r>
       </set>
      </set>
      <set comment="kpoint 36">
       <set comment="band 1">
        <r>  0.3389  0.0251  0.0251  0.0000  0.0000  0.0000  0.0000  0.0000  0.0000 </r>
       </set>
       <set comment="band 2">
        <r>  0.0000  0.0000  0.0000  0.2916  0.0000  0.0000  0.0000  0.0000  0.0000 </r>
       </set>
       <set comment="band 3">
        <r>  0.1503  0.1565  0.1565  0.0000  0.0000  0.0000  0.0000  0.0000  0.0000 </r>
       </set>
       <set comment="band 4">
        <r>  0.0000  0.2959  0.2959  0.0000  0.0000  0.0000  0.0000  0.0000  0.0000 </r>
       </set>
       <set comment="band 5">
        <r>  0.0502  0.0561  0.0561  0.0000  0.0000  0.0000  0.0000  0.0000  0.0000 </r>
       </set>
       <set comment="band 6">
        <r>  0.0000  0.0000  0.0000  0.0000  0.0000  0.0000  0.0000  0.0000  0.0000 </r>
       </set>
       <set comment="band 7">
        <r>  0.0000  0.0596  0.0596  0.0000  0.0000  0.0000  0.0000  0.0000  0.0000 </r>
       </set>
       <set comment="band 8">
        <r>  0.0000  0.0000  0.0000  0.3336  0.0000  0.0000  0.0000  0.0000  0.0000 </r>
       </set>
      </set>
      <set comment="kpoint 37">
       <set comment="band 1">
        <r>  0.3581  0.0147  0.0147  0.0000  0.0000  0.0000  0.0000  0.0000  0.0000 </r>
       </set>
       <set comment="band 2">
        <r>  0.0000  0.0000  0.0000  0.2911  0.0000  0.0000  0.0000  0.0000  0.0000 </r>
       </set>
       <set comment="band 3">
        <r>  0.1018  0.1804  0.1804  0.0000  0.0000  0.0000  0.0000  0.0000  0.0000 </r>
       </set>
       <set comment="band 4">
        <r>  0.0000  0.3458  0.3458  0.0000  0.0000  0.0000  0.0000  0.0000  0.0000 </r>
       </set>
       <set comment="band 5">
        <r>  0.0000  0.0000  0.0000  0.0000  0.0000  0.0000  0.0000  0.0000  0.0000 </r>
       </set>
       <set comment="band 6">
        <r>  0.0000  0.0000  0.0000  0.3480  0.0000  0.0000  0.0000  0.0000  0.0000 </r>
       </set>
       <set comment="band 7">
        <r>  0.0513  0.0687  0.0687  0.0000  0.0000  0.0000  0.0000  0.0000  0.0000 </r>
       </set>
       <set comment="band 8">
        <r>  0.0000  0.0097  0.0097  0.0000  0.0000  0.0000  0.0000  0.0000  0.0000 </r>
       </set>
      </set>
      <set comment="kpoint 38">
       <set comment="band 1">
        <r>  0.3727  0.0067  0.0067  0.0000  0.0000  0.0000  0.0000  0.0000  0.0000 </r>
       </set>
       <set comment="band 2">
        <r>  0.0000  0.0000  0.0000  0.3116  0.0000  0.0000  0.0000  0.0000  0.0000 </r>
       </set>
       <set comment="band 3">
        <r>  0.0562  0.2034  0.2034  0.0000  0.0000  0.0000  0.0000  0.0000  0.0000 </r>
       </set>
       <set comment="band 4">
        <r>  0.0000  0.3520  0.3520  0.0000  0.0000  0.0000  0.0000  0.0000  0.0000 </r>
       </set>
       <set comment="band 5">
        <r>  0.0000  0.0000  0.0000  0.0000  0.0000  0.0000  0.0000  0.0000  0.0000 </r>
       </set>
       <set comment="band 6">
        <r>  0.0000  0.0000  0.0000  0.3441  0.0000  0.0000  0.0000  0.0000  0.0000 </r>
       </set>
       <set comment="band 7">
        <r>  0.0496  0.0790  0.0790  0.0000  0.0000  0.0000  0.0000  0.0000  0.0000 </r>
       </set>
       <set comment="band 8">
        <r>  0.0000  0.0007  0.0007  0.0000  0.0000  0.0000  0.0000  0.0000  0.0000 </r>
       </set>
      </set>
      <set comment="kpoint 39">
       <set comment="band 1">
        <r>  0.3817  0.0017  0.0017  0.0000  0.0000  0.0000  0.0000  0.0000  0.0000 </r>
       </set>
       <set comment="band 2">
        <r>  0.0000  0.0000  0.0000  0.3834  0.0000  0.0000  0.0000  0.0000  0.0000 </r>
       </set>
       <set comment="band 3">
        <r>  0.0184  0.2285  0.2285  0.0000  0.0000  0.0000  0.0000  0.0000  0.0000 </r>
       </set>
       <set comment="band 4">
        <r>  0.0000  0.3430  0.3430  0.0000  0.0000  0.0000  0.0000  0.0000  0.0000 </r>
       </set>
       <set comment="band 5">
        <r>  0.0000  0.0000  0.0000  0.0000  0.0000  0.0000  0.0000  0.0000  0.0000 </r>
       </set>
       <set comment="band 6">
        <r>  0.0000  0.0000  0.0000  0.2914  0.0000  0.0000  0.0000  0.0000  0.0000 </r>
       </set>
       <set comment="band 7">
        <r>  0.0122  0.0927  0.0927  0.0000  0.0000  0.0000  0.0000  0.0000  0.0000 </r>
       </set>
       <set comment="band 8">
        <r>  0.0000  0.0028  0.0028  0.0000  0.0000  0.0000  0.0000  0.0000  0.0000 </r>
       </set>
      </set>
      <set comment="kpoint 40">
       <set comment="band 1">
        <r>  0.3839  0.0000  0.0000  0.0000  0.0000  0.0000  0.0000  0.0000  0.0000 </r>
       </set>
       <set comment="band 2">
        <r>  0.0000  0.2265  0.2255  0.2255  0.0000  0.0000  0.0000  0.0000  0.0000 </r>
       </set>
       <set comment="band 3">
        <r>  0.0000  0.4510  0.1133  0.1133  0.0000  0.0000  0.0000  0.0000  0.0000 </r>
       </set>
       <set comment="band 4">
        <r>  0.0000  0.0000  0.3388  0.3388  0.0000  0.0000  0.0000  0.0000  0.0000 </r>
       </set>
       <set comment="band 5">
        <r>  0.0000  0.0000  0.0000  0.0000  0.0000  0.0000  0.0000  0.0000  0.0000 </r>
       </set>
       <set comment="band 6">
        <r>  0.0000  0.0000  0.0000  0.0000  0.0000  0.0000  0.0000  0.0000  0.0000 </r>
       </set>
       <set comment="band 7">
        <r>  0.0000  0.0000  0.0000  0.0000  0.0000  0.0000  0.0000  0.0000  0.0000 </r>
       </set>
       <set comment="band 8">
        <r>  0.0000  0.0000  0.0000  0.0000  0.0000  0.0000  0.0000  0.0000  0.0000 </r>
       </set>
      </set>
     </set>
    </set>
   </array>
  </projected>
 </calculation>
 <structure name="finalpos" >
  <crystal>
   <varray name="basis" >
    <v>       1.95000000       1.95000000       0.00000000 </v>
    <v>       0.00000000       1.95000000       1.95000000 </v>
    <v>       1.95000000       0.00000000       1.95000000 </v>
   </varray>
   <i name="volume">     14.82975000 </i>
   <varray name="rec_basis" >
    <v>       0.25641026       0.25641026      -0.25641026 </v>
    <v>      -0.25641026       0.25641026       0.25641026 </v>
    <v>       0.25641026      -0.25641026       0.25641026 </v>
   </varray>
  </crystal>
  <varray name="positions" >
   <v>       0.00000000       0.00000000       0.00000000 </v>
  </varray>
 </structure>
</modeling>
