fcc Si                                  
   3.90000000000000     
     0.500000    0.500000    0.000000
     0.000000    0.500000    0.500000
     0.500000    0.000000    0.500000
   Si
     1
Direct
  0.000000  0.000000  0.000000
 
   20   20   20
 -2.5612     -1.7630     0.29424      2.7777      4.7891      5.7895      5.7871      5.2154      4.6009      4.1812    
  4.0337      4.1812      4.6009      5.2154      5.7871      5.7895      4.7891      2.7777     0.29424     -1.7630    
 -1.7630     -.33807      1.9097      4.0966      5.5023      5.8817      5.4887      4.8409      4.3149      4.0289    
  4.0290      4.3151      4.8409      5.4885      5.8817      5.5026      4.0968      1.9093     -.33888     -1.7634    
 0.29424      1.9097      3.8122      5.2662      5.8570      5.6386      5.0147      4.4179      4.0172      3.8773    
  4.0172      4.4179      5.0147      5.6386      5.8570      5.2662      3.8121      1.9096     0.29412     -.33888    
  2.7777      4.0966      5.2662      5.8310      5.6956      5.1164      4.4851      4.0034      3.7468      3.7467    
  4.0032      4.4850      5.1165      5.6956      5.8308      5.2661      4.0969      2.7783      1.9096      1.9093    
  4.7891      5.5023      5.8570      5.6956      5.1492      4.5176      3.9925      3.6528      3.5362      3.6528    
  3.9925      4.5176      5.1492      5.6957      5.8570      5.5023      4.7891      4.0969      3.8121      4.0968    
  5.7895      5.8817      5.6386      5.1164      4.5176      3.9885      3.6041      3.4048      3.4048      3.6042    
  3.9885      4.5176      5.1165      5.6387      5.8817      5.7893      5.5023      5.2661      5.2662      5.5026    
  5.7871      5.4887      5.0147      4.4851      3.9925      3.6041      3.3605      3.2780      3.3605      3.6042    
  3.9925      4.4850      5.0147      5.4888      5.7871      5.8817      5.8570      5.8308      5.8570      5.8817    
  5.2154      4.8409      4.4179      4.0034      3.6528      3.4048      3.2780      3.2781      3.4048      3.6527    
  4.0032      4.4177      4.8409      5.2156      5.4888      5.6387      5.6957      5.6956      5.6386      5.4885    
  4.6009      4.3149      4.0172      3.7468      3.5362      3.4048      3.3605      3.4048      3.5362      3.7468    
  4.0172      4.3149      4.6009      4.8409      5.0147      5.1165      5.1492      5.1165      5.0147      4.8409    
  4.1812      4.0289      3.8773      3.7467      3.6528      3.6042      3.6042      3.6527      3.7468      3.8775    
  4.0290      4.1812      4.3149      4.4177      4.4850      4.5176      4.5176      4.4850      4.4179      4.3151    
  4.0337      4.0290      4.0172      4.0032      3.9925      3.9885      3.9925      4.0032      4.0172      4.0290    
  4.0337      4.0290      4.0172      4.0032      3.9925      3.9885      3.9925      4.0032      4.0172      4.0290    
  4.1812      4.3151      4.4179      4.4850      4.5176      4.5176      4.4850      4.4177      4.3149      4.1812    
  4.0290      3.8775      3.7468      3.6527      3.6042      3.6042      3.6528      3.7467      3.8773      4.0289    
  4.6009      4.8409      5.0147      5.1165      5.1492      5.1165      5.0147      4.8409      4.6009      4.3149    
  4.0172      3.7468      3.5362      3.4048      3.3605      3.4048      3.5362      3.7468      4.0172      4.3149    
  5.2154      5.4885      5.6386      5.6956      5.6957      5.6387      5.4888      5.2156      4.8409      4.4177    
  4.0032      3.6527      3.4048      3.2781      3.2780      3.4048      3.6528      4.0034      4.4179      4.8409    
  5.7871      5.8817      5.8570      5.8308      5.8570      5.8817      5.7871      5.4888      5.0147      4.4850    
  3.9925      3.6042      3.3605      3.2780      3.3605      3.6041      3.9925      4.4851      5.0147      5.4887    
  5.7895      5.5026      5.2662      5.2661      5.5023      5.7893      5.8817      5.6387      5.1165      4.5176    
  3.9885      3.6042      3.4048      3.4048      3.6041      3.9885      4.5176      5.1164      5.6386      5.8817    
  4.7891      4.0968      3.8121      4.0969      4.7891      5.5023      5.8570      5.6957      5.1492      4.5176    
  3.9925      3.6528      3.5362      3.6528      3.9925      4.5176      5.1492      5.6956      5.8570      5.5023    
  2.7777      1.9093      1.9096      2.7783      4.0969      5.2661      5.8308      5.6956      5.1165      4.4850    
  4.0032      3.7467      3.7468      4.0034      4.4851      5.1164      5.6956      5.8310      5.2662      4.0966    
 0.29424     -.33888     0.29412      1.9096      3.8121      5.2662      5.8570      5.6386      5.0147      4.4179    
  4.0172      3.8773      4.0172      4.4179      5.0147      5.6386      5.8570      5.2662      3.8122      1.9097    
 -1.7630     -1.7634     -.33888      1.9093      4.0968      5.5026      5.8817      5.4885      4.8409      4.3151    
  4.0290      4.0289      4.3149      4.8409      5.4887      5.8817      5.5023      4.0966      1.9097     -.33807    
 -1.7630     -.33811      1.9096      4.0966      5.5023      5.8817      5.4887      4.8410      4.3149      4.0289    
  4.0291      4.3151      4.8409      5.4885      5.8817      5.5026      4.0968      1.9093     -.33887     -1.7634    
 -.33811      1.4209      3.5102      5.1408      5.8591      5.7058      5.0953      4.4917      4.0842      3.9416    
  4.0843      4.4917      5.0952      5.7059      5.8594      5.1411      3.5099      1.4200     -.33894     -1.0255    
  1.9096      3.5102      4.9831      5.7921      5.7993      5.2641      4.6220      4.1248      3.8582      3.8581    
  4.1246      4.6219      5.2642      5.7995      5.7922      4.9829      3.5100      1.9095     0.87064     0.87068    
  4.0966      5.1408      5.7921      5.8219      5.3446      4.7003      4.1501      3.7904      3.6664      3.7904    
  4.1500      4.7002      5.3445      5.8218      5.7921      5.1409      4.0969      3.1434      2.7591      3.1430    
  5.5023      5.8591      5.7993      5.3446      4.7264      4.1622      3.7470      3.5301      3.5302      3.7471    
  4.1622      4.7262      5.3445      5.7994      5.8592      5.5024      4.9522      4.5516      4.5516      4.9522    
  5.8817      5.7058      5.2641      4.7003      4.1622      3.7323      3.4604      3.3681      3.4604      3.7323    
  4.1622      4.7003      5.2642      5.7059      5.8816      5.8035      5.6283      5.5427      5.6285      5.8037    
  5.4887      5.0953      4.6220      4.1501      3.7470      3.4604      3.3135      3.3135      3.4604      3.7470    
  4.1501      4.6220      5.0952      5.4887      5.7218      5.8018      5.8064      5.8063      5.8017      5.7217    
  4.8410      4.4917      4.1248      3.7904      3.5301      3.3681      3.3135      3.3681      3.5301      3.7903    
  4.1246      4.4915      4.8409      5.1293      5.3273      5.4300      5.4597      5.4298      5.3270      5.1291    
  4.3149      4.0842      3.8582      3.6664      3.5302      3.4604      3.4604      3.5301      3.6663      3.8582    
  4.0842      4.3149      4.5203      4.6794      4.7836      4.8340      4.8339      4.7835      4.6794      4.5203    
  4.0289      3.9416      3.8581      3.7904      3.7471      3.7323      3.7470      3.7903      3.8582      3.9419    
  4.0290      4.1071      4.1677      4.2081      4.2302      4.2371      4.2303      4.2083      4.1679      4.1072    
  4.0291      4.0843      4.1246      4.1500      4.1622      4.1622      4.1501      4.1246      4.0842      4.0290    
  3.9623      3.8917      3.8276      3.7795      3.7540      3.7541      3.7796      3.8276      3.8917      3.9623    
  4.3151      4.4917      4.6219      4.7002      4.7262      4.7003      4.6220      4.4915      4.3149      4.1071    
  3.8917      3.6957      3.5422      3.4460      3.4134      3.4460      3.5421      3.6955      3.8916      4.1072    
  4.8409      5.0952      5.2642      5.3445      5.3445      5.2642      5.0952      4.8409      4.5203      4.1677    
  3.8276      3.5422      3.3409      3.2381      3.2381      3.3409      3.5422      3.8276      4.1677      4.5203    
  5.4885      5.7059      5.7995      5.8218      5.7994      5.7059      5.4887      5.1293      4.6794      4.2081    
  3.7795      3.4460      3.2381      3.1680      3.2381      3.4460      3.7797      4.2083      4.6794      5.1291    
  5.8817      5.8594      5.7922      5.7921      5.8592      5.8816      5.7218      5.3273      4.7836      4.2302    
  3.7540      3.4134      3.2381      3.2381      3.4133      3.7540      4.2303      4.7836      5.3272      5.7218    
  5.5026      5.1411      4.9829      5.1409      5.5024      5.8035      5.8018      5.4300      4.8340      4.2371    
  3.7541      3.4460      3.3409      3.4460      3.7540      4.2370      4.8338      5.4299      5.8019      5.8038    
  4.0968      3.5099      3.5100      4.0969      4.9522      5.6283      5.8064      5.4597      4.8339      4.2303    
  3.7796      3.5421      3.5422      3.7797      4.2303      4.8338      5.4596      5.8064      5.6285      4.9522    
  1.9093      1.4200      1.9095      3.1434      4.5516      5.5427      5.8063      5.4298      4.7835      4.2083    
  3.8276      3.6955      3.8276      4.2083      4.7836      5.4299      5.8064      5.5426      4.5514      3.1430    
 -.33887     -.33894     0.87064      2.7591      4.5516      5.6285      5.8017      5.3270      4.6794      4.1679    
  3.8917      3.8916      4.1677      4.6794      5.3272      5.8019      5.6285      4.5514      2.7590     0.87072    
 -1.7634     -1.0255     0.87068      3.1430      4.9522      5.8037      5.7217      5.1291      4.5203      4.1072    
  3.9623      4.1072      4.5203      5.1291      5.7218      5.8038      4.9522      3.1430     0.87072     -1.0255    
 0.29419      1.9096      3.8122      5.2662      5.8570      5.6386      5.0147      4.4179      4.0172      3.8773    
  4.0172      4.4179      5.0147      5.6386      5.8570      5.2663      3.8121      1.9095     0.29411     -.33889    
  1.9096      3.5101      4.9831      5.7922      5.7993      5.2641      4.6220      4.1248      3.8582      3.8581    
  4.1246      4.6220      5.2642      5.7995      5.7922      4.9830      3.5099      1.9095     0.87062     0.87066    
  3.8122      4.9831      5.7495      5.8557      5.4096      4.7636      4.2052      3.8388      3.7121      3.8387    
  4.2052      4.7636      5.4096      5.8557      5.7494      4.9831      3.8122      2.7590      2.3371      2.7589    
  5.2662      5.7922      5.8557      5.4561      4.8356      4.2545      3.8236      3.5975      3.5975      3.8237    
  4.2546      4.8355      5.4560      5.8556      5.7922      5.2664      4.5517      4.0491      4.0490      4.5514    
  5.8570      5.7993      5.4096      4.8356      4.2712      3.8156      3.5258      3.4271      3.5258      3.8156    
  4.2712      4.8356      5.4096      5.7993      5.8570      5.6285      5.3270      5.1920      5.3270      5.6284    
  5.6386      5.2641      4.7636      4.2545      3.8156      3.5017      3.3402      3.3402      3.5016      3.8156    
  4.2546      4.7638      5.2642      5.6386      5.8016      5.7941      5.7390      5.7391      5.7943      5.8018    
  5.0147      4.6220      4.2052      3.8236      3.5258      3.3402      3.2777      3.3402      3.5258      3.8236    
  4.2052      4.6220      5.0147      5.3272      5.5156      5.5950      5.6133      5.5950      5.5156      5.3272    
  4.4179      4.1248      3.8388      3.5975      3.4271      3.3402      3.3402      3.4272      3.5975      3.8387    
  4.1246      4.4177      4.6794      4.8815      5.0128      5.0743      5.0742      5.0126      4.8814      4.6794    
  4.0172      3.8582      3.7121      3.5975      3.5258      3.5016      3.5258      3.5975      3.7121      3.8582    
  4.0172      4.1677      4.2919      4.3802      4.4314      4.4479      4.4314      4.3802      4.2919      4.1677    
  3.8773      3.8581      3.8387      3.8237      3.8156      3.8156      3.8236      3.8387      3.8582      3.8775    
  3.8917      3.8983      3.8980      3.8944      3.8913      3.8914      3.8945      3.8981      3.8983      3.8916    
  4.0172      4.1246      4.2052      4.2546      4.2712      4.2546      4.2052      4.1246      4.0172      3.8917    
  3.7612      3.6413      3.5462      3.4859      3.4654      3.4859      3.5463      3.6413      3.7612      3.8917    
  4.4179      4.6220      4.7636      4.8355      4.8356      4.7638      4.6220      4.4177      4.1677      3.8983    
  3.6413      3.4266      3.2752      3.1977      3.1977      3.2751      3.4265      3.6413      3.8983      4.1679    
  5.0147      5.2642      5.4096      5.4560      5.4096      5.2642      5.0147      4.6794      4.2919      3.8980    
  3.5462      3.2752      3.1070      3.0504      3.1071      3.2752      3.5463      3.8980      4.2919      4.6794    
  5.6386      5.7995      5.8557      5.8556      5.7993      5.6386      5.3272      4.8815      4.3802      3.8944    
  3.4859      3.1977      3.0504      3.0504      3.1977      3.4860      3.8945      4.3802      4.8813      5.3269    
  5.8570      5.7922      5.7494      5.7922      5.8570      5.8016      5.5156      5.0128      4.4314      3.8913    
  3.4654      3.1977      3.1071      3.1977      3.4653      3.8913      4.4314      5.0128      5.5156      5.8017    
  5.2663      4.9830      4.9831      5.2664      5.6285      5.7941      5.5950      5.0743      4.4479      3.8914    
  3.4859      3.2751      3.2752      3.4860      3.8913      4.4477      5.0742      5.5952      5.7944      5.6285    
  3.8121      3.5099      3.8122      4.5517      5.3270      5.7390      5.6133      5.0742      4.4314      3.8945    
  3.5463      3.4265      3.5463      3.8945      4.4314      5.0742      5.6133      5.7390      5.3269      4.5516    
  1.9095      1.9095      2.7590      4.0491      5.1920      5.7391      5.5950      5.0126      4.3802      3.8981    
  3.6413      3.6413      3.8980      4.3802      5.0128      5.5952      5.7390      5.1917      4.0490      2.7591    
 0.29411     0.87062      2.3371      4.0490      5.3270      5.7943      5.5156      4.8814      4.2919      3.8983    
  3.7612      3.8983      4.2919      4.8813      5.5156      5.7944      5.3269      4.0490      2.3370     0.87065    
 -.33889     0.87066      2.7589      4.5514      5.6284      5.8018      5.3272      4.6794      4.1677      3.8916    
  3.8917      4.1679      4.6794      5.3269      5.8017      5.6285      4.5516      2.7591     0.87065     -.33891    
  2.7777      4.0966      5.2662      5.8311      5.6956      5.1164      4.4851      4.0034      3.7468      3.7467    
  4.0033      4.4851      5.1165      5.6956      5.8308      5.2661      4.0969      2.7783      1.9096      1.9093    
  4.0966      5.1408      5.7922      5.8219      5.3446      4.7003      4.1501      3.7904      3.6664      3.7904    
  4.1500      4.7002      5.3445      5.8218      5.7921      5.1409      4.0969      3.1433      2.7591      3.1430    
  5.2662      5.7922      5.8557      5.4562      4.8356      4.2545      3.8236      3.5975      3.5975      3.8237    
  4.2546      4.8355      5.4560      5.8556      5.7922      5.2664      4.5516      4.0491      4.0490      4.5514    
  5.8311      5.8219      5.4562      4.8816      4.3086      3.8444      3.5486      3.4477      3.5486      3.8445    
  4.3087      4.8816      5.4559      5.8216      5.8310      5.5429      5.1921      5.0378      5.1918      5.5427    
  5.6956      5.3446      4.8356      4.3086      3.8515      3.5236      3.3546      3.3546      3.5236      3.8516    
  4.3087      4.8357      5.3445      5.6954      5.8063      5.7391      5.6444      5.6443      5.7390      5.8064    
  5.1164      4.7003      4.2545      3.8444      3.5236      3.3233      3.2557      3.3233      3.5236      3.8445    
  4.2546      4.7004      5.1165      5.4298      5.5949      5.6462      5.6524      5.6465      5.5951      5.4299    
  4.4851      4.1501      3.8236      3.5486      3.3546      3.2557      3.2557      3.3546      3.5486      3.8236    
  4.1501      4.4851      4.7836      5.0127      5.1552      5.2179      5.2180      5.1554      5.0128      4.7836    
  4.0034      3.7904      3.5975      3.4477      3.3546      3.3233      3.3546      3.4477      3.5975      3.7904    
  4.0033      4.2082      4.3803      4.5047      4.5777      4.6014      4.5776      4.5046      4.3803      4.2083    
  3.7468      3.6664      3.5975      3.5486      3.5236      3.5236      3.5486      3.5975      3.6663      3.7468    
  3.8276      3.8980      3.9512      3.9851      4.0013      4.0013      3.9851      3.9511      3.8980      3.8276    
  3.7467      3.7904      3.8237      3.8445      3.8516      3.8445      3.8236      3.7904      3.7468      3.6956    
  3.6413      3.5897      3.5473      3.5196      3.5101      3.5197      3.5474      3.5897      3.6412      3.6955    
  4.0033      4.1500      4.2546      4.3087      4.3087      4.2546      4.1501      4.0033      3.8276      3.6413    
  3.4651      3.3179      3.2139      3.1604      3.1604      3.2139      3.3180      3.4651      3.6413      3.8276    
  4.4851      4.7002      4.8355      4.8816      4.8357      4.7004      4.4851      4.2082      3.8980      3.5897    
  3.3179      3.1098      2.9808      2.9374      2.9808      3.1097      3.3179      3.5898      3.8982      4.2083    
  5.1165      5.3445      5.4560      5.4559      5.3445      5.1165      4.7836      4.3803      3.9512      3.5473    
  3.2139      2.9808      2.8623      2.8623      2.9809      3.2139      3.5473      3.9511      4.3802      4.7835    
  5.6956      5.8218      5.8556      5.8216      5.6954      5.4298      5.0127      4.5047      3.9851      3.5196    
  3.1604      2.9374      2.8623      2.9374      3.1604      3.5197      3.9851      4.5046      5.0125      5.4298    
  5.8308      5.7921      5.7922      5.8310      5.8063      5.5949      5.1552      4.5777      4.0013      3.5101    
  3.1604      2.9808      2.9809      3.1604      3.5101      4.0012      4.5777      5.1554      5.5950      5.8063    
  5.2661      5.1409      5.2664      5.5429      5.7391      5.6462      5.2179      4.6014      4.0013      3.5197    
  3.2139      3.1097      3.2139      3.5197      4.0012      4.6015      5.2181      5.6465      5.7391      5.5427    
  4.0969      4.0969      4.5516      5.1921      5.6444      5.6524      5.2180      4.5776      3.9851      3.5474    
  3.3180      3.3179      3.5473      3.9851      4.5777      5.2181      5.6524      5.6443      5.1920      4.5516    
  2.7783      3.1433      4.0491      5.0378      5.6443      5.6465      5.1554      4.5046      3.9511      3.5897    
  3.4651      3.5898      3.9511      4.5046      5.1554      5.6465      5.6443      5.0377      4.0491      3.1433    
  1.9096      2.7591      4.0490      5.1918      5.7390      5.5951      5.0128      4.3803      3.8980      3.6412    
  3.6413      3.8982      4.3802      5.0125      5.5950      5.7391      5.1920      4.0491      2.7590      1.9095    
  1.9093      3.1430      4.5514      5.5427      5.8064      5.4299      4.7836      4.2083      3.8276      3.6955    
  3.8276      4.2083      4.7835      5.4298      5.8063      5.5427      4.5516      3.1433      1.9095      1.4201    
  4.7890      5.5023      5.8570      5.6956      5.1492      4.5176      3.9925      3.6528      3.5362      3.6528    
  3.9925      4.5176      5.1492      5.6956      5.8570      5.5023      4.7891      4.0969      3.8122      4.0968    
  5.5023      5.8591      5.7993      5.3446      4.7264      4.1622      3.7470      3.5301      3.5302      3.7471    
  4.1622      4.7262      5.3445      5.7994      5.8593      5.5024      4.9522      4.5516      4.5516      4.9522    
  5.8570      5.7993      5.4096      4.8356      4.2712      3.8156      3.5258      3.4271      3.5258      3.8156    
  4.2712      4.8356      5.4096      5.7993      5.8570      5.6284      5.3270      5.1920      5.3270      5.6285    
  5.6956      5.3446      4.8356      4.3086      3.8515      3.5236      3.3546      3.3546      3.5235      3.8516    
  4.3087      4.8357      5.3445      5.6954      5.8063      5.7391      5.6444      5.6443      5.7390      5.8064    
  5.1492      4.7264      4.2712      3.8515      3.5229      3.3176      3.2484      3.3176      3.5229      3.8516    
  4.2712      4.7264      5.1491      5.4595      5.6132      5.6523      5.6532      5.6524      5.6133      5.4595    
  4.5176      4.1622      3.8156      3.5236      3.3176      3.2125      3.2126      3.3176      3.5236      3.8156    
  4.1623      4.5178      4.8339      5.0742      5.2179      5.2783      5.2784      5.2181      5.0742      4.8338    
  3.9925      3.7470      3.5258      3.3546      3.2484      3.2126      3.2483      3.3546      3.5258      3.7470    
  3.9925      4.2303      4.4314      4.5777      4.6639      4.6921      4.6640      4.5777      4.4314      4.2303    
  3.6528      3.5301      3.4271      3.3546      3.3176      3.3176      3.3546      3.4272      3.5301      3.6528    
  3.7796      3.8944      3.9852      4.0459      4.0757      4.0756      4.0457      3.9851      3.8945      3.7797    
  3.5362      3.5302      3.5258      3.5235      3.5229      3.5236      3.5258      3.5301      3.5361      3.5422    
  3.5462      3.5473      3.5461      3.5441      3.5433      3.5441      3.5460      3.5473      3.5462      3.5422    
  3.6528      3.7471      3.8156      3.8516      3.8516      3.8156      3.7470      3.6528      3.5422      3.4266    
  3.3180      3.2272      3.1627      3.1293      3.1294      3.1627      3.2272      3.3179      3.4265      3.5421    
  3.9925      4.1622      4.2712      4.3087      4.2712      4.1623      3.9925      3.7796      3.5462      3.3180    
  3.1184      2.9659      2.8712      2.8393      2.8712      2.9659      3.1185      3.3180      3.5463      3.7796    
  4.5176      4.7262      4.8356      4.8357      4.7264      4.5178      4.2303      3.8944      3.5473      3.2272    
  2.9659      2.7841      2.6917      2.6916      2.7840      2.9659      3.2273      3.5474      3.8945      4.2303    
  5.1492      5.3445      5.4096      5.3445      5.1491      4.8339      4.4314      3.9852      3.5461      3.1627    
  2.8712      2.6917      2.6314      2.6917      2.8712      3.1627      3.5460      3.9851      4.4313      4.8339    
  5.6956      5.7994      5.7993      5.6954      5.4595      5.0742      4.5777      4.0459      3.5441      3.1293    
  2.8393      2.6916      2.6917      2.8393      3.1294      3.5441      4.0457      4.5776      5.0742      5.4597    
  5.8570      5.8593      5.8570      5.8063      5.6132      5.2179      4.6639      4.0757      3.5433      3.1294    
  2.8712      2.7840      2.8712      3.1294      3.5433      4.0757      4.6640      5.2180      5.6133      5.8064    
  5.5023      5.5024      5.6284      5.7391      5.6523      5.2783      4.6921      4.0756      3.5441      3.1627    
  2.9659      2.9659      3.1627      3.5441      4.0757      4.6922      5.2785      5.6524      5.7390      5.6283    
  4.7891      4.9522      5.3270      5.6444      5.6532      5.2784      4.6640      4.0457      3.5460      3.2272    
  3.1185      3.2273      3.5460      4.0457      4.6640      5.2785      5.6532      5.6444      5.3270      4.9522    
  4.0969      4.5516      5.1920      5.6443      5.6524      5.2181      4.5777      3.9851      3.5473      3.3179    
  3.3180      3.5474      3.9851      4.5776      5.2180      5.6524      5.6444      5.1921      4.5516      4.0969    
  3.8122      4.5516      5.3270      5.7390      5.6133      5.0742      4.4314      3.8945      3.5462      3.4265    
  3.5463      3.8945      4.4313      5.0742      5.6133      5.7390      5.3270      4.5516      3.8122      3.5100    
  4.0968      4.9522      5.6285      5.8064      5.4595      4.8338      4.2303      3.7797      3.5422      3.5421    
  3.7796      4.2303      4.8339      5.4597      5.8064      5.6283      4.9522      4.0969      3.5100      3.5099    
  5.7895      5.8817      5.6386      5.1164      4.5176      3.9884      3.6042      3.4048      3.4048      3.6042    
  3.9885      4.5177      5.1165      5.6387      5.8817      5.7893      5.5023      5.2661      5.2662      5.5026    
  5.8817      5.7058      5.2641      4.7003      4.1622      3.7323      3.4604      3.3681      3.4604      3.7323    
  4.1622      4.7003      5.2642      5.7059      5.8817      5.8036      5.6283      5.5427      5.6285      5.8038    
  5.6386      5.2641      4.7636      4.2545      3.8156      3.5017      3.3402      3.3402      3.5016      3.8156    
  4.2546      4.7638      5.2642      5.6386      5.8016      5.7941      5.7390      5.7391      5.7944      5.8019    
  5.1164      4.7003      4.2545      3.8444      3.5236      3.3233      3.2557      3.3232      3.5235      3.8444    
  4.2546      4.7004      5.1164      5.4298      5.5949      5.6462      5.6524      5.6465      5.5952      5.4299    
  4.5176      4.1622      3.8156      3.5236      3.3176      3.2125      3.2126      3.3176      3.5235      3.8156    
  4.1622      4.5178      4.8339      5.0742      5.2179      5.2783      5.2785      5.2181      5.0742      4.8338    
  3.9884      3.7323      3.5017      3.3233      3.2125      3.1753      3.2125      3.3232      3.5016      3.7322    
  3.9886      4.2372      4.4479      4.6015      4.6921      4.7218      4.6922      4.6014      4.4477      4.2370    
  3.6042      3.4604      3.3402      3.2557      3.2126      3.2125      3.2557      3.3402      3.4604      3.6042    
  3.7541      3.8914      4.0013      4.0757      4.1127      4.1127      4.0757      4.0012      3.8913      3.7540    
  3.4048      3.3681      3.3402      3.3232      3.3176      3.3232      3.3402      3.3681      3.4048      3.4460    
  3.4859      3.5197      3.5442      3.5585      3.5632      3.5585      3.5441      3.5197      3.4860      3.4460    
  3.4048      3.4604      3.5016      3.5235      3.5235      3.5016      3.4604      3.4048      3.3409      3.2752    
  3.2139      3.1627      3.1261      3.1070      3.1070      3.1260      3.1627      3.2139      3.2752      3.3409    
  3.6042      3.7323      3.8156      3.8444      3.8156      3.7322      3.6042      3.4460      3.2752      3.1098    
  2.9659      2.8557      2.7871      2.7639      2.7871      2.8557      2.9659      3.1097      3.2751      3.4460    
  3.9885      4.1622      4.2546      4.2546      4.1622      3.9886      3.7541      3.4859      3.2139      2.9659    
  2.7644      2.6240      2.5525      2.5525      2.6241      2.7644      2.9659      3.2139      3.4859      3.7541    
  4.5177      4.7003      4.7638      4.7004      4.5178      4.2372      3.8914      3.5197      3.1627      2.8557    
  2.6240      2.4815      2.4336      2.4815      2.6240      2.8557      3.1627      3.5197      3.8914      4.2372    
  5.1165      5.2642      5.2642      5.1164      4.8339      4.4479      4.0013      3.5442      3.1261      2.7871    
  2.5525      2.4336      2.4336      2.5525      2.7871      3.1260      3.5441      4.0013      4.4479      4.8339    
  5.6387      5.7059      5.6386      5.4298      5.0742      4.6015      4.0757      3.5585      3.1070      2.7639    
  2.5525      2.4815      2.5525      2.7639      3.1070      3.5585      4.0756      4.6014      5.0743      5.4300    
  5.8817      5.8817      5.8016      5.5949      5.2179      4.6921      4.1127      3.5632      3.1070      2.7871    
  2.6241      2.6240      2.7871      3.1070      3.5632      4.1127      4.6921      5.2179      5.5950      5.8018    
  5.7893      5.8036      5.7941      5.6462      5.2783      4.7218      4.1127      3.5585      3.1260      2.8557    
  2.7644      2.8557      3.1260      3.5585      4.1127      4.7218      5.2784      5.6463      5.7941      5.8036    
  5.5023      5.6283      5.7390      5.6524      5.2785      4.6922      4.0757      3.5441      3.1627      2.9659    
  2.9659      3.1627      3.5441      4.0756      4.6921      5.2784      5.6523      5.7391      5.6284      5.5024    
  5.2661      5.5427      5.7391      5.6465      5.2181      4.6014      4.0012      3.5197      3.2139      3.1097    
  3.2139      3.5197      4.0013      4.6014      5.2179      5.6463      5.7391      5.5429      5.2664      5.1409    
  5.2662      5.6285      5.7944      5.5952      5.0742      4.4477      3.8913      3.4860      3.2752      3.2751    
  3.4859      3.8914      4.4479      5.0743      5.5950      5.7941      5.6284      5.2664      4.9831      4.9830    
  5.5026      5.8038      5.8019      5.4299      4.8338      4.2370      3.7540      3.4460      3.3409      3.4460    
  3.7541      4.2372      4.8339      5.4300      5.8018      5.8036      5.5024      5.1409      4.9830      5.1411    
  5.7870      5.4887      5.0147      4.4851      3.9925      3.6041      3.3605      3.2781      3.3605      3.6042    
  3.9925      4.4851      5.0147      5.4888      5.7871      5.8817      5.8570      5.8308      5.8570      5.8817    
  5.4887      5.0953      4.6220      4.1501      3.7470      3.4604      3.3135      3.3135      3.4604      3.7470    
  4.1501      4.6220      5.0952      5.4887      5.7218      5.8018      5.8064      5.8063      5.8017      5.7217    
  5.0147      4.6220      4.2052      3.8236      3.5258      3.3402      3.2777      3.3402      3.5258      3.8236    