fcc Si                                  
   3.90000000000000     
     0.500000    0.500000    0.000000
     0.000000    0.500000    0.500000
     0.500000    0.000000    0.500000
   Si
     1
Direct
  0.000000  0.000000  0.000000
 
   20   20   20
 -.25612036400E+01 -.17630017629E+01 0.29423615495E+00 0.27777474130E+01 0.47890517159E+01
 0.57895369408E+01 0.57870565753E+01 0.52153709621E+01 0.46008668380E+01 0.41812454263E+01
 0.40336899675E+01 0.41812454263E+01 0.46008668380E+01 0.52153709621E+01 0.57870565753E+01
 0.57895369408E+01 0.47890517159E+01 0.27777474130E+01 0.29423615495E+00 -.17630017629E+01
 -.17630017629E+01 -.33806834801E+00 0.19096687109E+01 0.40966040689E+01 0.55022737169E+01
 0.58817252146E+01 0.54887379972E+01 0.48409370488E+01 0.43148982880E+01 0.40288941197E+01
 0.40290404543E+01 0.43151224265E+01 0.48409106843E+01 0.54885184285E+01 0.58817060021E+01
 0.55025839803E+01 0.40967989946E+01 0.19092595884E+01 -.33887914459E+00 -.17634225869E+01
 0.29423615495E+00 0.19096687109E+01 0.38121701449E+01 0.52661743208E+01 0.58569900220E+01
 0.56386236188E+01 0.50147173343E+01 0.44178964212E+01 0.40172006862E+01 0.38772731765E+01
 0.40172006439E+01 0.44178762953E+01 0.50146730846E+01 0.56385902334E+01 0.58570043279E+01
 0.52662092349E+01 0.38121445735E+01 0.19095552067E+01 0.29412217024E+00 -.33887914459E+00
 0.27777474130E+01 0.40966040689E+01 0.52661743208E+01 0.58310313306E+01 0.56956231871E+01
 0.51163813890E+01 0.44850709487E+01 0.40034140741E+01 0.37467968877E+01 0.37466948992E+01
 0.40032377509E+01 0.44850293784E+01 0.51164656495E+01 0.56956090129E+01 0.58308355451E+01
 0.52660730602E+01 0.40969122068E+01 0.27783223146E+01 0.19095552067E+01 0.19092595884E+01
 0.47890517159E+01 0.55022737169E+01 0.58569900220E+01 0.56956231871E+01 0.51491793840E+01
 0.45176200576E+01 0.39925035606E+01 0.36528037612E+01 0.35361867333E+01 0.36528100072E+01
 0.39924915094E+01 0.45176093775E+01 0.51492050065E+01 0.56956552743E+01 0.58569849242E+01
 0.55022824337E+01 0.47891447541E+01 0.40969122068E+01 0.38121445735E+01 0.40967989946E+01
 0.57895369408E+01 0.58817252146E+01 0.56386236188E+01 0.51163813890E+01 0.45176200576E+01
 0.39884817208E+01 0.36041497966E+01 0.34047756092E+01 0.34048323705E+01 0.36042463598E+01
 0.39885227818E+01 0.45176461993E+01 0.51164808650E+01 0.56387449079E+01 0.58816993616E+01
 0.57892990203E+01 0.55022824337E+01 0.52660730602E+01 0.52662092349E+01 0.55025839803E+01
 0.57870565753E+01 0.54887379972E+01 0.50147173343E+01 0.44850709487E+01 0.39925035606E+01
 0.36041497966E+01 0.33604600067E+01 0.32780314981E+01 0.33604980438E+01 0.36041855769E+01
 0.39925023788E+01 0.44850452879E+01 0.50147055969E+01 0.54887563209E+01 0.57870778130E+01
 0.58816993616E+01 0.58569849242E+01 0.58308355451E+01 0.58570043279E+01 0.58817060021E+01
 0.52153709621E+01 0.48409370488E+01 0.44178964212E+01 0.40034140741E+01 0.36528037612E+01
 0.34047756092E+01 0.32780314981E+01 0.32780561123E+01 0.34048006039E+01 0.36527393184E+01
 0.40032441651E+01 0.44177408970E+01 0.48409469978E+01 0.52155608292E+01 0.54887563209E+01
 0.56387449079E+01 0.56956552743E+01 0.56956090129E+01 0.56385902334E+01 0.54885184285E+01
 0.46008668380E+01 0.43148982880E+01 0.40172006862E+01 0.37467968877E+01 0.35361867333E+01
 0.34048323705E+01 0.33604980438E+01 0.34048006039E+01 0.35361577093E+01 0.37467890335E+01
 0.40172014193E+01 0.43149009591E+01 0.46008863407E+01 0.48409469978E+01 0.50147055969E+01
 0.51164808650E+01 0.51492050065E+01 0.51164656495E+01 0.50146730846E+01 0.48409106843E+01
 0.41812454263E+01 0.40288941197E+01 0.38772731765E+01 0.37466948992E+01 0.36528100072E+01
 0.36042463598E+01 0.36041855769E+01 0.36527393184E+01 0.37467890335E+01 0.38775101462E+01
 0.40290490594E+01 0.41811604551E+01 0.43149009591E+01 0.44177408970E+01 0.44850452879E+01
 0.45176461993E+01 0.45176093775E+01 0.44850293784E+01 0.44178762953E+01 0.43151224265E+01
 0.40336899675E+01 0.40290404543E+01 0.40172006439E+01 0.40032377509E+01 0.39924915094E+01
 0.39885227818E+01 0.39925023788E+01 0.40032441651E+01 0.40172014193E+01 0.40290490594E+01
 0.40337065530E+01 0.40290490594E+01 0.40172014193E+01 0.40032441651E+01 0.39925023788E+01
 0.39885227818E+01 0.39924915094E+01 0.40032377509E+01 0.40172006439E+01 0.40290404543E+01
 0.41812454263E+01 0.43151224265E+01 0.44178762953E+01 0.44850293784E+01 0.45176093775E+01
 0.45176461993E+01 0.44850452879E+01 0.44177408970E+01 0.43149009591E+01 0.41811604551E+01
 0.40290490594E+01 0.38775101462E+01 0.37467890335E+01 0.36527393184E+01 0.36041855769E+01
 0.36042463598E+01 0.36528100072E+01 0.37466948992E+01 0.38772731765E+01 0.40288941197E+01
 0.46008668380E+01 0.48409106843E+01 0.50146730846E+01 0.51164656495E+01 0.51492050065E+01
 0.51164808650E+01 0.50147055969E+01 0.48409469978E+01 0.46008863407E+01 0.43149009591E+01
 0.40172014193E+01 0.37467890335E+01 0.35361577093E+01 0.34048006039E+01 0.33604980438E+01
 0.34048323705E+01 0.35361867333E+01 0.37467968877E+01 0.40172006862E+01 0.43148982880E+01
 0.52153709621E+01 0.54885184285E+01 0.56385902334E+01 0.56956090129E+01 0.56956552743E+01
 0.56387449079E+01 0.54887563209E+01 0.52155608292E+01 0.48409469978E+01 0.44177408970E+01
 0.40032441651E+01 0.36527393184E+01 0.34048006039E+01 0.32780561123E+01 0.32780314981E+01
 0.34047756092E+01 0.36528037612E+01 0.40034140741E+01 0.44178964212E+01 0.48409370488E+01
 0.57870565753E+01 0.58817060021E+01 0.58570043279E+01 0.58308355451E+01 0.58569849242E+01
 0.58816993616E+01 0.57870778130E+01 0.54887563209E+01 0.50147055969E+01 0.44850452879E+01
 0.39925023788E+01 0.36041855769E+01 0.33604980438E+01 0.32780314981E+01 0.33604600067E+01
 0.36041497966E+01 0.39925035606E+01 0.44850709487E+01 0.50147173343E+01 0.54887379972E+01
 0.57895369408E+01 0.55025839803E+01 0.52662092349E+01 0.52660730602E+01 0.55022824337E+01
 0.57892990203E+01 0.58816993616E+01 0.56387449079E+01 0.51164808650E+01 0.45176461993E+01
 0.39885227818E+01 0.36042463598E+01 0.34048323705E+01 0.34047756092E+01 0.36041497966E+01
 0.39884817208E+01 0.45176200576E+01 0.51163813890E+01 0.56386236188E+01 0.58817252146E+01
 0.47890517159E+01 0.40967989946E+01 0.38121445735E+01 0.40969122068E+01 0.47891447541E+01
 0.55022824337E+01 0.58569849242E+01 0.56956552743E+01 0.51492050065E+01 0.45176093775E+01
 0.39924915094E+01 0.36528100072E+01 0.35361867333E+01 0.36528037612E+01 0.39925035606E+01
 0.45176200576E+01 0.51491793840E+01 0.56956231871E+01 0.58569900220E+01 0.55022737169E+01
 0.27777474130E+01 0.19092595884E+01 0.19095552067E+01 0.27783223146E+01 0.40969122068E+01
 0.52660730602E+01 0.58308355451E+01 0.56956090129E+01 0.51164656495E+01 0.44850293784E+01
 0.40032377509E+01 0.37466948992E+01 0.37467968877E+01 0.40034140741E+01 0.44850709487E+01
 0.51163813890E+01 0.56956231871E+01 0.58310313306E+01 0.52661743208E+01 0.40966040689E+01
 0.29423615495E+00 -.33887914459E+00 0.29412217024E+00 0.19095552067E+01 0.38121445735E+01
 0.52662092349E+01 0.58570043279E+01 0.56385902334E+01 0.50146730846E+01 0.44178762953E+01
 0.40172006439E+01 0.38772731765E+01 0.40172006862E+01 0.44178964212E+01 0.50147173343E+01
 0.56386236188E+01 0.58569900220E+01 0.52661743208E+01 0.38121701449E+01 0.19096687109E+01
 -.17630017629E+01 -.17634225869E+01 -.33887914459E+00 0.19092595884E+01 0.40967989946E+01
 0.55025839803E+01 0.58817060021E+01 0.54885184285E+01 0.48409106843E+01 0.43151224265E+01
 0.40290404543E+01 0.40288941197E+01 0.43148982880E+01 0.48409370488E+01 0.54887379972E+01
 0.58817252146E+01 0.55022737169E+01 0.40966040689E+01 0.19096687109E+01 -.33806834801E+00
 -.17630258164E+01 -.33811351222E+00 0.19096400259E+01 0.40965941833E+01 0.55022558141E+01
 0.58817021644E+01 0.54887363863E+01 0.48409511362E+01 0.43148987682E+01 0.40288853183E+01
 0.40290512042E+01 0.43151480859E+01 0.48409219194E+01 0.54885194428E+01 0.58817261074E+01
 0.55026190548E+01 0.40968184984E+01 0.19092632339E+01 -.33886896677E+00 -.17634151668E+01
 -.33811351222E+00 0.14209499261E+01 0.35101691401E+01 0.51407643771E+01 0.58590680063E+01
 0.57057894964E+01 0.50953187818E+01 0.44917053950E+01 0.40842352731E+01 0.39416423368E+01
 0.40842940996E+01 0.44916822609E+01 0.50952279464E+01 0.57058754608E+01 0.58594379887E+01
 0.51410629265E+01 0.35098715665E+01 0.14200400935E+01 -.33894364142E+00 -.10255357876E+01
 0.19096400259E+01 0.35101691401E+01 0.49830763979E+01 0.57921400743E+01 0.57993113859E+01
 0.52640706018E+01 0.46220092324E+01 0.41247816257E+01 0.38581642503E+01 0.38580595231E+01
 0.41245793140E+01 0.46219278731E+01 0.52642029841E+01 0.57995190900E+01 0.57922064995E+01
 0.49829402624E+01 0.35099587198E+01 0.19094984446E+01 0.87064246870E+00 0.87068464339E+00
 0.40965941833E+01 0.51407643771E+01 0.57921400743E+01 0.58218950327E+01 0.53446067278E+01
 0.47002675852E+01 0.41500590213E+01 0.37904118798E+01 0.36663500447E+01 0.37904058253E+01
 0.41500234307E+01 0.47002053070E+01 0.53445346736E+01 0.58218157417E+01 0.57921088781E+01
 0.51409131006E+01 0.40969468520E+01 0.31433662710E+01 0.27590883573E+01 0.31430435700E+01
 0.55022558141E+01 0.58590680063E+01 0.57993113859E+01 0.53446067278E+01 0.47263675829E+01
 0.41622222629E+01 0.37469976274E+01 0.35300887970E+01 0.35301853909E+01 0.37471346060E+01
 0.41621807948E+01 0.47261935082E+01 0.53445340334E+01 0.57994317147E+01 0.58592484919E+01
 0.55023531191E+01 0.49521834300E+01 0.45515865253E+01 0.45515977658E+01 0.49521770499E+01
 0.58817021644E+01 0.57057894964E+01 0.52640706018E+01 0.47002675852E+01 0.41622222629E+01
 0.37323046934E+01 0.34603948559E+01 0.33680588706E+01 0.34604070874E+01 0.37322952941E+01
 0.41622115644E+01 0.47003294662E+01 0.52642083683E+01 0.57058852802E+01 0.58816319882E+01
 0.58035403669E+01 0.56283202603E+01 0.55426805613E+01 0.56285010943E+01 0.58037493938E+01
 0.54887363863E+01 0.50953187818E+01 0.46220092324E+01 0.41500590213E+01 0.37469976274E+01
 0.34603948559E+01 0.33135174969E+01 0.33135003360E+01 0.34603752764E+01 0.37470107535E+01
 0.41500700446E+01 0.46219659466E+01 0.50952425811E+01 0.54887126219E+01 0.57218058369E+01
 0.58017854540E+01 0.58063745565E+01 0.58063262131E+01 0.58016826797E+01 0.57217377339E+01
 0.48409511362E+01 0.44917053950E+01 0.41247816257E+01 0.37904118798E+01 0.35300887970E+01
 0.33680588706E+01 0.33135003360E+01 0.33681160567E+01 0.35301291829E+01 0.37903367720E+01
 0.41245757449E+01 0.44915049316E+01 0.48409336095E+01 0.51292976714E+01 0.53272620707E+01
 0.54300051375E+01 0.54596916549E+01 0.54298121669E+01 0.53269760807E+01 0.51290963511E+01
 0.43148987682E+01 0.40842352731E+01 0.38581642503E+01 0.36663500447E+01 0.35301853909E+01
 0.34604070874E+01 0.34603752764E+01 0.35301291829E+01 0.36663298117E+01 0.38581826976E+01
 0.40842495400E+01 0.43148938403E+01 0.45203234854E+01 0.46793989601E+01 0.47835916442E+01
 0.48339604995E+01 0.48339392729E+01 0.47835450317E+01 0.46793633183E+01 0.45203181411E+01
 0.40288853183E+01 0.39416423368E+01 0.38580595231E+01 0.37904058253E+01 0.37471346060E+01
 0.37322952941E+01 0.37470107535E+01 0.37903367720E+01 0.38581826976E+01 0.39418812698E+01
 0.40290298445E+01 0.41071269977E+01 0.41677054368E+01 0.42081343489E+01 0.42302436373E+01
 0.42371424571E+01 0.42302877577E+01 0.42082635922E+01 0.41678749324E+01 0.41071856132E+01
 0.40290512042E+01 0.40842940996E+01 0.41245793140E+01 0.41500234307E+01 0.41621807948E+01
 0.41622115644E+01 0.41500700446E+01 0.41245757449E+01 0.40842495400E+01 0.40290298445E+01
 0.39623107623E+01 0.38917424777E+01 0.38275990933E+01 0.37795328612E+01 0.37540491100E+01
 0.37540646214E+01 0.37795601319E+01 0.38276012716E+01 0.38917111338E+01 0.39622852128E+01
 0.43151480859E+01 0.44916822609E+01 0.46219278731E+01 0.47002053070E+01 0.47261935082E+01
 0.47003294662E+01 0.46219659466E+01 0.44915049316E+01 0.43148938403E+01 0.41071269977E+01
 0.38917424777E+01 0.36956885637E+01 0.35421873074E+01 0.34459668460E+01 0.34134308066E+01
 0.34459994872E+01 0.35421343595E+01 0.36955191100E+01 0.38916156779E+01 0.41072169129E+01
 0.48409219194E+01 0.50952279464E+01 0.52642029841E+01 0.53445346736E+01 0.53445340334E+01
 0.52642083683E+01 0.50952425811E+01 0.48409336095E+01 0.45203234854E+01 0.41677054368E+01
 0.38275990933E+01 0.35421873074E+01 0.33409036815E+01 0.32381126346E+01 0.32381289754E+01
 0.33409339272E+01 0.35422043711E+01 0.38276040033E+01 0.41677121501E+01 0.45203253677E+01
 0.54885194428E+01 0.57058754608E+01 0.57995190900E+01 0.58218157417E+01 0.57994317147E+01
 0.57058852802E+01 0.54887126219E+01 0.51292976714E+01 0.46793989601E+01 0.42081343489E+01
 0.37795328612E+01 0.34459668460E+01 0.32381126346E+01 0.31679773954E+01 0.32380630585E+01
 0.34459880304E+01 0.37796816943E+01 0.42082827300E+01 0.46793619595E+01 0.51290794407E+01
 0.58817261074E+01 0.58594379887E+01 0.57922064995E+01 0.57921088781E+01 0.58592484919E+01
 0.58816319882E+01 0.57218058369E+01 0.53272620707E+01 0.47835916442E+01 0.42302436373E+01
 0.37540491100E+01 0.34134308066E+01 0.32381289754E+01 0.32380630585E+01 0.34133167551E+01
 0.37540207532E+01 0.42302957435E+01 0.47836029875E+01 0.53271856574E+01 0.57217526523E+01
 0.55026190548E+01 0.51410629265E+01 0.49829402624E+01 0.51409131006E+01 0.55023531191E+01
 0.58035403669E+01 0.58017854540E+01 0.54300051375E+01 0.48339604995E+01 0.42371424571E+01
 0.37540646214E+01 0.34459994872E+01 0.33409339272E+01 0.34459880304E+01 0.37540207532E+01
 0.42370291633E+01 0.48337958282E+01 0.54299087373E+01 0.58018793279E+01 0.58037980293E+01
 0.40968184984E+01 0.35098715665E+01 0.35099587198E+01 0.40969468520E+01 0.49521834300E+01
 0.56283202603E+01 0.58063745565E+01 0.54596916549E+01 0.48339392729E+01 0.42302877577E+01
 0.37795601319E+01 0.35421343595E+01 0.35422043711E+01 0.37796816943E+01 0.42302957435E+01
 0.48337958282E+01 0.54595539567E+01 0.58064033630E+01 0.56284502946E+01 0.49522056391E+01
 0.19092632339E+01 0.14200400935E+01 0.19094984446E+01 0.31433662710E+01 0.45515865253E+01
 0.55426805613E+01 0.58063262131E+01 0.54298121669E+01 0.47835450317E+01 0.42082635922E+01
 0.38276012716E+01 0.36955191100E+01 0.38276040033E+01 0.42082827300E+01 0.47836029875E+01
 0.54299087373E+01 0.58064033630E+01 0.55426367664E+01 0.45513686132E+01 0.31430499960E+01
 -.33886896677E+00 -.33894364142E+00 0.87064246870E+00 0.27590883573E+01 0.45515977658E+01
 0.56285010943E+01 0.58016826797E+01 0.53269760807E+01 0.46793633183E+01 0.41678749324E+01
 0.38917111338E+01 0.38916156779E+01 0.41677121501E+01 0.46793619595E+01 0.53271856574E+01
 0.58018793279E+01 0.56284502946E+01 0.45513686132E+01 0.27589626102E+01 0.87071671012E+00
 -.17634151668E+01 -.10255357876E+01 0.87068464339E+00 0.31430435700E+01 0.49521770499E+01
 0.58037493938E+01 0.57217377339E+01 0.51290963511E+01 0.45203181411E+01 0.41071856132E+01
 0.39622852128E+01 0.41072169129E+01 0.45203253677E+01 0.51290794407E+01 0.57217526523E+01
 0.58037980293E+01 0.49522056391E+01 0.31430499960E+01 0.87071671012E+00 -.10254883839E+01
 0.29418674310E+00 0.19096055090E+01 0.38121507390E+01 0.52661867671E+01 0.58569826100E+01
 0.56386056059E+01 0.50147335443E+01 0.44179313452E+01 0.40172061265E+01 0.38772635900E+01
 0.40172238954E+01 0.44179173145E+01 0.50146831538E+01 0.56385838278E+01 0.58570298157E+01
 0.52662508497E+01 0.38121497555E+01 0.19095316892E+01 0.29411275912E+00 -.33888842446E+00
 0.19096055090E+01 0.35101398743E+01 0.49830765660E+01 0.57921565310E+01 0.57993171891E+01
 0.52640721938E+01 0.46220271387E+01 0.41248056554E+01 0.38581726252E+01 0.38580622095E+01
 0.41245977063E+01 0.46219511932E+01 0.52642089096E+01 0.57995175452E+01 0.57922185892E+01
 0.49829535157E+01 0.35099475804E+01 0.19094701081E+01 0.87061946492E+00 0.87066245218E+00
 0.38121507390E+01 0.49830765660E+01 0.57494706020E+01 0.58557103850E+01 0.54095927915E+01
 0.47635997716E+01 0.42052256426E+01 0.38387721034E+01 0.37120998503E+01 0.38387283095E+01
 0.42051690692E+01 0.47635784801E+01 0.54096181253E+01 0.58557286669E+01 0.57494454786E+01
 0.49830593331E+01 0.38122014951E+01 0.27590254104E+01 0.23370518692E+01 0.27589498026E+01
 0.52661867671E+01 0.57921565310E+01 0.58557103850E+01 0.54561264516E+01 0.48356083248E+01
 0.42545383940E+01 0.38235608956E+01 0.35974512162E+01 0.35975320087E+01 0.38236998715E+01
 0.42545672246E+01 0.48354944768E+01 0.54559676842E+01 0.58556114359E+01 0.57921948020E+01
 0.52663939507E+01 0.45516665973E+01 0.40491329095E+01 0.40490022442E+01 0.45513916960E+01
 0.58569826100E+01 0.57993171891E+01 0.54095927915E+01 0.48356083248E+01 0.42711837670E+01
 0.38156099450E+01 0.35257822955E+01 0.34270970720E+01 0.35258323590E+01 0.38156416172E+01
 0.42711715487E+01 0.48355943556E+01 0.54096017384E+01 0.57993254142E+01 0.58569823581E+01
 0.56284571034E+01 0.53269795589E+01 0.51920022036E+01 0.53269524374E+01 0.56284402248E+01
 0.56386056059E+01 0.52640721938E+01 0.47635997716E+01 0.42545383940E+01 0.38156099450E+01
 0.35016728938E+01 0.33402304614E+01 0.33401922277E+01 0.35015953182E+01 0.38155736668E+01
 0.42546054701E+01 0.47637517240E+01 0.52642012043E+01 0.56385858086E+01 0.58016419443E+01
 0.57940858438E+01 0.57390123257E+01 0.57391302976E+01 0.57943449844E+01 0.58018439806E+01
 0.50147335443E+01 0.46220271387E+01 0.42052256426E+01 0.38235608956E+01 0.35257822955E+01
 0.33402304614E+01 0.32776834538E+01 0.33402271419E+01 0.35257919907E+01 0.38235677028E+01
 0.42051956933E+01 0.46219737075E+01 0.50146953066E+01 0.53271680695E+01 0.55155651607E+01
 0.55949796358E+01 0.56132778610E+01 0.55950251561E+01 0.55156063286E+01 0.53271921131E+01
 0.44179313452E+01 0.41248056554E+01 0.38387721034E+01 0.35974512162E+01 0.34270970720E+01
 0.33401922277E+01 0.33402271419E+01 0.34271761828E+01 0.35974920700E+01 0.38386801386E+01
 0.41245876480E+01 0.44177370535E+01 0.46793826050E+01 0.48815230972E+01 0.50127572683E+01
 0.50743166606E+01 0.50742304606E+01 0.50125575768E+01 0.48813609058E+01 0.46793988111E+01
 0.40172061265E+01 0.38581726252E+01 0.37120998503E+01 0.35975320087E+01 0.35258323590E+01
 0.35015953182E+01 0.35257919907E+01 0.35974920700E+01 0.37120880587E+01 0.38581761429E+01
 0.40172008019E+01 0.41676993121E+01 0.42918822935E+01 0.43802378112E+01 0.44313896351E+01
 0.44479041945E+01 0.44313602035E+01 0.43802066057E+01 0.42918743922E+01 0.41677096229E+01
 0.38772635900E+01 0.38580622095E+01 0.38387283095E+01 0.38236998715E+01 0.38156416172E+01
 0.38155736668E+01 0.38235677028E+01 0.38386801386E+01 0.38581761429E+01 0.38774622736E+01
 0.38917071643E+01 0.38982732618E+01 0.38980013064E+01 0.38943650331E+01 0.38913263685E+01
 0.38913712520E+01 0.38944866883E+01 0.38981349924E+01 0.38983078796E+01 0.38915840699E+01
 0.40172238954E+01 0.41245977063E+01 0.42051690692E+01 0.42545672246E+01 0.42711715487E+01
 0.42546054701E+01 0.42051956933E+01 0.41245876480E+01 0.40172008019E+01 0.38917071643E+01
 0.37612354168E+01 0.36413246885E+01 0.35462433968E+01 0.34859200028E+01 0.34653515326E+01
 0.34859200794E+01 0.35462522560E+01 0.36413388036E+01 0.37612452857E+01 0.38917201090E+01
 0.44179173145E+01 0.46219511932E+01 0.47635784801E+01 0.48354944768E+01 0.48355943556E+01
 0.47637517240E+01 0.46219737075E+01 0.44177370535E+01 0.41676993121E+01 0.38982732618E+01
 0.36413246885E+01 0.34265971037E+01 0.32751586984E+01 0.31977122066E+01 0.31977118557E+01
 0.32751247753E+01 0.34265045175E+01 0.36412514492E+01 0.38983445639E+01 0.41679142500E+01
 0.50146831538E+01 0.52642089096E+01 0.54096181253E+01 0.54559676842E+01 0.54096017384E+01
 0.52642012043E+01 0.50146953066E+01 0.46793826050E+01 0.42918822935E+01 0.38980013064E+01
 0.35462433968E+01 0.32751586984E+01 0.31070322373E+01 0.30504391630E+01 0.31070590411E+01
 0.32751846519E+01 0.35462505177E+01 0.38979957961E+01 0.42918697632E+01 0.46793632404E+01
 0.56385838278E+01 0.57995175452E+01 0.58557286669E+01 0.58556114359E+01 0.57993254142E+01
 0.56385858086E+01 0.53271680695E+01 0.48815230972E+01 0.43802378112E+01 0.38943650331E+01
 0.34859200028E+01 0.31977122066E+01 0.30504391630E+01 0.30504035511E+01 0.31976809418E+01
 0.34859963676E+01 0.38944932910E+01 0.43802301408E+01 0.48813149453E+01 0.53269469476E+01
 0.58570298157E+01 0.57922185892E+01 0.57494454786E+01 0.57921948020E+01 0.58569823581E+01
 0.58016419443E+01 0.55155651607E+01 0.50127572683E+01 0.44313896351E+01 0.38913263685E+01
 0.34653515326E+01 0.31977118557E+01 0.31070590411E+01 0.31976809418E+01 0.34653131367E+01
 0.38912982808E+01 0.44313736466E+01 0.50127612486E+01 0.55155970508E+01 0.58016949520E+01
 0.52662508497E+01 0.49829535157E+01 0.49830593331E+01 0.52663939507E+01 0.56284571034E+01
 0.57940858438E+01 0.55949796358E+01 0.50743166606E+01 0.44479041945E+01 0.38913712520E+01
 0.34859200794E+01 0.32751247753E+01 0.32751846519E+01 0.34859963676E+01 0.38912982808E+01
 0.44477100323E+01 0.50742378491E+01 0.55951665816E+01 0.57943726467E+01 0.56285456449E+01
 0.38121497555E+01 0.35099475804E+01 0.38122014951E+01 0.45516665973E+01 0.53269795589E+01
 0.57390123257E+01 0.56132778610E+01 0.50742304606E+01 0.44313602035E+01 0.38944866883E+01
 0.35462522560E+01 0.34265045175E+01 0.35462505177E+01 0.38944932910E+01 0.44313736466E+01
 0.50742378491E+01 0.56132729591E+01 0.57389953928E+01 0.53269398434E+01 0.45516046386E+01
 0.19095316892E+01 0.19094701081E+01 0.27590254104E+01 0.40491329095E+01 0.51920022036E+01
 0.57391302976E+01 0.55950251561E+01 0.50125575768E+01 0.43802066057E+01 0.38981349924E+01
 0.36413388036E+01 0.36412514492E+01 0.38979957961E+01 0.43802301408E+01 0.50127612486E+01
 0.55951665816E+01 0.57389953928E+01 0.51916944940E+01 0.40489509179E+01 0.27590646741E+01
 0.29411275912E+00 0.87061946492E+00 0.23370518692E+01 0.40490022442E+01 0.53269524374E+01
 0.57943449844E+01 0.55156063286E+01 0.48813609058E+01 0.42918743922E+01 0.38983078796E+01
 0.37612452857E+01 0.38983445639E+01 0.42918697632E+01 0.48813149453E+01 0.55155970508E+01
 0.57943726467E+01 0.53269398434E+01 0.40489509179E+01 0.23370418744E+01 0.87065283294E+00
 -.33888842446E+00 0.87066245218E+00 0.27589498026E+01 0.45513916960E+01 0.56284402248E+01
 0.58018439806E+01 0.53271921131E+01 0.46793988111E+01 0.41677096229E+01 0.38915840699E+01
 0.38917201090E+01 0.41679142500E+01 0.46793632404E+01 0.53269469476E+01 0.58016949520E+01
 0.56285456449E+01 0.45516046386E+01 0.27590646741E+01 0.87065283294E+00 -.33891341472E+00
 0.27777192832E+01 0.40965704465E+01 0.52661899181E+01 0.58310679888E+01 0.56956220633E+01
 0.51163640610E+01 0.44850909460E+01 0.40034474982E+01 0.37467902465E+01 0.37466728842E+01
 0.40032543206E+01 0.44850598761E+01 0.51164561458E+01 0.56955844456E+01 0.58308499972E+01
 0.52661006691E+01 0.40968961555E+01 0.27782845836E+01 0.19095500400E+01 0.19092666630E+01
 0.40965704465E+01 0.51407536729E+01 0.57921693330E+01 0.58219352066E+01 0.53446190965E+01
 0.47002703476E+01 0.41500850212E+01 0.37904418486E+01 0.36663522202E+01 0.37904003080E+01
 0.41500418017E+01 0.47002267493E+01 0.53445269388E+01 0.58217989041E+01 0.57921134965E+01
 0.51409157041E+01 0.40969125471E+01 0.31433162822E+01 0.27590613416E+01 0.31430296670E+01
 0.52661899181E+01 0.57921693330E+01 0.58557381562E+01 0.54561528545E+01 0.48356186391E+01
 0.42545436455E+01 0.38235749310E+01 0.35974644531E+01 0.35975320292E+01 0.38236966554E+01
 0.42545728127E+01 0.48354983586E+01 0.54559573629E+01 0.58555967253E+01 0.57921868497E+01
 0.52663812394E+01 0.45516374900E+01 0.40491019397E+01 0.40489887447E+01 0.45513917288E+01
 0.58310679888E+01 0.58219352066E+01 0.54561528545E+01 0.48815575889E+01 0.43085653324E+01
 0.38444474662E+01 0.35485640754E+01 0.34476818531E+01 0.35485874244E+01 0.38445421935E+01
 0.43087025281E+01 0.48815750301E+01 0.54559259536E+01 0.58216048990E+01 0.58309689377E+01
 0.55429460856E+01 0.51920870181E+01 0.50377816003E+01 0.51917563839E+01 0.55426814554E+01
 0.56956220633E+01 0.53446190965E+01 0.48356186391E+01 0.43085653324E+01 0.38515326639E+01
 0.35235860579E+01 0.33546262526E+01 0.33545890797E+01 0.35235536663E+01 0.38516182133E+01
 0.43087275487E+01 0.48356748914E+01 0.53444771104E+01 0.56954145270E+01 0.58063254823E+01
 0.57390867274E+01 0.56443833060E+01 0.56443204485E+01 0.57390069172E+01 0.58063992759E+01
 0.51163640610E+01 0.47002703476E+01 0.42545436455E+01 0.38444474662E+01 0.35235860579E+01
 0.33232854556E+01 0.32556913250E+01 0.33232519728E+01 0.35235541660E+01 0.38444586007E+01
 0.42546248109E+01 0.47004072100E+01 0.51164584245E+01 0.54297979038E+01 0.55948790754E+01
 0.56462360806E+01 0.56523558159E+01 0.56464798704E+01 0.55951391646E+01 0.54298761736E+01
 0.44850909460E+01 0.41500850212E+01 0.38235749310E+01 0.35485640754E+01 0.33546262526E+01
 0.32556913250E+01 0.32556806880E+01 0.33546168899E+01 0.35485788436E+01 0.38235930915E+01
 0.41500844549E+01 0.44850822664E+01 0.47835857044E+01 0.50126846932E+01 0.51552469595E+01
 0.52179269728E+01 0.52179898037E+01 0.51553715443E+01 0.50127695094E+01 0.47836122136E+01
 0.40034474982E+01 0.37904418486E+01 0.35974644531E+01 0.34476818531E+01 0.33545890797E+01
 0.33232519728E+01 0.33546168899E+01 0.34477415171E+01 0.35975038115E+01 0.37903765345E+01
 0.40032765795E+01 0.42081594351E+01 0.43802501979E+01 0.45047382794E+01 0.45777360468E+01
 0.46014410453E+01 0.45776205108E+01 0.45046241357E+01 0.43802658419E+01 0.42083142878E+01
 0.37467902465E+01 0.36663522202E+01 0.35975320292E+01 0.35485874244E+01 0.35235536663E+01
 0.35235541660E+01 0.35485788436E+01 0.35975038115E+01 0.36663190836E+01 0.37467788450E+01
 0.38276049103E+01 0.38980140584E+01 0.39511548466E+01 0.39851267940E+01 0.40012650506E+01
 0.40012606406E+01 0.39851140283E+01 0.39511335025E+01 0.38979875044E+01 0.38275887467E+01
 0.37466728842E+01 0.37904003080E+01 0.38236966554E+01 0.38445421935E+01 0.38516182133E+01
 0.38444586007E+01 0.38235930915E+01 0.37903765345E+01 0.37467788450E+01 0.36956447773E+01
 0.36413088047E+01 0.35896977210E+01 0.35473140116E+01 0.35196426737E+01 0.35100786833E+01
 0.35197159971E+01 0.35474093020E+01 0.35897234324E+01 0.36412092373E+01 0.36954774902E+01
 0.40032543206E+01 0.41500418017E+01 0.42545728127E+01 0.43087025281E+01 0.43087275487E+01
 0.42546248109E+01 0.41500844549E+01 0.40032765795E+01 0.38276049103E+01 0.36413088047E+01
 0.34650574500E+01 0.33179446607E+01 0.32138633602E+01 0.31604006029E+01 0.31603901648E+01
 0.32138554013E+01 0.33179691190E+01 0.34651005771E+01 0.36413348339E+01 0.38276032083E+01
 0.44850598761E+01 0.47002267493E+01 0.48354983586E+01 0.48815750301E+01 0.48356748914E+01
 0.47004072100E+01 0.44850822664E+01 0.42081594351E+01 0.38980140584E+01 0.35896977210E+01
 0.33179446607E+01 0.31097591839E+01 0.29808376326E+01 0.29374224380E+01 0.29808174052E+01
 0.31097170873E+01 0.33179180207E+01 0.35897526016E+01 0.38981595731E+01 0.42082892870E+01
 0.51164561458E+01 0.53445269388E+01 0.54559573629E+01 0.54559259536E+01 0.53444771104E+01
 0.51164584245E+01 0.47835857044E+01 0.43802501979E+01 0.39511548466E+01 0.35473140116E+01
 0.32138633602E+01 0.29808376326E+01 0.28623058086E+01 0.28623107713E+01 0.29808500416E+01
 0.32138781423E+01 0.35473197709E+01 0.39511308187E+01 0.43801879723E+01 0.47835252324E+01
 0.56955844456E+01 0.58217989041E+01 0.58555967253E+01 0.58216048990E+01 0.56954145270E+01
 0.54297979038E+01 0.50126846932E+01 0.45047382794E+01 0.39851267940E+01 0.35196426737E+01
 0.31604006029E+01 0.29374224380E+01 0.28623107713E+01 0.29374231882E+01 0.31604338374E+01
 0.35196926891E+01 0.39851053955E+01 0.45045895093E+01 0.50125056357E+01 0.54297674780E+01
 0.58308499972E+01 0.57921134965E+01 0.57921868497E+01 0.58309689377E+01 0.58063254823E+01
 0.55948790754E+01 0.51552469595E+01 0.45777360468E+01 0.40012650506E+01 0.35100786833E+01
 0.31603901648E+01 0.29808174052E+01 0.29808500416E+01 0.31604338374E+01 0.35100533068E+01
 0.40011915014E+01 0.45777317671E+01 0.51553650812E+01 0.55950114292E+01 0.58063269839E+01
 0.52661006691E+01 0.51409157041E+01 0.52663812394E+01 0.55429460856E+01 0.57390867274E+01
 0.56462360806E+01 0.52179269728E+01 0.46014410453E+01 0.40012606406E+01 0.35197159971E+01
 0.32138554013E+01 0.31097170873E+01 0.32138781423E+01 0.35196926891E+01 0.40011915014E+01
 0.46014558156E+01 0.52181267320E+01 0.56464992568E+01 0.57391446127E+01 0.55427077591E+01
 0.40968961555E+01 0.40969125471E+01 0.45516374900E+01 0.51920870181E+01 0.56443833060E+01
 0.56523558159E+01 0.52179898037E+01 0.45776205108E+01 0.39851140283E+01 0.35474093020E+01
 0.33179691190E+01 0.33179180207E+01 0.35473197709E+01 0.39851053955E+01 0.45777317671E+01
 0.52181267320E+01 0.56523938927E+01 0.56443023642E+01 0.51919743064E+01 0.45515719333E+01
 0.27782845836E+01 0.31433162822E+01 0.40491019397E+01 0.50377816003E+01 0.56443204485E+01
 0.56464798704E+01 0.51553715443E+01 0.45046241357E+01 0.39511335025E+01 0.35897234324E+01
 0.34651005771E+01 0.35897526016E+01 0.39511308187E+01 0.45045895093E+01 0.51553650812E+01
 0.56464992568E+01 0.56443023642E+01 0.50377269537E+01 0.40490777320E+01 0.31433313970E+01
 0.19095500400E+01 0.27590613416E+01 0.40489887447E+01 0.51917563839E+01 0.57390069172E+01
 0.55951391646E+01 0.50127695094E+01 0.43802658419E+01 0.38979875044E+01 0.36412092373E+01
 0.36413348339E+01 0.38981595731E+01 0.43801879723E+01 0.50125056357E+01 0.55950114292E+01
 0.57391446127E+01 0.51919743064E+01 0.40490777320E+01 0.27590219665E+01 0.19095137012E+01
 0.19092666630E+01 0.31430296670E+01 0.45513917288E+01 0.55426814554E+01 0.58063992759E+01
 0.54298761736E+01 0.47836122136E+01 0.42083142878E+01 0.38275887467E+01 0.36954774902E+01
 0.38276032083E+01 0.42082892870E+01 0.47835252324E+01 0.54297674780E+01 0.58063269839E+01
 0.55427077591E+01 0.45515719333E+01 0.31433313970E+01 0.19095137012E+01 0.14200850296E+01
 0.47890471628E+01 0.55022550891E+01 0.58570060449E+01 0.56956443141E+01 0.51491577493E+01
 0.45175872809E+01 0.39925098814E+01 0.36528195303E+01 0.35361630340E+01 0.36527773168E+01
 0.39924993788E+01 0.45176280053E+01 0.51491856674E+01 0.56956287814E+01 0.58570011930E+01
 0.55023118941E+01 0.47891384332E+01 0.40968997541E+01 0.38121736386E+01 0.40968370509E+01
 0.55022550891E+01 0.58590701908E+01 0.57993423363E+01 0.53446355332E+01 0.47263611289E+01
 0.41622086223E+01 0.37470111238E+01 0.35301041894E+01 0.35301705947E+01 0.37471158083E+01