   1   1   1   0
  0.1482975E+02  0.2757716E-09  0.2757716E-09  0.2757716E-09  0.5000000E-15
  1.000000000000000E-004
  CAR 
 fcc Si                                  
     38.13697387     -6.40291998  301      9.89509862      1.00000000
     -6.403  0.0000E+00  0.0000E+00
     -6.254  0.0000E+00  0.0000E+00
     -6.106  0.0000E+00  0.0000E+00
     -5.958  0.0000E+00  0.0000E+00
     -5.809  0.0000E+00  0.0000E+00
     -5.661  0.0000E+00  0.0000E+00
     -5.512  0.0000E+00  0.0000E+00
     -5.364  0.0000E+00  0.0000E+00
     -5.215  0.0000E+00  0.0000E+00
     -5.067  0.0000E+00  0.0000E+00
     -4.918  0.0000E+00  0.0000E+00
     -4.770  0.0000E+00  0.0000E+00
     -4.621  0.0000E+00  0.0000E+00
     -4.473  0.0000E+00  0.0000E+00
     -4.324  0.2042E-01  0.3675E-03
     -4.176  0.5307E-01  0.5461E-02
     -4.027  0.6113E-01  0.1336E-01
     -3.879  0.7345E-01  0.2349E-01
     -3.731  0.8473E-01  0.3518E-01
     -3.582  0.9394E-01  0.4855E-01
     -3.434  0.1023E+00  0.6311E-01
     -3.285  0.1120E+00  0.7902E-01
     -3.137  0.1181E+00  0.9610E-01
     -2.988  0.1253E+00  0.1142E+00
     -2.840  0.1329E+00  0.1333E+00
     -2.691  0.1389E+00  0.1535E+00
     -2.543  0.1446E+00  0.1746E+00
     -2.394  0.1509E+00  0.1965E+00
     -2.246  0.1575E+00  0.2194E+00
     -2.097  0.1621E+00  0.2431E+00
     -1.949  0.1674E+00  0.2676E+00
     -1.800  0.1728E+00  0.2928E+00
     -1.652  0.1785E+00  0.3189E+00
     -1.504  0.1832E+00  0.3457E+00
     -1.355  0.1877E+00  0.3733E+00
     -1.207  0.1925E+00  0.4015E+00
     -1.058  0.1974E+00  0.4304E+00
     -0.910  0.2025E+00  0.4601E+00
     -0.761  0.2067E+00  0.4905E+00
     -0.613  0.2109E+00  0.5215E+00
     -0.464  0.2152E+00  0.5531E+00
     -0.316  0.2197E+00  0.5854E+00
     -0.167  0.2242E+00  0.6183E+00
     -0.019  0.2286E+00  0.6520E+00
      0.130  0.2324E+00  0.6862E+00
      0.278  0.2364E+00  0.7210E+00
      0.427  0.2405E+00  0.7564E+00
      0.575  0.2448E+00  0.7924E+00
      0.723  0.2492E+00  0.8291E+00
      0.872  0.2533E+00  0.8664E+00
      1.020  0.2571E+00  0.9043E+00
      1.169  0.2611E+00  0.9428E+00
      1.317  0.2654E+00  0.9818E+00
      1.466  0.2699E+00  0.1022E+01
      1.614  0.2749E+00  0.1062E+01
      1.763  0.2810E+00  0.1103E+01
      1.911  0.2883E+00  0.1145E+01
      2.060  0.3012E+00  0.1189E+01
      2.208  0.3276E+00  0.1236E+01
      2.357  0.3050E+00  0.1283E+01
      2.505  0.3156E+00  0.1329E+01
      2.654  0.3027E+00  0.1374E+01
      2.802  0.2817E+00  0.1417E+01
      2.950  0.2710E+00  0.1458E+01
      3.099  0.2878E+00  0.1499E+01
      3.247  0.2699E+00  0.1540E+01
      3.396  0.2904E+00  0.1581E+01
      3.544  0.3161E+00  0.1625E+01
      3.693  0.2961E+00  0.1670E+01
      3.841  0.3103E+00  0.1715E+01
      3.990  0.3246E+00  0.1764E+01
      4.138  0.3537E+00  0.1814E+01
      4.287  0.3291E+00  0.1862E+01
      4.435  0.3436E+00  0.1912E+01
      4.584  0.3623E+00  0.1965E+01
      4.732  0.3445E+00  0.2018E+01
      4.881  0.3383E+00  0.2068E+01
      5.029  0.3460E+00  0.2119E+01
      5.177  0.3315E+00  0.2170E+01
      5.326  0.3160E+00  0.2218E+01
      5.474  0.3229E+00  0.2265E+01
      5.623  0.3173E+00  0.2312E+01
      5.771  0.3234E+00  0.2360E+01
      5.920  0.3578E+00  0.2410E+01
      6.068  0.4109E+00  0.2467E+01
      6.217  0.4192E+00  0.2529E+01
      6.365  0.4008E+00  0.2589E+01
      6.514  0.4091E+00  0.2649E+01
      6.662  0.3745E+00  0.2708E+01
      6.811  0.3587E+00  0.2762E+01
      6.959  0.3489E+00  0.2815E+01
      7.108  0.3852E+00  0.2867E+01
      7.256  0.3371E+00  0.2918E+01
      7.404  0.3872E+00  0.2971E+01
      7.553  0.3894E+00  0.3030E+01
      7.701  0.3919E+00  0.3088E+01
      7.850  0.4043E+00  0.3147E+01
      7.998  0.4163E+00  0.3208E+01
      8.147  0.4097E+00  0.3269E+01
      8.295  0.4215E+00  0.3330E+01
      8.444  0.4008E+00  0.3393E+01
      8.592  0.3915E+00  0.3451E+01
      8.741  0.4040E+00  0.3511E+01
      8.889  0.4039E+00  0.3571E+01
      9.038  0.4136E+00  0.3631E+01
      9.186  0.4226E+00  0.3694E+01
      9.335  0.4296E+00  0.3757E+01
      9.483  0.4261E+00  0.3821E+01
      9.631  0.4383E+00  0.3885E+01
      9.780  0.4379E+00  0.3950E+01
      9.928  0.4419E+00  0.4015E+01
     10.077  0.4416E+00  0.4080E+01
     10.225  0.4500E+00  0.4147E+01
     10.374  0.4388E+00  0.4212E+01
     10.522  0.4465E+00  0.4278E+01
     10.671  0.4547E+00  0.4345E+01
     10.819  0.4566E+00  0.4412E+01
     10.968  0.4683E+00  0.4481E+01
     11.116  0.4690E+00  0.4551E+01
     11.265  0.4792E+00  0.4621E+01
     11.413  0.4741E+00  0.4692E+01
     11.562  0.4806E+00  0.4763E+01
     11.710  0.4822E+00  0.4834E+01
     11.858  0.4913E+00  0.4907E+01
     12.007  0.4980E+00  0.4980E+01
     12.155  0.5033E+00  0.5054E+01
     12.304  0.5102E+00  0.5130E+01
     12.452  0.5289E+00  0.5207E+01
     12.601  0.5360E+00  0.5285E+01
     12.749  0.5587E+00  0.5367E+01
     12.898  0.5755E+00  0.5451E+01
     13.046  0.6049E+00  0.5539E+01
     13.195  0.5844E+00  0.5627E+01
     13.343  0.5742E+00  0.5713E+01
     13.492  0.5560E+00  0.5797E+01
     13.640  0.5460E+00  0.5879E+01
     13.788  0.5380E+00  0.5959E+01
     13.937  0.5275E+00  0.6039E+01
     14.085  0.5135E+00  0.6116E+01
     14.234  0.5047E+00  0.6191E+01
     14.382  0.4955E+00  0.6266E+01
     14.531  0.4852E+00  0.6338E+01
     14.679  0.4794E+00  0.6410E+01
     14.828  0.4793E+00  0.6481E+01
     14.976  0.4752E+00  0.6552E+01
     15.125  0.4693E+00  0.6622E+01
     15.273  0.4660E+00  0.6692E+01
     15.422  0.4630E+00  0.6760E+01
     15.570  0.4638E+00  0.6829E+01
     15.719  0.4686E+00  0.6898E+01
     15.867  0.4693E+00  0.6968E+01
     16.015  0.4709E+00  0.7038E+01
     16.164  0.4735E+00  0.7108E+01
     16.312  0.4766E+00  0.7178E+01
     16.461  0.4793E+00  0.7249E+01
     16.609  0.4823E+00  0.7321E+01
     16.758  0.4910E+00  0.7393E+01
     16.906  0.5007E+00  0.7467E+01
     17.055  0.5121E+00  0.7542E+01
     17.203  0.5159E+00  0.7618E+01
     17.352  0.5157E+00  0.7695E+01
     17.500  0.5193E+00  0.7772E+01
     17.649  0.5208E+00  0.7849E+01
     17.797  0.5259E+00  0.7926E+01
     17.946  0.5336E+00  0.8005E+01
     18.094  0.5387E+00  0.8085E+01
     18.242  0.5324E+00  0.8164E+01
     18.391  0.5279E+00  0.8243E+01
     18.539  0.5250E+00  0.8321E+01
     18.688  0.5258E+00  0.8399E+01
     18.836  0.5270E+00  0.8477E+01
     18.985  0.5271E+00  0.8555E+01
     19.133  0.5345E+00  0.8634E+01
     19.282  0.5386E+00  0.8714E+01
     19.430  0.5414E+00  0.8794E+01
     19.579  0.5447E+00  0.8875E+01
     19.727  0.5529E+00  0.8956E+01
     19.876  0.5637E+00  0.9039E+01
     20.024  0.5785E+00  0.9124E+01
     20.173  0.6033E+00  0.9211E+01
     20.321  0.6419E+00  0.9304E+01
     20.469  0.6882E+00  0.9402E+01
     20.618  0.6651E+00  0.9506E+01
     20.766  0.6460E+00  0.9602E+01
     20.915  0.5891E+00  0.9695E+01
     21.063  0.5635E+00  0.9780E+01
     21.212  0.5640E+00  0.9863E+01
     21.360  0.5756E+00  0.9948E+01
     21.509  0.5824E+00  0.1003E+02
     21.657  0.5578E+00  0.1012E+02
     21.806  0.5456E+00  0.1020E+02
     21.954  0.5750E+00  0.1029E+02
     22.103  0.5446E+00  0.1037E+02
     22.251  0.5562E+00  0.1045E+02
     22.400  0.5251E+00  0.1053E+02
     22.548  0.5285E+00  0.1061E+02
     22.696  0.5645E+00  0.1069E+02
     22.845  0.5909E+00  0.1078E+02
     22.993  0.6802E+00  0.1087E+02
     23.142  0.7008E+00  0.1097E+02
     23.290  0.7488E+00  0.1108E+02
     23.439  0.7502E+00  0.1119E+02
     23.587  0.7577E+00  0.1130E+02
     23.736  0.7947E+00  0.1142E+02
     23.884  0.7406E+00  0.1154E+02
     24.033  0.6101E+00  0.1164E+02
     24.181  0.5652E+00  0.1172E+02
     24.330  0.5273E+00  0.1181E+02
     24.478  0.5520E+00  0.1188E+02
     24.627  0.6526E+00  0.1197E+02
     24.775  0.6040E+00  0.1207E+02
     24.923  0.5365E+00  0.1215E+02
     25.072  0.5740E+00  0.1223E+02
     25.220  0.6645E+00  0.1232E+02
     25.369  0.7465E+00  0.1243E+02
     25.517  0.6938E+00  0.1253E+02
     25.666  0.6785E+00  0.1264E+02
     25.814  0.6823E+00  0.1274E+02
     25.963  0.6498E+00  0.1284E+02
     26.111  0.6517E+00  0.1293E+02
     26.260  0.6551E+00  0.1303E+02
     26.408  0.6255E+00  0.1313E+02
     26.557  0.6127E+00  0.1322E+02
     26.705  0.6036E+00  0.1331E+02
     26.854  0.6003E+00  0.1340E+02
     27.002  0.5986E+00  0.1349E+02
     27.150  0.5988E+00  0.1357E+02
     27.299  0.5816E+00  0.1366E+02
     27.447  0.5706E+00  0.1375E+02
     27.596  0.5888E+00  0.1383E+02
     27.744  0.5867E+00  0.1392E+02
     27.893  0.6133E+00  0.1401E+02
     28.041  0.5226E+00  0.1409E+02
     28.190  0.4499E+00  0.1417E+02
     28.338  0.4302E+00  0.1423E+02
     28.487  0.4128E+00  0.1429E+02
     28.635  0.4313E+00  0.1436E+02
     28.784  0.4464E+00  0.1442E+02
     28.932  0.4894E+00  0.1449E+02
     29.081  0.5936E+00  0.1457E+02
     29.229  0.5993E+00  0.1466E+02
     29.377  0.5873E+00  0.1475E+02
     29.526  0.6384E+00  0.1484E+02
     29.674  0.6025E+00  0.1493E+02
     29.823  0.5053E+00  0.1502E+02
     29.971  0.4591E+00  0.1509E+02
     30.120  0.4276E+00  0.1515E+02
     30.268  0.3958E+00  0.1521E+02
     30.417  0.3417E+00  0.1527E+02
     30.565  0.2987E+00  0.1532E+02
     30.714  0.2811E+00  0.1536E+02
     30.862  0.2709E+00  0.1540E+02
     31.011  0.2602E+00  0.1544E+02
     31.159  0.2488E+00  0.1548E+02
     31.308  0.2379E+00  0.1551E+02
     31.456  0.2269E+00  0.1555E+02
     31.604  0.2177E+00  0.1558E+02
     31.753  0.2093E+00  0.1561E+02
     31.901  0.2005E+00  0.1564E+02
     32.050  0.1910E+00  0.1567E+02
     32.198  0.1795E+00  0.1570E+02
     32.347  0.1692E+00  0.1573E+02
     32.495  0.1587E+00  0.1575E+02
     32.644  0.1514E+00  0.1577E+02
     32.792  0.1448E+00  0.1579E+02
     32.941  0.1365E+00  0.1582E+02
     33.089  0.1283E+00  0.1584E+02
     33.238  0.1196E+00  0.1585E+02
     33.386  0.1110E+00  0.1587E+02
     33.535  0.1034E+00  0.1589E+02
     33.683  0.9565E-01  0.1590E+02
     33.831  0.8887E-01  0.1592E+02
     33.980  0.8439E-01  0.1593E+02
     34.128  0.8286E-01  0.1594E+02
     34.277  0.6116E-01  0.1595E+02
     34.425  0.5285E-01  0.1596E+02
     34.574  0.4247E-01  0.1597E+02
     34.722  0.3762E-01  0.1597E+02
     34.871  0.3332E-01  0.1598E+02
     35.019  0.2971E-01  0.1598E+02
     35.168  0.2675E-01  0.1599E+02
     35.316  0.2522E-01  0.1599E+02
     35.465  0.2084E-01  0.1599E+02
     35.613  0.1354E-01  0.1600E+02
     35.762  0.9781E-02  0.1600E+02
     35.910  0.6184E-02  0.1600E+02
     36.058  0.4285E-02  0.1600E+02
     36.207  0.0000E+00  0.1600E+02
     36.355  0.0000E+00  0.1600E+02
     36.504  0.0000E+00  0.1600E+02
     36.652  0.0000E+00  0.1600E+02
     36.801  0.0000E+00  0.1600E+02
     36.949  0.0000E+00  0.1600E+02
     37.098  0.0000E+00  0.1600E+02
     37.246  0.0000E+00  0.1600E+02
     37.395  0.0000E+00  0.1600E+02
     37.543  0.0000E+00  0.1600E+02
     37.692  0.0000E+00  0.1600E+02
     37.840  0.0000E+00  0.1600E+02
     37.989  0.0000E+00  0.1600E+02
     38.137  0.0000E+00  0.1600E+02
     38.13697387     -6.40291998  301      9.89509862      1.00000000
     -6.403  0.0000E+00  0.0000E+00  0.0000E+00  0.0000E+00  0.0000E+00  0.0000E+00  0.0000E+00  0.0000E+00  0.0000E+00
     -6.254  0.0000E+00  0.0000E+00  0.0000E+00  0.0000E+00  0.0000E+00  0.0000E+00  0.0000E+00  0.0000E+00  0.0000E+00
     -6.106  0.0000E+00  0.0000E+00  0.0000E+00  0.0000E+00  0.0000E+00  0.0000E+00  0.0000E+00  0.0000E+00  0.0000E+00
     -5.958  0.0000E+00  0.0000E+00  0.0000E+00  0.0000E+00  0.0000E+00  0.0000E+00  0.0000E+00  0.0000E+00  0.0000E+00
     -5.809  0.0000E+00  0.0000E+00  0.0000E+00  0.0000E+00  0.0000E+00  0.0000E+00  0.0000E+00  0.0000E+00  0.0000E+00
     -5.661  0.0000E+00  0.0000E+00  0.0000E+00  0.0000E+00  0.0000E+00  0.0000E+00  0.0000E+00  0.0000E+00  0.0000E+00
     -5.512  0.0000E+00  0.0000E+00  0.0000E+00  0.0000E+00  0.0000E+00  0.0000E+00  0.0000E+00  0.0000E+00  0.0000E+00
     -5.364  0.0000E+00  0.0000E+00  0.0000E+00  0.0000E+00  0.0000E+00  0.0000E+00  0.0000E+00  0.0000E+00  0.0000E+00
     -5.215  0.0000E+00  0.0000E+00  0.0000E+00  0.0000E+00  0.0000E+00  0.0000E+00  0.0000E+00  0.0000E+00  0.0000E+00
     -5.067  0.0000E+00  0.0000E+00  0.0000E+00  0.0000E+00  0.0000E+00  0.0000E+00  0.0000E+00  0.0000E+00  0.0000E+00
     -4.918  0.0000E+00  0.0000E+00  0.0000E+00  0.0000E+00  0.0000E+00  0.0000E+00  0.0000E+00  0.0000E+00  0.0000E+00
     -4.770  0.0000E+00  0.0000E+00  0.0000E+00  0.0000E+00  0.0000E+00  0.0000E+00  0.0000E+00  0.0000E+00  0.0000E+00
     -4.621  0.0000E+00  0.0000E+00  0.0000E+00  0.0000E+00  0.0000E+00  0.0000E+00  0.0000E+00  0.0000E+00  0.0000E+00
     -4.473  0.0000E+00  0.0000E+00  0.0000E+00  0.0000E+00  0.0000E+00  0.0000E+00  0.0000E+00  0.0000E+00  0.0000E+00
     -4.324  0.7827E-02  0.9662E-05  0.9662E-05  0.9662E-05  0.0000E+00  0.0000E+00  0.0000E+00  0.0000E+00  0.0000E+00
     -4.176  0.2019E-01  0.8543E-04  0.8543E-04  0.8543E-04  0.0000E+00  0.0000E+00  0.0000E+00  0.0000E+00  0.0000E+00
     -4.027  0.2302E-01  0.1866E-03  0.1866E-03  0.1866E-03  0.0000E+00  0.0000E+00  0.0000E+00  0.0000E+00  0.0000E+00
     -3.879  0.2741E-01  0.3189E-03  0.3189E-03  0.3189E-03  0.0000E+00  0.0000E+00  0.0000E+00  0.0000E+00  0.0000E+00
     -3.731  0.3135E-01  0.4641E-03  0.4641E-03  0.4641E-03  0.0000E+00  0.0000E+00  0.0000E+00  0.0000E+00  0.0000E+00
     -3.582  0.3443E-01  0.6348E-03  0.6348E-03  0.6348E-03  0.0000E+00  0.0000E+00  0.0000E+00  0.0000E+00  0.0000E+00
     -3.434  0.3716E-01  0.8171E-03  0.8171E-03  0.8171E-03  0.0000E+00  0.0000E+00  0.0000E+00  0.0000E+00  0.0000E+00
     -3.285  0.4037E-01  0.1000E-02  0.1000E-02  0.1000E-02  0.0000E+00  0.0000E+00  0.0000E+00  0.0000E+00  0.0000E+00
     -3.137  0.4212E-01  0.1221E-02  0.1221E-02  0.1221E-02  0.0000E+00  0.0000E+00  0.0000E+00  0.0000E+00  0.0000E+00
     -2.988  0.4430E-01  0.1436E-02  0.1436E-02  0.1436E-02  0.0000E+00  0.0000E+00  0.0000E+00  0.0000E+00  0.0000E+00
     -2.840  0.4664E-01  0.1656E-02  0.1656E-02  0.1656E-02  0.0000E+00  0.0000E+00  0.0000E+00  0.0000E+00  0.0000E+00
     -2.691  0.4824E-01  0.1901E-02  0.1901E-02  0.1901E-02  0.0000E+00  0.0000E+00  0.0000E+00  0.0000E+00  0.0000E+00
     -2.543  0.4973E-01  0.2154E-02  0.2154E-02  0.2154E-02  0.0000E+00  0.0000E+00  0.0000E+00  0.0000E+00  0.0000E+00
     -2.394  0.5150E-01  0.2403E-02  0.2403E-02  0.2403E-02  0.0000E+00  0.0000E+00  0.0000E+00  0.0000E+00  0.0000E+00
     -2.246  0.5334E-01  0.2656E-02  0.2656E-02  0.2656E-02  0.0000E+00  0.0000E+00  0.0000E+00  0.0000E+00  0.0000E+00
     -2.097  0.5436E-01  0.2942E-02  0.2942E-02  0.2942E-02  0.0000E+00  0.0000E+00  0.0000E+00  0.0000E+00  0.0000E+00
     -1.949  0.5561E-01  0.3224E-02  0.3224E-02  0.3224E-02  0.0000E+00  0.0000E+00  0.0000E+00  0.0000E+00  0.0000E+00
     -1.800  0.5692E-01  0.3507E-02  0.3507E-02  0.3507E-02  0.0000E+00  0.0000E+00  0.0000E+00  0.0000E+00  0.0000E+00
     -1.652  0.5838E-01  0.3789E-02  0.3789E-02  0.3789E-02  0.0000E+00  0.0000E+00  0.0000E+00  0.0000E+00  0.0000E+00
     -1.504  0.5937E-01  0.4095E-02  0.4095E-02  0.4095E-02  0.0000E+00  0.0000E+00  0.0000E+00  0.0000E+00  0.0000E+00
     -1.355  0.6026E-01  0.4407E-02  0.4407E-02  0.4407E-02  0.0000E+00  0.0000E+00  0.0000E+00  0.0000E+00  0.0000E+00
     -1.207  0.6127E-01  0.4716E-02  0.4716E-02  0.4716E-02  0.0000E+00  0.0000E+00  0.0000E+00  0.0000E+00  0.0000E+00
     -1.058  0.6232E-01  0.5026E-02  0.5026E-02  0.5026E-02  0.0000E+00  0.0000E+00  0.0000E+00  0.0000E+00  0.0000E+00
     -0.910  0.6348E-01  0.5333E-02  0.5333E-02  0.5333E-02  0.0000E+00  0.0000E+00  0.0000E+00  0.0000E+00  0.0000E+00
     -0.761  0.6421E-01  0.5665E-02  0.5665E-02  0.5665E-02  0.0000E+00  0.0000E+00  0.0000E+00  0.0000E+00  0.0000E+00
     -0.613  0.6492E-01  0.5999E-02  0.5999E-02  0.5999E-02  0.0000E+00  0.0000E+00  0.0000E+00  0.0000E+00  0.0000E+00
     -0.464  0.6570E-01  0.6330E-02  0.6330E-02  0.6330E-02  0.0000E+00  0.0000E+00  0.0000E+00  0.0000E+00  0.0000E+00
     -0.316  0.6657E-01  0.6658E-02  0.6658E-02  0.6658E-02  0.0000E+00  0.0000E+00  0.0000E+00  0.0000E+00  0.0000E+00
     -0.167  0.6745E-01  0.6987E-02  0.6987E-02  0.6987E-02  0.0000E+00  0.0000E+00  0.0000E+00  0.0000E+00  0.0000E+00
     -0.019  0.6823E-01  0.7323E-02  0.7323E-02  0.7323E-02  0.0000E+00  0.0000E+00  0.0000E+00  0.0000E+00  0.0000E+00
      0.130  0.6880E-01  0.7670E-02  0.7670E-02  0.7670E-02  0.0000E+00  0.0000E+00  0.0000E+00  0.0000E+00  0.0000E+00
      0.278  0.6943E-01  0.8015E-02  0.8015E-02  0.8015E-02  0.0000E+00  0.0000E+00  0.0000E+00  0.0000E+00  0.0000E+00
      0.427  0.7012E-01  0.8355E-02  0.8355E-02  0.8355E-02  0.0000E+00  0.0000E+00  0.0000E+00  0.0000E+00  0.0000E+00
      0.575  0.7091E-01  0.8690E-02  0.8690E-02  0.8690E-02  0.0000E+00  0.0000E+00  0.0000E+00  0.0000E+00  0.0000E+00
      0.723  0.7175E-01  0.9020E-02  0.9020E-02  0.9020E-02  0.0000E+00  0.0000E+00  0.0000E+00  0.0000E+00  0.0000E+00
      0.872  0.7250E-01  0.9357E-02  0.9357E-02  0.9357E-02  0.0000E+00  0.0000E+00  0.0000E+00  0.0000E+00  0.0000E+00
      1.020  0.7314E-01  0.9696E-02  0.9696E-02  0.9696E-02  0.0000E+00  0.0000E+00  0.0000E+00  0.0000E+00  0.0000E+00
      1.169  0.7389E-01  0.1002E-01  0.1002E-01  0.1002E-01  0.0000E+00  0.0000E+00  0.0000E+00  0.0000E+00  0.0000E+00
      1.317  0.7480E-01  0.1034E-01  0.1034E-01  0.1034E-01  0.0000E+00  0.0000E+00  0.0000E+00  0.0000E+00  0.0000E+00
      1.466  0.7591E-01  0.1064E-01  0.1064E-01  0.1064E-01  0.0000E+00  0.0000E+00  0.0000E+00  0.0000E+00  0.0000E+00
      1.614  0.7735E-01  0.1092E-01  0.1092E-01  0.1092E-01  0.0000E+00  0.0000E+00  0.0000E+00  0.0000E+00  0.0000E+00
      1.763  0.7932E-01  0.1118E-01  0.1118E-01  0.1118E-01  0.0000E+00  0.0000E+00  0.0000E+00  0.0000E+00  0.0000E+00
      1.911  0.8184E-01  0.1147E-01  0.1147E-01  0.1147E-01  0.0000E+00  0.0000E+00  0.0000E+00  0.0000E+00  0.0000E+00
      2.060  0.8668E-01  0.1181E-01  0.1181E-01  0.1181E-01  0.0000E+00  0.0000E+00  0.0000E+00  0.0000E+00  0.0000E+00
      2.208  0.9673E-01  0.1238E-01  0.1238E-01  0.1238E-01  0.0000E+00  0.0000E+00  0.0000E+00  0.0000E+00  0.0000E+00
      2.357  0.8817E-01  0.1209E-01  0.1209E-01  0.1209E-01  0.0000E+00  0.0000E+00  0.0000E+00  0.0000E+00  0.0000E+00
      2.505  0.9210E-01  0.1243E-01  0.1243E-01  0.1243E-01  0.0000E+00  0.0000E+00  0.0000E+00  0.0000E+00  0.0000E+00
      2.654  0.8720E-01  0.1232E-01  0.1232E-01  0.1232E-01  0.0000E+00  0.0000E+00  0.0000E+00  0.0000E+00  0.0000E+00
      2.802  0.7936E-01  0.1198E-01  0.1198E-01  0.1198E-01  0.0000E+00  0.0000E+00  0.0000E+00  0.0000E+00  0.0000E+00
      2.950  0.7537E-01  0.1187E-01  0.1187E-01  0.1187E-01  0.0000E+00  0.0000E+00  0.0000E+00  0.0000E+00  0.0000E+00
      3.099  0.8137E-01  0.1244E-01  0.1244E-01  0.1244E-01  0.0000E+00  0.0000E+00  0.0000E+00  0.0000E+00  0.0000E+00
      3.247  0.7149E-01  0.1289E-01  0.1289E-01  0.1289E-01  0.0000E+00  0.0000E+00  0.0000E+00  0.0000E+00  0.0000E+00
      3.396  0.7243E-01  0.1494E-01  0.1494E-01  0.1494E-01  0.0000E+00  0.0000E+00  0.0000E+00  0.0000E+00  0.0000E+00
      3.544  0.6948E-01  0.1838E-01  0.1838E-01  0.1838E-01  0.0000E+00  0.0000E+00  0.0000E+00  0.0000E+00  0.0000E+00
      3.693  0.6542E-01  0.1726E-01  0.1726E-01  0.1726E-01  0.0000E+00  0.0000E+00  0.0000E+00  0.0000E+00  0.0000E+00
      3.841  0.6502E-01  0.1893E-01  0.1893E-01  0.1893E-01  0.0000E+00  0.0000E+00  0.0000E+00  0.0000E+00  0.0000E+00
      3.990  0.6568E-01  0.2043E-01  0.2043E-01  0.2043E-01  0.0000E+00  0.0000E+00  0.0000E+00  0.0000E+00  0.0000E+00
      4.138  0.6504E-01  0.2372E-01  0.2372E-01  0.2372E-01  0.0000E+00  0.0000E+00  0.0000E+00  0.0000E+00  0.0000E+00
      4.287  0.5969E-01  0.2247E-01  0.2247E-01  0.2247E-01  0.0000E+00  0.0000E+00  0.0000E+00  0.0000E+00  0.0000E+00
      4.435  0.5912E-01  0.2426E-01  0.2426E-01  0.2426E-01  0.0000E+00  0.0000E+00  0.0000E+00  0.0000E+00  0.0000E+00
      4.584  0.5814E-01  0.2651E-01  0.2651E-01  0.2651E-01  0.0000E+00  0.0000E+00  0.0000E+00  0.0000E+00  0.0000E+00
      4.732  0.5410E-01  0.2548E-01  0.2548E-01  0.2548E-01  0.0000E+00  0.0000E+00  0.0000E+00  0.0000E+00  0.0000E+00
      4.881  0.5171E-01  0.2533E-01  0.2533E-01  0.2533E-01  0.0000E+00  0.0000E+00  0.0000E+00  0.0000E+00  0.0000E+00
      5.029  0.5115E-01  0.2631E-01  0.2631E-01  0.2631E-01  0.0000E+00  0.0000E+00  0.0000E+00  0.0000E+00  0.0000E+00
      5.177  0.4647E-01  0.2575E-01  0.2575E-01  0.2575E-01  0.0000E+00  0.0000E+00  0.0000E+00  0.0000E+00  0.0000E+00
      5.326  0.4265E-01  0.2480E-01  0.2480E-01  0.2480E-01  0.0000E+00  0.0000E+00  0.0000E+00  0.0000E+00  0.0000E+00
      5.474  0.4089E-01  0.2585E-01  0.2585E-01  0.2585E-01  0.0000E+00  0.0000E+00  0.0000E+00  0.0000E+00  0.0000E+00
      5.623  0.4080E-01  0.2514E-01  0.2514E-01  0.2514E-01  0.0000E+00  0.0000E+00  0.0000E+00  0.0000E+00  0.0000E+00
      5.771  0.4557E-01  0.2475E-01  0.2475E-01  0.2475E-01  0.0000E+00  0.0000E+00  0.0000E+00  0.0000E+00  0.0000E+00
      5.920  0.5310E-01  0.2697E-01  0.2697E-01  0.2697E-01  0.0000E+00  0.0000E+00  0.0000E+00  0.0000E+00  0.0000E+00
      6.068  0.6673E-01  0.3011E-01  0.3011E-01  0.3011E-01  0.0000E+00  0.0000E+00  0.0000E+00  0.0000E+00  0.0000E+00
      6.217  0.7309E-01  0.2988E-01  0.2988E-01  0.2988E-01  0.0000E+00  0.0000E+00  0.0000E+00  0.0000E+00  0.0000E+00
      6.365  0.7042E-01  0.2858E-01  0.2858E-01  0.2858E-01  0.0000E+00  0.0000E+00  0.0000E+00  0.0000E+00  0.0000E+00
      6.514  0.7202E-01  0.2941E-01  0.2941E-01  0.2941E-01  0.0000E+00  0.0000E+00  0.0000E+00  0.0000E+00  0.0000E+00
      6.662  0.6433E-01  0.2737E-01  0.2737E-01  0.2737E-01  0.0000E+00  0.0000E+00  0.0000E+00  0.0000E+00  0.0000E+00
      6.811  0.5992E-01  0.2669E-01  0.2669E-01  0.2669E-01  0.0000E+00  0.0000E+00  0.0000E+00  0.0000E+00  0.0000E+00
      6.959  0.5721E-01  0.2627E-01  0.2627E-01  0.2627E-01  0.0000E+00  0.0000E+00  0.0000E+00  0.0000E+00  0.0000E+00
      7.108  0.5852E-01  0.2973E-01  0.2973E-01  0.2973E-01  0.0000E+00  0.0000E+00  0.0000E+00  0.0000E+00  0.0000E+00
      7.256  0.5053E-01  0.2589E-01  0.2589E-01  0.2589E-01  0.0000E+00  0.0000E+00  0.0000E+00  0.0000E+00  0.0000E+00
      7.404  0.5756E-01  0.2976E-01  0.2976E-01  0.2976E-01  0.0000E+00  0.0000E+00  0.0000E+00  0.0000E+00  0.0000E+00
      7.553  0.5776E-01  0.3001E-01  0.3001E-01  0.3001E-01  0.0000E+00  0.0000E+00  0.0000E+00  0.0000E+00  0.0000E+00
      7.701  0.5715E-01  0.3050E-01  0.3050E-01  0.3050E-01  0.0000E+00  0.0000E+00  0.0000E+00  0.0000E+00  0.0000E+00
      7.850  0.5911E-01  0.3153E-01  0.3153E-01  0.3153E-01  0.0000E+00  0.0000E+00  0.0000E+00  0.0000E+00  0.0000E+00
      7.998  0.6190E-01  0.3240E-01  0.3240E-01  0.3240E-01  0.0000E+00  0.0000E+00  0.0000E+00  0.0000E+00  0.0000E+00
      8.147  0.5750E-01  0.3267E-01  0.3267E-01  0.3267E-01  0.0000E+00  0.0000E+00  0.0000E+00  0.0000E+00  0.0000E+00
      8.295  0.6010E-01  0.3374E-01  0.3374E-01  0.3374E-01  0.0000E+00  0.0000E+00  0.0000E+00  0.0000E+00  0.0000E+00
      8.444  0.5619E-01  0.3235E-01  0.3235E-01  0.3235E-01  0.0000E+00  0.0000E+00  0.0000E+00  0.0000E+00  0.0000E+00
      8.592  0.5512E-01  0.3166E-01  0.3166E-01  0.3166E-01  0.0000E+00  0.0000E+00  0.0000E+00  0.0000E+00  0.0000E+00
      8.741  0.5530E-01  0.3290E-01  0.3290E-01  0.3290E-01  0.0000E+00  0.0000E+00  0.0000E+00  0.0000E+00  0.0000E+00
      8.889  0.5396E-01  0.3322E-01  0.3322E-01  0.3322E-01  0.0000E+00  0.0000E+00  0.0000E+00  0.0000E+00  0.0000E+00
      9.038  0.5421E-01  0.3420E-01  0.3420E-01  0.3420E-01  0.0000E+00  0.0000E+00  0.0000E+00  0.0000E+00  0.0000E+00
      9.186  0.5420E-01  0.3515E-01  0.3515E-01  0.3515E-01  0.0000E+00  0.0000E+00  0.0000E+00  0.0000E+00  0.0000E+00
      9.335  0.5324E-01  0.3617E-01  0.3617E-01  0.3617E-01  0.0000E+00  0.0000E+00  0.0000E+00  0.0000E+00  0.0000E+00
      9.483  0.5262E-01  0.3610E-01  0.3610E-01  0.3610E-01  0.0000E+00  0.0000E+00  0.0000E+00  0.0000E+00  0.0000E+00
      9.631  0.5418E-01  0.3738E-01  0.3738E-01  0.3738E-01  0.0000E+00  0.0000E+00  0.0000E+00  0.0000E+00  0.0000E+00
      9.780  0.5244E-01  0.3770E-01  0.3770E-01  0.3770E-01  0.0000E+00  0.0000E+00  0.0000E+00  0.0000E+00  0.0000E+00
      9.928  0.5171E-01  0.3834E-01  0.3834E-01  0.3834E-01  0.0000E+00  0.0000E+00  0.0000E+00  0.0000E+00  0.0000E+00
     10.077  0.5102E-01  0.3850E-01  0.3850E-01  0.3850E-01  0.0000E+00  0.0000E+00  0.0000E+00  0.0000E+00  0.0000E+00
     10.225  0.5108E-01  0.3954E-01  0.3954E-01  0.3954E-01  0.0000E+00  0.0000E+00  0.0000E+00  0.0000E+00  0.0000E+00
     10.374  0.4882E-01  0.3896E-01  0.3896E-01  0.3896E-01  0.0000E+00  0.0000E+00  0.0000E+00  0.0000E+00  0.0000E+00
     10.522  0.4854E-01  0.4001E-01  0.4001E-01  0.4001E-01  0.0000E+00  0.0000E+00  0.0000E+00  0.0000E+00  0.0000E+00
     10.671  0.4772E-01  0.4117E-01  0.4117E-01  0.4117E-01  0.0000E+00  0.0000E+00  0.0000E+00  0.0000E+00  0.0000E+00
     10.819  0.4710E-01  0.4168E-01  0.4168E-01  0.4168E-01  0.0000E+00  0.0000E+00  0.0000E+00  0.0000E+00  0.0000E+00
     10.968  0.4709E-01  0.4316E-01  0.4316E-01  0.4316E-01  0.0000E+00  0.0000E+00  0.0000E+00  0.0000E+00  0.0000E+00
     11.116  0.4694E-01  0.4355E-01  0.4355E-01  0.4355E-01  0.0000E+00  0.0000E+00  0.0000E+00  0.0000E+00  0.0000E+00
     11.265  0.4707E-01  0.4497E-01  0.4497E-01  0.4497E-01  0.0000E+00  0.0000E+00  0.0000E+00  0.0000E+00  0.0000E+00
     11.413  0.4502E-01  0.4502E-01  0.4502E-01  0.4502E-01  0.0000E+00  0.0000E+00  0.0000E+00  0.0000E+00  0.0000E+00
     11.562  0.4406E-01  0.4616E-01  0.4616E-01  0.4616E-01  0.0000E+00  0.0000E+00  0.0000E+00  0.0000E+00  0.0000E+00
     11.710  0.4318E-01  0.4681E-01  0.4681E-01  0.4681E-01  0.0000E+00  0.0000E+00  0.0000E+00  0.0000E+00  0.0000E+00
     11.858  0.4288E-01  0.4825E-01  0.4825E-01  0.4825E-01  0.0000E+00  0.0000E+00  0.0000E+00  0.0000E+00  0.0000E+00
     12.007  0.4194E-01  0.4958E-01  0.4958E-01  0.4958E-01  0.0000E+00  0.0000E+00  0.0000E+00  0.0000E+00  0.0000E+00
     12.155  0.4129E-01  0.5078E-01  0.5078E-01  0.5078E-01  0.0000E+00  0.0000E+00  0.0000E+00  0.0000E+00  0.0000E+00
     12.304  0.4048E-01  0.5213E-01  0.5213E-01  0.5213E-01  0.0000E+00  0.0000E+00  0.0000E+00  0.0000E+00  0.0000E+00
     12.452  0.3977E-01  0.5535E-01  0.5535E-01  0.5535E-01  0.0000E+00  0.0000E+00  0.0000E+00  0.0000E+00  0.0000E+00
     12.601  0.3819E-01  0.5712E-01  0.5712E-01  0.5712E-01  0.0000E+00  0.0000E+00  0.0000E+00  0.0000E+00  0.0000E+00
     12.749  0.3744E-01  0.6098E-01  0.6098E-01  0.6098E-01  0.0000E+00  0.0000E+00  0.0000E+00  0.0000E+00  0.0000E+00
     12.898  0.3631E-01  0.6429E-01  0.6429E-01  0.6429E-01  0.0000E+00  0.0000E+00  0.0000E+00  0.0000E+00  0.0000E+00
     13.046  0.3562E-01  0.6911E-01  0.6911E-01  0.6911E-01  0.0000E+00  0.0000E+00  0.0000E+00  0.0000E+00  0.0000E+00
     13.195  0.3395E-01  0.6665E-01  0.6665E-01  0.6665E-01  0.0000E+00  0.0000E+00  0.0000E+00  0.0000E+00  0.0000E+00
     13.343  0.3231E-01  0.6595E-01  0.6595E-01  0.6595E-01  0.0000E+00  0.0000E+00  0.0000E+00  0.0000E+00  0.0000E+00
     13.492  0.3090E-01  0.6392E-01  0.6392E-01  0.6392E-01  0.0000E+00  0.0000E+00  0.0000E+00  0.0000E+00  0.0000E+00
     13.640  0.2952E-01  0.6328E-01  0.6328E-01  0.6328E-01  0.0000E+00  0.0000E+00  0.0000E+00  0.0000E+00  0.0000E+00
     13.788  0.2846E-01  0.6270E-01  0.6270E-01  0.6270E-01  0.0000E+00  0.0000E+00  0.0000E+00  0.0000E+00  0.0000E+00
     13.937  0.2708E-01  0.6177E-01  0.6177E-01  0.6177E-01  0.0000E+00  0.0000E+00  0.0000E+00  0.0000E+00  0.0000E+00
     14.085  0.2555E-01  0.6054E-01  0.6054E-01  0.6054E-01  0.0000E+00  0.0000E+00  0.0000E+00  0.0000E+00  0.0000E+00
     14.234  0.2424E-01  0.5992E-01  0.5992E-01  0.5992E-01  0.0000E+00  0.0000E+00  0.0000E+00  0.0000E+00  0.0000E+00
     14.382  0.2310E-01  0.5915E-01  0.5915E-01  0.5915E-01  0.0000E+00  0.0000E+00  0.0000E+00  0.0000E+00  0.0000E+00
     14.531  0.2216E-01  0.5796E-01  0.5796E-01  0.5796E-01  0.0000E+00  0.0000E+00  0.0000E+00  0.0000E+00  0.0000E+00
     14.679  0.2122E-01  0.5732E-01  0.5732E-01  0.5732E-01  0.0000E+00  0.0000E+00  0.0000E+00  0.0000E+00  0.0000E+00
     14.828  0.2050E-01  0.5730E-01  0.5730E-01  0.5730E-01  0.0000E+00  0.0000E+00  0.0000E+00  0.0000E+00  0.0000E+00
     14.976  0.1965E-01  0.5672E-01  0.5672E-01  0.5672E-01  0.0000E+00  0.0000E+00  0.0000E+00  0.0000E+00  0.0000E+00
     15.125  0.1871E-01  0.5581E-01  0.5581E-01  0.5581E-01  0.0000E+00  0.0000E+00  0.0000E+00  0.0000E+00  0.0000E+00
     15.273  0.1803E-01  0.5520E-01  0.5520E-01  0.5520E-01  0.0000E+00  0.0000E+00  0.0000E+00  0.0000E+00  0.0000E+00
     15.422  0.1731E-01  0.5452E-01  0.5452E-01  0.5452E-01  0.0000E+00  0.0000E+00  0.0000E+00  0.0000E+00  0.0000E+00
     15.570  0.1714E-01  0.5405E-01  0.5405E-01  0.5405E-01  0.0000E+00  0.0000E+00  0.0000E+00  0.0000E+00  0.0000E+00
     15.719  0.1727E-01  0.5395E-01  0.5395E-01  0.5395E-01  0.0000E+00  0.0000E+00  0.0000E+00  0.0000E+00  0.0000E+00
     15.867  0.1765E-01  0.5314E-01  0.5314E-01  0.5314E-01  0.0000E+00  0.0000E+00  0.0000E+00  0.0000E+00  0.0000E+00
     16.015  0.1835E-01  0.5245E-01  0.5245E-01  0.5245E-01  0.0000E+00  0.0000E+00  0.0000E+00  0.0000E+00  0.0000E+00
     16.164  0.1893E-01  0.5196E-01  0.5196E-01  0.5196E-01  0.0000E+00  0.0000E+00  0.0000E+00  0.0000E+00  0.0000E+00
     16.312  0.1941E-01  0.5155E-01  0.5155E-01  0.5155E-01  0.0000E+00  0.0000E+00  0.0000E+00  0.0000E+00  0.0000E+00
     16.461  0.1965E-01  0.5122E-01  0.5122E-01  0.5122E-01  0.0000E+00  0.0000E+00  0.0000E+00  0.0000E+00  0.0000E+00
     16.609  0.2020E-01  0.5084E-01  0.5084E-01  0.5084E-01  0.0000E+00  0.0000E+00  0.0000E+00  0.0000E+00  0.0000E+00
     16.758  0.2195E-01  0.5061E-01  0.5061E-01  0.5061E-01  0.0000E+00  0.0000E+00  0.0000E+00  0.0000E+00  0.0000E+00