    1    1    1    1
  0.1482975E+02  0.2757716E-09  0.2757716E-09  0.2757716E-09  0.5000000E-15
  1.000000000000000E-004
  CAR 
 fcc Si                                  
      4    286      8
 
  0.0000000E+00  0.0000000E+00  0.0000000E+00  0.1079797E-03
      1         -4.378379   1.000000
      2         20.694659   0.000000
      3         20.694840   0.000000
      4         20.694840   0.000000
      5         21.770990   0.000000
      6         21.771106   0.000000
      7         21.771106   0.000000
      8         26.977698   0.000000
 
  0.4761905E-01 -0.1063710E-17  0.2405737E-17  0.8638376E-03
      1         -4.313161   1.000000
      2         19.449076   0.000000
      3         20.342042   0.000000
      4         20.342210   0.000000
      5         22.239051   0.000000
      6         22.239164   0.000000
      7         22.469140   0.000000
      8         27.536075   0.000000
 
  0.9523810E-01 -0.3168253E-17  0.3770641E-17  0.8638376E-03
      1         -4.118395   1.000000
      2         17.543739   0.000000
      3         19.794378   0.000000
      4         19.794546   0.000000
      5         22.877280   0.000000
      6         22.999484   0.000000
      7         22.999688   0.000000
      8         27.544655   0.000000
 
  0.1428571E+00  0.1658472E-16  0.2706931E-17  0.8638376E-03
      1         -3.794236   1.000000
      2         15.542041   0.000000
      3         19.298467   0.000000
      4         19.298637   0.000000
      5         22.947989   0.000000
      6         23.697893   0.000000
      7         23.698331   0.000000
      8         26.867344   0.000000
 
  0.1904762E+00 -0.6336506E-17  0.7541281E-17  0.8638376E-03
      1         -3.341424   1.000000
      2         13.547912   0.000000
      3         18.891264   0.000000
      4         18.891437   0.000000
      5         22.883362   0.000000
      6         23.883065   0.000000
      7         23.883773   0.000000
      8         26.817098   0.000000
 
  0.2380952E+00  0.6824517E-17  0.6824517E-17  0.8638376E-03
      1         -2.760866   1.000000
      2         11.616308  -0.002817
      3         18.579986   0.000000
      4         18.580161   0.000000
      5         22.801295   0.000000
      6         23.393527   0.000000
      7         23.394254   0.000000
      8         27.586484   0.000000
 
  0.2857143E+00 -0.2218921E-17 -0.2218921E-17  0.8638376E-03
      1         -2.053851   1.000000
      2          9.767617   0.577466
      3         18.363391   0.000000
      4         18.363563   0.000000
      5         22.689180   0.000000
      6         22.689842   0.000000
      7         22.749273   0.000000
      8         27.798288   0.000000
 
  0.3333333E+00  0.1094210E-16  0.1094210E-16  0.8638376E-03
      1         -1.221274   1.000000
      2          8.015181   1.000000
      3         18.238336   0.000000
      4         18.238488   0.000000
      5         22.002784   0.000000
      6         22.003347   0.000000
      7         22.770601   0.000000
      8         27.008513   0.000000
 
  0.3809524E+00 -0.1267301E-16  0.1508256E-16  0.8638376E-03
      1         -0.266937   1.000000
      2          6.365604   1.000000
      3         18.182326   0.000000
      4         18.182467   0.000000
      5         21.420990   0.000000
      6         21.421549   0.000000
      7         22.831316   0.000000
      8         26.340019   0.000000
 
  0.4285714E+00  0.1181900E-17  0.1181900E-17  0.8638376E-03
      1          0.801394   1.000000
      2          4.830877   1.000000
      3         18.176147   0.000000
      4         18.176273   0.000000
      5         20.993567   0.000000
      6         20.994132   0.000000
      7         22.906424   0.000000
      8         25.837844   0.000000
 
  0.4761905E+00  0.6016250E-17  0.6016250E-17  0.8638376E-03
      1          1.941612   1.000000
      2          3.457458   1.000000
      3         18.187199   0.000000
      4         18.187316   0.000000
      5         20.764004   0.000000
      6         20.764574   0.000000
      7         22.970557   0.000000
      8         25.560488   0.000000
 
  0.4761905E-01  0.4761905E-01  0.5342329E-17  0.6478782E-03
      1         -4.291422   1.000000
      2         19.690140   0.000000
      3         19.690258   0.000000
      4         20.485955   0.000000
      5         21.292820   0.000000
      6         22.933079   0.000000
      7         22.933093   0.000000
      8         27.682840   0.000000
 
  0.9523810E-01  0.4761905E-01  0.1538376E-17  0.2591513E-02
      1         -4.139990   1.000000
      2         18.200302   0.000000
      3         19.068825   0.000000
      4         20.262709   0.000000
      5         21.438677   0.000000
      6         23.535613   0.000000
      7         23.729556   0.000000
      8         26.680780   0.000000
 
  0.1428571E+00  0.4761905E-01  0.1764843E-16  0.2591513E-02
      1         -3.858938   1.000000
      2         16.248216   0.000000
      3         18.533671   0.000000
      4         19.808814   0.000000
      5         22.102126   0.000000
      6         23.794219   0.000000
      7         24.493499   0.000000
      8         25.764464   0.000000
 
  0.1904762E+00  0.4761905E-01  0.8951936E-17  0.2591513E-02
      1         -3.449058   1.000000
      2         14.251633   0.000000
      3         18.098243   0.000000
      4         19.373356   0.000000
      5         22.503264   0.000000
      6         23.771141   0.000000
      7         24.882670   0.000000
      8         25.361389   0.000000
 
  0.2380952E+00  0.4761905E-01  0.3529686E-16  0.2591513E-02
      1         -2.911078   1.000000
      2         12.302848   0.000000
      3         17.767572   0.000000
      4         19.004714   0.000000
      5         22.320554   0.000000
      6         23.525302   0.000000
      7         24.568859   0.000000
      8         25.936233   0.000000
 
  0.2857143E+00  0.4761905E-01  0.2660036E-16  0.2591513E-02
      1         -2.246248   1.000000
      2         10.426042   0.111577
      3         17.541529   0.000000
      4         18.701579   0.000000
      5         21.727543   0.000000
      6         23.375908   0.000000
      7         23.879116   0.000000
      8         26.986988   0.000000
 
  0.3333333E+00  0.4761905E-01 -0.2218921E-17  0.2591513E-02
      1         -1.455789   1.000000
      2          8.640633   1.059622
      3         17.422056   0.000000
      4         18.445799   0.000000
      5         21.115191   0.000000
      6         23.143392   0.000000
      7         23.330233   0.000000
      8         27.587707   0.000000
 
  0.3809524E+00  0.4761905E-01  0.2615429E-17  0.2591513E-02
      1         -0.541519   1.000000
      2          6.956770   1.000000
      3         17.403409   0.000000
      4         18.205691   0.000000
      5         20.653216   0.000000
      6         22.457396   0.000000
      7         23.355421   0.000000
      8         27.050490   0.000000
 
  0.4285714E+00  0.4761905E-01  0.1508256E-16  0.2591513E-02
      1          0.489951   1.000000
      2          5.382810   1.000000
      3         17.481345   0.000000
      4         17.947217   0.000000
      5         20.407171   0.000000
      6         21.884383   0.000000
      7         23.396880   0.000000
      8         26.543937   0.000000
 
  0.4761905E+00  0.4761905E-01  0.1991691E-16  0.2591513E-02
      1          1.620067   1.000000
      2          3.941886   1.000000
      3         17.645952   0.000000
      4         17.666667   0.000000
      5         20.385238   0.000000
      6         21.435463   0.000000
      7         23.426449   0.000000
      8         26.230251   0.000000
 
 -0.4761905E+00  0.4761905E-01  0.1065997E-16  0.2591513E-02
      1          2.311186   1.000000
      2          3.173136   1.000000
      3         17.400562   0.000000
      4         17.883726   0.000000
      5         20.589607   0.000000
      6         21.145826   0.000000
      7         23.415265   0.000000
      8         26.168477   0.000000
 
 -0.4285714E+00  0.4761905E-01 -0.1364903E-16  0.2591513E-02
      1          1.235912   1.000000
      2          4.403687   1.000000
      3         17.183632   0.000000
      4         18.161266   0.000000
      5         20.950935   0.000000
      6         21.009519   0.000000
      7         23.342326   0.000000
      8         26.367437   0.000000
 
 -0.3809524E+00  0.4761905E-01 -0.4880101E-18  0.2591513E-02
      1          0.133634   1.000000
      2          5.894431   1.000000
      3         17.045607   0.000000
      4         18.453009   0.000000
      5         21.086084   0.000000
      6         21.465504   0.000000
      7         23.257765   0.000000
      8         26.786977   0.000000
 
 -0.3333333E+00  0.4761905E-01  0.3652451E-17  0.2591513E-02
      1         -0.859921   1.000000
      2          7.506103   1.000000
      3         16.995114   0.000000
      4         18.733577   0.000000
      5         21.386622   0.000000
      6         22.104846   0.000000
      7         23.179805   0.000000
      8         27.369558   0.000000
 
 -0.2857143E+00  0.4761905E-01 -0.1094210E-16  0.2591513E-02
      1         -1.732970   1.000000
      2          9.224998   0.947578
      3         17.043132   0.000000
      4         19.007577   0.000000
      5         21.882609   0.000000
      6         22.830616   0.000000
      7         23.148649   0.000000
      8         28.003204   0.000000
 
 -0.2380952E+00  0.4761905E-01 -0.5413862E-17  0.2591513E-02
      1         -2.481890   1.000000
      2         11.041697  -0.061320
      3         17.196448   0.000000
      4         19.303398   0.000000
      5         22.508298   0.000000
      6         23.162718   0.000000
      7         23.623963   0.000000
      8         26.974150   0.000000
 
 -0.1904762E+00  0.4761905E-01 -0.6824517E-17  0.2591513E-02
      1         -3.104572   1.000000
      2         12.944568   0.000000
      3         17.455867   0.000000
      4         19.645386   0.000000
      5         23.079264   0.000000
      6         23.205919   0.000000
      7         24.330474   0.000000
      8         26.007411   0.000000
 
 -0.1428571E+00  0.4761905E-01 -0.1990166E-17  0.2591513E-02
      1         -3.599968   1.000000
      2         14.913008   0.000000
      3         17.820230   0.000000
      4         20.046083   0.000000
      5         23.090342   0.000000
      6         23.218300   0.000000
      7         24.568527   0.000000
      8         25.840558   0.000000
 
 -0.9523810E-01  0.4761905E-01 -0.2706931E-17  0.2591513E-02
      1         -3.966975   1.000000
      2         16.911777   0.000000
      3         18.287256   0.000000
      4         20.480353   0.000000
      5         22.492824   0.000000
      6         23.100564   0.000000
      7         24.115426   0.000000
      8         26.494741   0.000000
 
 -0.4761905E-01  0.4761905E-01  0.2127419E-17  0.1295756E-02
      1         -4.204891   1.000000
      2         18.800846   0.000000
      3         18.878983   0.000000
      4         20.740388   0.000000
      5         21.964751   0.000000
      6         22.746012   0.000000
      7         23.363880   0.000000
      8         27.431985   0.000000
 
  0.9523810E-01  0.9523810E-01 -0.1111462E-17  0.6478782E-03
      1         -4.031790   1.000000
      2         18.404589   0.000000
      3         18.404694   0.000000
      4         19.904353   0.000000
      5         20.203933   0.000000
      6         24.542175   0.000000
      7         24.542194   0.000000
      8         25.515757   0.000000
 
  0.1428571E+00  0.9523810E-01  0.2405737E-17  0.2591513E-02
      1         -3.794087   1.000000
      2         16.968504   0.000000
      3         17.832191   0.000000
      4         19.527040   0.000000
      5         20.374062   0.000000
      6         24.395949   0.000000
      7         25.127485   0.000000
      8         25.355402   0.000000
 
  0.1904762E+00  0.9523810E-01  0.3944113E-17  0.2591513E-02
      1         -3.427447   1.000000
      2         15.035677   0.000000
      3         17.360942   0.000000
      4         19.052335   0.000000
      5         20.962306   0.000000
      6         23.556231   0.000000
      7         25.323446   0.000000
      8         25.916715   0.000000
 
  0.2380952E+00  0.9523810E-01  0.3053876E-17  0.2591513E-02
      1         -2.932383   1.000000
      2         13.088172   0.000000
      3         16.999152   0.000000
      4         18.616207   0.000000
      5         20.991465   0.000000
      6         23.550332   0.000000
      7         25.472855   0.000000
      8         25.829651   0.000000
 
  0.2857143E+00  0.9523810E-01  0.8582115E-17  0.2591513E-02
      1         -2.310162   1.000000
      2         11.193516  -0.045534
      3         16.746212   0.000000
      4         18.200943   0.000000
      5         20.470957   0.000000
      6         24.078807   0.000000
      7         25.226425   0.000000
      8         25.834499   0.000000
 
  0.3333333E+00  0.9523810E-01  0.6824517E-17  0.2591513E-02
      1         -1.561764   1.000000
      2          9.381931   0.852433
      3         16.603093   0.000000
      4         17.775245   0.000000
      5         19.959577   0.000000
      6         24.428924   0.000000
      7         24.505076   0.000000
      8         26.711558   0.000000
 
  0.3809524E+00  0.9523810E-01 -0.5703618E-16  0.2591513E-02
      1         -0.689073   1.000000
      2          7.666565   1.000000
      3         16.568299   0.000000
      4         17.311999   0.000000
      5         19.632442   0.000000
      6         23.798358   0.000000
      7         24.562025   0.000000
      8         27.823290   0.000000
 
  0.4285714E+00  0.9523810E-01  0.1094210E-16  0.2591513E-02
      1          0.303389   1.000000
      2          6.057133   1.000000
      3         16.640559   0.000000
      4         16.828832   0.000000
      5         19.535073   0.000000
      6         23.176449   0.000000
      7         24.604917   0.000000
      8         27.973951   0.000000
 
  0.4761905E+00  0.9523810E-01  0.1508256E-16  0.2591513E-02
      1          1.405227   1.000000
      2          4.567770   1.000000
      3         16.366073   0.000000
      4         16.812762   0.000000
      5         19.624182   0.000000
      6         22.626182   0.000000
      7         24.574927   0.000000
      8         27.739408   0.000000
 
 -0.4761905E+00  0.9523810E-01  0.5825621E-17  0.2591513E-02
      1          2.481291   1.000000
      2          3.336309   1.000000
      3         15.965073   0.000000
      4         17.088733   0.000000
      5         19.884582   0.000000
      6         22.215686   0.000000
      7         24.489788   0.000000
      8         27.692693   0.000000
 
 -0.4285714E+00  0.9523810E-01  0.1065997E-16  0.2591513E-02
      1          1.788928   1.000000
      2          4.106189   1.000000
      3         15.649327   0.000000
      4         17.456659   0.000000
      5         20.294061   0.000000
      6         21.934409   0.000000
      7         24.364424   0.000000
      8         27.874395   0.000000
 
 -0.3809524E+00  0.9523810E-01 -0.6016250E-17  0.2591513E-02
      1          0.659627   1.000000
      2          5.545814   1.000000
      3         15.430479   0.000000
      4         17.907788   0.000000
      5         20.836006   0.000000
      6         21.801725   0.000000
      7         24.231391   0.000000
      8         28.223590   0.000000
 
 -0.3333333E+00  0.9523810E-01 -0.1181900E-17  0.2591513E-02
      1         -0.371366   1.000000
      2          7.117351   1.000000
      3         15.316518   0.000000
      4         18.414090   0.000000
      5         21.479651   0.000000
      6         21.811146   0.000000
      7         24.115188   0.000000
      8         28.669165   0.000000
 
 -0.2857143E+00  0.9523810E-01 -0.7059371E-16  0.2591513E-02
      1         -1.284605   1.000000
      2          8.797763   1.072765
      3         15.310159   0.000000
      4         18.951412   0.000000
      5         21.991055   0.000000
      6         22.227409   0.000000
      7         24.024505   0.000000
      8         27.849798   0.000000
 
 -0.2380952E+00  0.9523810E-01 -0.1094210E-16  0.2591513E-02
      1         -2.074809   1.000000
      2         10.578059   0.025238
      3         15.417487   0.000000
      4         19.493951   0.000000
      5         22.343651   0.000000
      6         23.073293   0.000000
      7         23.971111   0.000000
      8         26.482048   0.000000
 
 -0.1904762E+00  0.9523810E-01  0.2912810E-17  0.2591513E-02
      1         -2.739148   1.000000
      2         12.444394   0.000000
      3         15.642040   0.000000
      4         20.009818   0.000000
      5         22.777911   0.000000
      6         23.879777   0.000000
      7         23.971712   0.000000
      8         25.355673   0.000000
 
 -0.1428571E+00  0.9523810E-01 -0.6824517E-17  0.2591513E-02
      1         -3.276676   1.000000
      2         14.371869   0.000000
      3         15.980080   0.000000
      4         20.474449   0.000000
      5         22.892057   0.000000
      6         23.796540   0.000000
      7         24.627381   0.000000
      8         24.937638   0.000000
 
 -0.9523810E-01  0.9523810E-01  0.6336506E-17  0.1295756E-02
      1         -3.686262   1.000000
      2         16.205002   0.000000
      3         16.556168   0.000000
      4         20.754897   0.000000
      5         22.467183   0.000000
      6         23.518646   0.000000
      7         24.706932   0.000000
      8         25.520957   0.000000
 
  0.1428571E+00  0.1428571E+00  0.1099629E-16  0.6478782E-03
      1         -3.599823   1.000000
      2         17.221845   0.000000
      3         17.221943   0.000000
      4         19.019205   0.000000
      5         19.022717   0.000000
      6         23.089290   0.000000
      7         26.233437   0.000000
      8         26.233477   0.000000
 
  0.1904762E+00  0.1428571E+00  0.4574142E-17  0.2591513E-02
      1         -3.276442   1.000000
      2         15.839739   0.000000
      3         16.716480   0.000000
      4         18.480201   0.000000
      5         19.229419   0.000000
      6         22.104482   0.000000
      7         26.829386   0.000000
      8         26.973079   0.000000
 
  0.2380952E+00  0.1428571E+00  0.1747496E-16  0.2591513E-02
      1         -2.824678   1.000000
      2         13.954460   0.000000
      3         16.319281   0.000000
      4         17.932548   0.000000
      5         19.536242   0.000000
      6         21.822104   0.000000
      7         27.051197   0.000000
      8         27.147048   0.000000
 
  0.2857143E+00  0.1428571E+00  0.3601362E-16  0.2591513E-02
      1         -2.245470   1.000000
      2         12.063403   0.000000
      3         16.032010   0.000000
      4         17.354152   0.000000
      5         19.250673   0.000000
      6         22.514625   0.000000
      7         26.678332   0.000000
      8         27.114859   0.000000
 
  0.3333333E+00  0.1428571E+00  0.7194337E-17  0.2591513E-02
      1         -1.539669   1.000000
      2         10.233298   0.234709
      3         15.856666   0.000000
      4         16.722979   0.000000
      5         18.889211   0.000000
      6         23.624744   0.000000
      7         25.985584   0.000000
      8         27.224867   0.000000
 
  0.3809524E+00  0.1428571E+00 -0.1503300E-16  0.2591513E-02
      1         -0.709031   1.000000
      2          8.491418   1.035578
      3         15.788053   0.000000
      4         16.064084   0.000000
      5         18.676507   0.000000
      6         24.714100   0.000000
      7         25.275737   0.000000
      8         27.506686   0.000000
 
  0.4285714E+00  0.1428571E+00  0.5259834E-16  0.2591513E-02
      1          0.242278   1.000000
      2          6.849764   1.000000
      3         15.428680   0.000000
      4         15.833841   0.000000
      5         18.639899   0.000000
      6         24.616995   0.000000
      7         25.465231   0.000000
      8         28.174418   0.000000
 
  0.4761905E+00  0.1428571E+00  0.3309319E-17  0.2591513E-02
      1          1.309307   1.000000
      2          5.321344   1.000000
      3         14.858877   0.000000
      4         15.989348   0.000000
      5         18.766875   0.000000
      6         24.055934   0.000000
      7         25.751908   0.000000
      8         29.319918   0.000000
 
 -0.4761905E+00  0.1428571E+00  0.1903239E-16  0.2591513E-02
      1          2.449034   1.000000
      2          3.949663   1.000000
      3         14.375760   0.000000
      4         16.252061   0.000000
      5         19.037069   0.000000
      6         23.597254   0.000000
      7         25.738823   0.000000
      8         29.675074   0.000000
 
 -0.4285714E+00  0.1428571E+00 -0.3164441E-16  0.2591513E-02
      1          2.448561   1.000000
      2          3.949386   1.000000
      3         13.991851   0.000000
      4         16.617185   0.000000
      5         19.434496   0.000000
      6         23.227785   0.000000
      7         25.597968   0.000000
      8         29.817425   0.000000
 
 -0.3809524E+00  0.1428571E+00  0.9272192E-17  0.2591513E-02
      1          1.308822   1.000000
      2          5.320557   1.000000
      3         13.716030   0.000000
      4         17.082428   0.000000
      5         19.955498   0.000000
      6         22.996875   0.000000
      7         25.428209   0.000000
      8         30.069464   0.000000
 
 -0.3333333E+00  0.1428571E+00 -0.1364903E-16  0.2591513E-02
      1          0.242423   1.000000
      2          6.848200   1.000000
      3         13.552623   0.000000
      4         17.638288   0.000000
      5         20.589845   0.000000
      6         22.891701   0.000000
      7         25.260059   0.000000
      8         29.150660   0.000000
 
 -0.2857143E+00  0.1428571E+00 -0.1181900E-17  0.2591513E-02
      1         -0.709665   1.000000
      2          8.486877   1.034036
      3         13.504043   0.000000
      4         18.270735   0.000000
      5         21.331762   0.000000
      6         22.919894   0.000000
      7         25.097554   0.000000
      8         27.574827   0.000000
 
 -0.2380952E+00  0.1428571E+00  0.3652451E-17  0.2591513E-02
      1         -1.540045   1.000000
      2         10.223746   0.244085
      3         13.574691   0.000000
      4         18.959297   0.000000
      5         22.183261   0.000000
      6         23.097626   0.000000
      7         24.932795   0.000000
      8         26.101097   0.000000
 
 -0.1904762E+00  0.1428571E+00 -0.1094210E-16  0.2591513E-02
      1         -2.245805   1.000000
      2         12.032949   0.000000
      3         13.777743   0.000000
      4         19.655904   0.000000
      5         23.093277   0.000000
      6         23.370071   0.000000
      7         24.711556   0.000000
      8         24.864072   0.000000
 
 -0.1428571E+00  0.1428571E+00 -0.6107752E-17  0.1295756E-02
      1         -2.825011   1.000000
      2         13.711449   0.000000
      3         14.294869   0.000000
      4         20.252864   0.000000
      5         23.300252   0.000000
      6         23.977197   0.000000
      7         24.340592   0.000000
      8         24.352614   0.000000
 
  0.1904762E+00  0.1904762E+00 -0.2222924E-17  0.6478782E-03
      1         -2.996495   1.000000
      2         16.174590   0.000000
      3         16.174682   0.000000
      4         17.803970   0.000000
      5         17.905156   0.000000
      6         20.945855   0.000000
      7         27.948009   0.000000
      8         27.948058   0.000000
 
  0.2380952E+00  0.1904762E+00  0.1272734E-16  0.2591513E-02
      1         -2.588172   1.000000
      2         14.835718   0.000000
      3         15.740901   0.000000
      4         17.107139   0.000000
      5         18.035424   0.000000
      6         20.321697   0.000000
      7         28.466643   0.000000
      8         28.544271   0.000000
 
  0.2857143E+00  0.1904762E+00  0.1782190E-16  0.2591513E-02
      1         -2.051866   1.000000
      2         13.011745   0.000000
      3         15.418320   0.000000
      4         16.331908   0.000000
      5         18.153209   0.000000
      6         20.653600   0.000000
      7         28.194393   0.000000
      8         28.797027   0.000000
 
  0.3333333E+00  0.1904762E+00  0.2706931E-17  0.2591513E-02
      1         -1.389552   1.000000
      2         11.184772  -0.053283
      3         15.203107   0.000000
      4         15.516703   0.000000
      5         17.973543   0.000000
      6         21.697548   0.000000
      7         27.564017   0.000000
      8         28.852130   0.000000
 
  0.3809524E+00  0.1904762E+00  0.7888226E-17  0.2591513E-02
      1         -0.601879   1.000000
      2          9.425429   0.837407
      3         14.719000   0.000000
      4         15.104388   0.000000
      5         17.846476   0.000000
      6         23.017363   0.000000
      7         26.866099   0.000000
      8         28.852971   0.000000
 
  0.4285714E+00  0.1904762E+00  0.7171461E-17  0.2591513E-02
      1          0.308207   1.000000
      2          7.757931   1.000000
      3         13.984777   0.000000
      4         15.117320   0.000000
      5         17.838506   0.000000
      6         24.401130   0.000000
      7         26.202416   0.000000
      8         28.794750   0.000000
 
  0.4761905E+00  0.1904762E+00 -0.2997450E-16  0.2591513E-02
      1          1.336178   1.000000
      2          6.195563   1.000000
      3         13.335896   0.000000
      4         15.241605   0.000000
      5         17.956548   0.000000
      6         25.603700   0.000000
      7         25.694214   0.000000
      8         28.866064   0.000000
 
 -0.4761905E+00  0.1904762E+00  0.1558582E-16  0.2591513E-02
      1          2.463474   1.000000
      2          4.761102   1.000000
      3         12.788443   0.000000
      4         15.476309   0.000000
      5         18.207822   0.000000
      6         25.109472   0.000000
      7         26.557086   0.000000
      8         29.333581   0.000000
 
 -0.4285714E+00  0.1904762E+00  0.1903239E-16  0.2591513E-02
      1          3.160003   1.000000
      2          3.986614   1.000000
      3         12.349172   0.000000
      4         15.819386   0.000000
      5         18.583858   0.000000
      6         24.716104   0.000000
      7         26.782172   0.000000
      8         30.269605   0.000000
 
 -0.3809524E+00  0.1904762E+00  0.5825621E-17  0.2591513E-02
      1          2.079081   1.000000
      2          5.219906   1.000000
      3         12.024176   0.000000
      4         16.268152   0.000000
      5         19.081654   0.000000
      6         24.433870   0.000000
      7         26.692344   0.000000
      8         30.710396   0.000000
 
 -0.3333333E+00  0.1904762E+00  0.1065997E-16  0.2591513E-02
      1          0.979916   1.000000
      2          6.698500   1.000000
      3         11.817304   0.000000
      4         16.816385   0.000000
      5         19.693277   0.000000
      6         24.247468   0.000000
      7         26.488863   0.000000
      8         29.023081   0.000000
 
 -0.2857143E+00  0.1904762E+00 -0.6016250E-17  0.2591513E-02
      1         -0.009523   1.000000
      2          8.289472   1.001125
      3         11.733525   0.000000
      4         17.458347   0.000000
      5         20.419755   0.000000
      6         24.201892   0.000000
      7         26.227928   0.000000
      8         27.396855   0.000000
 
 -0.2380952E+00  0.1904762E+00 -0.1181900E-17  0.2591513E-02
      1         -0.878905   1.000000
      2          9.959284   0.473097
      3         11.790951   0.000000
      4         18.176315   0.000000
      5         21.241810   0.000000
      6         24.281038   0.000000
      7         25.862280   0.000000
      8         25.888827   0.000000
 
 -0.1904762E+00  0.1904762E+00  0.1267301E-16  0.1295756E-02
      1         -1.625175   1.000000
      2         11.479088   0.000000
      3         12.206875   0.000000
      4         18.938697   0.000000
      5         22.141419   0.000000
      6         24.500163   0.000000
      7         24.511118   0.000000
      8         25.398381   0.000000
 
  0.2380952E+00  0.2380952E+00  0.2341567E-16  0.6478782E-03
      1         -2.223349   1.000000
      2         15.270299   0.000000
      3         15.270386   0.000000
      4         16.106191   0.000000
      5         16.918105   0.000000
      6         19.357852   0.000000
      7         29.628234   0.000000
      8         29.628315   0.000000
 
  0.2857143E+00  0.2380952E+00  0.3571243E-16  0.2591513E-02
      1         -1.730281   1.000000
      2         13.964529   0.000000
      3         14.907437   0.000000
      4         15.221465   0.000000
      5         17.038628   0.000000
      6         19.135905   0.000000
      7         29.727632   0.000000
      8         30.226194   0.000000
 
  0.3333333E+00  0.2380952E+00  0.2458732E-16  0.2591513E-02
      1         -1.111389   1.000000
      2         12.206911   0.000000
      3         14.288200   0.000000
      4         14.659643   0.000000
      5         17.166382   0.000000
      6         19.814494   0.000000
      7         29.195399   0.000000
      8         30.440667   0.000000
 
  0.3809524E+00  0.2380952E+00  0.8951936E-17  0.2591513E-02
      1         -0.366969   1.000000
      2         10.455325   0.085499
      3         13.393866   0.000000
      4         14.524588   0.000000
      5         17.124709   0.000000
      6         21.036840   0.000000
      7         28.541374   0.000000
      8         30.440064   0.000000
 