       N       E                     dE             d eps       ncg     rms          rms(c)
DAV:   1    -0.402684225956E+01   -0.40268E+01   -0.12070E+03  5176   0.213E+02
DAV:   2    -0.488355690754E+01   -0.85671E+00   -0.82925E+00  6880   0.168E+01
DAV:   3    -0.488655784064E+01   -0.30009E-02   -0.29692E-02  5160   0.920E-01
DAV:   4    -0.488655940316E+01   -0.15625E-05   -0.15449E-05  7432   0.193E-02
DAV:   5    -0.488655940391E+01   -0.75219E-09   -0.36502E-09  4800   0.145E-04    0.295E+00
DAV:   6    -0.487375866715E+01    0.12801E-01   -0.40430E-03  5120   0.275E-01    0.163E+00
DAV:   7    -0.486643011309E+01    0.73286E-02   -0.79753E-03  5328   0.386E-01    0.134E-01
DAV:   8    -0.486639537693E+01    0.34736E-04   -0.23650E-05  5424   0.361E-02
   1 F= -.48663954E+01 E0= -.48663954E+01  d E =0.000000E+00
