PROCAR lm decomposed
# of k-points:  286         # of bands:    8         # of ions:    1

 k-point     1 :    0.00000000 0.00000000 0.00000000     weight = 0.00010798

band     1 # energy   -4.37837935 # occ.  2.00000000
 
ion      s     py     pz     px    dxy    dyz    dz2    dxz  x2-y2    tot
    1  0.384  0.000  0.000  0.000  0.000  0.000  0.000  0.000  0.000  0.384
 
band     2 # energy   20.69465940 # occ.  0.00000000
 
ion      s     py     pz     px    dxy    dyz    dz2    dxz  x2-y2    tot
    1  0.000  0.226  0.225  0.225  0.000  0.000  0.000  0.000  0.000  0.677
 
band     3 # energy   20.69484009 # occ.  0.00000000
 
ion      s     py     pz     px    dxy    dyz    dz2    dxz  x2-y2    tot
    1  0.000  0.451  0.112  0.115  0.000  0.000  0.000  0.000  0.000  0.677
 
band     4 # energy   20.69484025 # occ.  0.00000000
 
ion      s     py     pz     px    dxy    dyz    dz2    dxz  x2-y2    tot
    1  0.000  0.000  0.340  0.337  0.000  0.000  0.000  0.000  0.000  0.677
 
band     5 # energy   21.77099046 # occ.  0.00000000
 
ion      s     py     pz     px    dxy    dyz    dz2    dxz  x2-y2    tot
    1  0.000  0.000  0.000  0.000  0.000  0.000  0.000  0.000  0.000  0.000
 
band     6 # energy   21.77110568 # occ.  0.00000000
 
ion      s     py     pz     px    dxy    dyz    dz2    dxz  x2-y2    tot
    1  0.000  0.000  0.000  0.000  0.000  0.000  0.000  0.000  0.000  0.000
 
band     7 # energy   21.77110605 # occ.  0.00000000
 
ion      s     py     pz     px    dxy    dyz    dz2    dxz  x2-y2    tot
    1  0.000  0.000  0.000  0.000  0.000  0.000  0.000  0.000  0.000  0.000
 
band     8 # energy   26.97769814 # occ.  0.00000000
 
ion      s     py     pz     px    dxy    dyz    dz2    dxz  x2-y2    tot
    1  0.000  0.000  0.000  0.000  0.000  0.000  0.000  0.000  0.000  0.000
 

 k-point     2 :    0.04761905-0.00000000 0.00000000     weight = 0.00086384

band     1 # energy   -4.31316148 # occ.  2.00000000
 
ion      s     py     pz     px    dxy    dyz    dz2    dxz  x2-y2    tot
    1  0.383  0.001  0.001  0.001  0.000  0.000  0.000  0.000  0.000  0.385
 
band     2 # energy   19.44907571 # occ.  0.00000000
 
ion      s     py     pz     px    dxy    dyz    dz2    dxz  x2-y2    tot
    1  0.009  0.144  0.144  0.144  0.000  0.000  0.000  0.000  0.000  0.442
 
band     3 # energy   20.34204209 # occ.  0.00000000
 
ion      s     py     pz     px    dxy    dyz    dz2    dxz  x2-y2    tot
    1  0.000  0.092  0.365  0.091  0.000  0.000  0.000  0.000  0.000  0.548
 
band     4 # energy   20.34221010 # occ.  0.00000000
 
ion      s     py     pz     px    dxy    dyz    dz2    dxz  x2-y2    tot
    1  0.000  0.274  0.000  0.274  0.000  0.000  0.000  0.000  0.000  0.548
 
band     5 # energy   22.23905062 # occ.  0.00000000
 
ion      s     py     pz     px    dxy    dyz    dz2    dxz  x2-y2    tot
    1  0.000  0.022  0.089  0.022  0.000  0.000  0.000  0.000  0.000  0.134
 
band     6 # energy   22.23916445 # occ.  0.00000000
 
ion      s     py     pz     px    dxy    dyz    dz2    dxz  x2-y2    tot
    1  0.000  0.067  0.000  0.067  0.000  0.000  0.000  0.000  0.000  0.134
 
band     7 # energy   22.46913998 # occ.  0.00000000
 
ion      s     py     pz     px    dxy    dyz    dz2    dxz  x2-y2    tot
    1  0.006  0.075  0.075  0.075  0.000  0.000  0.000  0.000  0.000  0.230
 
band     8 # energy   27.53607470 # occ.  0.00000000
 
ion      s     py     pz     px    dxy    dyz    dz2    dxz  x2-y2    tot
    1  0.000  0.001  0.001  0.001  0.000  0.000  0.000  0.000  0.000  0.002
 

 k-point     3 :    0.09523810-0.00000000 0.00000000     weight = 0.00086384

band     1 # energy   -4.11839481 # occ.  2.00000000
 
ion      s     py     pz     px    dxy    dyz    dz2    dxz  x2-y2    tot
    1  0.379  0.002  0.002  0.002  0.000  0.000  0.000  0.000  0.000  0.385
 
band     2 # energy   17.54373913 # occ.  0.00000000
 
ion      s     py     pz     px    dxy    dyz    dz2    dxz  x2-y2    tot
    1  0.024  0.119  0.119  0.119  0.000  0.000  0.000  0.000  0.000  0.381
 
band     3 # energy   19.79437772 # occ.  0.00000000
 
ion      s     py     pz     px    dxy    dyz    dz2    dxz  x2-y2    tot
    1  0.000  0.081  0.323  0.081  0.000  0.000  0.000  0.000  0.000  0.485
 
band     4 # energy   19.79454628 # occ.  0.00000000
 
ion      s     py     pz     px    dxy    dyz    dz2    dxz  x2-y2    tot
    1  0.000  0.242  0.000  0.243  0.000  0.000  0.000  0.000  0.000  0.485
 
band     5 # energy   22.87727986 # occ.  0.00000000
 
ion      s     py     pz     px    dxy    dyz    dz2    dxz  x2-y2    tot
    1  0.031  0.079  0.079  0.079  0.000  0.000  0.000  0.000  0.000  0.268
 
band     6 # energy   22.99948419 # occ.  0.00000000
 
ion      s     py     pz     px    dxy    dyz    dz2    dxz  x2-y2    tot
    1  0.000  0.034  0.137  0.034  0.000  0.000  0.000  0.000  0.000  0.205
 
band     7 # energy   22.99968781 # occ.  0.00000000
 
ion      s     py     pz     px    dxy    dyz    dz2    dxz  x2-y2    tot
    1  0.000  0.102  0.000  0.103  0.000  0.000  0.000  0.000  0.000  0.205
 
band     8 # energy   27.54465512 # occ.  0.00000000
 
ion      s     py     pz     px    dxy    dyz    dz2    dxz  x2-y2    tot
    1  0.000  0.002  0.001  0.001  0.000  0.000  0.000  0.000  0.000  0.004
 

 k-point     4 :    0.14285714 0.00000000 0.00000000     weight = 0.00086384

band     1 # energy   -3.79423617 # occ.  2.00000000
 
ion      s     py     pz     px    dxy    dyz    dz2    dxz  x2-y2    tot
    1  0.372  0.005  0.005  0.005  0.000  0.000  0.000  0.000  0.000  0.386
 
band     2 # energy   15.54204126 # occ.  0.00000000
 
ion      s     py     pz     px    dxy    dyz    dz2    dxz  x2-y2    tot
    1  0.042  0.107  0.107  0.107  0.000  0.000  0.000  0.000  0.000  0.364
 
band     3 # energy   19.29846653 # occ.  0.00000000
 
ion      s     py     pz     px    dxy    dyz    dz2    dxz  x2-y2    tot
    1  0.000  0.079  0.313  0.078  0.000  0.000  0.000  0.000  0.000  0.470
 
band     4 # energy   19.29863749 # occ.  0.00000000
 
ion      s     py     pz     px    dxy    dyz    dz2    dxz  x2-y2    tot
    1  0.000  0.235  0.000  0.235  0.000  0.000  0.000  0.000  0.000  0.470
 
band     5 # energy   22.94798939 # occ.  0.00000000
 
ion      s     py     pz     px    dxy    dyz    dz2    dxz  x2-y2    tot
    1  0.065  0.065  0.065  0.065  0.000  0.000  0.000  0.000  0.000  0.261
 
band     6 # energy   23.69789331 # occ.  0.00000000
 
ion      s     py     pz     px    dxy    dyz    dz2    dxz  x2-y2    tot
    1  0.000  0.038  0.153  0.038  0.000  0.000  0.000  0.000  0.000  0.230
 
band     7 # energy   23.69833059 # occ.  0.00000000
 
ion      s     py     pz     px    dxy    dyz    dz2    dxz  x2-y2    tot
    1  0.000  0.115  0.000  0.115  0.000  0.000  0.000  0.000  0.000  0.230
 
band     8 # energy   26.86734399 # occ.  0.00000000
 
ion      s     py     pz     px    dxy    dyz    dz2    dxz  x2-y2    tot
    1  0.000  0.000  0.000  0.000  0.000  0.000  0.000  0.000  0.000  0.000
 

 k-point     5 :    0.19047619-0.00000000 0.00000000     weight = 0.00086384

band     1 # energy   -3.34142411 # occ.  2.00000000
 
ion      s     py     pz     px    dxy    dyz    dz2    dxz  x2-y2    tot
    1  0.362  0.008  0.008  0.008  0.000  0.000  0.000  0.000  0.000  0.387
 
band     2 # energy   13.54791156 # occ.  0.00000000
 
ion      s     py     pz     px    dxy    dyz    dz2    dxz  x2-y2    tot
    1  0.062  0.099  0.099  0.099  0.000  0.000  0.000  0.000  0.000  0.358
 
band     3 # energy   18.89126351 # occ.  0.00000000
 
ion      s     py     pz     px    dxy    dyz    dz2    dxz  x2-y2    tot
    1  0.000  0.079  0.315  0.079  0.000  0.000  0.000  0.000  0.000  0.473
 
band     4 # energy   18.89143718 # occ.  0.00000000
 
ion      s     py     pz     px    dxy    dyz    dz2    dxz  x2-y2    tot
    1  0.000  0.236  0.000  0.237  0.000  0.000  0.000  0.000  0.000  0.473
 
band     5 # energy   22.88336229 # occ.  0.00000000
 
ion      s     py     pz     px    dxy    dyz    dz2    dxz  x2-y2    tot
    1  0.102  0.050  0.050  0.050  0.000  0.000  0.000  0.000  0.000  0.251
 
band     6 # energy   23.88306489 # occ.  0.00000000
 
ion      s     py     pz     px    dxy    dyz    dz2    dxz  x2-y2    tot
    1  0.000  0.034  0.136  0.034  0.000  0.000  0.000  0.000  0.000  0.204
 
band     7 # energy   23.88377320 # occ.  0.00000000
 
ion      s     py     pz     px    dxy    dyz    dz2    dxz  x2-y2    tot
    1  0.000  0.102  0.000  0.102  0.000  0.000  0.000  0.000  0.000  0.204
 
band     8 # energy   26.81709835 # occ.  0.00000000
 
ion      s     py     pz     px    dxy    dyz    dz2    dxz  x2-y2    tot
    1  0.000  0.006  0.008  0.011  0.000  0.000  0.000  0.000  0.000  0.025
 

 k-point     6 :    0.23809524 0.00000000 0.00000000     weight = 0.00086384

band     1 # energy   -2.76086637 # occ.  2.00000000
 
ion      s     py     pz     px    dxy    dyz    dz2    dxz  x2-y2    tot
    1  0.349  0.013  0.013  0.013  0.000  0.000  0.000  0.000  0.000  0.388
 
band     2 # energy   11.61630820 # occ. -0.00563402
 
ion      s     py     pz     px    dxy    dyz    dz2    dxz  x2-y2    tot
    1  0.081  0.093  0.093  0.093  0.000  0.000  0.000  0.000  0.000  0.359
 
band     3 # energy   18.57998619 # occ.  0.00000000
 
ion      s     py     pz     px    dxy    dyz    dz2    dxz  x2-y2    tot
    1  0.000  0.081  0.323  0.081  0.000  0.000  0.000  0.000  0.000  0.485
 
band     4 # energy   18.58016067 # occ.  0.00000000
 
ion      s     py     pz     px    dxy    dyz    dz2    dxz  x2-y2    tot
    1  0.000  0.242  0.000  0.243  0.000  0.000  0.000  0.000  0.000  0.485
 
band     5 # energy   22.80129461 # occ.  0.00000000
 
ion      s     py     pz     px    dxy    dyz    dz2    dxz  x2-y2    tot
    1  0.136  0.035  0.035  0.035  0.000  0.000  0.000  0.000  0.000  0.242
 
band     6 # energy   23.39352675 # occ.  0.00000000
 
ion      s     py     pz     px    dxy    dyz    dz2    dxz  x2-y2    tot
    1  0.000  0.025  0.100  0.025  0.000  0.000  0.000  0.000  0.000  0.150
 
band     7 # energy   23.39425371 # occ.  0.00000000
 
ion      s     py     pz     px    dxy    dyz    dz2    dxz  x2-y2    tot
    1  0.000  0.075  0.000  0.075  0.000  0.000  0.000  0.000  0.000  0.150
 
band     8 # energy   27.58648358 # occ.  0.00000000
 
ion      s     py     pz     px    dxy    dyz    dz2    dxz  x2-y2    tot
    1  0.000  0.014  0.034  0.018  0.000  0.000  0.000  0.000  0.000  0.065
 

 k-point     7 :    0.28571429-0.00000000-0.00000000     weight = 0.00086384

band     1 # energy   -2.05385148 # occ.  2.00000000
 
ion      s     py     pz     px    dxy    dyz    dz2    dxz  x2-y2    tot
    1  0.336  0.018  0.018  0.018  0.000  0.000  0.000  0.000  0.000  0.389
 
band     2 # energy    9.76761725 # occ.  1.15493228
 
ion      s     py     pz     px    dxy    dyz    dz2    dxz  x2-y2    tot
    1  0.102  0.087  0.087  0.087  0.000  0.000  0.000  0.000  0.000  0.363
 
band     3 # energy   18.36339110 # occ.  0.00000000
 
ion      s     py     pz     px    dxy    dyz    dz2    dxz  x2-y2    tot
    1  0.000  0.084  0.336  0.084  0.000  0.000  0.000  0.000  0.000  0.504
 
band     4 # energy   18.36356337 # occ.  0.00000000
 
ion      s     py     pz     px    dxy    dyz    dz2    dxz  x2-y2    tot
    1  0.000  0.252  0.000  0.252  0.000  0.000  0.000  0.000  0.000  0.504
 
band     5 # energy   22.68917953 # occ.  0.00000000
 
ion      s     py     pz     px    dxy    dyz    dz2    dxz  x2-y2    tot
    1  0.000  0.020  0.077  0.019  0.000  0.000  0.000  0.000  0.000  0.116
 
band     6 # energy   22.68984193 # occ.  0.00000000
 
ion      s     py     pz     px    dxy    dyz    dz2    dxz  x2-y2    tot
    1  0.000  0.058  0.000  0.058  0.000  0.000  0.000  0.000  0.000  0.116
 
band     7 # energy   22.74927261 # occ.  0.00000000
 
ion      s     py     pz     px    dxy    dyz    dz2    dxz  x2-y2    tot
    1  0.167  0.022  0.023  0.022  0.000  0.000  0.000  0.000  0.000  0.235
 
band     8 # energy   27.79828774 # occ.  0.00000000
 
ion      s     py     pz     px    dxy    dyz    dz2    dxz  x2-y2    tot
    1  0.012  0.029  0.029  0.029  0.000  0.000  0.000  0.000  0.000  0.100
 

 k-point     8 :    0.33333333 0.00000000 0.00000000     weight = 0.00086384

band     1 # energy   -1.22127427 # occ.  2.00000000
 
ion      s     py     pz     px    dxy    dyz    dz2    dxz  x2-y2    tot
    1  0.322  0.024  0.024  0.024  0.000  0.000  0.000  0.000  0.000  0.393
 
band     2 # energy    8.01518145 # occ.  2.00000000
 
ion      s     py     pz     px    dxy    dyz    dz2    dxz  x2-y2    tot
    1  0.122  0.081  0.081  0.081  0.000  0.000  0.000  0.000  0.000  0.366
 
band     3 # energy   18.23833603 # occ.  0.00000000
 
ion      s     py     pz     px    dxy    dyz    dz2    dxz  x2-y2    tot
    1  0.000  0.089  0.353  0.088  0.000  0.000  0.000  0.000  0.000  0.530
 
band     4 # energy   18.23848820 # occ.  0.00000000
 
ion      s     py     pz     px    dxy    dyz    dz2    dxz  x2-y2    tot
    1  0.000  0.265  0.000  0.265  0.000  0.000  0.000  0.000  0.000  0.530
 
band     5 # energy   22.00278395 # occ.  0.00000000
 
ion      s     py     pz     px    dxy    dyz    dz2    dxz  x2-y2    tot
    1  0.000  0.014  0.056  0.014  0.000  0.000  0.000  0.000  0.000  0.084
 
band     6 # energy   22.00334742 # occ.  0.00000000
 
ion      s     py     pz     px    dxy    dyz    dz2    dxz  x2-y2    tot
    1  0.000  0.042  0.000  0.042  0.000  0.000  0.000  0.000  0.000  0.084
 
band     7 # energy   22.77060069 # occ.  0.00000000
 
ion      s     py     pz     px    dxy    dyz    dz2    dxz  x2-y2    tot
    1  0.195  0.013  0.013  0.013  0.000  0.000  0.000  0.000  0.000  0.235
 
band     8 # energy   27.00851323 # occ.  0.00000000
 
ion      s     py     pz     px    dxy    dyz    dz2    dxz  x2-y2    tot
    1  0.017  0.022  0.022  0.022  0.000  0.000  0.000  0.000  0.000  0.082
 

 k-point     9 :    0.38095238-0.00000000 0.00000000     weight = 0.00086384

band     1 # energy   -0.26693714 # occ.  2.00000000
 
ion      s     py     pz     px    dxy    dyz    dz2    dxz  x2-y2    tot
    1  0.309  0.029  0.029  0.029  0.000  0.000  0.000  0.000  0.000  0.396
 
band     2 # energy    6.36560379 # occ.  2.00000000
 
ion      s     py     pz     px    dxy    dyz    dz2    dxz  x2-y2    tot
    1  0.140  0.076  0.076  0.076  0.000  0.000  0.000  0.000  0.000  0.369
 
band     3 # energy   18.18232616 # occ.  0.00000000
 
ion      s     py     pz     px    dxy    dyz    dz2    dxz  x2-y2    tot
    1  0.000  0.094  0.374  0.093  0.000  0.000  0.000  0.000  0.000  0.560
 
band     4 # energy   18.18246706 # occ.  0.00000000
 
ion      s     py     pz     px    dxy    dyz    dz2    dxz  x2-y2    tot
    1  0.000  0.280  0.000  0.281  0.000  0.000  0.000  0.000  0.000  0.561
 
band     5 # energy   21.42099010 # occ.  0.00000000
 
ion      s     py     pz     px    dxy    dyz    dz2    dxz  x2-y2    tot
    1  0.000  0.009  0.037  0.009  0.000  0.000  0.000  0.000  0.000  0.055
 
band     6 # energy   21.42154916 # occ.  0.00000000
 
ion      s     py     pz     px    dxy    dyz    dz2    dxz  x2-y2    tot
    1  0.000  0.028  0.000  0.028  0.000  0.000  0.000  0.000  0.000  0.055
 
band     7 # energy   22.83131599 # occ.  0.00000000
 
ion      s     py     pz     px    dxy    dyz    dz2    dxz  x2-y2    tot
    1  0.220  0.007  0.007  0.007  0.000  0.000  0.000  0.000  0.000  0.241
 
band     8 # energy   26.34001946 # occ.  0.00000000
 
ion      s     py     pz     px    dxy    dyz    dz2    dxz  x2-y2    tot
    1  0.017  0.015  0.015  0.015  0.000  0.000  0.000  0.000  0.000  0.063
 

 k-point    10 :    0.42857143 0.00000000 0.00000000     weight = 0.00086384

band     1 # energy    0.80139359 # occ.  2.00000000
 
ion      s     py     pz     px    dxy    dyz    dz2    dxz  x2-y2    tot
    1  0.303  0.032  0.032  0.032  0.000  0.000  0.000  0.000  0.000  0.400
 
band     2 # energy    4.83087742 # occ.  2.00000000
 
ion      s     py     pz     px    dxy    dyz    dz2    dxz  x2-y2    tot
    1  0.149  0.073  0.073  0.073  0.000  0.000  0.000  0.000  0.000  0.368
 
band     3 # energy   18.17614724 # occ.  0.00000000
 
ion      s     py     pz     px    dxy    dyz    dz2    dxz  x2-y2    tot
    1  0.000  0.099  0.395  0.099  0.000  0.000  0.000  0.000  0.000  0.593
 
band     4 # energy   18.17627284 # occ.  0.00000000
 
ion      s     py     pz     px    dxy    dyz    dz2    dxz  x2-y2    tot
    1  0.000  0.296  0.000  0.297  0.000  0.000  0.000  0.000  0.000  0.593
 
band     5 # energy   20.99356728 # occ.  0.00000000
 
ion      s     py     pz     px    dxy    dyz    dz2    dxz  x2-y2    tot
    1  0.000  0.004  0.017  0.004  0.000  0.000  0.000  0.000  0.000  0.025
 
band     6 # energy   20.99413190 # occ.  0.00000000
 
ion      s     py     pz     px    dxy    dyz    dz2    dxz  x2-y2    tot
    1  0.000  0.013  0.000  0.013  0.000  0.000  0.000  0.000  0.000  0.025
 
band     7 # energy   22.90642446 # occ.  0.00000000
 
ion      s     py     pz     px    dxy    dyz    dz2    dxz  x2-y2    tot
    1  0.245  0.002  0.002  0.002  0.000  0.000  0.000  0.000  0.000  0.252
 
band     8 # energy   25.83784407 # occ.  0.00000000
 
ion      s     py     pz     px    dxy    dyz    dz2    dxz  x2-y2    tot
    1  0.010  0.011  0.011  0.011  0.000  0.000  0.000  0.000  0.000  0.042
 

 k-point    11 :    0.47619048 0.00000000 0.00000000     weight = 0.00086384

band     1 # energy    1.94161224 # occ.  2.00000000
 
ion      s     py     pz     px    dxy    dyz    dz2    dxz  x2-y2    tot
    1  0.349  0.024  0.024  0.024  0.000  0.000  0.000  0.000  0.000  0.420
 
band     2 # energy    3.45745788 # occ.  2.00000000
 
ion      s     py     pz     px    dxy    dyz    dz2    dxz  x2-y2    tot
    1  0.105  0.082  0.082  0.082  0.000  0.000  0.000  0.000  0.000  0.351
 
band     3 # energy   18.18719906 # occ.  0.00000000
 
ion      s     py     pz     px    dxy    dyz    dz2    dxz  x2-y2    tot
    1  0.000  0.103  0.411  0.102  0.000  0.000  0.000  0.000  0.000  0.616
 
band     4 # energy   18.18731595 # occ.  0.00000000
 
ion      s     py     pz     px    dxy    dyz    dz2    dxz  x2-y2    tot
    1  0.000  0.308  0.000  0.308  0.000  0.000  0.000  0.000  0.000  0.616
 
band     5 # energy   20.76400396 # occ.  0.00000000
 
ion      s     py     pz     px    dxy    dyz    dz2    dxz  x2-y2    tot
    1  0.000  0.001  0.002  0.001  0.000  0.000  0.000  0.000  0.000  0.003
 
band     6 # energy   20.76457400 # occ.  0.00000000
 
ion      s     py     pz     px    dxy    dyz    dz2    dxz  x2-y2    tot
    1  0.000  0.002  0.000  0.002  0.000  0.000  0.000  0.000  0.000  0.003
 
band     7 # energy   22.97055690 # occ.  0.00000000
 
ion      s     py     pz     px    dxy    dyz    dz2    dxz  x2-y2    tot
    1  0.261  0.000  0.000  0.000  0.000  0.000  0.000  0.000  0.000  0.262
 
band     8 # energy   25.56048839 # occ.  0.00000000
 
ion      s     py     pz     px    dxy    dyz    dz2    dxz  x2-y2    tot
    1  0.001  0.008  0.008  0.008  0.000  0.000  0.000  0.000  0.000  0.027
 

 k-point    12 :    0.04761905 0.04761905 0.00000000     weight = 0.00064788

band     1 # energy   -4.29142217 # occ.  2.00000000
 
ion      s     py     pz     px    dxy    dyz    dz2    dxz  x2-y2    tot
    1  0.383  0.002  0.000  0.000  0.000  0.000  0.000  0.000  0.000  0.385
 
band     2 # energy   19.69013962 # occ.  0.00000000
 
ion      s     py     pz     px    dxy    dyz    dz2    dxz  x2-y2    tot
    1  0.000  0.000  0.234  0.234  0.000  0.000  0.000  0.000  0.000  0.467
 
band     3 # energy   19.69025797 # occ.  0.00000000
 
ion      s     py     pz     px    dxy    dyz    dz2    dxz  x2-y2    tot
    1  0.000  0.000  0.234  0.234  0.000  0.000  0.000  0.000  0.000  0.467
 
band     4 # energy   20.48595460 # occ.  0.00000000
 
ion      s     py     pz     px    dxy    dyz    dz2    dxz  x2-y2    tot
    1  0.020  0.659  0.000  0.000  0.000  0.000  0.000  0.000  0.000  0.678
 
band     5 # energy   21.29282046 # occ.  0.00000000
 
ion      s     py     pz     px    dxy    dyz    dz2    dxz  x2-y2    tot
    1  0.000  0.000  0.000  0.000  0.000  0.000  0.000  0.000  0.000  0.000
 
band     6 # energy   22.93307950 # occ.  0.00000000
 
ion      s     py     pz     px    dxy    dyz    dz2    dxz  x2-y2    tot
    1  0.000  0.000  0.107  0.107  0.000  0.000  0.000  0.000  0.000  0.214
 
band     7 # energy   22.93309262 # occ.  0.00000000
 
ion      s     py     pz     px    dxy    dyz    dz2    dxz  x2-y2    tot
    1  0.000  0.000  0.107  0.107  0.000  0.000  0.000  0.000  0.000  0.214
 
band     8 # energy   27.68284049 # occ.  0.00000000
 
ion      s     py     pz     px    dxy    dyz    dz2    dxz  x2-y2    tot
    1  0.000  0.001  0.000  0.000  0.000  0.000  0.000  0.000  0.000  0.001
 

 k-point    13 :    0.09523810 0.04761905 0.00000000     weight = 0.00259151

band     1 # energy   -4.13998962 # occ.  2.00000000
 
ion      s     py     pz     px    dxy    dyz    dz2    dxz  x2-y2    tot
    1  0.379  0.005  0.001  0.001  0.000  0.000  0.000  0.000  0.000  0.385
 
band     2 # energy   18.20030166 # occ.  0.00000000
 
ion      s     py     pz     px    dxy    dyz    dz2    dxz  x2-y2    tot
    1  0.015  0.074  0.154  0.154  0.000  0.000  0.000  0.000  0.000  0.397
 
band     3 # energy   19.06882492 # occ.  0.00000000
 
ion      s     py     pz     px    dxy    dyz    dz2    dxz  x2-y2    tot
    1  0.000  0.000  0.222  0.221  0.000  0.000  0.000  0.000  0.000  0.443
 
band     4 # energy   20.26270900 # occ.  0.00000000
 
ion      s     py     pz     px    dxy    dyz    dz2    dxz  x2-y2    tot
    1  0.023  0.483  0.027  0.027  0.000  0.000  0.000  0.000  0.000  0.561
 
band     5 # energy   21.43867672 # occ.  0.00000000
 
ion      s     py     pz     px    dxy    dyz    dz2    dxz  x2-y2    tot
    1  0.001  0.062  0.050  0.050  0.000  0.000  0.000  0.000  0.000  0.162
 
band     6 # energy   23.53561343 # occ.  0.00000000
 
ion      s     py     pz     px    dxy    dyz    dz2    dxz  x2-y2    tot
    1  0.012  0.018  0.100  0.100  0.000  0.000  0.000  0.000  0.000  0.230
 
band     7 # energy   23.72955639 # occ.  0.00000000
 
ion      s     py     pz     px    dxy    dyz    dz2    dxz  x2-y2    tot
    1  0.000  0.000  0.121  0.121  0.000  0.000  0.000  0.000  0.000  0.242
 
band     8 # energy   26.68078032 # occ.  0.00000000
 
ion      s     py     pz     px    dxy    dyz    dz2    dxz  x2-y2    tot
    1  0.002  0.014  0.000  0.000  0.000  0.000  0.000  0.000  0.000  0.016
 

 k-point    14 :    0.14285714 0.04761905 0.00000000     weight = 0.00259151

band     1 # energy   -3.85893787 # occ.  2.00000000
 
ion      s     py     pz     px    dxy    dyz    dz2    dxz  x2-y2    tot
    1  0.373  0.009  0.002  0.002  0.000  0.000  0.000  0.000  0.000  0.386
 
band     2 # energy   16.24821612 # occ.  0.00000000
 
ion      s     py     pz     px    dxy    dyz    dz2    dxz  x2-y2    tot
    1  0.034  0.083  0.126  0.126  0.000  0.000  0.000  0.000  0.000  0.368
 
band     3 # energy   18.53367095 # occ.  0.00000000
 
ion      s     py     pz     px    dxy    dyz    dz2    dxz  x2-y2    tot
    1  0.000  0.000  0.219  0.219  0.000  0.000  0.000  0.000  0.000  0.438
 
band     4 # energy   19.80881438 # occ.  0.00000000
 
ion      s     py     pz     px    dxy    dyz    dz2    dxz  x2-y2    tot
    1  0.026  0.409  0.029  0.029  0.000  0.000  0.000  0.000  0.000  0.492
 
band     5 # energy   22.10212553 # occ.  0.00000000
 
ion      s     py     pz     px    dxy    dyz    dz2    dxz  x2-y2    tot
    1  0.000  0.093  0.091  0.091  0.000  0.000  0.000  0.000  0.000  0.275
 
band     6 # energy   23.79421886 # occ.  0.00000000
 
ion      s     py     pz     px    dxy    dyz    dz2    dxz  x2-y2    tot
    1  0.040  0.035  0.065  0.065  0.000  0.000  0.000  0.000  0.000  0.204
 
band     7 # energy   24.49349946 # occ.  0.00000000
 
ion      s     py     pz     px    dxy    dyz    dz2    dxz  x2-y2    tot
    1  0.000  0.000  0.128  0.128  0.000  0.000  0.000  0.000  0.000  0.255
 
band     8 # energy   25.76446398 # occ.  0.00000000
 
ion      s     py     pz     px    dxy    dyz    dz2    dxz  x2-y2    tot
    1  0.003  0.006  0.001  0.001  0.000  0.000  0.000  0.000  0.000  0.010
 

 k-point    15 :    0.19047619 0.04761905 0.00000000     weight = 0.00259151

band     1 # energy   -3.44905846 # occ.  2.00000000
 
ion      s     py     pz     px    dxy    dyz    dz2    dxz  x2-y2    tot
    1  0.364  0.013  0.005  0.005  0.000  0.000  0.000  0.000  0.000  0.387
 
band     2 # energy   14.25163315 # occ.  0.00000000
 
ion      s     py     pz     px    dxy    dyz    dz2    dxz  x2-y2    tot
    1  0.053  0.081  0.112  0.112  0.000  0.000  0.000  0.000  0.000  0.358
 
band     3 # energy   18.09824259 # occ.  0.00000000
 
ion      s     py     pz     px    dxy    dyz    dz2    dxz  x2-y2    tot
    1  0.000  0.000  0.221  0.221  0.000  0.000  0.000  0.000  0.000  0.442
 
band     4 # energy   19.37335568 # occ.  0.00000000
 
ion      s     py     pz     px    dxy    dyz    dz2    dxz  x2-y2    tot
    1  0.029  0.388  0.035  0.035  0.000  0.000  0.000  0.000  0.000  0.487
 
band     5 # energy   22.50326369 # occ.  0.00000000
 
ion      s     py     pz     px    dxy    dyz    dz2    dxz  x2-y2    tot
    1  0.005  0.090  0.095  0.095  0.000  0.000  0.000  0.000  0.000  0.286
 
band     6 # energy   23.77114058 # occ.  0.00000000
 
ion      s     py     pz     px    dxy    dyz    dz2    dxz  x2-y2    tot
    1  0.059  0.037  0.044  0.044  0.000  0.000  0.000  0.000  0.000  0.185
 
band     7 # energy   24.88266993 # occ.  0.00000000
 
ion      s     py     pz     px    dxy    dyz    dz2    dxz  x2-y2    tot
    1  0.000  0.000  0.121  0.121  0.000  0.000  0.000  0.000  0.000  0.243
 
band     8 # energy   25.36138929 # occ.  0.00000000
 
ion      s     py     pz     px    dxy    dyz    dz2    dxz  x2-y2    tot
    1  0.010  0.003  0.004  0.004  0.000  0.000  0.000  0.000  0.000  0.021
 

 k-point    16 :    0.23809524 0.04761905 0.00000000     weight = 0.00259151

band     1 # energy   -2.91107821 # occ.  2.00000000
 
ion      s     py     pz     px    dxy    dyz    dz2    dxz  x2-y2    tot
    1  0.353  0.019  0.008  0.008  0.000  0.000  0.000  0.000  0.000  0.388
 
band     2 # energy   12.30284750 # occ.  0.00000000
 
ion      s     py     pz     px    dxy    dyz    dz2    dxz  x2-y2    tot
    1  0.073  0.077  0.104  0.104  0.000  0.000  0.000  0.000  0.000  0.359
 
band     3 # energy   17.76757163 # occ.  0.00000000
 
ion      s     py     pz     px    dxy    dyz    dz2    dxz  x2-y2    tot
    1  0.000  0.000  0.225  0.225  0.000  0.000  0.000  0.000  0.000  0.450
 
band     4 # energy   19.00471367 # occ.  0.00000000
 
ion      s     py     pz     px    dxy    dyz    dz2    dxz  x2-y2    tot
    1  0.033  0.383  0.043  0.043  0.000  0.000  0.000  0.000  0.000  0.502
 
band     5 # energy   22.32055431 # occ.  0.00000000
 
ion      s     py     pz     px    dxy    dyz    dz2    dxz  x2-y2    tot
    1  0.006  0.081  0.050  0.050  0.000  0.000  0.000  0.000  0.000  0.188
 
band     6 # energy   23.52530241 # occ.  0.00000000
 
ion      s     py     pz     px    dxy    dyz    dz2    dxz  x2-y2    tot
    1  0.085  0.007  0.060  0.060  0.000  0.000  0.000  0.000  0.000  0.213
 
band     7 # energy   24.56885908 # occ.  0.00000000
 
ion      s     py     pz     px    dxy    dyz    dz2    dxz  x2-y2    tot
    1  0.000  0.000  0.097  0.097  0.000  0.000  0.000  0.000  0.000  0.194
 
band     8 # energy   25.93623306 # occ.  0.00000000
 
ion      s     py     pz     px    dxy    dyz    dz2    dxz  x2-y2    tot
    1  0.014  0.020  0.016  0.016  0.000  0.000  0.000  0.000  0.000  0.066
 

 k-point    17 :    0.28571429 0.04761905 0.00000000     weight = 0.00259151

band     1 # energy   -2.24624762 # occ.  2.00000000
 
ion      s     py     pz     px    dxy    dyz    dz2    dxz  x2-y2    tot
    1  0.339  0.025  0.013  0.013  0.000  0.000  0.000  0.000  0.000  0.389
 
band     2 # energy   10.42604173 # occ.  0.22315419
 
ion      s     py     pz     px    dxy    dyz    dz2    dxz  x2-y2    tot
    1  0.094  0.073  0.097  0.097  0.000  0.000  0.000  0.000  0.000  0.361
 
band     3 # energy   17.54152872 # occ.  0.00000000
 
ion      s     py     pz     px    dxy    dyz    dz2    dxz  x2-y2    tot
    1  0.000  0.000  0.230  0.230  0.000  0.000  0.000  0.000  0.000  0.459
 
band     4 # energy   18.70157887 # occ.  0.00000000
 
ion      s     py     pz     px    dxy    dyz    dz2    dxz  x2-y2    tot
    1  0.035  0.388  0.053  0.053  0.000  0.000  0.000  0.000  0.000  0.528
 
band     5 # energy   21.72754314 # occ.  0.00000000
 
ion      s     py     pz     px    dxy    dyz    dz2    dxz  x2-y2    tot
    1  0.003  0.056  0.018  0.018  0.000  0.000  0.000  0.000  0.000  0.095
 
band     6 # energy   23.37590849 # occ.  0.00000000
 
ion      s     py     pz     px    dxy    dyz    dz2    dxz  x2-y2    tot
    1  0.120  0.000  0.063  0.063  0.000  0.000  0.000  0.000  0.000  0.247
 
band     7 # energy   23.87911642 # occ.  0.00000000
 
ion      s     py     pz     px    dxy    dyz    dz2    dxz  x2-y2    tot
    1  0.000  0.000  0.081  0.081  0.000  0.000  0.000  0.000  0.000  0.162
 
band     8 # energy   26.98698787 # occ.  0.00000000
 
ion      s     py     pz     px    dxy    dyz    dz2    dxz  x2-y2    tot
    1  0.008  0.021  0.033  0.033  0.000  0.000  0.000  0.000  0.000  0.094
 

 k-point    18 :    0.33333333 0.04761905-0.00000000     weight = 0.00259151

band     1 # energy   -1.45578916 # occ.  2.00000000
 
ion      s     py     pz     px    dxy    dyz    dz2    dxz  x2-y2    tot
    1  0.325  0.032  0.017  0.017  0.000  0.000  0.000  0.000  0.000  0.391
 
band     2 # energy    8.64063279 # occ.  2.11924438
 
ion      s     py     pz     px    dxy    dyz    dz2    dxz  x2-y2    tot