fcc Si                                  
   3.87503048189688     
     0.500000    0.500000    0.000000
     0.000000    0.500000    0.500000
     0.500000    0.000000    0.500000
   Si
     1
Direct
  0.000000  0.000000  0.000000
 
   20   20   20
 -2.5224     -1.7471     0.25532      2.6846      4.6722      5.6886      5.7270      5.1949      4.6043      4.1979    
  4.0544      4.1979      4.6043      5.1949      5.7270      5.6886      4.6722      2.6846     0.25532     -1.7471    
 -1.7471     -.36091      1.8334      3.9842      5.3902      5.8023      5.4523      4.8349      4.3268      4.0490    
  4.0491      4.3270      4.8349      5.4521      5.8023      5.3905      3.9844      1.8330     -.36165     -1.7475    
 0.25532      1.8334      3.7028      5.1503      5.7658      5.5887      5.0000      4.4245      4.0357      3.8994    
  4.0357      4.4245      4.9999      5.5887      5.7658      5.1503      3.7028      1.8333     0.25523     -.36165    
  2.6846      3.9842      5.1503      5.7360      5.6382      5.0952      4.4872      4.0199      3.7698      3.7697    
  4.0198      4.4872      5.0953      5.6381      5.7358      5.1502      3.9845      2.6852      1.8333      1.8330    
  4.6722      5.3902      5.7658      5.6382      5.1255      4.5172      4.0076      3.6761      3.5619      3.6761    
  4.0075      4.5172      5.1255      5.6382      5.7658      5.3902      4.6723      3.9845      3.7028      3.9844    
  5.6886      5.8023      5.5887      5.0952      4.5172      4.0030      3.6275      3.4319      3.4320      3.6276    
  4.0030      4.5173      5.0953      5.5888      5.8023      5.6884      5.3902      5.1502      5.1503      5.3905    
  5.7270      5.4523      5.0000      4.4872      4.0076      3.6275      3.3881      3.3069      3.3881      3.6275    
  4.0076      4.4872      5.0000      5.4523      5.7270      5.8023      5.7658      5.7358      5.7658      5.8023    
  5.1949      4.8349      4.4245      4.0199      3.6761      3.4319      3.3069      3.3069      3.4320      3.6760    
  4.0198      4.4244      4.8349      5.1951      5.4523      5.5888      5.6382      5.6381      5.5887      5.4521    
  4.6043      4.3268      4.0357      3.7698      3.5619      3.4320      3.3881      3.4320      3.5619      3.7697    
  4.0357      4.3268      4.6043      4.8349      5.0000      5.0953      5.1255      5.0953      4.9999      4.8349    
  4.1979      4.0490      3.8994      3.7697      3.6761      3.6276      3.6275      3.6760      3.7697      3.8996    
  4.0491      4.1978      4.3268      4.4244      4.4872      4.5173      4.5172      4.4872      4.4245      4.3270    
  4.0544      4.0491      4.0357      4.0198      4.0075      4.0030      4.0076      4.0198      4.0357      4.0491    
  4.0544      4.0491      4.0357      4.0198      4.0076      4.0030      4.0075      4.0198      4.0357      4.0491    
  4.1979      4.3270      4.4245      4.4872      4.5172      4.5173      4.4872      4.4244      4.3268      4.1978    
  4.0491      3.8996      3.7697      3.6760      3.6275      3.6276      3.6761      3.7697      3.8994      4.0490    
  4.6043      4.8349      4.9999      5.0953      5.1255      5.0953      5.0000      4.8349      4.6043      4.3268    
  4.0357      3.7697      3.5619      3.4320      3.3881      3.4320      3.5619      3.7698      4.0357      4.3268    
  5.1949      5.4521      5.5887      5.6381      5.6382      5.5888      5.4523      5.1951      4.8349      4.4244    
  4.0198      3.6760      3.4320      3.3069      3.3069      3.4319      3.6761      4.0199      4.4245      4.8349    
  5.7270      5.8023      5.7658      5.7358      5.7658      5.8023      5.7270      5.4523      5.0000      4.4872    
  4.0076      3.6275      3.3881      3.3069      3.3881      3.6275      4.0076      4.4872      5.0000      5.4523    
  5.6886      5.3905      5.1503      5.1502      5.3902      5.6884      5.8023      5.5888      5.0953      4.5173    
  4.0030      3.6276      3.4320      3.4319      3.6275      4.0030      4.5172      5.0952      5.5887      5.8023    
  4.6722      3.9844      3.7028      3.9845      4.6723      5.3902      5.7658      5.6382      5.1255      4.5172    
  4.0075      3.6761      3.5619      3.6761      4.0076      4.5172      5.1255      5.6382      5.7658      5.3902    
  2.6846      1.8330      1.8333      2.6852      3.9845      5.1502      5.7358      5.6381      5.0953      4.4872    
  4.0198      3.7697      3.7698      4.0199      4.4872      5.0952      5.6382      5.7360      5.1503      3.9842    
 0.25532     -.36165     0.25523      1.8333      3.7028      5.1503      5.7658      5.5887      4.9999      4.4245    
  4.0357      3.8994      4.0357      4.4245      5.0000      5.5887      5.7658      5.1503      3.7028      1.8334    
 -1.7471     -1.7475     -.36165      1.8330      3.9844      5.3905      5.8023      5.4521      4.8349      4.3270    
  4.0491      4.0490      4.3268      4.8349      5.4523      5.8023      5.3902      3.9842      1.8334     -.36091    
 -1.7471     -.36095      1.8334      3.9842      5.3902      5.8023      5.4523      4.8349      4.3268      4.0490    
  4.0491      4.3270      4.8349      5.4521      5.8023      5.3905      3.9844      1.8331     -.36164     -1.7475    
 -.36095      1.3545      3.4033      5.0218      5.7623      5.6506      5.0771      4.4958      4.1008      3.9620    
  4.1008      4.4958      5.0770      5.6506      5.7626      5.0221      3.4031      1.3537     -.36171     -1.0297    
  1.8334      3.4033      4.8625      5.6867      5.7309      5.2349      4.6186      4.1372      3.8777      3.8776    
  4.1370      4.6186      5.2350      5.7311      5.6868      4.8624      3.4031      1.8333     0.81876     0.81880    
  3.9842      5.0218      5.6867      5.7488      5.3089      4.6914      4.1588      3.8086      3.6874      3.8086    
  4.1588      4.6914      5.3088      5.7487      5.6867      5.0219      3.9845      3.0457      2.6687      3.0454    
  5.3902      5.7623      5.7309      5.3089      4.7155      4.1688      3.7641      3.5518      3.5519      3.7642    
  4.1688      4.7154      5.3088      5.7310      5.7624      5.3903      4.8374      4.4391      4.4391      4.8374    
  5.8023      5.6506      5.2349      4.6914      4.1688      3.7490      3.4823      3.3915      3.4823      3.7490    
  4.1688      4.6915      5.2351      5.6506      5.8023      5.7080      5.5251      5.4374      5.5252      5.7082    
  5.4523      5.0771      4.6186      4.1588      3.7641      3.4823      3.3375      3.3374      3.4823      3.7641    
  4.1588      4.6186      5.0770      5.4523      5.6671      5.7336      5.7313      5.7313      5.7335      5.6671    
  4.8349      4.4958      4.1372      3.8086      3.5518      3.3915      3.3374      3.3916      3.5518      3.8085    
  4.1370      4.4956      4.8349      5.1125      5.2997      5.3944      5.4212      5.3942      5.2994      5.1123    
  4.3268      4.1008      3.8777      3.6874      3.5519      3.4823      3.4823      3.5518      3.6874      3.8777    
  4.1008      4.3268      4.5262      4.6791      4.7782      4.8257      4.8257      4.7782      4.6791      4.5262    
  4.0490      3.9620      3.8776      3.8086      3.7642      3.7490      3.7641      3.8085      3.8777      3.9622    
  4.0491      4.1257      4.1838      4.2216      4.2419      4.2481      4.2419      4.2218      4.1839      4.1257    
  4.0491      4.1008      4.1370      4.1588      4.1688      4.1688      4.1588      4.1370      4.1008      4.0491    
  3.9847      3.9152      3.8514      3.8034      3.7778      3.7779      3.8034      3.8514      3.9152      3.9847    
  4.3270      4.4958      4.6186      4.6914      4.7154      4.6915      4.6186      4.4956      4.3268      4.1257    
  3.9152      3.7226      3.5714      3.4765      3.4444      3.4765      3.5713      3.7225      3.9151      4.1257    
  4.8349      5.0770      5.2350      5.3088      5.3088      5.2351      5.0770      4.8349      4.5262      4.1838    
  3.8514      3.5714      3.3734      3.2722      3.2723      3.3735      3.5714      3.8514      4.1838      4.5262    
  5.4521      5.6506      5.7311      5.7487      5.7310      5.6506      5.4523      5.1125      4.6791      4.2216    
  3.8034      3.4765      3.2722      3.2032      3.2722      3.4765      3.8035      4.2218      4.6791      5.1123    
  5.8023      5.7626      5.6868      5.6867      5.7624      5.8023      5.6671      5.2997      4.7782      4.2419    
  3.7778      3.4444      3.2723      3.2722      3.4443      3.7778      4.2419      4.7782      5.2996      5.6671    
  5.3905      5.0221      4.8624      5.0219      5.3903      5.7080      5.7336      5.3944      4.8257      4.2481    
  3.7779      3.4765      3.3735      3.4765      3.7778      4.2480      4.8255      5.3943      5.7337      5.7082    
  3.9844      3.4031      3.4031      3.9845      4.8374      5.5251      5.7313      5.4212      4.8257      4.2419    
  3.8034      3.5713      3.5714      3.8035      4.2419      4.8255      5.4211      5.7313      5.5252      4.8374    
  1.8331      1.3537      1.8333      3.0457      4.4391      5.4374      5.7313      5.3942      4.7782      4.2218    
  3.8514      3.7225      3.8514      4.2218      4.7782      5.3943      5.7313      5.4373      4.4389      3.0454    
 -.36164     -.36171     0.81876      2.6687      4.4391      5.5252      5.7335      5.2994      4.6791      4.1839    
  3.9152      3.9151      4.1838      4.6791      5.2996      5.7337      5.5252      4.4389      2.6686     0.81883    
 -1.7475     -1.0297     0.81880      3.0454      4.8374      5.7082      5.6671      5.1123      4.5262      4.1257    
  3.9847      4.1257      4.5262      5.1123      5.6671      5.7082      4.8374      3.0454     0.81883     -1.0297    
 0.25527      1.8334      3.7028      5.1503      5.7658      5.5887      5.0000      4.4245      4.0357      3.8994    
  4.0357      4.4245      4.9999      5.5887      5.7659      5.1504      3.7028      1.8333     0.25522     -.36166    
  1.8334      3.4033      4.8625      5.6867      5.7309      5.2349      4.6187      4.1372      3.8777      3.8776    
  4.1370      4.6186      5.2351      5.7311      5.6868      4.8624      3.4031      1.8332     0.81874     0.81878    
  3.7028      4.8625      5.6393      5.7770      5.3693      4.7517      4.2116      3.8552      3.7315      3.8551    
  4.2116      4.7516      5.3693      5.7770      5.6393      4.8625      3.7029      2.6686      2.2556      2.6686    
  5.1503      5.6867      5.7770      5.4116      4.8187      4.2566      3.8372      3.6162      3.6163      3.8373    
  4.2566      4.8186      5.4115      5.7769      5.6868      5.1505      4.4392      3.9431      3.9430      4.4389    
  5.7658      5.7309      5.3693      4.8187      4.2716      3.8276      3.5439      3.4470      3.5440      3.8277    
  4.2716      4.8187      5.3693      5.7309      5.7658      5.5252      5.2203      5.0851      5.2203      5.5252    
  5.5887      5.2349      4.7517      4.2566      3.8276      3.5196      3.3606      3.3606      3.5195      3.8276    
  4.2566      4.7518      5.2351      5.5887      5.7335      5.7141      5.6538      5.6539      5.7143      5.7336    
  5.0000      4.6187      4.2116      3.8372      3.5439      3.3606      3.2988      3.3606      3.5439      3.8372    
  4.2116      4.6186      5.0000      5.2996      5.4756      5.5467      5.5621      5.5467      5.4757      5.2996    
  4.4245      4.1372      3.8552      3.6162      3.4470      3.3606      3.3606      3.4471      3.6163      3.8551    
  4.1370      4.4244      4.6791      4.8743      4.9998      5.0578      5.0577      4.9996      4.8742      4.6791    
  4.0357      3.8777      3.7315      3.6163      3.5440      3.5195      3.5439      3.6163      3.7315      3.8777    
  4.0357      4.1838      4.3047      4.3898      4.4386      4.4543      4.4386      4.3898      4.3047      4.1838    
  3.8994      3.8776      3.8551      3.8373      3.8277      3.8276      3.8372      3.8551      3.8777      3.8995    
  3.9152      3.9221      3.9215      3.9174      3.9141      3.9141      3.9175      3.9216      3.9221      3.9151    
  4.0357      4.1370      4.2116      4.2566      4.2716      4.2566      4.2116      4.1370      4.0357      3.9152    
  3.7884      3.6710      3.5777      3.5185      3.4984      3.5185      3.5777      3.6710      3.7884      3.9152    
  4.4245      4.6186      4.7516      4.8186      4.8187      4.7518      4.6186      4.4244      4.1838      3.9221    
  3.6710      3.4606      3.3121      3.2362      3.2362      3.3121      3.4605      3.6709      3.9221      4.1840    
  4.9999      5.2351      5.3693      5.4115      5.3693      5.2351      5.0000      4.6791      4.3047      3.9215    
  3.5777      3.3121      3.1472      3.0917      3.1472      3.3121      3.5777      3.9214      4.3047      4.6791    
  5.5887      5.7311      5.7770      5.7769      5.7309      5.5887      5.2996      4.8743      4.3898      3.9174    
  3.5185      3.2362      3.0917      3.0916      3.2362      3.5186      3.9175      4.3898      4.8741      5.2994    
  5.7659      5.6868      5.6393      5.6868      5.7658      5.7335      5.4756      4.9998      4.4386      3.9141    
  3.4984      3.2362      3.1472      3.2362      3.4983      3.9140      4.4386      4.9998      5.4757      5.7335    
  5.1504      4.8624      4.8625      5.1505      5.5252      5.7141      5.5467      5.0578      4.4543      3.9141    
  3.5185      3.3121      3.3121      3.5186      3.9140      4.4541      5.0577      5.5469      5.7143      5.5252    
  3.7028      3.4031      3.7029      4.4392      5.2203      5.6538      5.5621      5.0577      4.4386      3.9175    
  3.5777      3.4605      3.5777      3.9175      4.4386      5.0577      5.5621      5.6537      5.2203      4.4391    
  1.8333      1.8332      2.6686      3.9431      5.0851      5.6539      5.5467      4.9996      4.3898      3.9216    
  3.6710      3.6709      3.9214      4.3898      4.9998      5.5469      5.6537      5.0849      3.9429      2.6686    
 0.25522     0.81874      2.2556      3.9430      5.2203      5.7143      5.4757      4.8742      4.3047      3.9221    
  3.7884      3.9221      4.3047      4.8741      5.4757      5.7143      5.2203      3.9429      2.2556     0.81877    
 -.36166     0.81878      2.6686      4.4389      5.5252      5.7336      5.2996      4.6791      4.1838      3.9151    
  3.9152      4.1840      4.6791      5.2994      5.7335      5.5252      4.4391      2.6686     0.81877     -.36169    
  2.6846      3.9842      5.1503      5.7360      5.6382      5.0952      4.4872      4.0200      3.7698      3.7696    
  4.0198      4.4872      5.0953      5.6381      5.7358      5.1502      3.9844      2.6851      1.8333      1.8331    
  3.9842      5.0218      5.6867      5.7489      5.3089      4.6915      4.1588      3.8086      3.6874      3.8086    
  4.1588      4.6914      5.3088      5.7487      5.6867      5.0219      3.9845      3.0456      2.6686      3.0454    
  5.1503      5.6867      5.7770      5.4116      4.8187      4.2566      3.8372      3.6162      3.6163      3.8373    
  4.2566      4.8186      5.4114      5.7769      5.6867      5.1505      4.4392      3.9431      3.9430      4.4389    
  5.7360      5.7489      5.4116      4.8616      4.3067      3.8548      3.5654      3.4665      3.5654      3.8549    
  4.3069      4.8616      5.4114      5.7485      5.7359      5.4376      5.0852      4.9315      5.0849      5.4374    
  5.6382      5.3089      4.8187      4.3067      3.8607      3.5393      3.3733      3.3732      3.5393      3.8608    
  4.3069      4.8187      5.3087      5.6380      5.7313      5.6538      5.5552      5.5551      5.6538      5.7313    
  5.0952      4.6915      4.2566      3.8548      3.5393      3.3419      3.2751      3.3418      3.5393      3.8548    
  4.2567      4.6916      5.0953      5.3942      5.5466      5.5900      5.5934      5.5902      5.5469      5.3943    
  4.4872      4.1588      3.8372      3.5654      3.3733      3.2751      3.2751      3.3733      3.5654      3.8372    
  4.1588      4.4872      4.7782      4.9997      5.1352      5.1938      5.1939      5.1354      4.9998      4.7782    
  4.0200      3.8086      3.6162      3.4665      3.3732      3.3418      3.3733      3.4665      3.6163      3.8086    
  4.0198      4.2217      4.3898      4.5104      4.5806      4.6032      4.5804      4.5103      4.3898      4.2218    
  3.7698      3.6874      3.6163      3.5654      3.5393      3.5393      3.5654      3.6163      3.6874      3.7697    
  3.8514      3.9215      3.9735      4.0063      4.0217      4.0217      4.0063      3.9735      3.9214      3.8514    
  3.7696      3.8086      3.8373      3.8549      3.8608      3.8548      3.8372      3.8086      3.7697      3.7226    
  3.6710      3.6211      3.5797      3.5526      3.5433      3.5527      3.5798      3.6211      3.6709      3.7224    
  4.0198      4.1588      4.2566      4.3069      4.3069      4.2567      4.1588      4.0198      3.8514      3.6710    
  3.4991      3.3553      3.2536      3.2015      3.2015      3.2536      3.3553      3.4992      3.6710      3.8514    
  4.4872      4.6914      4.8186      4.8616      4.8187      4.6916      4.4872      4.2217      3.9215      3.6211    
  3.3553      3.1516      3.0255      2.9830      3.0254      3.1515      3.3553      3.6211      3.9216      4.2218    
  5.0953      5.3088      5.4114      5.4114      5.3087      5.0953      4.7782      4.3898      3.9735      3.5797    
  3.2536      3.0255      2.9094      2.9094      3.0255      3.2536      3.5797      3.9735      4.3898      4.7781    
  5.6381      5.7487      5.7769      5.7485      5.6380      5.3942      4.9997      4.5104      4.0063      3.5526    
  3.2015      2.9830      2.9094      2.9830      3.2015      3.5527      4.0063      4.5103      4.9995      5.3942    
  5.7358      5.6867      5.6867      5.7359      5.7313      5.5466      5.1352      4.5806      4.0217      3.5433    
  3.2015      3.0254      3.0255      3.2015      3.5433      4.0216      4.5806      5.1354      5.5467      5.7313    
  5.1502      5.0219      5.1505      5.4376      5.6538      5.5900      5.1938      4.6032      4.0217      3.5527    
  3.2536      3.1515      3.2536      3.5527      4.0216      4.6032      5.1940      5.5902      5.6539      5.4374    
  3.9844      3.9845      4.4392      5.0852      5.5552      5.5934      5.1939      4.5804      4.0063      3.5798    
  3.3553      3.3553      3.5797      4.0063      4.5806      5.1940      5.5935      5.5551      5.0851      4.4391    
  2.6851      3.0456      3.9431      4.9315      5.5551      5.5902      5.1354      4.5103      3.9735      3.6211    
  3.4992      3.6211      3.9735      4.5103      5.1354      5.5902      5.5551      4.9315      3.9430      3.0456    
  1.8333      2.6686      3.9430      5.0849      5.6538      5.5469      4.9998      4.3898      3.9214      3.6709    
  3.6710      3.9216      4.3898      4.9995      5.5467      5.6539      5.0851      3.9430      2.6686      1.8333    
  1.8331      3.0454      4.4389      5.4374      5.7313      5.3943      4.7782      4.2218      3.8514      3.7224    
  3.8514      4.2218      4.7781      5.3942      5.7313      5.4374      4.4391      3.0456      1.8333      1.3537    
  4.6722      5.3902      5.7658      5.6382      5.1255      4.5172      4.0076      3.6761      3.5619      3.6760    
  4.0076      4.5172      5.1255      5.6382      5.7658      5.3902      4.6723      3.9844      3.7028      3.9844    
  5.3902      5.7623      5.7310      5.3089      4.7155      4.1688      3.7641      3.5518      3.5519      3.7642    
  4.1688      4.7154      5.3088      5.7310      5.7625      5.3903      4.8374      4.4391      4.4391      4.8374    
  5.7658      5.7310      5.3693      4.8187      4.2716      3.8276      3.5439      3.4471      3.5439      3.8277    
  4.2716      4.8187      5.3693      5.7309      5.7658      5.5252      5.2203      5.0851      5.2203      5.5252    
  5.6382      5.3089      4.8187      4.3067      3.8607      3.5393      3.3733      3.3732      3.5393      3.8608    
  4.3069      4.8187      5.3087      5.6379      5.7312      5.6538      5.5552      5.5551      5.6538      5.7313    
  5.1255      4.7155      4.2716      3.8607      3.5378      3.3356      3.2673      3.3356      3.5378      3.8608    
  4.2716      4.7155      5.1255      5.4210      5.5620      5.5934      5.5918      5.5935      5.5621      5.4210    
  4.5172      4.1688      3.8276      3.5393      3.3356      3.2316      3.2316      3.3356      3.5393      3.8276    
  4.1689      4.5174      4.8257      5.0577      5.1938      5.2498      5.2499      5.1940      5.0577      4.8255    
  4.0076      3.7641      3.5439      3.3733      3.2673      3.2316      3.2672      3.3732      3.5439      3.7642    
  4.0076      4.2420      4.4386      4.5805      4.6635      4.6904      4.6635      4.5806      4.4386      4.2420    
  3.6761      3.5518      3.4471      3.3732      3.3356      3.3356      3.3732      3.4471      3.5519      3.6760    
  3.8034      3.9174      4.0063      4.0650      4.0936      4.0935      4.0649      4.0063      3.9175      3.8035    
  3.5619      3.5519      3.5439      3.5393      3.5378      3.5393      3.5439      3.5519      3.5619      3.5714    
  3.5777      3.5797      3.5785      3.5764      3.5754      3.5764      3.5785      3.5797      3.5777      3.5714    
  3.6760      3.7642      3.8277      3.8608      3.8608      3.8276      3.7642      3.6760      3.5714      3.4606    
  3.3553      3.2669      3.2038      3.1712      3.1712      3.2038      3.2669      3.3553      3.4605      3.5713    
  4.0076      4.1688      4.2716      4.3069      4.2716      4.1689      4.0076      3.8034      3.5777      3.3553    
  3.1603      3.0110      2.9184      2.8872      2.9184      3.0110      3.1603      3.3554      3.5777      3.8034    
  4.5172      4.7154      4.8187      4.8187      4.7155      4.5174      4.2420      3.9174      3.5797      3.2669    
  3.0110      2.8330      2.7426      2.7425      2.8329      3.0110      3.2669      3.5798      3.9175      4.2420    
  5.1255      5.3088      5.3693      5.3087      5.1255      4.8257      4.4386      4.0063      3.5785      3.2038    
  2.9184      2.7426      2.6835      2.7426      2.9184      3.2038      3.5785      4.0063      4.4386      4.8257    
  5.6382      5.7310      5.7309      5.6379      5.4210      5.0577      4.5805      4.0650      3.5764      3.1712    
  2.8872      2.7425      2.7426      2.8873      3.1712      3.5764      4.0649      4.5804      5.0577      5.4212    
  5.7658      5.7625      5.7658      5.7312      5.5620      5.1938      4.6635      4.0936      3.5754      3.1712    
  2.9184      2.8329      2.9184      3.1712      3.5754      4.0936      4.6635      5.1939      5.5621      5.7313    
  5.3902      5.3903      5.5252      5.6538      5.5934      5.2498      4.6904      4.0935      3.5764      3.2038    
  3.0110      3.0110      3.2038      3.5764      4.0936      4.6906      5.2500      5.5935      5.6538      5.5251    
  4.6723      4.8374      5.2203      5.5552      5.5918      5.2499      4.6635      4.0649      3.5785      3.2669    
  3.1603      3.2669      3.5785      4.0649      4.6635      5.2500      5.5918      5.5552      5.2203      4.8374    
  3.9844      4.4391      5.0851      5.5551      5.5935      5.1940      4.5806      4.0063      3.5797      3.3553    
  3.3554      3.5798      4.0063      4.5804      5.1939      5.5935      5.5552      5.0852      4.4392      3.9845    
  3.7028      4.4391      5.2203      5.6538      5.5621      5.0577      4.4386      3.9175      3.5777      3.4605    
  3.5777      3.9175      4.4386      5.0577      5.5621      5.6538      5.2203      4.4392      3.7029      3.4032    
  3.9844      4.8374      5.5252      5.7313      5.4210      4.8255      4.2420      3.8035      3.5714      3.5713    
  3.8034      4.2420      4.8257      5.4212      5.7313      5.5251      4.8374      3.9845      3.4032      3.4031    
  5.6886      5.8023      5.5887      5.0952      4.5172      4.0030      3.6275      3.4319      3.4320      3.6276    
  4.0031      4.5173      5.0953      5.5888      5.8024      5.6884      5.3902      5.1502      5.1504      5.3905    
  5.8023      5.6505      5.2349      4.6914      4.1688      3.7490      3.4823      3.3915      3.4823      3.7490    
  4.1688      4.6915      5.2350      5.6506      5.8023      5.7080      5.5250      5.4374      5.5252      5.7082    
  5.5887      5.2349      4.7517      4.2566      3.8276      3.5195      3.3606      3.3606      3.5195      3.8276    
  4.2566      4.7518      5.2350      5.5887      5.7335      5.7141      5.6538      5.6539      5.7143      5.7337    
  5.0952      4.6914      4.2566      3.8548      3.5393      3.3419      3.2751      3.3418      3.5393      3.8548    
  4.2566      4.6916      5.0953      5.3942      5.5466      5.5900      5.5934      5.5902      5.5469      5.3943    
  4.5172      4.1688      3.8276      3.5393      3.3356      3.2316      3.2316      3.3356      3.5393      3.8276    
  4.1689      4.5174      4.8257      5.0577      5.1938      5.2499      5.2500      5.1940      5.0577      4.8255    
  4.0030      3.7490      3.5195      3.3419      3.2316      3.1945      3.2316      3.3418      3.5195      3.7489    
  4.0031      4.2482      4.4543      4.6033      4.6905      4.7188      4.6906      4.6032      4.4541      4.2480    
  3.6275      3.4823      3.3606      3.2751      3.2316      3.2316      3.2751      3.3606      3.4823      3.6275    
  3.7779      3.9141      4.0217      4.0936      4.1290      4.1290      4.0936      4.0216      3.9140      3.7778    
  3.4319      3.3915      3.3606      3.3418      3.3356      3.3418      3.3606      3.3915      3.4319      3.4765    
  3.5185      3.5527      3.5764      3.5899      3.5941      3.5898      3.5764      3.5527      3.5186      3.4765    
  3.4320      3.4823      3.5195      3.5393      3.5393      3.5195      3.4823      3.4319      3.3734      3.3121    
  3.2536      3.2038      3.1676      3.1487      3.1487      3.1676      3.2038      3.2536      3.3121      3.3734    
  3.6276      3.7490      3.8276      3.8548      3.8276      3.7489      3.6275      3.4765      3.3121      3.1516    
  3.0110      2.9029      2.8355      2.8126      2.8355      2.9029      3.0110      3.1515      3.3120      3.4765    
  4.0031      4.1688      4.2566      4.2566      4.1689      4.0031      3.7779      3.5185      3.2536      3.0110    
  2.8133      2.6756      2.6054      2.6054      2.6756      2.8133      3.0110      3.2536      3.5185      3.7779    
  4.5173      4.6915      4.7518      4.6916      4.5174      4.2482      3.9141      3.5527      3.2038      2.9029    
  2.6756      2.5357      2.4887      2.5357      2.6756      2.9029      3.2039      3.5527      3.9141      4.2481    
  5.0953      5.2350      5.2350      5.0953      4.8257      4.4543      4.0217      3.5764      3.1676      2.8355    
  2.6054      2.4887      2.4888      2.6054      2.8355      3.1676      3.5764      4.0217      4.4543      4.8257    
  5.5888      5.6506      5.5887      5.3942      5.0577      4.6033      4.0936      3.5899      3.1487      2.8126    
  2.6054      2.5357      2.6054      2.8127      3.1487      3.5898      4.0935      4.6032      5.0578      5.3944    
  5.8024      5.8023      5.7335      5.5466      5.1938      4.6905      4.1290      3.5941      3.1487      2.8355    
  2.6756      2.6756      2.8355      3.1487      3.5941      4.1290      4.6904      5.1938      5.5467      5.7336    
  5.6884      5.7080      5.7141      5.5900      5.2499      4.7188      4.1290      3.5898      3.1676      2.9029    
  2.8133      2.9029      3.1676      3.5898      4.1290      4.7188      5.2499      5.5900      5.7141      5.7080    
  5.3902      5.5250      5.6538      5.5934      5.2500      4.6906      4.0936      3.5764      3.2038      3.0110    
  3.0110      3.2039      3.5764      4.0935      4.6904      5.2499      5.5934      5.6538      5.5252      5.3903    
  5.1502      5.4374      5.6539      5.5902      5.1940      4.6032      4.0216      3.5527      3.2536      3.1515    
  3.2536      3.5527      4.0217      4.6032      5.1938      5.5900      5.6538      5.4376      5.1505      5.0219    
  5.1504      5.5252      5.7143      5.5469      5.0577      4.4541      3.9140      3.5186      3.3121      3.3120    
  3.5185      3.9141      4.4543      5.0578      5.5467      5.7141      5.5252      5.1505      4.8625      4.8624    
  5.3905      5.7082      5.7337      5.3943      4.8255      4.2480      3.7778      3.4765      3.3734      3.4765    
  3.7779      4.2481      4.8257      5.3944      5.7336      5.7080      5.3903      5.0219      4.8624      5.0221    
  5.7269      5.4523      5.0000      4.4872      4.0075      3.6275      3.3881      3.3069      3.3881      3.6275    
  4.0076      4.4872      5.0000      5.4523      5.7270      5.8024      5.7658      5.7358      5.7658      5.8023    
  5.4523      5.0771      4.6186      4.1588      3.7641      3.4823      3.3375      3.3375      3.4823      3.7641    
  4.1588      4.6186      5.0770      5.4523      5.6672      5.7336      5.7313      5.7312      5.7335      5.6671    
  5.0000      4.6186      4.2117      3.8372      3.5439      3.3606      3.2988      3.3606      3.5439      3.8372    