fcc Si                                  
   3.87503048189688     
     0.500000    0.500000    0.000000
     0.000000    0.500000    0.500000
     0.500000    0.000000    0.500000
   Si
     1
Direct
  0.000000  0.000000  0.000000
 
   20   20   20
 -.25224153261E+01 -.17471216498E+01 0.25531841126E+00 0.26846229360E+01 0.46721926656E+01
 0.56885982691E+01 0.57269844430E+01 0.51949495753E+01 0.46042593387E+01 0.41978746271E+01
 0.40544321582E+01 0.41978746271E+01 0.46042593387E+01 0.51949495753E+01 0.57269844430E+01
 0.56885982691E+01 0.46721926656E+01 0.26846229360E+01 0.25531841126E+00 -.17471216498E+01
 -.17471216498E+01 -.36091387227E+00 0.18334243527E+01 0.39841834367E+01 0.53901764904E+01
 0.58023406950E+01 0.54523172013E+01 0.48349196094E+01 0.43267708476E+01 0.40489998658E+01
 0.40491338007E+01 0.43269733030E+01 0.48348894065E+01 0.54521137165E+01 0.58023291003E+01
 0.53904688873E+01 0.39843652836E+01 0.18330499616E+01 -.36165477481E+00 -.17475055445E+01
 0.25531841126E+00 0.18334243527E+01 0.37028449843E+01 0.51503181248E+01 0.57658191859E+01
 0.55886926691E+01 0.49999710129E+01 0.44245197680E+01 0.40356592037E+01 0.38993696662E+01
 0.40356503134E+01 0.44244967344E+01 0.49999397715E+01 0.55886764394E+01 0.57658325333E+01
 0.51503321848E+01 0.37028051945E+01 0.18333229415E+01 0.25522592638E+00 -.36165477481E+00
 0.26846229360E+01 0.39841834367E+01 0.51503181248E+01 0.57360082150E+01 0.56381566938E+01
 0.50951879624E+01 0.44872215808E+01 0.40199256434E+01 0.37697600065E+01 0.37696648623E+01
 0.40197647252E+01 0.44871933743E+01 0.50952784092E+01 0.56381457275E+01 0.57358147246E+01
 0.51502063214E+01 0.39844558190E+01 0.26851504569E+01 0.18333229415E+01 0.18330499616E+01
 0.46721926656E+01 0.53901764904E+01 0.57658191859E+01 0.56381566938E+01 0.51255322809E+01
 0.45172284500E+01 0.40075528136E+01 0.36760530395E+01 0.35618945661E+01 0.36760677701E+01
 0.40075494913E+01 0.45172167812E+01 0.51255494543E+01 0.56381884280E+01 0.57658273642E+01
 0.53901930159E+01 0.46722704474E+01 0.39844558190E+01 0.37028051945E+01 0.39843652836E+01
 0.56885982691E+01 0.58023406950E+01 0.55886926691E+01 0.50951879624E+01 0.45172284500E+01
 0.40030047202E+01 0.36274918167E+01 0.34319250285E+01 0.34319761557E+01 0.36275774465E+01
 0.40030384111E+01 0.45172504723E+01 0.50952837369E+01 0.55888157911E+01 0.58023304606E+01
 0.56883878453E+01 0.53901930159E+01 0.51502063214E+01 0.51503321848E+01 0.53904688873E+01
 0.57269844430E+01 0.54523172013E+01 0.49999710129E+01 0.44872215808E+01 0.40075528136E+01
 0.36274918167E+01 0.33880634060E+01 0.33068855043E+01 0.33880899335E+01 0.36275194075E+01
 0.40075578835E+01 0.44872088213E+01 0.49999610434E+01 0.54523233836E+01 0.57269965584E+01
 0.58023304606E+01 0.57658273642E+01 0.57358147246E+01 0.57658325333E+01 0.58023291003E+01
 0.51949495753E+01 0.48349196094E+01 0.44245197680E+01 0.40199256434E+01 0.36760530395E+01
 0.34319250285E+01 0.33068855043E+01 0.33069115845E+01 0.34319546576E+01 0.36759982980E+01
 0.40197708166E+01 0.44243754265E+01 0.48349220754E+01 0.51951128623E+01 0.54523233836E+01
 0.55888157911E+01 0.56381884280E+01 0.56381457275E+01 0.55886764394E+01 0.54521137165E+01
 0.46042593387E+01 0.43267708476E+01 0.40356592037E+01 0.37697600065E+01 0.35618945661E+01
 0.34319761557E+01 0.33880899335E+01 0.34319546576E+01 0.35618720952E+01 0.37697478650E+01
 0.40356531968E+01 0.43267736572E+01 0.46042819809E+01 0.48349220754E+01 0.49999610434E+01
 0.50952837369E+01 0.51255494543E+01 0.50952784092E+01 0.49999397715E+01 0.48348894065E+01
 0.41978746271E+01 0.40489998658E+01 0.38993696662E+01 0.37696648623E+01 0.36760677701E+01
 0.36275774465E+01 0.36275194075E+01 0.36759982980E+01 0.37697478650E+01 0.38995861478E+01
 0.40491427827E+01 0.41977989161E+01 0.43267736572E+01 0.44243754265E+01 0.44872088213E+01
 0.45172504723E+01 0.45172167812E+01 0.44871933743E+01 0.44244967344E+01 0.43269733030E+01
 0.40544321582E+01 0.40491338007E+01 0.40356503134E+01 0.40197647252E+01 0.40075494913E+01
 0.40030384111E+01 0.40075578835E+01 0.40197708166E+01 0.40356531968E+01 0.40491427827E+01
 0.40544471445E+01 0.40491427827E+01 0.40356531968E+01 0.40197708166E+01 0.40075578835E+01
 0.40030384111E+01 0.40075494913E+01 0.40197647252E+01 0.40356503134E+01 0.40491338007E+01
 0.41978746271E+01 0.43269733030E+01 0.44244967344E+01 0.44871933743E+01 0.45172167812E+01
 0.45172504723E+01 0.44872088213E+01 0.44243754265E+01 0.43267736572E+01 0.41977989161E+01
 0.40491427827E+01 0.38995861478E+01 0.37697478650E+01 0.36759982980E+01 0.36275194075E+01
 0.36275774465E+01 0.36760677701E+01 0.37696648623E+01 0.38993696662E+01 0.40489998658E+01
 0.46042593387E+01 0.48348894065E+01 0.49999397715E+01 0.50952784092E+01 0.51255494543E+01
 0.50952837369E+01 0.49999610434E+01 0.48349220754E+01 0.46042819809E+01 0.43267736572E+01
 0.40356531968E+01 0.37697478650E+01 0.35618720952E+01 0.34319546576E+01 0.33880899335E+01
 0.34319761557E+01 0.35618945661E+01 0.37697600065E+01 0.40356592037E+01 0.43267708476E+01
 0.51949495753E+01 0.54521137165E+01 0.55886764394E+01 0.56381457275E+01 0.56381884280E+01
 0.55888157911E+01 0.54523233836E+01 0.51951128623E+01 0.48349220754E+01 0.44243754265E+01
 0.40197708166E+01 0.36759982980E+01 0.34319546576E+01 0.33069115845E+01 0.33068855043E+01
 0.34319250285E+01 0.36760530395E+01 0.40199256434E+01 0.44245197680E+01 0.48349196094E+01
 0.57269844430E+01 0.58023291003E+01 0.57658325333E+01 0.57358147246E+01 0.57658273642E+01
 0.58023304606E+01 0.57269965584E+01 0.54523233836E+01 0.49999610434E+01 0.44872088213E+01
 0.40075578835E+01 0.36275194075E+01 0.33880899335E+01 0.33068855043E+01 0.33880634060E+01
 0.36274918167E+01 0.40075528136E+01 0.44872215808E+01 0.49999710129E+01 0.54523172013E+01
 0.56885982691E+01 0.53904688873E+01 0.51503321848E+01 0.51502063214E+01 0.53901930159E+01
 0.56883878453E+01 0.58023304606E+01 0.55888157911E+01 0.50952837369E+01 0.45172504723E+01
 0.40030384111E+01 0.36275774465E+01 0.34319761557E+01 0.34319250285E+01 0.36274918167E+01
 0.40030047202E+01 0.45172284500E+01 0.50951879624E+01 0.55886926691E+01 0.58023406950E+01
 0.46721926656E+01 0.39843652836E+01 0.37028051945E+01 0.39844558190E+01 0.46722704474E+01
 0.53901930159E+01 0.57658273642E+01 0.56381884280E+01 0.51255494543E+01 0.45172167812E+01
 0.40075494913E+01 0.36760677701E+01 0.35618945661E+01 0.36760530395E+01 0.40075528136E+01
 0.45172284500E+01 0.51255322809E+01 0.56381566938E+01 0.57658191859E+01 0.53901764904E+01
 0.26846229360E+01 0.18330499616E+01 0.18333229415E+01 0.26851504569E+01 0.39844558190E+01
 0.51502063214E+01 0.57358147246E+01 0.56381457275E+01 0.50952784092E+01 0.44871933743E+01
 0.40197647252E+01 0.37696648623E+01 0.37697600065E+01 0.40199256434E+01 0.44872215808E+01
 0.50951879624E+01 0.56381566938E+01 0.57360082150E+01 0.51503181248E+01 0.39841834367E+01
 0.25531841126E+00 -.36165477481E+00 0.25522592638E+00 0.18333229415E+01 0.37028051945E+01
 0.51503321848E+01 0.57658325333E+01 0.55886764394E+01 0.49999397715E+01 0.44244967344E+01
 0.40356503134E+01 0.38993696662E+01 0.40356592037E+01 0.44245197680E+01 0.49999710129E+01
 0.55886926691E+01 0.57658191859E+01 0.51503181248E+01 0.37028449843E+01 0.18334243527E+01
 -.17471216498E+01 -.17475055445E+01 -.36165477481E+00 0.18330499616E+01 0.39843652836E+01
 0.53904688873E+01 0.58023291003E+01 0.54521137165E+01 0.48348894065E+01 0.43269733030E+01
 0.40491338007E+01 0.40489998658E+01 0.43267708476E+01 0.48349196094E+01 0.54523172013E+01
 0.58023406950E+01 0.53901764904E+01 0.39841834367E+01 0.18334243527E+01 -.36091387227E+00
 -.17471435322E+01 -.36095406918E+00 0.18333994516E+01 0.39841756356E+01 0.53901621515E+01
 0.58023224282E+01 0.54523176805E+01 0.48349327479E+01 0.43267709541E+01 0.40489917013E+01
 0.40491428973E+01 0.43269948434E+01 0.48348974678E+01 0.54521128280E+01 0.58023455971E+01
 0.53904990493E+01 0.39843823387E+01 0.18330538601E+01 -.36164494776E+00 -.17474989660E+01
 -.36095406918E+00 0.13545016888E+01 0.34033295138E+01 0.50217871563E+01 0.57622705050E+01
 0.56505632720E+01 0.50770940523E+01 0.44958099784E+01 0.41007739599E+01 0.39620201233E+01
 0.41008189385E+01 0.44957726061E+01 0.50769984095E+01 0.56506448582E+01 0.57626226629E+01
 0.50220685466E+01 0.34030558122E+01 0.13536671207E+01 -.36171224197E+00 -.10297323426E+01
 0.18333994516E+01 0.34033295138E+01 0.48625299749E+01 0.56866963728E+01 0.57309269733E+01
 0.52349297201E+01 0.46186362471E+01 0.41371552136E+01 0.38776890452E+01 0.38775910808E+01
 0.41369635250E+01 0.46185539839E+01 0.52350491284E+01 0.57311231771E+01 0.56867627916E+01
 0.48624027517E+01 0.34031291780E+01 0.18332644060E+01 0.81876292133E+00 0.81880301644E+00
 0.39841756356E+01 0.50217871563E+01 0.56866963728E+01 0.57488191947E+01 0.53088606946E+01
 0.46914481426E+01 0.41587861107E+01 0.38086078170E+01 0.36874171127E+01 0.38086143268E+01
 0.41587639052E+01 0.46913892300E+01 0.53087855643E+01 0.57487423576E+01 0.56866710671E+01
 0.50219239337E+01 0.39844896335E+01 0.30456503133E+01 0.26686682433E+01 0.30453655161E+01
 0.53901621515E+01 0.57622705050E+01 0.57309269733E+01 0.53088606946E+01 0.47155455496E+01
 0.41688320539E+01 0.37641071604E+01 0.35517900801E+01 0.35518837605E+01 0.37642415320E+01
 0.41687950620E+01 0.47153771317E+01 0.53087859890E+01 0.57310397419E+01 0.57624457243E+01
 0.53902570524E+01 0.48374224775E+01 0.44390958584E+01 0.44391087248E+01 0.48374189227E+01
 0.58023224282E+01 0.56505632720E+01 0.52349297201E+01 0.46914481426E+01 0.41688320539E+01
 0.37490047378E+01 0.34823014008E+01 0.33914916549E+01 0.34823023838E+01 0.37489852683E+01
 0.41688192361E+01 0.46915071573E+01 0.52350553657E+01 0.56506469231E+01 0.58022605434E+01
 0.57079975316E+01 0.55250501384E+01 0.54373658072E+01 0.55252003601E+01 0.57081744151E+01
 0.54523176805E+01 0.50770940523E+01 0.46186362471E+01 0.41587861107E+01 0.37641071604E+01
 0.34823014008E+01 0.33374586613E+01 0.33374397462E+01 0.34822778820E+01 0.37641181027E+01
 0.41588002739E+01 0.46185957965E+01 0.50770113471E+01 0.54522820005E+01 0.56671454374E+01
 0.57335965385E+01 0.57313088249E+01 0.57312530700E+01 0.57334829927E+01 0.56670796890E+01
 0.48349327479E+01 0.44958099784E+01 0.41371552136E+01 0.38086078170E+01 0.35517900801E+01
 0.33914916549E+01 0.33374397462E+01 0.33915578223E+01 0.35518403340E+01 0.38085412882E+01
 0.41369599840E+01 0.44956171563E+01 0.48349075922E+01 0.51125168643E+01 0.52996614857E+01
 0.53944049713E+01 0.54211944672E+01 0.53942252198E+01 0.52993995432E+01 0.51123384927E+01
 0.43267709541E+01 0.41007739599E+01 0.38776890452E+01 0.36874171127E+01 0.35518837605E+01
 0.34823023838E+01 0.34822778820E+01 0.35518403340E+01 0.36874008478E+01 0.38777018348E+01
 0.41007832145E+01 0.43267664405E+01 0.45262400023E+01 0.46791073039E+01 0.47781875831E+01
 0.48256906035E+01 0.48256743899E+01 0.47781516697E+01 0.46790790458E+01 0.45262350824E+01
 0.40489917013E+01 0.39620201233E+01 0.38775910808E+01 0.38086143268E+01 0.37642415320E+01
 0.37489852683E+01 0.37641181027E+01 0.38085412882E+01 0.38777018348E+01 0.39622425516E+01
 0.40491272832E+01 0.41256568836E+01 0.41837723249E+01 0.42216473989E+01 0.42419004359E+01
 0.42481294609E+01 0.42419409369E+01 0.42217658061E+01 0.41839276370E+01 0.41257097618E+01
 0.40491428973E+01 0.41008189385E+01 0.41369635250E+01 0.41587639052E+01 0.41687950620E+01
 0.41688192361E+01 0.41588002739E+01 0.41369599840E+01 0.41007832145E+01 0.40491272832E+01
 0.39847316082E+01 0.39152456760E+01 0.38514029704E+01 0.38033508393E+01 0.37778483466E+01
 0.37778612672E+01 0.38033724322E+01 0.38514016627E+01 0.39152157640E+01 0.39847073018E+01
 0.43269948434E+01 0.44957726061E+01 0.46185539839E+01 0.46913892300E+01 0.47153771317E+01
 0.46915071573E+01 0.46185957965E+01 0.44956171563E+01 0.43267664405E+01 0.41256568836E+01
 0.39152456760E+01 0.37226135827E+01 0.35713730262E+01 0.34764962332E+01 0.34444143896E+01
 0.34765264227E+01 0.35713242060E+01 0.37224571594E+01 0.39151280569E+01 0.41257371193E+01
 0.48348974678E+01 0.50769984095E+01 0.52350491284E+01 0.53087855643E+01 0.53087859890E+01
 0.52350553657E+01 0.50770113471E+01 0.48349075922E+01 0.45262400023E+01 0.41837723249E+01
 0.38514029704E+01 0.35713730262E+01 0.33734369878E+01 0.32722454499E+01 0.32722605290E+01
 0.33734657032E+01 0.35713904501E+01 0.38514081738E+01 0.41837772266E+01 0.45262404888E+01
 0.54521128280E+01 0.56506448582E+01 0.57311231771E+01 0.57487423576E+01 0.57310397419E+01
 0.56506469231E+01 0.54522820005E+01 0.51125168643E+01 0.46791073039E+01 0.42216473989E+01
 0.38033508393E+01 0.34764962332E+01 0.32722454499E+01 0.32032217158E+01 0.32721981316E+01
 0.34765143561E+01 0.38034872170E+01 0.42217831179E+01 0.46790741878E+01 0.51123217002E+01
 0.58023455971E+01 0.57626226629E+01 0.56867627916E+01 0.56866710671E+01 0.57624457243E+01
 0.58022605434E+01 0.56671454374E+01 0.52996614857E+01 0.47781875831E+01 0.42419004359E+01
 0.37778483466E+01 0.34444143896E+01 0.32722605290E+01 0.32721981316E+01 0.34443064278E+01
 0.37778215363E+01 0.42419496086E+01 0.47781973372E+01 0.52995861352E+01 0.56670905909E+01
 0.53904990493E+01 0.50220685466E+01 0.48624027517E+01 0.50219239337E+01 0.53902570524E+01
 0.57079975316E+01 0.57335965385E+01 0.53944049713E+01 0.48256906035E+01 0.42481294609E+01
 0.37778612672E+01 0.34765264227E+01 0.33734657032E+01 0.34765143561E+01 0.37778215363E+01
 0.42480302363E+01 0.48255426570E+01 0.53943073992E+01 0.57336612383E+01 0.57082155554E+01
 0.39843823387E+01 0.34030558122E+01 0.34031291780E+01 0.39844896335E+01 0.48374224775E+01
 0.55250501384E+01 0.57313088249E+01 0.54211944672E+01 0.48256743899E+01 0.42419409369E+01
 0.38033724322E+01 0.35713242060E+01 0.35713904501E+01 0.38034872170E+01 0.42419496086E+01
 0.48255426570E+01 0.54210658621E+01 0.57313280520E+01 0.55251610427E+01 0.48374434847E+01
 0.18330538601E+01 0.13536671207E+01 0.18332644060E+01 0.30456503133E+01 0.44390958584E+01
 0.54373658072E+01 0.57312530700E+01 0.53942252198E+01 0.47781516697E+01 0.42217658061E+01
 0.38514016627E+01 0.37224571594E+01 0.38514081738E+01 0.42217831179E+01 0.47781973372E+01
 0.53943073992E+01 0.57313280520E+01 0.54373399330E+01 0.44389123484E+01 0.30453716732E+01
 -.36164494776E+00 -.36171224197E+00 0.81876292133E+00 0.26686682433E+01 0.44391087248E+01
 0.55252003601E+01 0.57334829927E+01 0.52993995432E+01 0.46790790458E+01 0.41839276370E+01
 0.39152157640E+01 0.39151280569E+01 0.41837772266E+01 0.46790741878E+01 0.52995861352E+01
 0.57336612383E+01 0.55251610427E+01 0.44389123484E+01 0.26685628869E+01 0.81883241936E+00
 -.17474989660E+01 -.10297323426E+01 0.81880301644E+00 0.30453655161E+01 0.48374189227E+01
 0.57081744151E+01 0.56670796890E+01 0.51123384927E+01 0.45262350824E+01 0.41257097618E+01
 0.39847073018E+01 0.41257371193E+01 0.45262404888E+01 0.51123217002E+01 0.56670905909E+01
 0.57082155554E+01 0.48374434847E+01 0.30453716732E+01 0.81883241936E+00 -.10296896309E+01
 0.25527286422E+00 0.18333685883E+01 0.37028298828E+01 0.51503309560E+01 0.57658140723E+01
 0.55886789083E+01 0.49999870393E+01 0.44245498536E+01 0.40356618784E+01 0.38993602958E+01
 0.40356706685E+01 0.44245311543E+01 0.49999458040E+01 0.55886695582E+01 0.57658556226E+01
 0.51503693563E+01 0.37028099622E+01 0.18333033659E+01 0.25521874275E+00 -.36166393063E+00
 0.18333685883E+01 0.34033051760E+01 0.48625327387E+01 0.56867125544E+01 0.57309327156E+01
 0.52349317610E+01 0.46186520960E+01 0.41371748028E+01 0.38776942850E+01 0.38775924760E+01
 0.41369792051E+01 0.46185728567E+01 0.52350524193E+01 0.57311216351E+01 0.56867745835E+01
 0.48624150034E+01 0.34031193660E+01 0.18332400063E+01 0.81874323898E+00 0.81878296474E+00
 0.37028298828E+01 0.48625327387E+01 0.56392554666E+01 0.57769930886E+01 0.53692733667E+01
 0.47516660391E+01 0.42116493709E+01 0.38551655350E+01 0.37315308955E+01 0.38551339554E+01
 0.42115977489E+01 0.47516329995E+01 0.53692866461E+01 0.57770188363E+01 0.56392505244E+01
 0.48625198383E+01 0.37028574947E+01 0.26685994343E+01 0.22555954932E+01 0.26685511304E+01
 0.51503309560E+01 0.56867125544E+01 0.57769930886E+01 0.54116026509E+01 0.48186681959E+01
 0.42565844417E+01 0.38372035613E+01 0.36162221699E+01 0.36162982734E+01 0.38373346700E+01
 0.42566120253E+01 0.48185623172E+01 0.54114575953E+01 0.57769074978E+01 0.56867529496E+01
 0.51505194060E+01 0.44391769391E+01 0.39430918610E+01 0.39429764224E+01 0.44389324381E+01
 0.57658140723E+01 0.57309327156E+01 0.53692733667E+01 0.48186681959E+01 0.42716058013E+01
 0.38276455729E+01 0.35439204388E+01 0.34470470736E+01 0.35439599935E+01 0.38276693743E+01
 0.42715955958E+01 0.48186588737E+01 0.53692814192E+01 0.57309370735E+01 0.57658153125E+01
 0.55251766563E+01 0.52203081037E+01 0.50851445681E+01 0.52202736698E+01 0.55251519353E+01
 0.55886789083E+01 0.52349317610E+01 0.47516660391E+01 0.42565844417E+01 0.38276455729E+01
 0.35195553211E+01 0.33606331356E+01 0.33605962685E+01 0.35194773063E+01 0.38276005421E+01
 0.42566357643E+01 0.47518022498E+01 0.52350525881E+01 0.55886646844E+01 0.57334502137E+01
 0.57140873817E+01 0.56537611119E+01 0.56538664790E+01 0.57143194074E+01 0.57336309186E+01
 0.49999870393E+01 0.46186520960E+01 0.42116493709E+01 0.38372035613E+01 0.35439204388E+01
 0.33606331356E+01 0.32987516870E+01 0.33606349751E+01 0.35439288098E+01 0.38372006227E+01
 0.42116130190E+01 0.46186012013E+01 0.49999537103E+01 0.52995728574E+01 0.54756383639E+01
 0.55467073970E+01 0.55621213926E+01 0.55467471535E+01 0.54756744123E+01 0.52995933437E+01
 0.44245498536E+01 0.41371748028E+01 0.38551655350E+01 0.36162221699E+01 0.34470470736E+01
 0.33605962685E+01 0.33606349751E+01 0.34471328739E+01 0.36162681982E+01 0.38550821222E+01
 0.41369719634E+01 0.44243677399E+01 0.46790882535E+01 0.48743187408E+01 0.49997672674E+01
 0.50577719134E+01 0.50576908141E+01 0.49995812628E+01 0.48741709828E+01 0.46791070227E+01
 0.40356618784E+01 0.38776942850E+01 0.37315308955E+01 0.36162982734E+01 0.35439599935E+01
 0.35194773063E+01 0.35439288098E+01 0.36162681982E+01 0.37315233039E+01 0.38776980359E+01
 0.40356572563E+01 0.41837649243E+01 0.43046857753E+01 0.43898025757E+01 0.44386346197E+01
 0.44543180045E+01 0.44386106699E+01 0.43897773465E+01 0.43046798208E+01 0.41837740733E+01
 0.38993602958E+01 0.38775924760E+01 0.38551339554E+01 0.38373346700E+01 0.38276693743E+01
 0.38276005421E+01 0.38372006227E+01 0.38550821222E+01 0.38776980359E+01 0.38995476086E+01
 0.39152169000E+01 0.39220799615E+01 0.39214562241E+01 0.39173607633E+01 0.39140555247E+01
 0.39140978880E+01 0.39174744561E+01 0.39215794389E+01 0.39221099453E+01 0.39150998637E+01
 0.40356706685E+01 0.41369792051E+01 0.42115977489E+01 0.42566120253E+01 0.42715955958E+01
 0.42566357643E+01 0.42116130190E+01 0.41369719634E+01 0.40356572563E+01 0.39152169000E+01
 0.37884009660E+01 0.36710010202E+01 0.35776816926E+01 0.35185068914E+01 0.34983511796E+01
 0.35185016386E+01 0.35776840077E+01 0.36710119469E+01 0.37884095793E+01 0.39152243584E+01
 0.44245311543E+01 0.46185728567E+01 0.47516329995E+01 0.48185623172E+01 0.48186588737E+01
 0.47518022498E+01 0.46186012013E+01 0.44243677399E+01 0.41837649243E+01 0.39220799615E+01
 0.36710010202E+01 0.34605738100E+01 0.33120923040E+01 0.32362020286E+01 0.32362021568E+01
 0.33120609846E+01 0.34604859317E+01 0.36709294390E+01 0.39221431354E+01 0.41839623141E+01
 0.49999458040E+01 0.52350524193E+01 0.53692866461E+01 0.54114575953E+01 0.53692814192E+01
 0.52350525881E+01 0.49999537103E+01 0.46790882535E+01 0.43046857753E+01 0.39214562241E+01
 0.35776816926E+01 0.33120923040E+01 0.31471885944E+01 0.30916611589E+01 0.31472184641E+01
 0.33121207315E+01 0.35776875224E+01 0.39214484762E+01 0.43046764629E+01 0.46790778414E+01
 0.55886695582E+01 0.57311216351E+01 0.57770188363E+01 0.57769074978E+01 0.57309370735E+01
 0.55886646844E+01 0.52995728574E+01 0.48743187408E+01 0.43898025757E+01 0.39173607633E+01
 0.35185068914E+01 0.32362020286E+01 0.30916611589E+01 0.30916259141E+01 0.32361694305E+01
 0.35185780847E+01 0.39174846042E+01 0.43898014451E+01 0.48741309691E+01 0.52993731612E+01
 0.57658556226E+01 0.56867745835E+01 0.56392505244E+01 0.56867529496E+01 0.57658153125E+01
 0.57334502137E+01 0.54756383639E+01 0.49997672674E+01 0.44386346197E+01 0.39140555247E+01
 0.34983511796E+01 0.32362021568E+01 0.31472184641E+01 0.32361694305E+01 0.34983107425E+01
 0.39140289463E+01 0.44386251725E+01 0.49997765739E+01 0.54756673493E+01 0.57334942580E+01
 0.51503693563E+01 0.48624150034E+01 0.48625198383E+01 0.51505194060E+01 0.55251766563E+01
 0.57140873817E+01 0.55467073970E+01 0.50577719134E+01 0.44543180045E+01 0.39140978880E+01
 0.35185016386E+01 0.33120609846E+01 0.33121207315E+01 0.35185780847E+01 0.39140289463E+01
 0.44541349195E+01 0.50577016952E+01 0.55468839607E+01 0.57143454556E+01 0.55252401775E+01
 0.37028099622E+01 0.34031193660E+01 0.37028574947E+01 0.44391769391E+01 0.52203081037E+01
 0.56537611119E+01 0.55621213926E+01 0.50576908141E+01 0.44386106699E+01 0.39174744561E+01
 0.35776840077E+01 0.34604859317E+01 0.35776875224E+01 0.39174846042E+01 0.44386251725E+01
 0.50577016952E+01 0.55621210206E+01 0.56537431007E+01 0.52202637886E+01 0.44391151716E+01
 0.18333033659E+01 0.18332400063E+01 0.26685994343E+01 0.39430918610E+01 0.50851445681E+01
 0.56538664790E+01 0.55467471535E+01 0.49995812628E+01 0.43897773465E+01 0.39215794389E+01
 0.36710119469E+01 0.36709294390E+01 0.39214484762E+01 0.43898014451E+01 0.49997765739E+01
 0.55468839607E+01 0.56537431007E+01 0.50848613555E+01 0.39429318486E+01 0.26686485664E+01
 0.25521874275E+00 0.81874323898E+00 0.22555954932E+01 0.39429764224E+01 0.52202736698E+01
 0.57143194074E+01 0.54756744123E+01 0.48741709828E+01 0.43046798208E+01 0.39221099453E+01
 0.37884095793E+01 0.39221431354E+01 0.43046764629E+01 0.48741309691E+01 0.54756673493E+01
 0.57143454556E+01 0.52202637886E+01 0.39429318486E+01 0.22555875753E+01 0.81877361090E+00
 -.36166393063E+00 0.81878296474E+00 0.26685511304E+01 0.44389324381E+01 0.55251519353E+01
 0.57336309186E+01 0.52995933437E+01 0.46791070227E+01 0.41837740733E+01 0.39150998637E+01
 0.39152243584E+01 0.41839623141E+01 0.46790778414E+01 0.52993731612E+01 0.57334942580E+01
 0.55252401775E+01 0.44391151716E+01 0.26686485664E+01 0.81877361090E+00 -.36168563476E+00
 0.26845952479E+01 0.39841543205E+01 0.51503345894E+01 0.57360412168E+01 0.56381548947E+01
 0.50951736303E+01 0.44872406845E+01 0.40199538275E+01 0.37697518231E+01 0.37696459196E+01
 0.40197811092E+01 0.44872194228E+01 0.50952679992E+01 0.56381249679E+01 0.57358301789E+01
 0.51502310669E+01 0.39844403549E+01 0.26851174622E+01 0.18333190796E+01 0.18330541268E+01
 0.39841543205E+01 0.50217808314E+01 0.56867262000E+01 0.57488553324E+01 0.53088701243E+01
 0.46914501704E+01 0.41588085873E+01 0.38086313731E+01 0.36874159587E+01 0.38086092509E+01
 0.41587806602E+01 0.46914063491E+01 0.53087769154E+01 0.57487291694E+01 0.56866781157E+01
 0.50219264658E+01 0.39844580568E+01 0.30456066259E+01 0.26686454008E+01 0.30453524196E+01
 0.51503345894E+01 0.56867262000E+01 0.57770193629E+01 0.54116249616E+01 0.48186750023E+01
 0.42565877515E+01 0.38372149012E+01 0.36162317662E+01 0.36162965161E+01 0.38373318427E+01
 0.42566172988E+01 0.48185649308E+01 0.54114481610E+01 0.57768962741E+01 0.56867478643E+01
 0.51505080799E+01 0.44391504623E+01 0.39430652276E+01 0.39429658487E+01 0.44389329724E+01
 0.57360412168E+01 0.57488553324E+01 0.54116249616E+01 0.48615947967E+01 0.43067080715E+01
 0.38548160357E+01 0.35654058482E+01 0.34664529234E+01 0.35654127310E+01 0.38548983487E+01
 0.43068523782E+01 0.48616347502E+01 0.54114225776E+01 0.57485410542E+01 0.57359443774E+01
 0.54376321775E+01 0.50852339992E+01 0.49315283908E+01 0.50849155640E+01 0.54373782425E+01
 0.56381548947E+01 0.53088701243E+01 0.48186750023E+01 0.43067080715E+01 0.38607050249E+01
 0.35393458964E+01 0.33732718714E+01 0.33732336637E+01 0.35393105711E+01 0.38607869889E+01
 0.43068686548E+01 0.48187344027E+01 0.53087366156E+01 0.56379576013E+01 0.57312562252E+01
 0.56538345585E+01 0.55552027872E+01 0.55551390155E+01 0.56537508115E+01 0.57313221360E+01
 0.50951736303E+01 0.46914501704E+01 0.42565877515E+01 0.38548160357E+01 0.35393458964E+01
 0.33418659260E+01 0.32751233148E+01 0.33418404270E+01 0.35393145745E+01 0.38548132432E+01
 0.42566515501E+01 0.46915786065E+01 0.50952704547E+01 0.53942094884E+01 0.55466099763E+01
 0.55899635593E+01 0.55934367436E+01 0.55901973104E+01 0.55468572909E+01 0.53942782214E+01
 0.44872406845E+01 0.41588085873E+01 0.38372149012E+01 0.35654058482E+01 0.33732718714E+01
 0.32751233148E+01 0.32751135879E+01 0.33732605683E+01 0.35654124743E+01 0.38372266244E+01
 0.41588112448E+01 0.44872398371E+01 0.47781841141E+01 0.49996996331E+01 0.51352418583E+01
 0.51937917721E+01 0.51938524467E+01 0.51353633175E+01 0.49997831304E+01 0.47782068107E+01
 0.40199538275E+01 0.38086313731E+01 0.36162317662E+01 0.34664529234E+01 0.33732336637E+01
 0.33418404270E+01 0.33732605683E+01 0.34665121174E+01 0.36162764583E+01 0.38085811682E+01
 0.40198016067E+01 0.42216660172E+01 0.43898129399E+01 0.45103882524E+01 0.45805542614E+01
 0.46032360506E+01 0.45804467998E+01 0.45102853295E+01 0.43898328265E+01 0.42218110596E+01
 0.37697518231E+01 0.36874159587E+01 0.36162965161E+01 0.35654127310E+01 0.35393105711E+01
 0.35393145745E+01 0.35654124743E+01 0.36162764583E+01 0.36873872761E+01 0.37697419497E+01
 0.38514108972E+01 0.39214666193E+01 0.39734902944E+01 0.40062681212E+01 0.40216841253E+01
 0.40216840874E+01 0.40062639363E+01 0.39734742025E+01 0.39214404747E+01 0.38513936860E+01
 0.37696459196E+01 0.38086092509E+01 0.38373318427E+01 0.38548983487E+01 0.38607869889E+01
 0.38548132432E+01 0.38372266244E+01 0.38085811682E+01 0.37697419497E+01 0.37225776459E+01
 0.36709878388E+01 0.36210583127E+01 0.35796972683E+01 0.35526430659E+01 0.35432993171E+01
 0.35527160065E+01 0.35797890531E+01 0.36210805952E+01 0.36708921374E+01 0.37224213027E+01
 0.40197811092E+01 0.41587806602E+01 0.42566172988E+01 0.43068523782E+01 0.43068686548E+01
 0.42566515501E+01 0.41588112448E+01 0.40198016067E+01 0.38514108972E+01 0.36709878388E+01
 0.34991464649E+01 0.33553280427E+01 0.32536210258E+01 0.32014643362E+01 0.32014528996E+01
 0.32536098543E+01 0.33553478056E+01 0.34991851122E+01 0.36710099347E+01 0.38514059560E+01
 0.44872194228E+01 0.46914063491E+01 0.48185649308E+01 0.48616347502E+01 0.48187344027E+01
 0.46915786065E+01 0.44872398371E+01 0.42216660172E+01 0.39214666193E+01 0.36210583127E+01
 0.33553280427E+01 0.31515638622E+01 0.30254592455E+01 0.29830279376E+01 0.30254400756E+01
 0.31515232724E+01 0.33553005432E+01 0.36211071350E+01 0.39216027427E+01 0.42217896197E+01
 0.50952679992E+01 0.53087769154E+01 0.54114481610E+01 0.54114225776E+01 0.53087366156E+01
 0.50952704547E+01 0.47781841141E+01 0.43898129399E+01 0.39734902944E+01 0.35796972683E+01
 0.32536210258E+01 0.30254592455E+01 0.29093568542E+01 0.29093618377E+01 0.30254721074E+01
 0.32536367994E+01 0.35797051767E+01 0.39734721140E+01 0.43897616680E+01 0.47781338639E+01
 0.56381249679E+01 0.57487291694E+01 0.57768962741E+01 0.57485410542E+01 0.56379576013E+01
 0.53942094884E+01 0.49996996331E+01 0.45103882524E+01 0.40062681212E+01 0.35526430659E+01
 0.32014643362E+01 0.29830279376E+01 0.29093618377E+01 0.29830258910E+01 0.32014943036E+01
 0.35526935167E+01 0.40062545518E+01 0.45102548054E+01 0.49995366597E+01 0.53941869103E+01
 0.57358301789E+01 0.56866781157E+01 0.56867478643E+01 0.57359443774E+01 0.57312562252E+01
 0.55466099763E+01 0.51352418583E+01 0.45805542614E+01 0.40216841253E+01 0.35432993171E+01
 0.32014528996E+01 0.30254400756E+01 0.30254721074E+01 0.32014943036E+01 0.35432712479E+01
 0.40216108929E+01 0.45805524873E+01 0.51353587914E+01 0.55467372848E+01 0.57312561678E+01
 0.51502310669E+01 0.50219264658E+01 0.51505080799E+01 0.54376321775E+01 0.56538345585E+01
 0.55899635593E+01 0.51937917721E+01 0.46032360506E+01 0.40216840874E+01 0.35527160065E+01
 0.32536098543E+01 0.31515232724E+01 0.32536367994E+01 0.35526935167E+01 0.40216108929E+01
 0.46032467982E+01 0.51939864381E+01 0.55902159423E+01 0.56538803378E+01 0.54373904249E+01
 0.39844403549E+01 0.39844580568E+01 0.44391504623E+01 0.50852339992E+01 0.55552027872E+01
 0.55934367436E+01 0.51938524467E+01 0.45804467998E+01 0.40062639363E+01 0.35797890531E+01
 0.33553478056E+01 0.33553005432E+01 0.35797051767E+01 0.40062545518E+01 0.45805524873E+01
 0.51939864381E+01 0.55934761288E+01 0.55551225711E+01 0.50851189958E+01 0.44390818249E+01
 0.26851174622E+01 0.30456066259E+01 0.39430652276E+01 0.49315283908E+01 0.55551390155E+01
 0.55901973104E+01 0.51353633175E+01 0.45102853295E+01 0.39734742025E+01 0.36210805952E+01
 0.34991851122E+01 0.36211071350E+01 0.39734721140E+01 0.45102548054E+01 0.51353587914E+01
 0.55902159423E+01 0.55551225711E+01 0.49314777355E+01 0.39430419609E+01 0.30456195533E+01
 0.18333190796E+01 0.26686454008E+01 0.39429658487E+01 0.50849155640E+01 0.56537508115E+01
 0.55468572909E+01 0.49997831304E+01 0.43898328265E+01 0.39214404747E+01 0.36708921374E+01
 0.36710099347E+01 0.39216027427E+01 0.43897616680E+01 0.49995366597E+01 0.55467372848E+01
 0.56538803378E+01 0.50851189958E+01 0.39430419609E+01 0.26685965865E+01 0.18332788939E+01
 0.18330541268E+01 0.30453524196E+01 0.44389329724E+01 0.54373782425E+01 0.57313221360E+01
 0.53942782214E+01 0.47782068107E+01 0.42218110596E+01 0.38513936860E+01 0.37224213027E+01
 0.38514059560E+01 0.42217896197E+01 0.47781338639E+01 0.53941869103E+01 0.57312561678E+01
 0.54373904249E+01 0.44390818249E+01 0.30456195533E+01 0.18332788939E+01 0.13537057957E+01
 0.46721853061E+01 0.53901605377E+01 0.57658353084E+01 0.56381742242E+01 0.51255112926E+01
 0.45172013458E+01 0.40075615053E+01 0.36760667644E+01 0.35618724736E+01 0.36760412064E+01
 0.40075596691E+01 0.45172327338E+01 0.51255305136E+01 0.56381663375E+01 0.57658437924E+01
 0.53902173019E+01 0.46722617557E+01 0.39844449124E+01 0.37028318470E+01 0.39843964073E+01
 0.53901605377E+01 0.57622755475E+01 0.57309574286E+01 0.53088846090E+01 0.47155370303E+01
 0.41688205211E+01 0.37641202091E+01 0.35518016351E+01 0.35518687227E+01 0.37642267968E+01