   1   1   0   0
  0.1454673E+02  0.2740060E-09  0.2740060E-09  0.2740060E-09  0.5000000E-15
  1.000000000000000E-004
  CAR 
 fcc Si                                  
     38.41661237     -6.33820260  301      9.95264624      1.00000000
     -6.338  0.0000E+00  0.0000E+00
     -6.189  0.0000E+00  0.0000E+00
     -6.040  0.0000E+00  0.0000E+00
     -5.891  0.0000E+00  0.0000E+00
     -5.741  0.0000E+00  0.0000E+00
     -5.592  0.0000E+00  0.0000E+00
     -5.443  0.0000E+00  0.0000E+00
     -5.294  0.0000E+00  0.0000E+00
     -5.145  0.0000E+00  0.0000E+00
     -4.996  0.0000E+00  0.0000E+00
     -4.846  0.8555E-16  0.1276E-16
     -4.697  0.1342E-09  0.2003E-10
     -4.548  0.2799E-05  0.4175E-06
     -4.399  0.9008E-03  0.1348E-03
     -4.250  0.7296E-02  0.1223E-02
     -4.100  0.2945E-01  0.5616E-02
     -3.951  0.8971E-01  0.1900E-01
     -3.802  0.2662E-01  0.2297E-01
     -3.653  0.6610E-01  0.3283E-01
     -3.504  0.8460E-01  0.4545E-01
     -3.355  0.2082E+00  0.7652E-01
     -3.205  0.7969E-01  0.8840E-01
     -3.056  0.2265E-01  0.9178E-01
     -2.907  0.4952E-01  0.9917E-01
     -2.758  0.2150E+00  0.1312E+00
     -2.609  0.2396E+00  0.1670E+00
     -2.459  0.6169E-01  0.1762E+00
     -2.310  0.1750E+00  0.2023E+00
     -2.161  0.1754E+00  0.2285E+00
     -2.012  0.1641E+00  0.2529E+00
     -1.863  0.1576E-01  0.2553E+00
     -1.714  0.8320E-01  0.2677E+00
     -1.564  0.1794E+00  0.2945E+00
     -1.415  0.5037E+00  0.3696E+00
     -1.266  0.1358E+00  0.3899E+00
     -1.117  0.1328E+00  0.4097E+00
     -0.968  0.1418E+00  0.4308E+00
     -0.818  0.2855E+00  0.4734E+00
     -0.669  0.1563E+00  0.4967E+00
     -0.520  0.3702E-01  0.5023E+00
     -0.371  0.7894E-01  0.5140E+00
     -0.222  0.3971E+00  0.5733E+00
     -0.073  0.2840E+00  0.6156E+00
      0.077  0.1333E+00  0.6355E+00
      0.226  0.3477E+00  0.6874E+00
      0.375  0.4407E+00  0.7531E+00
      0.524  0.2928E+00  0.7968E+00
      0.673  0.1518E-01  0.7991E+00
      0.823  0.4593E-01  0.8059E+00
      0.972  0.1674E+00  0.8309E+00
      1.121  0.4670E+00  0.9006E+00
      1.270  0.1231E+00  0.9189E+00
      1.419  0.2471E+00  0.9558E+00
      1.568  0.2890E+00  0.9989E+00
      1.718  0.5118E+00  0.1075E+01
      1.867  0.1029E+00  0.1091E+01
      2.016  0.1461E+00  0.1112E+01
      2.165  0.2892E+00  0.1156E+01
      2.314  0.7594E+00  0.1269E+01
      2.464  0.2952E+00  0.1313E+01
      2.613  0.1720E+00  0.1339E+01
      2.762  0.8732E-01  0.1352E+01
      2.911  0.3425E+00  0.1403E+01
      3.060  0.1047E+00  0.1418E+01
      3.209  0.1712E+00  0.1444E+01
      3.359  0.1052E+00  0.1460E+01
      3.508  0.4869E+00  0.1532E+01
      3.657  0.4522E+00  0.1600E+01
      3.806  0.4701E+00  0.1670E+01
      3.955  0.3131E+00  0.1716E+01
      4.105  0.4542E+00  0.1784E+01
      4.254  0.4685E+00  0.1854E+01
      4.403  0.9051E-01  0.1868E+01
      4.552  0.2369E-02  0.1868E+01
      4.701  0.1367E+00  0.1888E+01
      4.851  0.8007E+00  0.2008E+01
      5.000  0.6517E+00  0.2105E+01
      5.149  0.2180E+00  0.2138E+01
      5.298  0.5981E-01  0.2146E+01
      5.447  0.2013E+00  0.2177E+01
      5.596  0.2604E+00  0.2215E+01
      5.746  0.1464E+00  0.2237E+01
      5.895  0.2079E+00  0.2268E+01
      6.044  0.8251E+00  0.2391E+01
      6.193  0.4854E+00  0.2464E+01
      6.342  0.4073E+00  0.2525E+01
      6.492  0.3182E+00  0.2572E+01
      6.641  0.6785E+00  0.2673E+01
      6.790  0.3578E+00  0.2727E+01
      6.939  0.1931E+00  0.2755E+01
      7.088  0.1867E+00  0.2783E+01
      7.237  0.2390E+00  0.2819E+01
      7.387  0.3856E+00  0.2876E+01
      7.536  0.5472E+00  0.2958E+01
      7.685  0.4535E+00  0.3026E+01
      7.834  0.4127E+00  0.3087E+01
      7.983  0.9596E-01  0.3102E+01
      8.133  0.1806E+00  0.3129E+01
      8.282  0.1882E+00  0.3157E+01
      8.431  0.3875E+00  0.3214E+01
      8.580  0.1113E+01  0.3380E+01
      8.729  0.6006E+00  0.3470E+01
      8.878  0.1388E+00  0.3491E+01
      9.028  0.4852E+00  0.3563E+01
      9.177  0.3130E+00  0.3610E+01
      9.326  0.8730E-01  0.3623E+01
      9.475  0.3001E+00  0.3668E+01
      9.624  0.8167E+00  0.3789E+01
      9.774  0.6922E+00  0.3893E+01
      9.923  0.5934E+00  0.3981E+01
     10.072  0.3974E+00  0.4041E+01
     10.221  0.3112E+00  0.4087E+01
     10.370  0.3036E+00  0.4132E+01
     10.519  0.1100E+00  0.4149E+01
     10.669  0.4103E-01  0.4155E+01
     10.818  0.1286E+00  0.4174E+01
     10.967  0.7986E+00  0.4293E+01
     11.116  0.1039E+01  0.4448E+01
     11.265  0.4308E+00  0.4512E+01
     11.415  0.6021E+00  0.4602E+01
     11.564  0.4890E+00  0.4675E+01
     11.713  0.2121E+00  0.4707E+01
     11.862  0.3830E+00  0.4764E+01
     12.011  0.2828E+00  0.4806E+01
     12.160  0.7945E+00  0.4925E+01
     12.310  0.7358E+00  0.5034E+01
     12.459  0.4343E+00  0.5099E+01
     12.608  0.6101E+00  0.5190E+01
     12.757  0.5677E+00  0.5275E+01
     12.906  0.3473E+00  0.5327E+01
     13.056  0.1435E+00  0.5348E+01
     13.205  0.6455E+00  0.5444E+01
     13.354  0.7238E+00  0.5552E+01
     13.503  0.3638E+00  0.5607E+01
     13.652  0.3274E+00  0.5655E+01
     13.801  0.5924E+00  0.5744E+01
     13.951  0.8389E+00  0.5869E+01
     14.100  0.2579E+00  0.5907E+01
     14.249  0.7073E+00  0.6013E+01
     14.398  0.7040E+00  0.6118E+01
     14.547  0.8872E+00  0.6250E+01
     14.697  0.3013E+00  0.6295E+01
     14.846  0.3944E+00  0.6354E+01
     14.995  0.4636E+00  0.6423E+01
     15.144  0.2691E+00  0.6463E+01
     15.293  0.5712E-01  0.6472E+01
     15.442  0.1829E+00  0.6499E+01
     15.592  0.1013E+01  0.6650E+01
     15.741  0.8440E+00  0.6776E+01
     15.890  0.4612E+00  0.6845E+01
     16.039  0.5372E+00  0.6925E+01
     16.188  0.3304E+00  0.6975E+01
     16.338  0.5169E+00  0.7052E+01
     16.487  0.4202E+00  0.7114E+01
     16.636  0.4517E+00  0.7182E+01
     16.785  0.3397E+00  0.7232E+01
     16.934  0.3992E+00  0.7292E+01
     17.083  0.8730E+00  0.7422E+01
     17.233  0.8140E+00  0.7544E+01
     17.382  0.2705E+00  0.7584E+01
     17.531  0.1886E+00  0.7612E+01
     17.680  0.2902E+00  0.7655E+01
     17.829  0.3056E+00  0.7701E+01
     17.979  0.4004E+00  0.7761E+01
     18.128  0.5886E+00  0.7849E+01
     18.277  0.6176E+00  0.7941E+01
     18.426  0.6454E+00  0.8037E+01
     18.575  0.5178E+00  0.8114E+01
     18.724  0.8118E+00  0.8235E+01
     18.874  0.8877E+00  0.8368E+01
     19.023  0.5786E+00  0.8454E+01
     19.172  0.2004E+00  0.8484E+01
     19.321  0.9977E-01  0.8499E+01
     19.470  0.6232E+00  0.8592E+01
     19.620  0.1132E+01  0.8761E+01
     19.769  0.8386E+00  0.8886E+01
     19.918  0.4869E+00  0.8958E+01
     20.067  0.5380E+00  0.9039E+01
     20.216  0.3561E+00  0.9092E+01
     20.366  0.2352E+00  0.9127E+01
     20.515  0.4452E+00  0.9193E+01
     20.664  0.5787E+00  0.9280E+01
     20.813  0.3925E+00  0.9338E+01
     20.962  0.1357E+00  0.9358E+01
     21.111  0.8568E+00  0.9486E+01
     21.261  0.1488E+01  0.9708E+01
     21.410  0.4338E+00  0.9773E+01
     21.559  0.4070E+00  0.9834E+01
     21.708  0.5224E+00  0.9912E+01
     21.857  0.5494E+00  0.9994E+01
     22.007  0.4009E+00  0.1005E+02
     22.156  0.5409E+00  0.1013E+02
     22.305  0.4796E+00  0.1021E+02
     22.454  0.6207E+00  0.1030E+02
     22.603  0.5390E+00  0.1038E+02
     22.752  0.8162E+00  0.1050E+02
     22.902  0.1371E+01  0.1070E+02
     23.051  0.4455E+00  0.1077E+02
     23.200  0.4362E+00  0.1084E+02
     23.349  0.7406E+00  0.1095E+02
     23.498  0.7042E+00  0.1105E+02
     23.648  0.2581E+00  0.1109E+02
     23.797  0.1485E+00  0.1111E+02
     23.946  0.4568E+00  0.1118E+02
     24.095  0.5594E+00  0.1126E+02
     24.244  0.7275E+00  0.1137E+02
     24.393  0.9597E+00  0.1152E+02
     24.543  0.1161E+01  0.1169E+02
     24.692  0.5491E+00  0.1177E+02
     24.841  0.5701E+00  0.1186E+02
     24.990  0.8618E+00  0.1198E+02
     25.139  0.5362E+00  0.1206E+02
     25.289  0.3416E+00  0.1212E+02
     25.438  0.9569E+00  0.1226E+02
     25.587  0.4977E+00  0.1233E+02
     25.736  0.7462E+00  0.1244E+02
     25.885  0.3446E+00  0.1250E+02
     26.034  0.4133E+00  0.1256E+02
     26.184  0.4333E+00  0.1262E+02
     26.333  0.3874E+00  0.1268E+02
     26.482  0.1468E+01  0.1290E+02
     26.631  0.5293E+00  0.1298E+02
     26.780  0.3662E+00  0.1303E+02
     26.930  0.8115E+00  0.1315E+02
     27.079  0.9199E+00  0.1329E+02
     27.228  0.8023E+00  0.1341E+02
     27.377  0.3255E+00  0.1346E+02
     27.526  0.3511E+00  0.1351E+02
     27.675  0.5242E+00  0.1359E+02
     27.825  0.2857E+00  0.1363E+02
     27.974  0.7652E+00  0.1375E+02
     28.123  0.1248E+01  0.1393E+02
     28.272  0.4703E+00  0.1400E+02
     28.421  0.5477E+00  0.1408E+02
     28.571  0.5979E+00  0.1417E+02
     28.720  0.2477E+00  0.1421E+02
     28.869  0.2611E+00  0.1425E+02
     29.018  0.7758E+00  0.1436E+02
     29.167  0.6116E+00  0.1446E+02
     29.316  0.3366E+00  0.1451E+02
     29.466  0.4126E+00  0.1457E+02
     29.615  0.4205E+00  0.1463E+02
     29.764  0.1127E+00  0.1465E+02
     29.913  0.1000E+00  0.1466E+02
     30.062  0.6260E+00  0.1476E+02
     30.212  0.6166E+00  0.1485E+02
     30.361  0.2056E+00  0.1488E+02
     30.510  0.8219E+00  0.1500E+02
     30.659  0.9989E+00  0.1515E+02
     30.808  0.3712E+00  0.1521E+02
     30.957  0.4228E+00  0.1527E+02
     31.107  0.3083E+00  0.1531E+02
     31.256  0.2870E+00  0.1536E+02
     31.405  0.4957E+00  0.1543E+02
     31.554  0.3976E+00  0.1549E+02
     31.703  0.2711E+00  0.1553E+02
     31.853  0.2156E+00  0.1556E+02
     32.002  0.5484E-01  0.1557E+02
     32.151  0.1710E+00  0.1560E+02
     32.300  0.1025E+00  0.1561E+02
     32.449  0.1646E+00  0.1564E+02
     32.598  0.9902E-01  0.1565E+02
     32.748  0.2610E+00  0.1569E+02
     32.897  0.1353E+00  0.1571E+02
     33.046  0.5294E-02  0.1571E+02
     33.195  0.4396E-01  0.1572E+02
     33.344  0.3648E+00  0.1577E+02
     33.494  0.1366E+00  0.1579E+02
     33.643  0.1070E+00  0.1581E+02
     33.792  0.1278E+00  0.1583E+02
     33.941  0.5063E-01  0.1584E+02
     34.090  0.1911E+00  0.1586E+02
     34.239  0.1315E+00  0.1588E+02
     34.389  0.5703E-01  0.1589E+02
     34.538  0.1633E+00  0.1592E+02
     34.687  0.2960E+00  0.1596E+02
     34.836  0.5153E-01  0.1597E+02
     34.985  0.3008E-01  0.1597E+02
     35.135  0.1165E-02  0.1597E+02
     35.284  0.8865E-06  0.1597E+02
     35.433  0.9507E-10  0.1597E+02
     35.582  0.4837E-05  0.1597E+02
     35.731  0.4019E-02  0.1597E+02
     35.881  0.6952E-01  0.1598E+02
     36.030  0.4630E-01  0.1599E+02
     36.179  0.1153E-02  0.1599E+02
     36.328  0.1326E-01  0.1599E+02
     36.477  0.4163E-01  0.1600E+02
     36.626  0.5404E-02  0.1600E+02
     36.776  0.1679E-04  0.1600E+02
     36.925  0.8054E-09  0.1600E+02
     37.074  0.5099E-15  0.1600E+02
     37.223  0.0000E+00  0.1600E+02
     37.372  0.0000E+00  0.1600E+02
     37.522  0.0000E+00  0.1600E+02
     37.671  0.0000E+00  0.1600E+02
     37.820  0.0000E+00  0.1600E+02
     37.969  0.0000E+00  0.1600E+02
     38.118  0.0000E+00  0.1600E+02
     38.267  0.0000E+00  0.1600E+02
     38.417  0.0000E+00  0.1600E+02
