    1    1    1    1
  0.1454673E+02  0.2740060E-09  0.2740060E-09  0.2740060E-09  0.5000000E-15
  1.000000000000000E-004
  CAR 
 fcc Si                                  
      4     56      8
 
  0.0000000E+00  0.0000000E+00  0.0000000E+00  0.7513148E-03
      1         -4.303893   1.000000
      2         21.178362   0.000000
      3         21.178498   0.000000
      4         21.178499   0.000000
      5         22.183830   0.000000
      6         22.183837   0.000000
      7         22.183837   0.000000
      8         27.359706   0.000000
 
  0.9090909E-01  0.1847028E-17  0.1847028E-17  0.6010518E-02
      1         -4.064309   1.000000
      2         18.089371   0.000000
      3         20.266495   0.000000
      4         20.266633   0.000000
      5         23.281746   0.000000
      6         23.340621   0.000000
      7         23.340712   0.000000
      8         28.032340   0.000000
 
  0.1818182E+00  0.2525293E-18  0.2525293E-18  0.6010518E-02
      1         -3.346758   1.000000
      2         14.211712   0.000000
      3         19.363951   0.000000
      4         19.364097   0.000000
      5         23.327520   0.000000
      6         24.346753   0.000000
      7         24.347341   0.000000
      8         27.149584   0.000000
 
  0.2727273E+00 -0.1221181E-16  0.1554377E-16  0.6010518E-02
      1         -2.156950   1.000000
      2         10.519127   0.000000
      3         18.816055   0.000000
      4         18.816207   0.000000
      5         23.195078   0.000000
      6         23.278227   0.000000
      7         23.278812   0.000000
      8         28.454534   0.000000
 
  0.3636364E+00  0.3946586E-17  0.3946586E-17  0.6010518E-02
      1         -0.503123   1.000000
      2          7.164887   1.000000
      3         18.601539   0.000000
      4         18.601704   0.000000
      5         21.952554   0.000000
      6         21.953185   0.000000
      7         23.244620   0.000000
      8         26.957021   0.000000
 
  0.4545455E+00 -0.1282643E-16  0.1492915E-16  0.6010518E-02
      1          1.581103   1.000000
      2          4.221205   1.000000
      3         18.603441   0.000000
      4         18.603573   0.000000
      5         21.150805   0.000000
      6         21.151450   0.000000
      7         23.402073   0.000000
      8         26.017097   0.000000
 
  0.9090909E-01  0.9090909E-01  0.6567458E-17  0.4507889E-02
      1         -3.984479   1.000000
      2         18.900108   0.000000
      3         18.900226   0.000000
      4         20.451116   0.000000
      5         20.607611   0.000000
      6         24.817333   0.000000
      7         24.817363   0.000000
      8         26.107812   0.000000
 
  0.1818182E+00  0.9090909E-01  0.1857182E-16  0.1803156E-01
      1         -3.426239   1.000000
      2         15.647536   0.000000
      3         17.869661   0.000000
      4         19.597747   0.000000
      5         21.435308   0.000000
      6         24.188221   0.000000
      7         25.631471   0.000000
      8         26.220971   0.000000
 
  0.2727273E+00  0.9090909E-01  0.1369674E-16  0.1803156E-01
      1         -2.394014   1.000000
      2         11.901570   0.000000
      3         17.232498   0.000000
      4         18.790847   0.000000
      5         21.080974   0.000000
      6         24.439338   0.000000
      7         25.717161   0.000000
      8         26.064439   0.000000
 
  0.3636364E+00  0.9090909E-01  0.1554377E-16  0.1803156E-01
      1         -0.894648   1.000000
      2          8.436611   1.000000
      3         17.001735   0.000000
      4         17.992291   0.000000
      5         20.123067   0.000000
      6         24.317923   0.000000
      7         24.897955   0.000000
      8         27.964005   0.000000
 
  0.4545455E+00  0.9090909E-01  0.2739348E-16  0.1803156E-01
      1          1.052695   1.000000
      2          5.350691   1.000000
      3         17.081248   0.000000
      4         17.167791   0.000000
      5         19.954228   0.000000
      6         23.125403   0.000000
      7         24.954729   0.000000
      8         28.066219   0.000000
 
 -0.4545455E+00  0.9090909E-01 -0.3108754E-16  0.1803156E-01
      1          2.519132   1.000000
      2          3.597933   1.000000
      3         16.314726   0.000000
      4         17.710368   0.000000
      5         20.480282   0.000000
      6         22.335134   0.000000
      7         24.803990   0.000000
      8         27.985048   0.000000
 
 -0.3636364E+00  0.9090909E-01 -0.1923783E-16  0.1803156E-01
      1          0.356170   1.000000
      2          6.332440   1.000000
      3         15.878219   0.000000
      4         18.557815   0.000000
      5         21.483435   0.000000
      6         22.034365   0.000000
      7         24.540564   0.000000
      8         28.644166   0.000000
 
 -0.2727273E+00  0.9090909E-01 -0.4813736E-17  0.1803156E-01
      1         -1.445724   1.000000
      2          9.551712   1.000000
      3         15.838508   0.000000
      4         19.573386   0.000000
      5         22.353246   0.000000
      6         22.916054   0.000000
      7         24.366105   0.000000
      8         27.931223   0.000000
 
 -0.1818182E+00  0.9090909E-01 -0.1554377E-16  0.1803156E-01
      1         -2.790425   1.000000
      2         13.119809   0.000000
      3         16.209229   0.000000
      4         20.554179   0.000000
      5         23.184662   0.000000
      6         24.270164   0.000000
      7         24.550876   0.000000
      8         25.652353   0.000000
 
 -0.9090909E-01  0.9090909E-01 -0.3694057E-17  0.9015778E-02
      1         -3.665296   1.000000
      2         16.758345   0.000000
      3         17.140319   0.000000
      4         21.255236   0.000000
      5         22.777322   0.000000
      6         23.886174   0.000000
      7         25.072678   0.000000
      8         26.052589   0.000000
 
  0.1818182E+00  0.1818182E+00  0.2001797E-16  0.4507889E-02
      1         -3.028303   1.000000
      2         16.703396   0.000000
      3         16.703499   0.000000
      4         18.364654   0.000000
      5         18.526670   0.000000
      6         21.619560   0.000000
      7         28.114222   0.000000
      8         28.114287   0.000000
 
  0.2727273E+00  0.1818182E+00  0.8569135E-17  0.1803156E-01
      1         -2.155498   1.000000
      2         13.637421   0.000000
      3         15.936863   0.000000
      4         17.138229   0.000000
      5         18.669788   0.000000
      6         21.134320   0.000000
      7         28.514824   0.000000
      8         28.960888   0.000000
 
  0.3636364E+00  0.1818182E+00  0.1843899E-16  0.1803156E-01
      1         -0.814246   1.000000
      2         10.129369   0.006223
      3         15.582368   0.000000
      4         15.605415   0.000000
      5         18.328636   0.000000
      6         23.298547   0.000000
      7         27.285373   0.000000
      8         29.084659   0.000000
 
  0.4545455E+00  0.1818182E+00  0.1467662E-16  0.1803156E-01
      1          0.981720   1.000000
      2          6.930320   1.000000
      3         14.216116   0.000000
      4         15.636198   0.000000
      5         18.336707   0.000000
      6         25.847000   0.000000
      7         25.993774   0.000000
      8         29.133210   0.000000
 
 -0.4545455E+00  0.1818182E+00 -0.1431453E-16  0.1803156E-01
      1          3.142903   1.000000
      2          4.201540   1.000000
      3         13.171853   0.000000
      4         16.102546   0.000000
      5         18.831595   0.000000
      6         25.036643   0.000000
      7         27.075045   0.000000
      8         30.437032   0.000000
 
 -0.3636364E+00  0.1818182E+00 -0.2935324E-16  0.1803156E-01
      1          1.675760   1.000000
      2          5.949198   1.000000
      3         12.537515   0.000000
      4         16.963403   0.000000
      5         19.785678   0.000000
      6         24.484580   0.000000
      7         26.874274   0.000000
      8         30.563458   0.000000
 
 -0.2727273E+00  0.1818182E+00 -0.1492915E-16  0.1803156E-01
      1         -0.266181   1.000000
      2          9.002423   1.000000
      3         12.345874   0.000000
      4         18.185890   0.000000
      5         21.168451   0.000000
      6         24.362610   0.000000
      7         26.414890   0.000000
      8         27.415875   0.000000
 
 -0.1818182E+00  0.1818182E+00 -0.5050586E-18  0.9015778E-02
      1         -1.760879   1.000000
      2         12.112759   0.000000
      3         12.895248   0.000000
      4         19.645071   0.000000
      5         22.883044   0.000000
      6         24.622578   0.000000
      7         24.826582   0.000000
      8         25.642559   0.000000
 
  0.2727273E+00  0.2727273E+00 -0.3029972E-18  0.4507889E-02
      1         -1.443618   1.000000
      2         14.996668   0.000000
      3         15.033218   0.000000
      4         15.033310   0.000000
      5         16.534560   0.000000
      6         18.906428   0.000000
      7         31.338758   0.000000
      8         31.403590   0.000000
 
  0.3636364E+00  0.2727273E+00  0.2497391E-17  0.1803156E-01
      1         -0.263763   1.000000
      2         12.128840   0.000000
      3         13.143477   0.000000
      4         14.538667   0.000000
      5         16.902370   0.000000
      6         19.603390   0.000000
      7         30.478114   0.000000
      8         32.085688   0.000000
 
  0.4545455E+00  0.2727273E+00  0.1369674E-16  0.1803156E-01
      1          1.373803   1.000000
      2          8.917436   1.000000
      3         11.468802   0.000000
      4         14.464353   0.000000
      5         17.007867   0.000000
      6         22.277365   0.000000
      7         29.241543   0.000000
      8         31.764891   0.000000
 
 -0.4545455E+00  0.2727273E+00 -0.4451645E-17  0.1803156E-01
      1          3.439236   1.000000
      2          6.025286   1.000000
      3         10.223545   0.000064
      4         14.806364   0.000000
      5         17.424437   0.000000
      6         25.477896   0.000000
      7         28.218663   0.000000
      8         30.987688   0.000000
 
 -0.3636364E+00  0.2727273E+00 -0.1775606E-16  0.1803156E-01
      1          3.440158   1.000000
      2          6.006883   1.000000
      3          9.433214   1.000000
      4         15.558307   0.000000
      5         18.265189   0.000000
      6         27.519344   0.000000
      7         28.456180   0.000000
      8         30.096851   0.000000
 
 -0.2727273E+00  0.2727273E+00  0.2442361E-16  0.9015778E-02
      1          1.371212   1.000000
      2          8.533160   1.000000
      3          9.447692   1.000000
      4         16.702756   0.000000
      5         19.527033   0.000000
      6         26.944451   0.000000
      7         27.648786   0.000000
      8         28.330011   0.000000
 
  0.3636364E+00  0.3636364E+00  0.3315289E-16  0.4507889E-02
      1          0.752372   1.000000
      2         10.821886   0.000000
      3         13.909454   0.000000
      4         13.909564   0.000000
      5         15.263695   0.000000
      6         17.594198   0.000000
      7         33.261778   0.000000
      8         34.126651   0.000000
 
  0.4545455E+00  0.3636364E+00  0.1878861E-16  0.1803156E-01
      1          2.225854   1.000000
      2          8.972855   1.000000
      3         11.353573   0.000000
      4         13.698277   0.000000
      5         15.955080   0.000000
      6         18.738328   0.000000
      7         32.630537   0.000000
      8         34.581030   0.000000
 
 -0.4545455E+00  0.3636364E+00  0.1181678E-15  0.1803156E-01
      1          4.126848   1.000000
      2          7.492724   1.000000
      3          8.472923   1.000000
      4         13.904962   0.000000
      5         16.387751   0.000000
      6         21.758431   0.000000
      7         31.570820   0.000000
      8         33.651851   0.000000
 
 -0.3636364E+00  0.3636364E+00 -0.7893172E-17  0.9015778E-02
      1          5.582445   1.000000
      2          6.128501   1.000000
      3          7.140295   1.000000
      4         14.528453   0.000000
      5         17.126048   0.000000
      6         25.294182   0.000000
      7         30.394470   0.000000
      8         31.671614   0.000000
 
  0.4545455E+00  0.4545455E+00  0.1971497E-16  0.4507889E-02
      1          3.520717   1.000000
      2          6.985452   1.000000
      3         13.348116   0.000000
      4         13.348223   0.000000
      5         14.634138   0.000000
      6         16.990739   0.000000
      7         34.839126   0.000000
      8         36.382303   0.000000
 
 -0.4545455E+00  0.4545455E+00  0.2565285E-16  0.9015778E-02
      1          4.922578   1.000000
      2          5.746583   1.000000
      3         11.045959   0.000000
      4         13.417352   0.000000
      5         15.645499   0.000000
      6         18.454267   0.000000
      7         34.226687   0.000000
      8         35.861043   0.000000
 
  0.2727273E+00  0.1818182E+00  0.9090909E-01  0.1803156E-01
      1         -2.710853   1.000000
      2         14.454743   0.000000
      3         15.022311   0.000000
      4         19.521311   0.000000
      5         21.142287   0.000000
      6         22.739940   0.000000
      7         26.428897   0.000000
      8         27.046058   0.000000
 
  0.3636364E+00  0.1818182E+00  0.9090909E-01  0.3606311E-01
      1         -1.523905   1.000000
      2         11.073618   0.000000
      3         14.280018   0.000000
      4         18.023707   0.000000
      5         21.207838   0.000000
      6         23.838920   0.000000
      7         25.325922   0.000000
      8         27.627644   0.000000
 
  0.4545455E+00  0.1818182E+00  0.9090909E-01  0.3606311E-01
      1          0.124643   1.000000
      2          7.755307   1.000000
      3         14.176598   0.000000
      4         16.565977   0.000000
      5         21.047363   0.000000
      6         23.473468   0.000000
      7         26.430274   0.000000
      8         28.399038   0.000000
 
 -0.4545455E+00  0.1818182E+00  0.9090909E-01  0.3606311E-01
      1          2.203977   1.000000
      2          4.826770   1.000000
      3         14.442333   0.000000
      4         15.489792   0.000000
      5         21.197461   0.000000
      6         22.543077   0.000000
      7         27.141108   0.000000
      8         30.497530   0.000000
 
  0.3636364E+00  0.2727273E+00  0.9090909E-01  0.1803156E-01
      1         -1.128806   1.000000
      2         12.694874   0.000000
      3         13.303606   0.000000
      4         15.539568   0.000000
      5         19.427135   0.000000
      6         20.765105   0.000000
      7         28.026869   0.000000
      8         30.729559   0.000000
 
  0.4545455E+00  0.2727273E+00  0.9090909E-01  0.3606311E-01
      1          0.361276   1.000000
      2          9.584327   1.000000
      3         12.757845   0.000000
      4         13.874589   0.000000
      5         19.766938   0.000000
      6         22.834326   0.000000
      7         26.750605   0.000000
      8         31.245437   0.000000
 
 -0.4545455E+00  0.2727273E+00  0.9090909E-01  0.3606311E-01
      1          2.296689   1.000000
      2          6.548040   1.000000
      3         12.217692   0.000000
      4         13.247374   0.000000
      5         20.026961   0.000000
      6         24.970495   0.000000
      7         26.459232   0.000000
      8         30.921903   0.000000
 
 -0.3636364E+00  0.2727273E+00  0.9090909E-01  0.3606311E-01
      1          3.763906   1.000000
      2          4.798915   1.000000
      3         11.361625   0.000000
      4         13.802165   0.000000
      5         20.650606   0.000000
      6         24.471798   0.000000
      7         28.999176   0.000000
      8         29.563218   0.000000
 
 -0.2727273E+00  0.2727273E+00  0.9090909E-01  0.3606311E-01
      1          1.603447   1.000000
      2          7.502954   1.000000
      3         10.888079   0.000000
      4         14.851862   0.000000
      5         21.630785   0.000000
      6         24.033804   0.000000
      7         26.881765   0.000000
      8         30.151356   0.000000
 
 -0.1818182E+00  0.2727273E+00  0.9090909E-01  0.1803156E-01
      1         -0.187040   1.000000
      2         10.328564   0.000000
      3         11.178547   0.000000
      4         16.308146   0.000000
      5         22.756277   0.000000
      6         23.463433   0.000000
      7         24.744519   0.000000
      8         29.389197   0.000000
 
  0.4545455E+00  0.3636364E+00  0.9090909E-01  0.1803156E-01
      1          1.064151   1.000000
      2         11.017739   0.000000
      3         11.512588   0.000000
      4         12.418265   0.000000
      5         18.252441   0.000000
      6         19.643711   0.000000
      7         30.019420   0.000000
      8         34.004276   0.000000
 
 -0.4545455E+00  0.3636364E+00  0.9090909E-01  0.3606311E-01
      1          2.839928   1.000000
      2          8.625688   1.000000
      3          9.661169   0.999981
      4         12.089369   0.000000
      5         18.899877   0.000000
      6         22.103449   0.000000
      7         28.887676   0.000000
      8         33.299806   0.000000
 
 -0.3636364E+00  0.3636364E+00  0.9090909E-01  0.3606311E-01
      1          4.984723   1.000000
      2          5.967489   1.000000
      3          8.546147   1.000000
      4         12.562493   0.000000
      5         19.468228   0.000000
      6         25.363659   0.000000
      7         28.017383   0.000000
      8         30.568006   0.000000
 
 -0.2727273E+00  0.3636364E+00  0.9090909E-01  0.1803156E-01
      1          3.525073   1.000000
      2          7.332594   1.000000
      3          8.257612   1.000000
      4         13.495396   0.000000
      5         20.394618   0.000000
      6         26.975181   0.000000
      7         27.099365   0.000000
      8         29.414606   0.000000
 
 -0.4545455E+00  0.4545455E+00  0.9090909E-01  0.1803156E-01
      1          3.825349   1.000000
      2          7.275677   1.000000
      3         10.917718   0.000000
      4         11.736735   0.000000
      5         17.648083   0.000000
      6         19.090911   0.000000
      7         32.347807   0.000000
      8         34.553489   0.000000
 
 -0.3636364E+00  0.4545455E+00  0.9090909E-01  0.1803156E-01
      1          5.525566   1.000000
      2          6.312460   1.000000
      3          8.467544   1.000000
      4         11.775976   0.000000
      5         18.614269   0.000000
      6         21.849759   0.000000
      7         31.397006   0.000000
      8         31.428839   0.000000
 
 -0.4545455E+00  0.3636364E+00  0.1818182E+00  0.1803156E-01
      1          1.992801   1.000000
      2          9.133175   1.000000
      3          9.953715   0.493972
      4         12.170915   0.000000
      5         22.357853   0.000000
      6         22.883016   0.000000
      7         25.634858   0.000000
      8         32.753363   0.000000
 
 -0.3636364E+00  0.3636364E+00  0.1818182E+00  0.3606311E-01
      1          4.052482   1.000000
      2          6.601290   1.000000
      3          9.890549   0.810080
      4         10.997846   0.000000
      5         22.792415   0.000000
      6         24.132946   0.000000
      7         26.400722   0.000000
      8         29.980714   0.000000
 
 -0.3636364E+00  0.4545455E+00  0.1818182E+00  0.1803156E-01
      1          4.732954   1.000000
      2          8.062868   1.000000
      3          8.533725   1.000000
      4          9.655363   0.999987
      5         21.787977   0.000000
      6         22.591071   0.000000
      7         27.842736   0.000000
      8         30.643227   0.000000
 
 -0.2727273E+00  0.4545455E+00  0.1818182E+00  0.1803156E-01
      1          6.182431   1.000000
      2          6.730885   1.000000
      3          7.644060   1.000000
      4          9.852671   0.921299
      5         22.746814   0.000000
      6         25.369050   0.000000
      7         26.437454   0.000000
      8         28.097461   0.000000
