       N       E                     dE             d eps       ncg     rms          rms(c)
DAV:   1    -0.395790905137E+01   -0.39579E+01   -0.11919E+03  1024   0.211E+02
DAV:   2    -0.489625298719E+01   -0.93834E+00   -0.91242E+00  1376   0.170E+01
DAV:   3    -0.489952890951E+01   -0.32759E-02   -0.32758E-02   992   0.941E-01
DAV:   4    -0.489953007889E+01   -0.11694E-05   -0.11694E-05  1448   0.176E-02
DAV:   5    -0.489953007891E+01   -0.18076E-10   -0.21456E-09   936   0.131E-04    0.304E+00
DAV:   6    -0.488631690957E+01    0.13213E-01   -0.40369E-03  1056   0.276E-01    0.168E+00
DAV:   7    -0.487877144170E+01    0.75455E-02   -0.79655E-03  1056   0.388E-01    0.134E-01
DAV:   8    -0.487873086842E+01    0.40573E-04   -0.22786E-05  1056   0.349E-02
   1 F= -.48787309E+01 E0= -.48773202E+01  d E =-.282129E-02
