<?xml version="1.0" encoding="ISO-8859-1"?>
<modeling>
 <generator>
  <i name="program" type="string">vasp </i>
  <i name="version" type="string">6.3.0  </i>
  <i name="subversion" type="string">20Jan22 (build Feb 01 2022 16:52:37) complex                          parallel </i>
  <i name="platform" type="string">TETRA_NSC1 </i>
  <i name="date" type="string">2022 02 22 </i>
  <i name="time" type="string">16:18:28 </i>
 </generator>
 <incar>
  <i type="string" name="SYSTEM">fcc Si</i>
  <i type="int" name="ISTART">     0</i>
  <i type="int" name="ICHARG">     2</i>
  <i name="ENCUT">    240.00000000</i>
  <i type="int" name="ISMEAR">     0</i>
  <i name="SIGMA">      0.10000000</i>
 </incar>
 <primitive_cell>
  <structure name="primitive_cell" >
   <crystal>
    <varray name="basis" >
     <v>       1.93751524       1.93751524       0.00000000 </v>
     <v>       0.00000000       1.93751524       1.93751524 </v>
     <v>       1.93751524       0.00000000       1.93751524 </v>
    </varray>
    <i name="volume">     14.54673000 </i>
    <varray name="rec_basis" >
     <v>       0.25806249       0.25806249      -0.25806249 </v>
     <v>      -0.25806249       0.25806249       0.25806249 </v>
     <v>       0.25806249      -0.25806249       0.25806249 </v>
    </varray>
   </crystal>
   <varray name="positions" >
    <v>       0.00000000       0.00000000       0.00000000 </v>
   </varray>
  </structure>
  <varray name="primitive_index" >
   <v type="int" >        1 </v>
  </varray>
 </primitive_cell>
 <kpoints>
  <generation param="Monkhorst-Pack">
   <v type="int" name="divisions">      11       11       11 </v>
   <v name="usershift">      0.00000000       0.00000000       0.00000000 </v>
   <v name="genvec1">      0.09090909       0.00000000       0.00000000 </v>
   <v name="genvec2">      0.00000000       0.09090909      -0.00000000 </v>
   <v name="genvec3">     -0.00000000      -0.00000000       0.09090909 </v>
   <v name="shift">      0.00000000       0.00000000       0.00000000 </v>
  </generation>
  <varray name="kpointlist" >
   <v>       0.00000000       0.00000000       0.00000000 </v>
   <v>       0.09090909       0.00000000       0.00000000 </v>
   <v>       0.18181818       0.00000000       0.00000000 </v>
   <v>       0.27272727      -0.00000000       0.00000000 </v>
   <v>       0.36363636       0.00000000       0.00000000 </v>
   <v>       0.45454545      -0.00000000       0.00000000 </v>
   <v>       0.09090909       0.09090909       0.00000000 </v>
   <v>       0.18181818       0.09090909       0.00000000 </v>
   <v>       0.27272727       0.09090909       0.00000000 </v>
   <v>       0.36363636       0.09090909       0.00000000 </v>
   <v>       0.45454545       0.09090909       0.00000000 </v>
   <v>      -0.45454545       0.09090909      -0.00000000 </v>
   <v>      -0.36363636       0.09090909      -0.00000000 </v>
   <v>      -0.27272727       0.09090909      -0.00000000 </v>
   <v>      -0.18181818       0.09090909      -0.00000000 </v>
   <v>      -0.09090909       0.09090909      -0.00000000 </v>
   <v>       0.18181818       0.18181818       0.00000000 </v>
   <v>       0.27272727       0.18181818       0.00000000 </v>
   <v>       0.36363636       0.18181818       0.00000000 </v>
   <v>       0.45454545       0.18181818       0.00000000 </v>
   <v>      -0.45454545       0.18181818      -0.00000000 </v>
   <v>      -0.36363636       0.18181818      -0.00000000 </v>
   <v>      -0.27272727       0.18181818      -0.00000000 </v>
   <v>      -0.18181818       0.18181818      -0.00000000 </v>
   <v>       0.27272727       0.27272727      -0.00000000 </v>
   <v>       0.36363636       0.27272727       0.00000000 </v>
   <v>       0.45454545       0.27272727       0.00000000 </v>
   <v>      -0.45454545       0.27272727      -0.00000000 </v>
   <v>      -0.36363636       0.27272727      -0.00000000 </v>
   <v>      -0.27272727       0.27272727       0.00000000 </v>
   <v>       0.36363636       0.36363636       0.00000000 </v>
   <v>       0.45454545       0.36363636       0.00000000 </v>
   <v>      -0.45454545       0.36363636       0.00000000 </v>
   <v>      -0.36363636       0.36363636      -0.00000000 </v>
   <v>       0.45454545       0.45454545       0.00000000 </v>
   <v>      -0.45454545       0.45454545       0.00000000 </v>
   <v>       0.27272727       0.18181818       0.09090909 </v>
   <v>       0.36363636       0.18181818       0.09090909 </v>
   <v>       0.45454545       0.18181818       0.09090909 </v>
   <v>      -0.45454545       0.18181818       0.09090909 </v>
   <v>       0.36363636       0.27272727       0.09090909 </v>
   <v>       0.45454545       0.27272727       0.09090909 </v>
   <v>      -0.45454545       0.27272727       0.09090909 </v>
   <v>      -0.36363636       0.27272727       0.09090909 </v>
   <v>      -0.27272727       0.27272727       0.09090909 </v>
   <v>      -0.18181818       0.27272727       0.09090909 </v>
   <v>       0.45454545       0.36363636       0.09090909 </v>
   <v>      -0.45454545       0.36363636       0.09090909 </v>
   <v>      -0.36363636       0.36363636       0.09090909 </v>
   <v>      -0.27272727       0.36363636       0.09090909 </v>
   <v>      -0.45454545       0.45454545       0.09090909 </v>
   <v>      -0.36363636       0.45454545       0.09090909 </v>
   <v>      -0.45454545       0.36363636       0.18181818 </v>
   <v>      -0.36363636       0.36363636       0.18181818 </v>
   <v>      -0.36363636       0.45454545       0.18181818 </v>
   <v>      -0.27272727       0.45454545       0.18181818 </v>
  </varray>
  <varray name="weights" >
   <v>       0.00075131 </v>
   <v>       0.00601052 </v>
   <v>       0.00601052 </v>
   <v>       0.00601052 </v>
   <v>       0.00601052 </v>
   <v>       0.00601052 </v>
   <v>       0.00450789 </v>
   <v>       0.01803156 </v>
   <v>       0.01803156 </v>
   <v>       0.01803156 </v>
   <v>       0.01803156 </v>
   <v>       0.01803156 </v>
   <v>       0.01803156 </v>
   <v>       0.01803156 </v>
   <v>       0.01803156 </v>
   <v>       0.00901578 </v>
   <v>       0.00450789 </v>
   <v>       0.01803156 </v>
   <v>       0.01803156 </v>
   <v>       0.01803156 </v>
   <v>       0.01803156 </v>
   <v>       0.01803156 </v>
   <v>       0.01803156 </v>
   <v>       0.00901578 </v>
   <v>       0.00450789 </v>
   <v>       0.01803156 </v>
   <v>       0.01803156 </v>
   <v>       0.01803156 </v>
   <v>       0.01803156 </v>
   <v>       0.00901578 </v>
   <v>       0.00450789 </v>
   <v>       0.01803156 </v>
   <v>       0.01803156 </v>
   <v>       0.00901578 </v>
   <v>       0.00450789 </v>
   <v>       0.00901578 </v>
   <v>       0.01803156 </v>
   <v>       0.03606311 </v>
   <v>       0.03606311 </v>
   <v>       0.03606311 </v>
   <v>       0.01803156 </v>
   <v>       0.03606311 </v>
   <v>       0.03606311 </v>
   <v>       0.03606311 </v>
   <v>       0.03606311 </v>
   <v>       0.01803156 </v>
   <v>       0.01803156 </v>
   <v>       0.03606311 </v>
   <v>       0.03606311 </v>
   <v>       0.01803156 </v>
   <v>       0.01803156 </v>
   <v>       0.01803156 </v>
   <v>       0.01803156 </v>
   <v>       0.03606311 </v>
   <v>       0.01803156 </v>
   <v>       0.01803156 </v>
  </varray>
 </kpoints>
 <parameters>
  <separator name="general" >
   <i type="string" name="SYSTEM">fcc Si</i>
   <i type="logical" name="LCOMPAT"> F  </i>
  </separator>
  <separator name="electronic" >
   <i type="string" name="PREC">normal</i>
   <i name="ENMAX">    240.00000000</i>
   <i name="ENAUG">    322.06900000</i>
   <i name="EDIFF">      0.00010000</i>
   <i type="int" name="IALGO">    38</i>
   <i type="int" name="IWAVPR">    10</i>
   <i type="int" name="NBANDS">     8</i>
   <i type="int" name="NBANDSLOW">    -1</i>
   <i type="int" name="NBANDSHIGH">    -1</i>
   <i name="NELECT">      4.00000000</i>
   <i type="int" name="TURBO">     0</i>
   <i type="int" name="IRESTART">     0</i>
   <i type="int" name="NREBOOT">     0</i>
   <i type="int" name="NMIN">     0</i>
   <i name="EREF">      0.00000000</i>
   <separator name="electronic smearing" >
    <i type="int" name="ISMEAR">     0</i>
    <i name="SIGMA">      0.10000000</i>
    <i name="KSPACING">      0.50000000</i>
    <i type="logical" name="KGAMMA"> T  </i>
    <i type="logical" name="KBLOWUP"> T  </i>
   </separator>
   <separator name="electronic projectors" >
    <i type="logical" name="LREAL"> F  </i>
    <v name="ROPT">      0.00000000</v>
    <i type="int" name="LMAXPAW">  -100</i>
    <i type="int" name="LMAXMIX">     2</i>
    <i type="logical" name="NLSPLINE"> F  </i>
   </separator>
   <separator name="electronic startup" >
    <i type="int" name="ISTART">     0</i>
    <i type="int" name="ICHARG">     2</i>
    <i type="int" name="INIWAV">     1</i>
   </separator>
   <separator name="electronic spin" >
    <i type="int" name="ISPIN">     1</i>
    <i type="logical" name="LNONCOLLINEAR"> F  </i>
    <v name="MAGMOM">      1.00000000</v>
    <i name="NUPDOWN">     -1.00000000</i>
    <i type="logical" name="LSORBIT"> F  </i>
    <v name="SAXIS">      0.00000000      0.00000000      1.00000000</v>
    <i type="logical" name="LSPIRAL"> F  </i>
    <v name="QSPIRAL">      0.00000000      0.00000000      0.00000000</v>
    <i type="logical" name="LZEROZ"> F  </i>
   </separator>
   <separator name="electronic exchange-correlation" >
    <i type="logical" name="LASPH"> F  </i>
    <i type="logical" name="LMETAGGA"> F  </i>
   </separator>
   <separator name="electronic convergence" >
    <i type="int" name="NELM">    60</i>
    <i type="int" name="NELMDL">    -5</i>
    <i type="int" name="NELMIN">     2</i>
    <i name="ENINI">    240.00000000</i>
    <separator name="electronic convergence detail" >
     <i type="logical" name="LDIAG"> T  </i>
     <i type="logical" name="LSUBROT"> F  </i>
     <i name="WEIMIN">      0.00000000</i>
     <i name="EBREAK">      0.00000313</i>
     <i name="DEPER">      0.30000000</i>
     <i type="int" name="NRMM">     4</i>
     <i name="TIME">      0.40000000</i>
    </separator>
   </separator>
   <separator name="electronic mixer" >
    <i name="AMIX">      0.40000000</i>
    <i name="BMIX">      1.00000000</i>
    <i name="AMIN">      0.10000000</i>
    <i name="AMIX_MAG">      1.60000000</i>
    <i name="BMIX_MAG">      1.00000000</i>
    <separator name="electronic mixer details" >
     <i type="int" name="IMIX">     4</i>
     <i type="logical" name="MIXFIRST"> F  </i>
     <i type="int" name="MAXMIX">   -45</i>
     <i name="WC">    100.00000000</i>
     <i type="int" name="INIMIX">     1</i>
     <i type="int" name="MIXPRE">     1</i>
     <i type="int" name="MREMOVE">     5</i>
    </separator>
   </separator>
   <separator name="electronic dipolcorrection" >
    <i type="logical" name="LDIPOL"> F  </i>
    <i type="logical" name="LMONO"> F  </i>
    <i type="int" name="IDIPOL">     0</i>
    <i name="EPSILON">      1.00000000</i>
    <v name="DIPOL">   -100.00000000   -100.00000000   -100.00000000</v>
    <i name="EFIELD">      0.00000000</i>
   </separator>
  </separator>
  <separator name="grids" >
   <i type="int" name="NGX">    10</i>
   <i type="int" name="NGY">    10</i>
   <i type="int" name="NGZ">    10</i>
   <i type="int" name="NGXF">    20</i>
   <i type="int" name="NGYF">    20</i>
   <i type="int" name="NGZF">    20</i>
   <i type="logical" name="ADDGRID"> F  </i>
  </separator>
  <separator name="ionic" >
   <i type="int" name="NSW">     0</i>
   <i type="int" name="IBRION">    -1</i>
   <i type="int" name="MDALGO">     0</i>
   <i type="int" name="ISIF">     2</i>
   <i name="PSTRESS">      0.00000000</i>
   <i name="EDIFFG">      0.00100000</i>
   <i type="int" name="NFREE">     0</i>
   <i name="POTIM">      0.50000000</i>
   <i name="SMASS">     -3.00000000</i>
   <i name="SCALEE">      1.00000000</i>
  </separator>
  <separator name="ionic md" >
   <i name="TEBEG">      0.00010000</i>
   <i name="TEEND">      0.00010000</i>
   <i type="int" name="NBLOCK">     1</i>
   <i type="int" name="KBLOCK">     1</i>
   <i type="int" name="NPACO">   256</i>
   <i name="APACO">     10.00000000</i>
  </separator>
  <separator name="symmetry" >
   <i type="int" name="ISYM">     2</i>
   <i name="SYMPREC">      0.00001000</i>
  </separator>
  <separator name="dos" >
   <i type="int" name="LORBIT">     0</i>
   <v name="RWIGS">     -1.00000000</v>
   <i type="int" name="NEDOS">   301</i>
   <i name="EMIN">     10.00000000</i>
   <i name="EMAX">    -10.00000000</i>
   <i name="EFERMI">      0.00000000</i>
  </separator>
  <separator name="writing" >
   <i type="int" name="NWRITE">     2</i>
   <i type="logical" name="LWAVE"> T  </i>
   <i type="logical" name="LDOWNSAMPLE"> F  </i>
   <i type="logical" name="LCHARG"> T  </i>
   <i type="logical" name="LPARD"> F  </i>
   <i type="logical" name="LVTOT"> F  </i>
   <i type="logical" name="LVHAR"> F  </i>
   <i type="logical" name="LELF"> F  </i>
   <i type="logical" name="LOPTICS"> F  </i>
   <v name="STM">      0.00000000      0.00000000      0.00000000      0.00000000      0.00000000      0.00000000      0.00000000</v>
  </separator>
  <separator name="performance" >
   <i type="int" name="NPAR">     4</i>
   <i type="int" name="NSIM">     4</i>
   <i type="int" name="NBLK">    -1</i>
   <i type="logical" name="LPLANE"> T  </i>
   <i type="logical" name="LSCALAPACK"> T  </i>
   <i type="logical" name="LSCAAWARE"> F  </i>
   <i type="logical" name="LSCALU"> F  </i>
   <i type="logical" name="LASYNC"> F  </i>
   <i type="logical" name="LORBITALREAL"> F  </i>
  </separator>
  <separator name="miscellaneous" >
   <i type="int" name="IDIOT">     3</i>
   <i type="int" name="PHON_NSTRUCT">    -1</i>
   <i type="logical" name="LMUSIC"> F  </i>
   <v name="POMASS">     28.08500000</v>
   <v name="DARWINR">      0.00000000</v>
   <v name="DARWINV">      1.00000000</v>
   <i type="logical" name="LCORR"> T  </i>
  </separator>
  <i type="logical" name="GGA_COMPAT"> T  </i>
  <i type="logical" name="LBERRY"> F  </i>
  <i type="int" name="ICORELEVEL">     0</i>
  <i type="logical" name="LDAU"> F  </i>
  <i type="int" name="I_CONSTRAINED_M">     0</i>
  <separator name="electronic exchange-correlation" >
   <i type="string" name="GGA">--</i>
   <i type="int" name="VOSKOWN">     0</i>
   <i type="logical" name="LHFCALC"> F  </i>
   <i type="string" name="PRECFOCK"></i>
   <i type="logical" name="LSYMGRAD"> F  </i>
   <i type="logical" name="LHFONE"> F  </i>
   <i type="logical" name="LRHFCALC"> F  </i>
   <i type="logical" name="LTHOMAS"> F  </i>
   <i type="logical" name="LMODELHF"> F  </i>
   <i type="logical" name="LFOCKACE"> F  </i>
   <i name="ENCUT4O">     -1.00000000</i>
   <i type="int" name="EXXOEP">     0</i>
   <i type="int" name="FOURORBIT">     0</i>
   <i name="AEXX">      0.00000000</i>
   <i name="HFALPHA">      0.00000000</i>
   <i name="MCALPHA">      0.00000000</i>
   <i name="ALDAX">      1.00000000</i>
   <i name="AGGAX">      1.00000000</i>
   <i name="ALDAC">      1.00000000</i>
   <i name="AGGAC">      1.00000000</i>
   <i type="int" name="NKREDX">     1</i>
   <i type="int" name="NKREDY">     1</i>
   <i type="int" name="NKREDZ">     1</i>
   <i type="logical" name="SHIFTRED"> F  </i>
   <i type="logical" name="ODDONLY"> F  </i>
   <i type="logical" name="EVENONLY"> F  </i>
   <i type="int" name="LMAXFOCK">     0</i>
   <i type="int" name="NMAXFOCKAE">     0</i>
   <i type="logical" name="LFOCKAEDFT"> F  </i>
   <i name="HFSCREEN">      0.00000000</i>
   <i name="HFSCREENC">      0.00000000</i>
   <i type="int" name="NBANDSGWLOW">     0</i>
  </separator>
  <separator name="vdW DFT" >
   <i type="logical" name="LUSE_VDW"> F  </i>
   <i name="Zab_VDW">     -0.84910000</i>
   <i name="PARAM1">      0.12340000</i>
   <i name="PARAM2">      1.00000000</i>
   <i name="PARAM3">      0.00000000</i>
  </separator>
  <separator name="model GW" >
   <i type="int" name="MODEL_GW">     0</i>
   <i name="MODEL_EPS0">      8.72803800</i>
   <i name="MODEL_ALPHA">      1.00000000</i>
  </separator>
  <separator name="linear response parameters" >
   <i type="logical" name="LEPSILON"> F  </i>
   <i type="logical" name="LRPA"> F  </i>
   <i type="logical" name="LNABLA"> F  </i>
   <i type="logical" name="LVEL"> F  </i>
   <i name="CSHIFT">      0.10000000</i>
   <i name="OMEGAMAX">     -1.00000000</i>
   <i name="DEG_THRESHOLD">      0.00200000</i>
   <i name="RTIME">     -0.10000000</i>
   <i name="WPLASMAI">      0.00000000</i>
   <v name="DFIELD">      0.00000000      0.00000000      0.00000000</v>
   <v name="WPLASMA">      0.00000000      0.00000000      0.00000000      0.00000000      0.00000000      0.00000000      0.00000000      0.00000000      0.00000000</v>
  </separator>
  <separator name="orbital magnetization" >
   <i type="logical" name="NUCIND"> F  </i>
   <v name="MAGPOS">      0.00000000      0.00000000      0.00000000</v>
   <i type="logical" name="LNICSALL"> T  </i>
   <i type="logical" name="ORBITALMAG"> F  </i>
   <i type="logical" name="LMAGBLOCH"> F  </i>
   <i type="logical" name="LCHIMAG"> F  </i>
   <i type="logical" name="LGAUGE"> T  </i>
   <i type="int" name="MAGATOM">     0</i>
   <v name="MAGDIPOL">      0.00000000      0.00000000      0.00000000</v>
   <v name="AVECCONST">      0.00000000      0.00000000      0.00000000</v>
  </separator>
  <separator name="response functions" >
   <i type="logical" name="LFINITE_TEMPERATURE"> F  </i>
   <i type="logical" name="LADDER"> F  </i>
   <i type="logical" name="LRPAFORCE"> F  </i>
   <i type="logical" name="LFXC"> F  </i>
   <i type="logical" name="LHARTREE"> T  </i>
   <i type="int" name="IBSE">     0</i>
   <v type="int" name="KPOINT">    -1     0     0     0</v>
   <i type="logical" name="LTCTC"> F  </i>
   <i type="logical" name="LTCTE"> F  </i>
   <i type="logical" name="LTETE"> F  </i>
   <i type="logical" name="LTRIPLET"> F  </i>
   <i type="logical" name="LFXCEPS"> F  </i>
   <i type="logical" name="LFXHEG"> F  </i>
   <i type="int" name="NATURALO">     2</i>
   <i type="logical" name="LHOLEGF"> F  </i>
   <i type="logical" name="L2ORDER"> F  </i>
   <i type="logical" name="LDMP1"> F  </i>
   <i type="logical" name="LMP2LT"> F  </i>
   <i type="logical" name="LSMP2LT"> F  </i>
   <i type="logical" name="LGWLF"> F  </i>
   <i name="ENCUTGW">     -2.00000000</i>
   <i name="ENCUTGWSOFT">     -2.00000000</i>
   <i name="ENCUTLF">     -1.00000000</i>
   <i type="logical" name="LESF_SPLINES"> F  </i>
   <i type="int" name="LMAXMP2">    -1</i>
   <i name="SCISSOR">      0.00000000</i>
   <i type="int" name="NOMEGA">     0</i>
   <i type="int" name="NOMEGAR">     0</i>
   <i type="int" name="NBANDSGW">    -1</i>
   <i type="int" name="NBANDSO">    -1</i>
   <i type="int" name="NBANDSV">    -1</i>
   <i type="int" name="NELMGW">     1</i>
   <i type="int" name="NELMHF">     1</i>
   <i type="int" name="DIM">     3</i>
   <i type="int" name="IESPILON">     4</i>
   <i type="int" name="ANTIRES">     0</i>
   <i name="OMEGAMAX">    -30.00000000</i>
   <i name="OMEGAMIN">    -30.00000000</i>
   <i name="OMEGATL">   -200.00000000</i>
   <i type="int" name="OMEGAGRID">     0</i>
   <i name="CSHIFT">     -0.10000000</i>
   <i type="logical" name="LSELFENERGY"> F  </i>
   <i type="logical" name="LSPECTRAL"> F  </i>
   <i type="logical" name="LSPECTRALGW"> F  </i>
   <i type="logical" name="LSINGLES"> F  </i>
   <i type="logical" name="LFERMIGW"> F  </i>
   <i type="logical" name="ODDONLYGW"> F  </i>
   <i type="logical" name="EVENONLYGW"> F  </i>
   <i type="int" name="NKREDLFX">     1</i>
   <i type="int" name="NKREDLFY">     1</i>
   <i type="int" name="NKREDLFZ">     1</i>
   <i type="int" name="MAXMEM">  2800</i>
   <i type="int" name="TELESCOPE">     0</i>
   <i type="int" name="NTAUPAR">    -1</i>
   <i type="int" name="NOMEGAPAR">    -1</i>
   <i name="DAMP_NEWTON">      0.80000001</i>
   <i name="LAMBDA">      1.00000000</i>
  </separator>
  <separator name="External order field" >
   <i name="OFIELD_KAPPA">      0.00000000</i>
   <v name="OFIELD_K">      0.00000000      0.00000000      0.00000000</v>
   <i name="OFIELD_Q6_NEAR">      0.00000000</i>
   <i name="OFIELD_Q6_FAR">      0.00000000</i>
   <i name="OFIELD_A">      0.00000000</i>
  </separator>
  <separator name="optional k-points parameters" >
   <i type="int" name="KPOINTS_OPT_MODE">     1</i>
   <i type="logical" name="LKPOINTS_OPT"> F  </i>
  </separator>
 </parameters>
 <atominfo>
  <atoms>       1 </atoms>
  <types>       1 </types>
  <array name="atoms" >
   <dimension dim="1">ion</dimension>
   <field type="string">element</field>
   <field type="int">atomtype</field>
   <set>
    <rc><c>Si</c><c>   1</c></rc>
   </set>
  </array>
  <array name="atomtypes" >
   <dimension dim="1">type</dimension>
   <field type="int">atomspertype</field>
   <field type="string">element</field>
   <field>mass</field>
   <field>valence</field>
   <field type="string">pseudopotential</field>
   <set>
    <rc><c>   1</c><c>Si</c><c>     28.08500000</c><c>      4.00000000</c><c>  PAW_PBE Si 05Jan2001                  </c></rc>
   </set>
  </array>
 </atominfo>
 <structure name="initialpos" >
  <crystal>
   <varray name="basis" >
    <v>       1.93751524       1.93751524       0.00000000 </v>
    <v>       0.00000000       1.93751524       1.93751524 </v>
    <v>       1.93751524       0.00000000       1.93751524 </v>
   </varray>
   <i name="volume">     14.54673000 </i>
   <varray name="rec_basis" >
    <v>       0.25806249       0.25806249      -0.25806249 </v>
    <v>      -0.25806249       0.25806249       0.25806249 </v>
    <v>       0.25806249      -0.25806249       0.25806249 </v>
   </varray>
  </crystal>
  <varray name="positions" >
   <v>       0.00000000       0.00000000       0.00000000 </v>
  </varray>
 </structure>
 <calculation>
  <scstep>
   <time name="dav">    0.04    0.04</time>
   <time name="total">    0.04    0.04</time>
   <energy>
    <i name="alphaZ">      2.31413732 </i>
    <i name="ewald">   -136.30042572 </i>
    <i name="hartreedc">     -0.60980519 </i>
    <i name="XCdc">     -8.82015863 </i>
    <i name="pawpsdc">     88.12379961 </i>
    <i name="pawaedc">    -70.53051779 </i>
    <i name="eentropy">     -0.00253694 </i>
    <i name="bandstr">     18.80682172 </i>
    <i name="atom">    103.06077658 </i>
    <i name="e_fr_energy">     -3.95790905 </i>
    <i name="e_wo_entrp">     -3.95537211 </i>
    <i name="e_0_energy">     -3.95664058 </i>
   </energy>
  </scstep>
  <scstep>
   <time name="dav">    0.05    0.05</time>
   <time name="total">    0.05    0.05</time>
   <energy>
    <i name="e_fr_energy">     -4.89625299 </i>
    <i name="e_wo_entrp">     -4.89355279 </i>
    <i name="e_0_energy">     -4.89490289 </i>
   </energy>
  </scstep>
  <scstep>
   <time name="dav">    0.03    0.03</time>
   <time name="total">    0.03    0.03</time>
   <energy>
    <i name="e_fr_energy">     -4.89952891 </i>
    <i name="e_wo_entrp">     -4.89682350 </i>
    <i name="e_0_energy">     -4.89817621 </i>
   </energy>
  </scstep>
  <scstep>
   <time name="dav">    0.05    0.05</time>
   <time name="total">    0.05    0.05</time>
   <energy>
    <i name="e_fr_energy">     -4.89953008 </i>
    <i name="e_wo_entrp">     -4.89682468 </i>
    <i name="e_0_energy">     -4.89817738 </i>
   </energy>
  </scstep>
  <scstep>
   <time name="dav">    0.03    0.03</time>
   <time name="total">    0.03    0.03</time>
   <energy>
    <i name="e_fr_energy">     -4.89953008 </i>
    <i name="e_wo_entrp">     -4.89682468 </i>
    <i name="e_0_energy">     -4.89817738 </i>
   </energy>
  </scstep>
  <scstep>
   <time name="dav">    0.04    0.04</time>
   <time name="total">    0.04    0.04</time>
   <energy>
    <i name="e_fr_energy">     -4.88631691 </i>
    <i name="e_wo_entrp">     -4.88357362 </i>
    <i name="e_0_energy">     -4.88494526 </i>
   </energy>
  </scstep>
  <scstep>
   <time name="dav">    0.03    0.03</time>
   <time name="total">    0.04    0.04</time>
   <energy>
    <i name="e_fr_energy">     -4.87877144 </i>
    <i name="e_wo_entrp">     -4.87595259 </i>
    <i name="e_0_energy">     -4.87736201 </i>
   </energy>
  </scstep>
  <scstep>
   <time name="dav">    0.04    0.04</time>
   <time name="total">    0.04    0.04</time>
   <energy>
    <i name="alphaZ">      2.31413732 </i>
    <i name="ewald">   -136.30042572 </i>
    <i name="hartreedc">     -0.45296210 </i>
    <i name="XCdc">     -8.76289788 </i>
    <i name="pawpsdc">    358.42886971 </i>
    <i name="pawaedc">   -340.84612853 </i>
    <i name="eentropy">     -0.00282129 </i>
    <i name="bandstr">     17.68272104 </i>
    <i name="atom">    103.06077658 </i>
    <i name="e_fr_energy">     -4.87873087 </i>
    <i name="e_wo_entrp">     -4.87590958 </i>
    <i name="e_0_energy">     -4.87732023 </i>
   </energy>
  </scstep>
  <structure>
   <crystal>
    <varray name="basis" >
     <v>       1.93751524       1.93751524       0.00000000 </v>
     <v>       0.00000000       1.93751524       1.93751524 </v>
     <v>       1.93751524       0.00000000       1.93751524 </v>
    </varray>
    <i name="volume">     14.54673000 </i>
    <varray name="rec_basis" >
     <v>       0.25806249       0.25806249      -0.25806249 </v>
     <v>      -0.25806249       0.25806249       0.25806249 </v>
     <v>       0.25806249      -0.25806249       0.25806249 </v>
    </varray>
   </crystal>
   <varray name="positions" >
    <v>       0.00000000       0.00000000       0.00000000 </v>
   </varray>
  </structure>
  <varray name="forces" >
   <v>       0.00000000       0.00000000       0.00000000 </v>
  </varray>
  <varray name="stress" >
   <v>      -5.40415805       0.00000000       0.00000000 </v>
   <v>       0.00000000      -5.40415805      -0.00000000 </v>
   <v>       0.00000000      -0.00000000      -5.40415805 </v>
  </varray>
  <energy>
   <i name="e_fr_energy">     -4.87873087 </i>
   <i name="e_wo_entrp">     -4.87590958 </i>
   <i name="e_0_energy">     -4.87732023 </i>
  </energy>
  <time name="totalsc">    0.36    0.37</time>
  <eigenvalues>
   <array>
    <dimension dim="1">band</dimension>
    <dimension dim="2">kpoint</dimension>
    <dimension dim="3">spin</dimension>
    <field>eigene</field>
    <field>occ</field>
    <set>
     <set comment="spin 1">
      <set comment="kpoint 1">
       <r>   -4.3039    1.0000 </r>
       <r>   21.1784    0.0000 </r>
       <r>   21.1785    0.0000 </r>
       <r>   21.1785    0.0000 </r>
       <r>   22.1838    0.0000 </r>
       <r>   22.1838    0.0000 </r>
       <r>   22.1838    0.0000 </r>
       <r>   27.3597    0.0000 </r>
      </set>
      <set comment="kpoint 2">
       <r>   -4.0643    1.0000 </r>
       <r>   18.0894    0.0000 </r>
       <r>   20.2665    0.0000 </r>
       <r>   20.2666    0.0000 </r>
       <r>   23.2817    0.0000 </r>
       <r>   23.3406    0.0000 </r>
       <r>   23.3407    0.0000 </r>
       <r>   28.0323    0.0000 </r>
      </set>
      <set comment="kpoint 3">
       <r>   -3.3468    1.0000 </r>
       <r>   14.2117    0.0000 </r>
       <r>   19.3640    0.0000 </r>
       <r>   19.3641    0.0000 </r>
       <r>   23.3275    0.0000 </r>
       <r>   24.3468    0.0000 </r>
       <r>   24.3473    0.0000 </r>
       <r>   27.1496    0.0000 </r>
      </set>
      <set comment="kpoint 4">
       <r>   -2.1569    1.0000 </r>
       <r>   10.5191    0.0000 </r>
       <r>   18.8161    0.0000 </r>
       <r>   18.8162    0.0000 </r>
       <r>   23.1951    0.0000 </r>
       <r>   23.2782    0.0000 </r>
       <r>   23.2788    0.0000 </r>
       <r>   28.4545    0.0000 </r>
      </set>
      <set comment="kpoint 5">
       <r>   -0.5031    1.0000 </r>
       <r>    7.1649    1.0000 </r>
       <r>   18.6015    0.0000 </r>
       <r>   18.6017    0.0000 </r>
       <r>   21.9526    0.0000 </r>
       <r>   21.9532    0.0000 </r>
       <r>   23.2446    0.0000 </r>
       <r>   26.9570    0.0000 </r>
      </set>
      <set comment="kpoint 6">
       <r>    1.5811    1.0000 </r>
       <r>    4.2212    1.0000 </r>
       <r>   18.6034    0.0000 </r>
       <r>   18.6036    0.0000 </r>
       <r>   21.1508    0.0000 </r>
       <r>   21.1515    0.0000 </r>
       <r>   23.4021    0.0000 </r>
       <r>   26.0171    0.0000 </r>
      </set>
      <set comment="kpoint 7">
       <r>   -3.9845    1.0000 </r>
       <r>   18.9001    0.0000 </r>
       <r>   18.9002    0.0000 </r>
       <r>   20.4511    0.0000 </r>
       <r>   20.6076    0.0000 </r>
       <r>   24.8173    0.0000 </r>
       <r>   24.8174    0.0000 </r>
       <r>   26.1078    0.0000 </r>
      </set>
      <set comment="kpoint 8">
       <r>   -3.4262    1.0000 </r>
       <r>   15.6475    0.0000 </r>
       <r>   17.8697    0.0000 </r>
       <r>   19.5977    0.0000 </r>
       <r>   21.4353    0.0000 </r>
       <r>   24.1882    0.0000 </r>
       <r>   25.6315    0.0000 </r>
       <r>   26.2210    0.0000 </r>
      </set>
      <set comment="kpoint 9">
       <r>   -2.3940    1.0000 </r>
       <r>   11.9016    0.0000 </r>
       <r>   17.2325    0.0000 </r>
       <r>   18.7908    0.0000 </r>
       <r>   21.0810    0.0000 </r>
       <r>   24.4393    0.0000 </r>
       <r>   25.7172    0.0000 </r>
       <r>   26.0644    0.0000 </r>
      </set>
      <set comment="kpoint 10">
       <r>   -0.8946    1.0000 </r>
       <r>    8.4366    1.0000 </r>
       <r>   17.0017    0.0000 </r>
       <r>   17.9923    0.0000 </r>
       <r>   20.1231    0.0000 </r>
       <r>   24.3179    0.0000 </r>
       <r>   24.8980    0.0000 </r>
       <r>   27.9640    0.0000 </r>
      </set>
      <set comment="kpoint 11">
       <r>    1.0527    1.0000 </r>
       <r>    5.3507    1.0000 </r>
       <r>   17.0812    0.0000 </r>
       <r>   17.1678    0.0000 </r>
       <r>   19.9542    0.0000 </r>
       <r>   23.1254    0.0000 </r>
       <r>   24.9547    0.0000 </r>
       <r>   28.0662    0.0000 </r>
      </set>
      <set comment="kpoint 12">
       <r>    2.5191    1.0000 </r>
       <r>    3.5979    1.0000 </r>
       <r>   16.3147    0.0000 </r>
       <r>   17.7104    0.0000 </r>
       <r>   20.4803    0.0000 </r>
       <r>   22.3351    0.0000 </r>
       <r>   24.8040    0.0000 </r>
       <r>   27.9850    0.0000 </r>
      </set>
      <set comment="kpoint 13">
       <r>    0.3562    1.0000 </r>
       <r>    6.3324    1.0000 </r>
       <r>   15.8782    0.0000 </r>
       <r>   18.5578    0.0000 </r>
       <r>   21.4834    0.0000 </r>
       <r>   22.0344    0.0000 </r>
       <r>   24.5406    0.0000 </r>
       <r>   28.6442    0.0000 </r>
      </set>
      <set comment="kpoint 14">
       <r>   -1.4457    1.0000 </r>
       <r>    9.5517    1.0000 </r>
       <r>   15.8385    0.0000 </r>
       <r>   19.5734    0.0000 </r>
       <r>   22.3532    0.0000 </r>
       <r>   22.9161    0.0000 </r>
       <r>   24.3661    0.0000 </r>
       <r>   27.9312    0.0000 </r>
      </set>
      <set comment="kpoint 15">
       <r>   -2.7904    1.0000 </r>
       <r>   13.1198    0.0000 </r>
       <r>   16.2092    0.0000 </r>
       <r>   20.5542    0.0000 </r>
       <r>   23.1847    0.0000 </r>
       <r>   24.2702    0.0000 </r>
       <r>   24.5509    0.0000 </r>
       <r>   25.6524    0.0000 </r>
      </set>
      <set comment="kpoint 16">
       <r>   -3.6653    1.0000 </r>
       <r>   16.7583    0.0000 </r>
       <r>   17.1403    0.0000 </r>
       <r>   21.2552    0.0000 </r>
       <r>   22.7773    0.0000 </r>
       <r>   23.8862    0.0000 </r>
       <r>   25.0727    0.0000 </r>
       <r>   26.0526    0.0000 </r>
      </set>
      <set comment="kpoint 17">
       <r>   -3.0283    1.0000 </r>
       <r>   16.7034    0.0000 </r>
       <r>   16.7035    0.0000 </r>
       <r>   18.3647    0.0000 </r>
       <r>   18.5267    0.0000 </r>
       <r>   21.6196    0.0000 </r>
       <r>   28.1142    0.0000 </r>
       <r>   28.1143    0.0000 </r>
      </set>
      <set comment="kpoint 18">
       <r>   -2.1555    1.0000 </r>
       <r>   13.6374    0.0000 </r>
       <r>   15.9369    0.0000 </r>
       <r>   17.1382    0.0000 </r>
       <r>   18.6698    0.0000 </r>
       <r>   21.1343    0.0000 </r>
       <r>   28.5148    0.0000 </r>
       <r>   28.9609    0.0000 </r>
      </set>
      <set comment="kpoint 19">
       <r>   -0.8142    1.0000 </r>
       <r>   10.1294    0.0062 </r>
       <r>   15.5824    0.0000 </r>
       <r>   15.6054    0.0000 </r>
       <r>   18.3286    0.0000 </r>
       <r>   23.2985    0.0000 </r>
       <r>   27.2854    0.0000 </r>
       <r>   29.0847    0.0000 </r>
      </set>
      <set comment="kpoint 20">
       <r>    0.9817    1.0000 </r>
       <r>    6.9303    1.0000 </r>
       <r>   14.2161    0.0000 </r>
       <r>   15.6362    0.0000 </r>
       <r>   18.3367    0.0000 </r>
       <r>   25.8470    0.0000 </r>
       <r>   25.9938    0.0000 </r>
       <r>   29.1332    0.0000 </r>
      </set>
      <set comment="kpoint 21">
       <r>    3.1429    1.0000 </r>
       <r>    4.2015    1.0000 </r>
       <r>   13.1719    0.0000 </r>
       <r>   16.1025    0.0000 </r>
       <r>   18.8316    0.0000 </r>
       <r>   25.0366    0.0000 </r>
       <r>   27.0750    0.0000 </r>
       <r>   30.4370    0.0000 </r>
      </set>
      <set comment="kpoint 22">
       <r>    1.6758    1.0000 </r>
       <r>    5.9492    1.0000 </r>
       <r>   12.5375    0.0000 </r>
       <r>   16.9634    0.0000 </r>
       <r>   19.7857    0.0000 </r>
       <r>   24.4846    0.0000 </r>
       <r>   26.8743    0.0000 </r>
       <r>   30.5635    0.0000 </r>
      </set>
      <set comment="kpoint 23">
       <r>   -0.2662    1.0000 </r>
       <r>    9.0024    1.0000 </r>
       <r>   12.3459    0.0000 </r>
       <r>   18.1859    0.0000 </r>
       <r>   21.1685    0.0000 </r>
       <r>   24.3626    0.0000 </r>
       <r>   26.4149    0.0000 </r>
       <r>   27.4159    0.0000 </r>
      </set>
      <set comment="kpoint 24">
       <r>   -1.7609    1.0000 </r>
       <r>   12.1128    0.0000 </r>
       <r>   12.8952    0.0000 </r>
       <r>   19.6451    0.0000 </r>
       <r>   22.8830    0.0000 </r>
       <r>   24.6226    0.0000 </r>
       <r>   24.8266    0.0000 </r>
       <r>   25.6426    0.0000 </r>
      </set>
      <set comment="kpoint 25">
       <r>   -1.4436    1.0000 </r>
       <r>   14.9967    0.0000 </r>
       <r>   15.0332    0.0000 </r>
       <r>   15.0333    0.0000 </r>
       <r>   16.5346    0.0000 </r>
       <r>   18.9064    0.0000 </r>
       <r>   31.3388    0.0000 </r>
       <r>   31.4036    0.0000 </r>
      </set>
      <set comment="kpoint 26">
       <r>   -0.2638    1.0000 </r>
       <r>   12.1288    0.0000 </r>
       <r>   13.1435    0.0000 </r>
       <r>   14.5387    0.0000 </r>
       <r>   16.9024    0.0000 </r>
       <r>   19.6034    0.0000 </r>
       <r>   30.4781    0.0000 </r>
       <r>   32.0857    0.0000 </r>
      </set>
      <set comment="kpoint 27">
       <r>    1.3738    1.0000 </r>
       <r>    8.9174    1.0000 </r>
       <r>   11.4688    0.0000 </r>
       <r>   14.4644    0.0000 </r>
       <r>   17.0079    0.0000 </r>
       <r>   22.2774    0.0000 </r>
       <r>   29.2415    0.0000 </r>
       <r>   31.7649    0.0000 </r>
      </set>
      <set comment="kpoint 28">
       <r>    3.4392    1.0000 </r>
       <r>    6.0253    1.0000 </r>
       <r>   10.2235    0.0001 </r>
       <r>   14.8064    0.0000 </r>
       <r>   17.4244    0.0000 </r>
       <r>   25.4779    0.0000 </r>
       <r>   28.2187    0.0000 </r>
       <r>   30.9877    0.0000 </r>
      </set>
      <set comment="kpoint 29">
       <r>    3.4402    1.0000 </r>
       <r>    6.0069    1.0000 </r>
       <r>    9.4332    1.0000 </r>
       <r>   15.5583    0.0000 </r>
       <r>   18.2652    0.0000 </r>
       <r>   27.5193    0.0000 </r>
       <r>   28.4562    0.0000 </r>
       <r>   30.0969    0.0000 </r>
      </set>
      <set comment="kpoint 30">
       <r>    1.3712    1.0000 </r>
       <r>    8.5332    1.0000 </r>
       <r>    9.4477    1.0000 </r>
       <r>   16.7028    0.0000 </r>
       <r>   19.5270    0.0000 </r>
       <r>   26.9445    0.0000 </r>
       <r>   27.6488    0.0000 </r>
       <r>   28.3300    0.0000 </r>
      </set>
      <set comment="kpoint 31">
       <r>    0.7524    1.0000 </r>
       <r>   10.8219    0.0000 </r>
       <r>   13.9095    0.0000 </r>
       <r>   13.9096    0.0000 </r>
       <r>   15.2637    0.0000 </r>
       <r>   17.5942    0.0000 </r>
       <r>   33.2618    0.0000 </r>
       <r>   34.1267    0.0000 </r>
      </set>
      <set comment="kpoint 32">
       <r>    2.2259    1.0000 </r>
       <r>    8.9729    1.0000 </r>
       <r>   11.3536    0.0000 </r>
       <r>   13.6983    0.0000 </r>
       <r>   15.9551    0.0000 </r>
       <r>   18.7383    0.0000 </r>
       <r>   32.6305    0.0000 </r>
       <r>   34.5810    0.0000 </r>
      </set>
      <set comment="kpoint 33">
       <r>    4.1268    1.0000 </r>
       <r>    7.4927    1.0000 </r>
       <r>    8.4729    1.0000 </r>
       <r>   13.9050    0.0000 </r>
       <r>   16.3878    0.0000 </r>
       <r>   21.7584    0.0000 </r>
       <r>   31.5708    0.0000 </r>
       <r>   33.6519    0.0000 </r>
      </set>
      <set comment="kpoint 34">
       <r>    5.5824    1.0000 </r>
       <r>    6.1285    1.0000 </r>
       <r>    7.1403    1.0000 </r>
       <r>   14.5285    0.0000 </r>
       <r>   17.1260    0.0000 </r>
       <r>   25.2942    0.0000 </r>
       <r>   30.3945    0.0000 </r>
       <r>   31.6716    0.0000 </r>
      </set>
      <set comment="kpoint 35">
       <r>    3.5207    1.0000 </r>
       <r>    6.9855    1.0000 </r>
       <r>   13.3481    0.0000 </r>
       <r>   13.3482    0.0000 </r>
       <r>   14.6341    0.0000 </r>
       <r>   16.9907    0.0000 </r>
       <r>   34.8391    0.0000 </r>
       <r>   36.3823    0.0000 </r>
      </set>
      <set comment="kpoint 36">
       <r>    4.9226    1.0000 </r>
       <r>    5.7466    1.0000 </r>
       <r>   11.0460    0.0000 </r>
       <r>   13.4174    0.0000 </r>
       <r>   15.6455    0.0000 </r>
       <r>   18.4543    0.0000 </r>
       <r>   34.2267    0.0000 </r>
       <r>   35.8610    0.0000 </r>
      </set>
      <set comment="kpoint 37">
       <r>   -2.7109    1.0000 </r>
       <r>   14.4547    0.0000 </r>
       <r>   15.0223    0.0000 </r>
       <r>   19.5213    0.0000 </r>
       <r>   21.1423    0.0000 </r>
       <r>   22.7399    0.0000 </r>
       <r>   26.4289    0.0000 </r>
       <r>   27.0461    0.0000 </r>
      </set>
      <set comment="kpoint 38">
       <r>   -1.5239    1.0000 </r>
       <r>   11.0736    0.0000 </r>
       <r>   14.2800    0.0000 </r>
       <r>   18.0237    0.0000 </r>
       <r>   21.2078    0.0000 </r>
       <r>   23.8389    0.0000 </r>
       <r>   25.3259    0.0000 </r>
       <r>   27.6276    0.0000 </r>
      </set>
      <set comment="kpoint 39">
       <r>    0.1246    1.0000 </r>
       <r>    7.7553    1.0000 </r>
       <r>   14.1766    0.0000 </r>
       <r>   16.5660    0.0000 </r>
       <r>   21.0474    0.0000 </r>
       <r>   23.4735    0.0000 </r>
       <r>   26.4303    0.0000 </r>
       <r>   28.3990    0.0000 </r>
      </set>
      <set comment="kpoint 40">
       <r>    2.2040    1.0000 </r>
       <r>    4.8268    1.0000 </r>
       <r>   14.4423    0.0000 </r>
       <r>   15.4898    0.0000 </r>
       <r>   21.1975    0.0000 </r>
       <r>   22.5431    0.0000 </r>
       <r>   27.1411    0.0000 </r>
       <r>   30.4975    0.0000 </r>
      </set>
      <set comment="kpoint 41">
       <r>   -1.1288    1.0000 </r>
       <r>   12.6949    0.0000 </r>
       <r>   13.3036    0.0000 </r>
       <r>   15.5396    0.0000 </r>
       <r>   19.4271    0.0000 </r>
       <r>   20.7651    0.0000 </r>
       <r>   28.0269    0.0000 </r>
       <r>   30.7296    0.0000 </r>
      </set>
      <set comment="kpoint 42">
       <r>    0.3613    1.0000 </r>
       <r>    9.5843    1.0000 </r>
       <r>   12.7578    0.0000 </r>
       <r>   13.8746    0.0000 </r>
       <r>   19.7669    0.0000 </r>
       <r>   22.8343    0.0000 </r>
       <r>   26.7506    0.0000 </r>
       <r>   31.2454    0.0000 </r>
      </set>
      <set comment="kpoint 43">
       <r>    2.2967    1.0000 </r>
       <r>    6.5480    1.0000 </r>
       <r>   12.2177    0.0000 </r>
       <r>   13.2474    0.0000 </r>
       <r>   20.0270    0.0000 </r>
       <r>   24.9705    0.0000 </r>
       <r>   26.4592    0.0000 </r>
       <r>   30.9219    0.0000 </r>
      </set>
      <set comment="kpoint 44">
       <r>    3.7639    1.0000 </r>
       <r>    4.7989    1.0000 </r>
       <r>   11.3616    0.0000 </r>
       <r>   13.8022    0.0000 </r>
       <r>   20.6506    0.0000 </r>
       <r>   24.4718    0.0000 </r>
       <r>   28.9992    0.0000 </r>
       <r>   29.5632    0.0000 </r>
      </set>
      <set comment="kpoint 45">
       <r>    1.6034    1.0000 </r>
       <r>    7.5030    1.0000 </r>
       <r>   10.8881    0.0000 </r>
       <r>   14.8519    0.0000 </r>
       <r>   21.6308    0.0000 </r>
       <r>   24.0338    0.0000 </r>
       <r>   26.8818    0.0000 </r>
       <r>   30.1514    0.0000 </r>
      </set>
      <set comment="kpoint 46">
       <r>   -0.1870    1.0000 </r>
       <r>   10.3286    0.0000 </r>
       <r>   11.1785    0.0000 </r>
       <r>   16.3081    0.0000 </r>
       <r>   22.7563    0.0000 </r>
       <r>   23.4634    0.0000 </r>
       <r>   24.7445    0.0000 </r>
       <r>   29.3892    0.0000 </r>
      </set>
      <set comment="kpoint 47">
       <r>    1.0642    1.0000 </r>
       <r>   11.0177    0.0000 </r>
       <r>   11.5126    0.0000 </r>
       <r>   12.4183    0.0000 </r>
       <r>   18.2524    0.0000 </r>
       <r>   19.6437    0.0000 </r>
       <r>   30.0194    0.0000 </r>
       <r>   34.0043    0.0000 </r>
      </set>
      <set comment="kpoint 48">
       <r>    2.8399    1.0000 </r>
       <r>    8.6257    1.0000 </r>
       <r>    9.6612    1.0000 </r>
       <r>   12.0894    0.0000 </r>
       <r>   18.8999    0.0000 </r>
       <r>   22.1034    0.0000 </r>
       <r>   28.8877    0.0000 </r>
       <r>   33.2998    0.0000 </r>
      </set>
      <set comment="kpoint 49">
       <r>    4.9847    1.0000 </r>
       <r>    5.9675    1.0000 </r>
       <r>    8.5461    1.0000 </r>
       <r>   12.5625    0.0000 </r>
       <r>   19.4682    0.0000 </r>
       <r>   25.3637    0.0000 </r>
       <r>   28.0174    0.0000 </r>
       <r>   30.5680    0.0000 </r>
      </set>
      <set comment="kpoint 50">
       <r>    3.5251    1.0000 </r>
       <r>    7.3326    1.0000 </r>
       <r>    8.2576    1.0000 </r>
       <r>   13.4954    0.0000 </r>
       <r>   20.3946    0.0000 </r>
       <r>   26.9752    0.0000 </r>
       <r>   27.0994    0.0000 </r>
       <r>   29.4146    0.0000 </r>
      </set>
      <set comment="kpoint 51">
       <r>    3.8253    1.0000 </r>
       <r>    7.2757    1.0000 </r>
       <r>   10.9177    0.0000 </r>
       <r>   11.7367    0.0000 </r>
       <r>   17.6481    0.0000 </r>
       <r>   19.0909    0.0000 </r>
       <r>   32.3478    0.0000 </r>
       <r>   34.5535    0.0000 </r>
      </set>
      <set comment="kpoint 52">
       <r>    5.5256    1.0000 </r>
       <r>    6.3125    1.0000 </r>
       <r>    8.4675    1.0000 </r>
       <r>   11.7760    0.0000 </r>
       <r>   18.6143    0.0000 </r>
       <r>   21.8498    0.0000 </r>
       <r>   31.3970    0.0000 </r>
       <r>   31.4288    0.0000 </r>
      </set>
      <set comment="kpoint 53">
       <r>    1.9928    1.0000 </r>
       <r>    9.1332    1.0000 </r>
       <r>    9.9537    0.4940 </r>
       <r>   12.1709    0.0000 </r>
       <r>   22.3579    0.0000 </r>
       <r>   22.8830    0.0000 </r>
       <r>   25.6349    0.0000 </r>
       <r>   32.7534    0.0000 </r>
      </set>
      <set comment="kpoint 54">
       <r>    4.0525    1.0000 </r>
       <r>    6.6013    1.0000 </r>
       <r>    9.8905    0.8101 </r>
       <r>   10.9978    0.0000 </r>
       <r>   22.7924    0.0000 </r>
       <r>   24.1329    0.0000 </r>
       <r>   26.4007    0.0000 </r>
       <r>   29.9807    0.0000 </r>
      </set>
      <set comment="kpoint 55">
       <r>    4.7330    1.0000 </r>
       <r>    8.0629    1.0000 </r>
       <r>    8.5337    1.0000 </r>
       <r>    9.6554    1.0000 </r>
       <r>   21.7880    0.0000 </r>
       <r>   22.5911    0.0000 </r>
       <r>   27.8427    0.0000 </r>
       <r>   30.6432    0.0000 </r>
      </set>
      <set comment="kpoint 56">
       <r>    6.1824    1.0000 </r>
       <r>    6.7309    1.0000 </r>
       <r>    7.6441    1.0000 </r>
       <r>    9.8527    0.9213 </r>
       <r>   22.7468    0.0000 </r>
       <r>   25.3690    0.0000 </r>
       <r>   26.4375    0.0000 </r>
       <r>   28.0975    0.0000 </r>
      </set>
     </set>
    </set>
   </array>
  </eigenvalues>
  <separator name="orbital magnetization" >
   <v name="MAGDIPOLOUT">      0.00000000      0.00000000      0.00000000</v>
  </separator>
  <dos>
   <i name="efermi">      9.95264624 </i>
   <total>
    <array>
     <dimension dim="1">gridpoints</dimension>
     <dimension dim="2">spin</dimension>
     <field>energy</field>
     <field>total</field>
     <field>integrated</field>
     <set>
      <set comment="spin 1">
       <r>    -6.3382     0.0000     0.0000 </r>
       <r>    -6.1890     0.0000     0.0000 </r>
       <r>    -6.0398     0.0000     0.0000 </r>
       <r>    -5.8907     0.0000     0.0000 </r>
       <r>    -5.7415     0.0000     0.0000 </r>
       <r>    -5.5923     0.0000     0.0000 </r>
       <r>    -5.4431     0.0000     0.0000 </r>
       <r>    -5.2939     0.0000     0.0000 </r>
       <r>    -5.1447     0.0000     0.0000 </r>
       <r>    -4.9956     0.0000     0.0000 </r>
       <r>    -4.8464     0.0000     0.0000 </r>
       <r>    -4.6972     0.0000     0.0000 </r>
       <r>    -4.5480     0.0000     0.0000 </r>
       <r>    -4.3988     0.0009     0.0001 </r>
       <r>    -4.2496     0.0073     0.0012 </r>
       <r>    -4.1005     0.0294     0.0056 </r>
       <r>    -3.9513     0.0897     0.0190 </r>
       <r>    -3.8021     0.0266     0.0230 </r>
       <r>    -3.6529     0.0661     0.0328 </r>
       <r>    -3.5037     0.0846     0.0455 </r>
       <r>    -3.3545     0.2082     0.0765 </r>
       <r>    -3.2054     0.0797     0.0884 </r>
       <r>    -3.0562     0.0227     0.0918 </r>
       <r>    -2.9070     0.0495     0.0992 </r>
       <r>    -2.7578     0.2150     0.1312 </r>
       <r>    -2.6086     0.2396     0.1670 </r>
       <r>    -2.4595     0.0617     0.1762 </r>
       <r>    -2.3103     0.1750     0.2023 </r>
       <r>    -2.1611     0.1754     0.2285 </r>
       <r>    -2.0119     0.1641     0.2529 </r>
       <r>    -1.8627     0.0158     0.2553 </r>
       <r>    -1.7135     0.0832     0.2677 </r>
       <r>    -1.5644     0.1794     0.2945 </r>
       <r>    -1.4152     0.5037     0.3696 </r>
       <r>    -1.2660     0.1358     0.3899 </r>
       <r>    -1.1168     0.1328     0.4097 </r>
       <r>    -0.9676     0.1418     0.4308 </r>
       <r>    -0.8184     0.2855     0.4734 </r>
       <r>    -0.6693     0.1563     0.4967 </r>
       <r>    -0.5201     0.0370     0.5023 </r>
       <r>    -0.3709     0.0789     0.5140 </r>
       <r>    -0.2217     0.3971     0.5733 </r>
       <r>    -0.0725     0.2840     0.6156 </r>
       <r>     0.0767     0.1333     0.6355 </r>
       <r>     0.2258     0.3477     0.6874 </r>
       <r>     0.3750     0.4407     0.7531 </r>
       <r>     0.5242     0.2928     0.7968 </r>
       <r>     0.6734     0.0152     0.7991 </r>
       <r>     0.8226     0.0459     0.8059 </r>
       <r>     0.9718     0.1674     0.8309 </r>
       <r>     1.1209     0.4670     0.9006 </r>
       <r>     1.2701     0.1231     0.9189 </r>
       <r>     1.4193     0.2471     0.9558 </r>
       <r>     1.5685     0.2890     0.9989 </r>
       <r>     1.7177     0.5118     1.0753 </r>
       <r>     1.8668     0.1029     1.0906 </r>
       <r>     2.0160     0.1461     1.1124 </r>
       <r>     2.1652     0.2892     1.1556 </r>
       <r>     2.3144     0.7594     1.2689 </r>
       <r>     2.4636     0.2952     1.3129 </r>
       <r>     2.6128     0.1720     1.3386 </r>
       <r>     2.7619     0.0873     1.3516 </r>
       <r>     2.9111     0.3425     1.4027 </r>
       <r>     3.0603     0.1047     1.4183 </r>
       <r>     3.2095     0.1712     1.4438 </r>
       <r>     3.3587     0.1052     1.4595 </r>
       <r>     3.5079     0.4869     1.5322 </r>
       <r>     3.6570     0.4522     1.5996 </r>
       <r>     3.8062     0.4701     1.6698 </r>
       <r>     3.9554     0.3131     1.7165 </r>
       <r>     4.1046     0.4542     1.7842 </r>
       <r>     4.2538     0.4685     1.8541 </r>
       <r>     4.4030     0.0905     1.8676 </r>
       <r>     4.5521     0.0024     1.8680 </r>
       <r>     4.7013     0.1367     1.8884 </r>
       <r>     4.8505     0.8007     2.0078 </r>
       <r>     4.9997     0.6517     2.1050 </r>
       <r>     5.1489     0.2180     2.1376 </r>
       <r>     5.2980     0.0598     2.1465 </r>
       <r>     5.4472     0.2013     2.1765 </r>
       <r>     5.5964     0.2604     2.2154 </r>
       <r>     5.7456     0.1464     2.2372 </r>
       <r>     5.8948     0.2079     2.2682 </r>
       <r>     6.0440     0.8251     2.3913 </r>
       <r>     6.1931     0.4854     2.4637 </r>
       <r>     6.3423     0.4073     2.5245 </r>
       <r>     6.4915     0.3182     2.5720 </r>
       <r>     6.6407     0.6785     2.6732 </r>
       <r>     6.7899     0.3578     2.7266 </r>
       <r>     6.9391     0.1931     2.7554 </r>
       <r>     7.0882     0.1867     2.7832 </r>
       <r>     7.2374     0.2390     2.8189 </r>
       <r>     7.3866     0.3856     2.8764 </r>
       <r>     7.5358     0.5472     2.9580 </r>
       <r>     7.6850     0.4535     3.0257 </r>
       <r>     7.8342     0.4127     3.0873 </r>
       <r>     7.9833     0.0960     3.1016 </r>
       <r>     8.1325     0.1806     3.1285 </r>
       <r>     8.2817     0.1882     3.1566 </r>
       <r>     8.4309     0.3875     3.2144 </r>
       <r>     8.5801     1.1132     3.3805 </r>
       <r>     8.7293     0.6006     3.4701 </r>
       <r>     8.8784     0.1388     3.4908 </r>
       <r>     9.0276     0.4852     3.5631 </r>
       <r>     9.1768     0.3130     3.6098 </r>
       <r>     9.3260     0.0873     3.6229 </r>
       <r>     9.4752     0.3001     3.6676 </r>
       <r>     9.6243     0.8167     3.7895 </r>
       <r>     9.7735     0.6922     3.8927 </r>
       <r>     9.9227     0.5934     3.9813 </r>
       <r>    10.0719     0.3974     4.0405 </r>
       <r>    10.2211     0.3112     4.0870 </r>
       <r>    10.3703     0.3036     4.1323 </r>
       <r>    10.5194     0.1100     4.1487 </r>
       <r>    10.6686     0.0410     4.1548 </r>
       <r>    10.8178     0.1286     4.1740 </r>
       <r>    10.9670     0.7986     4.2931 </r>
       <r>    11.1162     1.0387     4.4480 </r>
       <r>    11.2654     0.4308     4.5123 </r>
       <r>    11.4145     0.6021     4.6021 </r>
       <r>    11.5637     0.4890     4.6751 </r>
       <r>    11.7129     0.2121     4.7067 </r>
       <r>    11.8621     0.3830     4.7639 </r>
       <r>    12.0113     0.2828     4.8061 </r>
       <r>    12.1605     0.7945     4.9246 </r>
       <r>    12.3096     0.7358     5.0344 </r>
       <r>    12.4588     0.4343     5.0992 </r>
       <r>    12.6080     0.6101     5.1902 </r>
       <r>    12.7572     0.5677     5.2749 </r>
       <r>    12.9064     0.3473     5.3267 </r>
       <r>    13.0556     0.1435     5.3481 </r>
       <r>    13.2047     0.6455     5.4444 </r>
       <r>    13.3539     0.7238     5.5524 </r>
       <r>    13.5031     0.3638     5.6066 </r>
       <r>    13.6523     0.3274     5.6555 </r>
       <r>    13.8015     0.5924     5.7439 </r>
       <r>    13.9506     0.8389     5.8690 </r>
       <r>    14.0998     0.2579     5.9075 </r>
       <r>    14.2490     0.7073     6.0130 </r>
       <r>    14.3982     0.7040     6.1180 </r>
       <r>    14.5474     0.8872     6.2504 </r>
       <r>    14.6966     0.3013     6.2953 </r>
       <r>    14.8457     0.3944     6.3542 </r>
       <r>    14.9949     0.4636     6.4233 </r>
       <r>    15.1441     0.2691     6.4635 </r>
       <r>    15.2933     0.0571     6.4720 </r>
       <r>    15.4425     0.1829     6.4993 </r>
       <r>    15.5917     1.0127     6.6504 </r>
       <r>    15.7408     0.8440     6.7763 </r>
       <r>    15.8900     0.4612     6.8451 </r>
       <r>    16.0392     0.5372     6.9252 </r>
       <r>    16.1884     0.3304     6.9745 </r>
       <r>    16.3376     0.5169     7.0516 </r>
       <r>    16.4868     0.4202     7.1143 </r>
       <r>    16.6359     0.4517     7.1817 </r>
       <r>    16.7851     0.3397     7.2324 </r>
       <r>    16.9343     0.3992     7.2919 </r>
       <r>    17.0835     0.8730     7.4222 </r>
       <r>    17.2327     0.8140     7.5436 </r>
       <r>    17.3818     0.2705     7.5839 </r>
       <r>    17.5310     0.1886     7.6121 </r>
       <r>    17.6802     0.2902     7.6554 </r>
       <r>    17.8294     0.3056     7.7010 </r>
       <r>    17.9786     0.4004     7.7607 </r>
       <r>    18.1278     0.5886     7.8485 </r>
       <r>    18.2769     0.6176     7.9406 </r>
       <r>    18.4261     0.6454     8.0369 </r>
       <r>    18.5753     0.5178     8.1142 </r>
       <r>    18.7245     0.8118     8.2353 </r>
       <r>    18.8737     0.8877     8.3677 </r>
       <r>    19.0229     0.5786     8.4540 </r>
       <r>    19.1720     0.2004     8.4839 </r>
       <r>    19.3212     0.0998     8.4988 </r>
       <r>    19.4704     0.6232     8.5918 </r>
       <r>    19.6196     1.1317     8.7606 </r>
       <r>    19.7688     0.8386     8.8857 </r>
       <r>    19.9180     0.4869     8.9583 </r>
       <r>    20.0671     0.5380     9.0386 </r>
       <r>    20.2163     0.3561     9.0917 </r>
       <r>    20.3655     0.2352     9.1268 </r>
       <r>    20.5147     0.4452     9.1932 </r>
       <r>    20.6639     0.5787     9.2796 </r>
       <r>    20.8131     0.3925     9.3381 </r>
       <r>    20.9622     0.1357     9.3584 </r>
       <r>    21.1114     0.8568     9.4862 </r>
       <r>    21.2606     1.4884     9.7082 </r>
       <r>    21.4098     0.4338     9.7729 </r>
       <r>    21.5590     0.4070     9.8336 </r>
       <r>    21.7081     0.5224     9.9116 </r>
       <r>    21.8573     0.5494     9.9935 </r>
       <r>    22.0065     0.4009    10.0533 </r>
       <r>    22.1557     0.5409    10.1340 </r>
       <r>    22.3049     0.4796    10.2056 </r>
       <r>    22.4541     0.6207    10.2982 </r>
       <r>    22.6032     0.5390    10.3786 </r>
       <r>    22.7524     0.8162    10.5004 </r>
       <r>    22.9016     1.3712    10.7049 </r>
       <r>    23.0508     0.4455    10.7714 </r>
       <r>    23.2000     0.4362    10.8364 </r>
       <r>    23.3492     0.7406    10.9469 </r>
       <r>    23.4983     0.7042    11.0520 </r>
       <r>    23.6475     0.2581    11.0905 </r>
       <r>    23.7967     0.1485    11.1126 </r>
       <r>    23.9459     0.4568    11.1808 </r>
       <r>    24.0951     0.5594    11.2642 </r>
       <r>    24.2443     0.7275    11.3728 </r>
       <r>    24.3934     0.9597    11.5160 </r>
       <r>    24.5426     1.1612    11.6892 </r>
       <r>    24.6918     0.5491    11.7711 </r>
       <r>    24.8410     0.5701    11.8561 </r>
       <r>    24.9902     0.8618    11.9847 </r>
       <r>    25.1394     0.5362    12.0647 </r>
       <r>    25.2885     0.3416    12.1157 </r>
       <r>    25.4377     0.9569    12.2584 </r>
       <r>    25.5869     0.4977    12.3327 </r>
       <r>    25.7361     0.7462    12.4440 </r>
       <r>    25.8853     0.3446    12.4954 </r>
       <r>    26.0344     0.4133    12.5571 </r>
       <r>    26.1836     0.4333    12.6217 </r>
       <r>    26.3328     0.3874    12.6795 </r>
       <r>    26.4820     1.4684    12.8986 </r>
       <r>    26.6312     0.5293    12.9775 </r>
       <r>    26.7804     0.3662    13.0322 </r>
       <r>    26.9295     0.8115    13.1532 </r>
       <r>    27.0787     0.9199    13.2905 </r>
       <r>    27.2279     0.8023    13.4102 </r>
       <r>    27.3771     0.3255    13.4587 </r>
       <r>    27.5263     0.3511    13.5111 </r>
       <r>    27.6755     0.5242    13.5893 </r>
       <r>    27.8246     0.2857    13.6319 </r>
       <r>    27.9738     0.7652    13.7461 </r>
       <r>    28.1230     1.2481    13.9323 </r>
       <r>    28.2722     0.4703    14.0024 </r>
       <r>    28.4214     0.5477    14.0842 </r>
       <r>    28.5706     0.5979    14.1733 </r>
       <r>    28.7197     0.2477    14.2103 </r>
       <r>    28.8689     0.2611    14.2493 </r>
       <r>    29.0181     0.7758    14.3650 </r>
       <r>    29.1673     0.6116    14.4562 </r>
       <r>    29.3165     0.3366    14.5064 </r>
       <r>    29.4656     0.4126    14.5680 </r>
       <r>    29.6148     0.4205    14.6307 </r>
       <r>    29.7640     0.1127    14.6476 </r>
       <r>    29.9132     0.1000    14.6625 </r>
       <r>    30.0624     0.6260    14.7559 </r>
       <r>    30.2116     0.6166    14.8479 </r>
       <r>    30.3607     0.2056    14.8785 </r>
       <r>    30.5099     0.8219    15.0011 </r>
       <r>    30.6591     0.9989    15.1502 </r>
       <r>    30.8083     0.3712    15.2055 </r>
       <r>    30.9575     0.4228    15.2686 </r>
       <r>    31.1067     0.3083    15.3146 </r>
       <r>    31.2558     0.2870    15.3574 </r>
       <r>    31.4050     0.4957    15.4314 </r>
       <r>    31.5542     0.3976    15.4907 </r>
       <r>    31.7034     0.2711    15.5311 </r>
       <r>    31.8526     0.2156    15.5633 </r>
       <r>    32.0018     0.0548    15.5715 </r>
       <r>    32.1509     0.1710    15.5970 </r>
       <r>    32.3001     0.1025    15.6123 </r>
       <r>    32.4493     0.1646    15.6368 </r>
       <r>    32.5985     0.0990    15.6516 </r>
       <r>    32.7477     0.2610    15.6905 </r>
       <r>    32.8969     0.1353    15.7107 </r>
       <r>    33.0460     0.0053    15.7115 </r>
       <r>    33.1952     0.0440    15.7181 </r>
       <r>    33.3444     0.3648    15.7725 </r>
       <r>    33.4936     0.1366    15.7929 </r>
       <r>    33.6428     0.1070    15.8088 </r>
       <r>    33.7919     0.1278    15.8279 </r>
       <r>    33.9411     0.0506    15.8354 </r>
       <r>    34.0903     0.1911    15.8640 </r>
       <r>    34.2395     0.1315    15.8836 </r>
       <r>    34.3887     0.0570    15.8921 </r>
       <r>    34.5379     0.1633    15.9165 </r>
       <r>    34.6870     0.2960    15.9606 </r>
       <r>    34.8362     0.0515    15.9683 </r>
       <r>    34.9854     0.0301    15.9728 </r>
       <r>    35.1346     0.0012    15.9730 </r>
       <r>    35.2838     0.0000    15.9730 </r>
       <r>    35.4330     0.0000    15.9730 </r>
       <r>    35.5821     0.0000    15.9730 </r>
       <r>    35.7313     0.0040    15.9736 </r>
       <r>    35.8805     0.0695    15.9839 </r>
       <r>    36.0297     0.0463    15.9908 </r>
       <r>    36.1789     0.0012    15.9910 </r>
       <r>    36.3281     0.0133    15.9930 </r>
       <r>    36.4772     0.0416    15.9992 </r>
       <r>    36.6264     0.0054    16.0000 </r>
       <r>    36.7756     0.0000    16.0000 </r>
       <r>    36.9248     0.0000    16.0000 </r>
       <r>    37.0740     0.0000    16.0000 </r>
       <r>    37.2232     0.0000    16.0000 </r>
       <r>    37.3723     0.0000    16.0000 </r>
       <r>    37.5215     0.0000    16.0000 </r>
       <r>    37.6707     0.0000    16.0000 </r>
       <r>    37.8199     0.0000    16.0000 </r>
       <r>    37.9691     0.0000    16.0000 </r>
       <r>    38.1182     0.0000    16.0000 </r>
       <r>    38.2674     0.0000    16.0000 </r>
       <r>    38.4166     0.0000    16.0000 </r>
      </set>
     </set>
    </array>
   </total>
  </dos>
 </calculation>
 <structure name="finalpos" >
  <crystal>
   <varray name="basis" >
    <v>       1.93751524       1.93751524       0.00000000 </v>
    <v>       0.00000000       1.93751524       1.93751524 </v>
    <v>       1.93751524       0.00000000       1.93751524 </v>
   </varray>
   <i name="volume">     14.54673000 </i>
   <varray name="rec_basis" >
    <v>       0.25806249       0.25806249      -0.25806249 </v>
    <v>      -0.25806249       0.25806249       0.25806249 </v>
    <v>       0.25806249      -0.25806249       0.25806249 </v>
   </varray>
  </crystal>
  <varray name="positions" >
   <v>       0.00000000       0.00000000       0.00000000 </v>
  </varray>
 </structure>
</modeling>
