fcc Si                                  
           1
     1.937515    1.937515    0.000000
     0.000000    1.937515    1.937515
     1.937515    0.000000    1.937515
   Si
     1
Direct configuration=     1
   0.00000000  0.00000000  0.00000000
