diamond Si                              
   5.10000000000000     
     0.000000    0.500000    0.500000
     0.500000    0.000000    0.500000
     0.500000    0.500000    0.000000
   Si
     2
Direct
  0.875000  0.875000  0.875000
  0.125000  0.125000  0.125000
 
   28   28   28
  22.529      22.336      21.679      20.326      18.244      15.847      13.899      13.146      13.899      15.847    
  18.244      20.326      21.679      22.336      22.529      22.336      21.679      20.326      18.244      15.847    
  13.899      13.146      13.899      15.847      18.244      20.326      21.679      22.336      22.336      22.239    
  21.258      19.151      16.207      13.276      11.435      11.435      13.276      16.207      19.152      21.258    
  22.239      22.335      21.941      21.197      20.108      18.609      16.802      15.095      14.043      14.043    
  15.095      16.802      18.609      20.108      21.197      21.941      21.679      21.258      19.461      16.331    
  12.622      9.5891      8.4167      9.5891      12.622      16.331      19.461      21.258      21.679      21.197    
  20.296      19.145      17.810      16.354      14.936      13.865      13.463      13.865      14.936      16.354    
  17.810      19.145      20.296      21.197      20.326      19.151      16.331      12.348      8.4019      5.9361    
  5.9361      8.4018      12.348      16.331      19.152      20.327      20.108      19.145      17.900      16.538    
  15.156      13.865      12.830      12.242      12.242      12.830      13.865      15.156      16.538      17.901    
  19.145      20.108      18.244      16.207      12.622      8.4019      4.9777      3.6594      4.9777      8.4020    
  12.622      16.207      18.244      18.609      17.810      16.538      15.134      13.747      12.479      11.433    
  10.733      10.484      10.733      11.433      12.479      13.747      15.134      16.538      17.810      18.609    
  15.847      13.276      9.5891      5.9361      3.6594      3.6594      5.9362      9.5893      13.276      15.847    
  16.802      16.354      15.156      13.748      12.342      11.065      10.002      9.2297      8.8203      8.8202    
  9.2296      10.002      11.065      12.342      13.747      15.156      16.354      16.802      13.899      11.435    
  8.4167      5.9361      4.9777      5.9362      8.4168      11.435      13.899      15.095      14.936      13.865    
  12.479      11.065      9.7691      8.6791      7.8532      7.3358      7.1591      7.3358      7.8532      8.6790    
  9.7691      11.065      12.479      13.865      14.936      15.095      13.146      11.435      9.5891      8.4018    
  8.4020      9.5893      11.435      13.146      14.043      13.866      12.830      11.433      10.002      8.6792    
  7.5559      6.6826      6.0864      5.7840      5.7842      6.0866      6.6825      7.5556      8.6790      10.002    
  11.433      12.830      13.865      14.043      13.899      13.276      12.622      12.348      12.622      13.276    
  13.899      14.043      13.463      12.242      10.733      9.2296      7.8532      6.6824      5.7594      5.0993    
  4.7041      4.5726      4.7041      5.0993      5.7594      6.6825      7.8532      9.2296      10.733      12.242    
  13.463      14.043      15.847      16.207      16.331      16.331      16.207      15.847      15.095      13.866    
  12.242      10.485      8.8203      7.3358      6.0864      5.0991      4.3761      3.9060      3.6752      3.6751    
  3.9059      4.3762      5.0993      6.0866      7.3358      8.8202      10.484      12.242      13.865      15.095    
  18.244      19.152      19.461      19.152      18.244      16.802      14.936      12.830      10.733      8.8203    
  7.1591      5.7842      4.7041      3.9059      3.3641      3.0519      2.9502      3.0519      3.3641      3.9059    
  4.7041      5.7842      7.1591      8.8203      10.733      12.830      14.936      16.802      20.326      21.258    
  21.258      20.327      18.609      16.354      13.865      11.433      9.2296      7.3358      5.7842      4.5728    
  3.6752      3.0519      2.6629      2.4767      2.4768      2.6629      3.0519      3.6751      4.5726      5.7840    
  7.3358      9.2297      11.433      13.865      16.354      18.609      21.679      22.239      21.679      20.108    
  17.810      15.156      12.479      10.002      7.8532      6.0864      4.7041      3.6752      2.9502      2.4768    
  2.2114      2.1260      2.2113      2.4768      2.9502      3.6752      4.7041      6.0864      7.8532      10.002    
  12.479      15.156      17.810      20.108      22.336      22.335      21.197      19.145      16.538      13.748    
  11.065      8.6792      6.6824      5.0991      3.9059      3.0519      2.4768      2.1261      1.9607      1.9606    
  2.1260      2.4767      3.0519      3.9060      5.0993      6.6826      8.6791      11.065      13.747      16.538    
  19.145      21.197      22.529      21.941      20.296      17.900      15.134      12.342      9.7691      7.5559    
  5.7594      4.3761      3.3641      2.6629      2.2114      1.9607      1.8805      1.9607      2.2114      2.6629    
  3.3641      4.3761      5.7594      7.5559      9.7691      12.342      15.134      17.900      20.296      21.941    
  22.336      21.197      19.145      16.538      13.747      11.065      8.6791      6.6826      5.0993      3.9060    
  3.0519      2.4767      2.1260      1.9606      1.9607      2.1261      2.4768      3.0519      3.9059      5.0991    
  6.6824      8.6792      11.065      13.748      16.538      19.145      21.197      22.335      21.679      20.108    
  17.810      15.156      12.479      10.002      7.8532      6.0864      4.7041      3.6752      2.9502      2.4768    
  2.2113      2.1260      2.2114      2.4768      2.9502      3.6752      4.7041      6.0864      7.8532      10.002    
  12.479      15.156      17.810      20.108      21.679      22.239      20.326      18.609      16.354      13.865    
  11.433      9.2297      7.3358      5.7840      4.5726      3.6751      3.0519      2.6629      2.4768      2.4767    
  2.6629      3.0519      3.6752      4.5728      5.7842      7.3358      9.2296      11.433      13.865      16.354    
  18.609      20.327      21.258      21.258      18.244      16.802      14.936      12.830      10.733      8.8203    
  7.1591      5.7842      4.7041      3.9059      3.3641      3.0519      2.9502      3.0519      3.3641      3.9059    
  4.7041      5.7842      7.1591      8.8203      10.733      12.830      14.936      16.802      18.244      19.152    
  19.461      19.152      15.847      15.095      13.865      12.242      10.484      8.8202      7.3358      6.0866    
  5.0993      4.3762      3.9059      3.6751      3.6752      3.9060      4.3761      5.0991      6.0864      7.3358    
  8.8203      10.485      12.242      13.866      15.095      15.847      16.207      16.331      16.331      16.207    
  13.899      14.043      13.463      12.242      10.733      9.2296      7.8532      6.6825      5.7594      5.0993    
  4.7041      4.5726      4.7041      5.0993      5.7594      6.6824      7.8532      9.2296      10.733      12.242    
  13.463      14.043      13.899      13.276      12.622      12.348      12.622      13.276      13.146      14.043    
  13.865      12.830      11.433      10.002      8.6790      7.5556      6.6825      6.0866      5.7842      5.7840    
  6.0864      6.6826      7.5559      8.6792      10.002      11.433      12.830      13.866      14.043      13.146    
  11.435      9.5893      8.4020      8.4018      9.5891      11.435      13.899      15.095      14.936      13.865    
  12.479      11.065      9.7691      8.6790      7.8532      7.3358      7.1591      7.3358      7.8532      8.6791    
  9.7691      11.065      12.479      13.865      14.936      15.095      13.899      11.435      8.4168      5.9362    
  4.9777      5.9361      8.4167      11.435      15.847      16.802      16.354      15.156      13.747      12.342    
  11.065      10.002      9.2296      8.8202      8.8203      9.2297      10.002      11.065      12.342      13.748    
  15.156      16.354      16.802      15.847      13.276      9.5893      5.9362      3.6594      3.6594      5.9361    
  9.5891      13.276      18.244      18.609      17.810      16.538      15.134      13.747      12.479      11.433    
  10.733      10.484      10.733      11.433      12.479      13.747      15.134      16.538      17.810      18.609    
  18.244      16.207      12.622      8.4020      4.9777      3.6594      4.9777      8.4019      12.622      16.207    
  20.326      20.108      19.145      17.901      16.538      15.156      13.865      12.830      12.242      12.242    
  12.830      13.865      15.156      16.538      17.900      19.145      20.108      20.327      19.152      16.331    
  12.348      8.4018      5.9361      5.9361      8.4019      12.348      16.331      19.151      21.679      21.197    
  20.296      19.145      17.810      16.354      14.936      13.865      13.463      13.865      14.936      16.354    
  17.810      19.145      20.296      21.197      21.679      21.258      19.461      16.331      12.622      9.5891    
  8.4167      9.5891      12.622      16.331      19.461      21.258      22.336      21.941      21.197      20.108    
  18.609      16.802      15.095      14.043      14.043      15.095      16.802      18.609      20.108      21.197    
  21.941      22.335      22.239      21.258      19.152      16.207      13.276      11.435      11.435      13.276    
  16.207      19.151      21.258      22.239      22.335      22.239      21.258      19.151      16.207      13.276    
  11.435      11.435      13.276      16.207      19.152      21.258      22.239      22.335      21.941      21.197    
  20.108      18.609      16.802      15.095      14.043      14.043      15.095      16.802      18.609      20.108    
  21.197      21.941      22.239      21.757      19.816      16.471      12.524      9.3039      8.0602      9.3046    
  12.525      16.472      19.816      21.756      22.239      21.753      20.825      19.641      18.263      16.752    
  15.270      14.148      13.727      14.149      15.270      16.752      18.263      19.640      20.825      21.753    
  21.258      19.816      16.542      11.994      7.5183      4.7306      4.7310      7.5190      11.994      16.542    
  19.816      21.258      21.125      20.124      18.811      17.371      15.906      14.530      13.419      12.785    
  12.785      13.419      14.530      15.905      17.371      18.811      20.125      21.125      19.151      16.471    
  11.994      6.8252      2.6664      1.0706      2.6661      6.8251      11.994      16.472      19.152      19.845    
  19.108      17.756      16.246      14.747      13.370      12.230      11.462      11.190      11.462      12.230    
  13.370      14.747      16.246      17.756      19.108      19.845      16.207      12.524      7.5183      2.6664    
 -.32851     -.32869      2.6661      7.5185      12.525      16.207      17.879      17.737      16.538      15.024    
  13.493      12.091      10.916      10.058      9.6015      9.6012      10.058      10.916      12.091      13.493    
  15.024      16.538      17.738      17.880      13.276      9.3039      4.7306      1.0706     -.32869      1.0708    
  4.7309      9.3041      13.276      15.616      16.104      15.232      13.793      12.268      10.844      9.6334    
  8.7093      8.1272      7.9279      8.1272      8.7094      9.6335      10.844      12.268      13.793      15.232    
  16.104      15.616      11.435      8.0602      4.7310      2.6661      2.6661      4.7309      8.0599      11.435    
  13.775      14.568      13.984      12.652      11.157      9.7264      8.4865      7.5100      6.8380      6.4953    
  6.4955      6.8382      7.5100      8.4862      9.7263      11.157      12.652      13.984      14.567      13.774    
  11.435      9.3046      7.5190      6.8251      7.5185      9.3041      11.435      13.063      13.622      13.051    
  11.748      10.250      8.8060      7.5372      6.5162      5.7764      5.3300      5.1808      5.3300      5.7764    
  6.5162      7.5372      8.8060      10.250      11.748      13.051      13.622      13.063      13.276      12.525    
  11.994      11.994      12.525      13.276      13.775      13.622      12.702      11.240      9.6471      8.1437    
  6.8266      5.7563      4.9578      4.4326      4.1729      4.1728      4.4324      4.9579      5.7565      6.8266    
  8.1436      9.6470      11.240      12.702      13.622      13.774      16.207      16.472      16.542      16.472    
  16.207      15.616      14.568      13.051      11.240      9.4342      7.7947      6.3851      5.2439      4.3815    
  3.7873      3.4419      3.3289      3.4419      3.7873      4.3816      5.2440      6.3851      7.7947      9.4342    
  11.240      13.051      14.568      15.616      19.152      19.816      19.816      19.152      17.879      16.104    
  13.984      11.748      9.6471      7.7947      6.2349      4.9857      4.0402      3.3732      2.9525      2.7501    
  2.7502      2.9526      3.3732      4.0401      4.9856      6.2350      7.7948      9.6471      11.747      13.984    
  16.104      17.879      21.258      21.756      21.258      19.845      17.737      15.232      12.652      10.250    
  8.1437      6.3851      4.9857      3.9271      3.1713      2.6730      2.3920      2.3014      2.3920      2.6730    
  3.1713      3.9270      4.9856      6.3850      8.1438      10.250      12.653      15.233      17.737      19.845    
  22.239      22.239      21.125      19.108      16.538      13.793      11.157      8.8060      6.8266      5.2439    
  4.0402      3.1713      2.5823      2.2215      2.0510      2.0510      2.2215      2.5823      3.1713      4.0401    
  5.2438      6.8266      8.8060      11.157      13.793      16.538      19.108      21.125      22.335      21.753    
  20.124      17.756      15.024      12.268      9.7264      7.5372      5.7563      4.3815      3.3732      2.6730    
  2.2215      1.9707      1.8904      1.9706      2.2215      2.6730      3.3732      4.3816      5.7565      7.5373    
  9.7262      12.267      15.024      17.756      20.125      21.753      21.941      20.825      18.811      16.246    
  13.493      10.844      8.4865      6.5162      4.9578      3.7873      2.9525      2.3920      2.0510      1.8904    
  1.8904      2.0510      2.3920      2.9525      3.7873      4.9578      6.5162      8.4865      10.844      13.493    
  16.246      18.811      20.825      21.941      21.197      19.641      17.371      14.747      12.091      9.6334    
  7.5100      5.7764      4.4326      3.4419      2.7501      2.3014      2.0510      1.9706      2.0510      2.3015    
  2.7502      3.4419      4.4324      5.7762      7.5100      9.6337      12.091      14.747      17.371      19.640    
  21.197      21.753      20.108      18.263      15.906      13.370      10.916      8.7093      6.8380      5.3300    
  4.1729      3.3289      2.7502      2.3920      2.2215      2.2215      2.3920      2.7502      3.3289      4.1729    
  5.3300      6.8379      8.7093      10.916      13.370      15.906      18.263      20.108      21.125      21.125    
  18.609      16.752      14.530      12.230      10.058      8.1272      6.4953      5.1808      4.1728      3.4419    
  2.9526      2.6730      2.5823      2.6730      2.9525      3.4419      4.1729      5.1811      6.4955      8.1271    
  10.058      12.229      14.530      16.752      18.609      19.845      20.280      19.845      16.802      15.270    
  13.419      11.462      9.6015      7.9279      6.4955      5.3300      4.4324      3.7873      3.3732      3.1713    
  3.1713      3.3732      3.7873      4.4324      5.3300      6.4955      7.9279      9.6014      11.462      13.419    
  15.270      16.802      17.879      18.433      18.433      17.879      15.095      14.148      12.785      11.190    
  9.6012      8.1272      6.8382      5.7764      4.9579      4.3816      4.0401      3.9270      4.0401      4.3816    
  4.9578      5.7762      6.8379      8.1271      9.6014      11.190      12.785      14.148      15.095      15.615    
  15.830      15.882      15.831      15.616      14.043      13.727      12.785      11.462      10.058      8.7094    
  7.5100      6.5162      5.7565      5.2440      4.9856      4.9856      5.2438      5.7565      6.5162      7.5100    
  8.7093      10.058      11.462      12.785      13.726      14.043      13.775      13.230      12.817      12.817    
  13.230      13.774      14.043      14.149      13.419      12.230      10.916      9.6335      8.4862      7.5372    
  6.8266      6.3851      6.2350      6.3850      6.8266      7.5373      8.4865      9.6337      10.916      12.229    
  13.419      14.148      14.043      13.063      11.594      10.296      9.7798      10.295      11.594      13.063    
  15.095      15.270      14.530      13.370      12.091      10.844      9.7263      8.8060      8.1436      7.7947    
  7.7948      8.1438      8.8060      9.7262      10.844      12.091      13.370      14.530      15.270      15.095    
  13.775      11.594      9.3181      7.8679      7.8678      9.3178      11.594      13.775      16.802      16.752    
  15.905      14.747      13.493      12.268      11.157      10.250      9.6470      9.4342      9.6471      10.250    
  11.157      12.267      13.493      14.747      15.906      16.752      16.802      15.615      13.230      10.296    
  7.8679      6.9260      7.8675      10.295      13.230      15.616      18.609      18.263      17.371      16.246    
  15.024      13.793      12.652      11.748      11.240      11.240      11.747      12.653      13.793      15.024    
  16.246      17.371      18.263      18.609      17.879      15.830      12.817      9.7798      7.8678      7.8675    
  9.7794      12.817      15.831      17.880      20.108      19.640      18.811      17.756      16.538      15.232    
  13.984      13.051      12.702      13.051      13.984      15.233      16.538      17.756      18.811      19.640    
  20.108      19.845      18.433      15.882      12.817      10.295      9.3178      10.295      12.817      15.882    
  18.433      19.845      21.197      20.825      20.125      19.108      17.738      16.104      14.567      13.622    
  13.622      14.568      16.104      17.737      19.108      20.125      20.825      21.197      21.125      20.280    
  18.433      15.831      13.230      11.594      11.594      13.230      15.831      18.433      20.279      21.125    
  21.941      21.753      21.125      19.845      17.880      15.616      13.774      13.063      13.774      15.616    
  17.879      19.845      21.125      21.753      21.941      21.753      21.125      19.845      17.879      15.616    
  13.774      13.063      13.775      15.616      17.880      19.845      21.125      21.753      21.679      21.258    
  19.461      16.331      12.622      9.5891      8.4167      9.5891      12.622      16.331      19.461      21.258    
  21.679      21.197      20.296      19.145      17.810      16.354      14.936      13.865      13.463      13.865    
  14.936      16.354      17.810      19.145      20.296      21.197      21.258      19.816      16.542      11.994    
  7.5183      4.7306      4.7310      7.5190      11.994      16.542      19.816      21.258      21.125      20.124    
  18.811      17.371      15.906      14.530      13.419      12.785      12.785      13.419      14.530      15.905    
  17.371      18.811      20.125      21.125      19.461      16.542      11.735      6.2154      1.7853     0.87158E-01
  1.7853      6.2155      11.735      16.542      19.461      20.279      19.569      18.188      16.640      15.101    
  13.686      12.512      11.720      11.439      11.720      12.512      13.686      15.101      16.640      18.188    
  19.569      20.279      16.331      11.994      6.2154     0.66222     -2.7528     -2.7532     0.66140      6.2151    
  11.994      16.331      18.433      18.483      17.296      15.723      14.122      12.649      11.413      10.508    
  10.026      10.025      10.508      11.413      12.650      14.122      15.723      17.296      18.483      18.433    
  12.622      7.5183      1.7853     -2.7528     -4.4802     -2.7527      1.7853      7.5183      12.622      15.831    
  16.830      16.142      14.677      13.075      11.564      10.271      9.2804      8.6545      8.4398      8.6545    
  9.2804      10.271      11.564      13.075      14.677      16.142      16.830      15.831      9.5891      4.7306    
 0.87158E-01 -2.7532     -2.7527     0.88152E-01  4.7310      9.5888      13.230      14.926      14.802      13.575    
  12.035      10.522      9.1928      8.1369      7.4064      7.0328      7.0331      7.4068      8.1370      9.1924    
  10.522      12.035      13.575      14.802      14.927      13.230      8.4167      4.7310      1.7853     0.66140    
  1.7853      4.7310      8.4168      11.594      13.377      13.556      12.553      11.086      9.5938      8.2460    
  7.1436      6.3370      5.8474      5.6833      5.8474      6.3370      7.1436      8.2460      9.5937      11.086    
  12.553      13.556      13.377      11.594      9.5891      7.5190      6.2155      6.2151      7.5183      9.5888    
  11.594      12.779      12.793      11.805      10.342      8.8466      7.4796      6.3389      5.4739      4.8992    
  4.6135      4.6134      4.8990      5.4739      6.3391      7.4797      8.8466      10.342      11.805      12.793    
  12.778      11.594      12.622      11.994      11.735      11.994      12.622      13.230      13.377      12.793    
  11.527      9.9287      8.3550      6.9354      5.7463      4.8269      4.1841      3.8073      3.6836      3.8074    
  4.1841      4.8269      5.7463      6.9354      8.3550      9.9287      11.527      12.793      13.377      13.230    
  16.331      16.542      16.542      16.331      15.831      14.926      13.556      11.805      9.9287      8.1826    
  6.6511      5.3822      4.3967      3.6891      3.2377      3.0193      3.0194      3.2378      3.6891      4.3967    
  5.3821      6.6511      8.1827      9.9287      11.805      13.556      14.926      15.831      19.461      19.816    
  19.461      18.433      16.830      14.802      12.553      10.342      8.3550      6.6511      5.2591      4.1818    
  3.3990      2.8766      2.5798      2.4839      2.5798      2.8765      3.3989      4.1818      5.2591      6.6511    
  8.3551      10.342      12.553      14.802      16.830      18.433      21.258      21.258      20.279      18.483    
  16.142      13.575      11.086      8.8466      6.9354      5.3822      4.1818      3.3034      2.7017      2.3307    
  2.1548      2.1547      2.3307      2.7017      3.3034      4.1818      5.3821      6.9353      8.8466      11.086    
  13.575      16.142      18.483      20.280      21.679      21.125      19.569      17.296      14.677      12.035    
  9.5938      7.4796      5.7463      4.3967      3.3990      2.7017      2.2501      1.9986      1.9180      1.9986    
  2.2501      2.7017      3.3989      4.3967      5.7463      7.4796      9.5938      12.035      14.677      17.296    
  19.569      21.125      21.197      20.124      18.188      15.723      13.075      10.522      8.2460      6.3389    
  4.8269      3.6891      2.8766      2.3307      1.9986      1.8422      1.8422      1.9986      2.3307      2.8765    
  3.6890      4.8270      6.3391      8.2461      10.522      13.074      15.723      18.188      20.125      21.197    
  20.296      18.811      16.640      14.122      11.564      9.1928      7.1436      5.4739      4.1841      3.2377    
  2.5798      2.1548      1.9180      1.8422      1.9181      2.1548      2.5799      3.2377      4.1841      5.4738    
  7.1436      9.1927      11.564      14.122      16.640      18.811      20.296      20.825      19.145      17.371    
  15.101      12.649      10.271      8.1369      6.3370      4.8992      3.8073      3.0193      2.4839      2.1547    
  1.9986      1.9986      2.1548      2.4840      3.0194      3.8073      4.8989      6.3368      8.1369      10.271    
  12.650      15.102      17.371      19.145      20.125      20.125      17.810      15.906      13.686      11.413    
  9.2804      7.4064      5.8474      4.6135      3.6836      3.0194      2.5798      2.3307      2.2501      2.3307    
  2.5799      3.0194      3.6836      4.6136      5.8474      7.4064      9.2805      11.413      13.686      15.906    
  17.810      19.108      19.569      19.108      16.354      14.530      12.512      10.508      8.6545      7.0328    
  5.6833      4.6134      3.8074      3.2378      2.8765      2.7017      2.7017      2.8765      3.2377      3.8073    
  4.6136      5.6837      7.0331      8.6544      10.508      12.511      14.530      16.355      17.738      18.484    
  18.483      17.737      14.936      13.419      11.720      10.026      8.4398      7.0331      5.8474      4.8990    
  4.1841      3.6891      3.3989      3.3034      3.3989      3.6890      4.1841      4.8989      5.8474      7.0331    
  8.4398      10.026      11.720      13.419      14.936      16.104      16.830      17.075      16.830      16.104    
  13.865      12.785      11.439      10.025      8.6545      7.4068      6.3370      5.4739      4.8269      4.3967    
  4.1818      4.1818      4.3967      4.8270      5.4738      6.3368      7.4064      8.6544      10.026      11.440    
  12.785      13.865      14.567      14.926      15.058      15.058      14.926      14.568      13.463      12.785    
  11.720      10.508      9.2804      8.1370      7.1436      6.3391      5.7463      5.3821      5.2591      5.3821    
  5.7463      6.3391      7.1436      8.1369      9.2805      10.508      11.720      12.785      13.463      13.622    
  13.377      13.025      12.866      13.025      13.377      13.622      13.865      13.419      12.512      11.413    
  10.271      9.1924      8.2460      7.4797      6.9354      6.6511      6.6511      6.9353      7.4796      8.2461    
  9.1927      10.271      11.413      12.511      13.419      13.865      13.622      12.778      11.741      11.039    
  11.039      11.741      12.778      13.622      14.936      14.530      13.686      12.650      11.564      10.522    
  9.5937      8.8466      8.3550      8.1827      8.3551      8.8466      9.5938      10.522      11.564      12.650    
  13.686      14.530      14.936      14.567      13.377      11.741      10.326      9.7683      10.326      11.741    
  13.377      14.567      16.354      15.905      15.101      14.122      13.075      12.035      11.086      10.342    
  9.9287      9.9287      10.342      11.086      12.035      13.074      14.122      15.102      15.906      16.355    
  16.104      14.926      13.025      11.039      9.7683      9.7683      11.039      13.025      14.927      16.104    
  17.810      17.371      16.640      15.723      14.677      13.575      12.553      11.805      11.527      11.805    
  12.553      13.575      14.677      15.723      16.640      17.371      17.810      17.738      16.830      15.058    
  12.866      11.039      10.326      11.039      12.866      15.058      16.830      17.738      19.145      18.811    
  18.188      17.296      16.142      14.802      13.556      12.793      12.793      13.556      14.802      16.142    
  17.296      18.188      18.811      19.145      19.108      18.484      17.075      15.058      13.025      11.741    
  11.741      13.025      15.058      17.075      18.483      19.108      20.296      20.125      19.569      18.483    
  16.830      14.927      13.377      12.778      13.377      14.926      16.830      18.483      19.569      20.125    
  20.296      20.125      19.569      18.483      16.830      14.926      13.377      12.778      13.377      14.927    
  16.830      18.483      19.569      20.125      21.197      21.125      20.279      18.433      15.831      13.230    
  11.594      11.594      13.230      15.831      18.433      20.280      21.125      21.197      20.825      20.125    
  19.108      17.737      16.104      14.568      13.622      13.622      14.567      16.104      17.738      19.108    
  20.125      20.825      20.326      19.151      16.331      12.349      8.4019      5.9361      5.9361      8.4019    
  12.348      16.331      19.152      20.327      20.108      19.145      17.900      16.538      15.156      13.865    
  12.830      12.242      12.242      12.830      13.865      15.156      16.538      17.901      19.145      20.108    
  19.151      16.471      11.994      6.8253      2.6664      1.0706      2.6662      6.8251      11.994      16.472    
  19.152      19.845      19.108      17.756      16.246      14.747      13.370      12.230      11.462      11.190    
  11.462      12.230      13.370      14.747      16.246      17.756      19.108      19.845      16.331      11.994    
  6.2154     0.66224     -2.7528     -2.7532     0.66141      6.2151      11.994      16.331      18.433      18.483    
  17.296      15.723      14.122      12.649      11.413      10.508      10.026      10.025      10.508      11.413    
  12.650      14.122      15.723      17.296      18.483      18.433      12.349      6.8253     0.66224     -4.2016    
 -6.0512     -4.2023     0.66132      6.8248      12.349      15.883      17.075      16.460      14.989      13.360    