diamond Si                              
   5.10000000000000     
     0.000000    0.500000    0.500000
     0.500000    0.000000    0.500000
     0.500000    0.500000    0.000000
   Si
     2
Direct
  0.875000  0.875000  0.875000
  0.125000  0.125000  0.125000
 
   28   28   28
 0.22528995572E+02 0.22335505128E+02 0.21679267628E+02 0.20326181555E+02 0.18244439406E+02
 0.15847374109E+02 0.13898685347E+02 0.13145580007E+02 0.13898647785E+02 0.15847338878E+02
 0.18244436977E+02 0.20326208945E+02 0.21679311667E+02 0.22335560905E+02 0.22529057087E+02
 0.22335560905E+02 0.21679311667E+02 0.20326208945E+02 0.18244436977E+02 0.15847338878E+02
 0.13898647785E+02 0.13145580007E+02 0.13898685347E+02 0.15847374109E+02 0.18244439406E+02
 0.20326181555E+02 0.21679267628E+02 0.22335505128E+02 0.22335505128E+02 0.22239117912E+02
 0.21257907419E+02 0.19151350306E+02 0.16207034683E+02 0.13275866939E+02 0.11435185998E+02
 0.11435154959E+02 0.13275932818E+02 0.16207341233E+02 0.19151621732E+02 0.21257754684E+02
 0.22238667111E+02 0.22335338728E+02 0.21941108675E+02 0.21197266671E+02 0.20108254186E+02
 0.18608640172E+02 0.16801769620E+02 0.15095125384E+02 0.14043031897E+02 0.14043003661E+02
 0.15095202442E+02 0.16802114870E+02 0.18608989734E+02 0.20108155791E+02 0.21196734552E+02
 0.21940714687E+02 0.21679267628E+02 0.21257907419E+02 0.19460894946E+02 0.16330925573E+02
 0.12621587559E+02 0.95891017543E+01 0.84167349990E+01 0.95890683383E+01 0.12621562128E+02
 0.16330937217E+02 0.19460944370E+02 0.21257990650E+02 0.21679363808E+02 0.21196785105E+02
 0.20295820560E+02 0.19145206443E+02 0.17809896593E+02 0.16354416695E+02 0.14936030006E+02
 0.13865380908E+02 0.13463123778E+02 0.13865399810E+02 0.14936042514E+02 0.16354435643E+02
 0.17809960742E+02 0.19145296744E+02 0.20295859389E+02 0.21196734552E+02 0.20326181555E+02
 0.19151350306E+02 0.16330925573E+02 0.12348497882E+02 0.84019458625E+01 0.59361184683E+01
 0.59361102054E+01 0.84018331939E+01 0.12348244988E+02 0.16330803494E+02 0.19151652025E+02
 0.20326711476E+02 0.20108326118E+02 0.19144862765E+02 0.17899995772E+02 0.16538351373E+02
 0.15156248526E+02 0.13864972771E+02 0.12829564181E+02 0.12241815091E+02 0.12241914615E+02
 0.12829615520E+02 0.13864680049E+02 0.15155869182E+02 0.16538428507E+02 0.17900557409E+02
 0.19145296744E+02 0.20108155791E+02 0.18244439406E+02 0.16207034683E+02 0.12621587559E+02
 0.84019458625E+01 0.49777010269E+01 0.36594286381E+01 0.49777058954E+01 0.84019725423E+01
 0.12621641844E+02 0.16207095906E+02 0.18244479295E+02 0.18608999622E+02 0.17809953190E+02
 0.16538418953E+02 0.15134405124E+02 0.13747145628E+02 0.12478599262E+02 0.11433193123E+02
 0.10732569539E+02 0.10484395371E+02 0.10732538593E+02 0.11433153044E+02 0.12478571929E+02
 0.13747136638E+02 0.15134408560E+02 0.16538428507E+02 0.17809960742E+02 0.18608989734E+02
 0.15847374109E+02 0.13275866939E+02 0.95891017543E+01 0.59361184683E+01 0.36594286381E+01
 0.36594050346E+01 0.59361607034E+01 0.95893119923E+01 0.13276046832E+02 0.15847249515E+02
 0.16801806465E+02 0.16354400383E+02 0.15156272861E+02 0.13747553628E+02 0.12342275157E+02
 0.11064983041E+02 0.10001833353E+02 0.92297485085E+01 0.88203166725E+01 0.88201569858E+01
 0.92295554685E+01 0.10002001849E+02 0.11065353862E+02 0.12342317762E+02 0.13747136638E+02
 0.15155869182E+02 0.16354435643E+02 0.16802114870E+02 0.13898685347E+02 0.11435185998E+02
 0.84167349990E+01 0.59361102054E+01 0.49777058954E+01 0.59361607034E+01 0.84168038270E+01
 0.11435254304E+02 0.13898752197E+02 0.15095251124E+02 0.14936052749E+02 0.13864672361E+02
 0.12478590948E+02 0.11065404336E+02 0.97691158833E+01 0.86790518150E+01 0.78532245052E+01
 0.73357787178E+01 0.71591195685E+01 0.73357661837E+01 0.78532121432E+01 0.86790316541E+01
 0.97690712797E+01 0.11065353862E+02 0.12478571929E+02 0.13864680049E+02 0.14936042514E+02
 0.15095202442E+02 0.13145580007E+02 0.11435154959E+02 0.95890683383E+01 0.84018331939E+01
 0.84019725423E+01 0.95893119923E+01 0.11435254304E+02 0.13145582488E+02 0.14043111112E+02
 0.13865563347E+02 0.12829566031E+02 0.11432856358E+02 0.10001803389E+02 0.86792031645E+01
 0.75559276753E+01 0.66825509450E+01 0.60864290255E+01 0.57840312785E+01 0.57841781526E+01
 0.60866350269E+01 0.66824578441E+01 0.75555891456E+01 0.86790316541E+01 0.10002001849E+02
 0.11433153044E+02 0.12829615520E+02 0.13865399810E+02 0.14043003661E+02 0.13898647785E+02
 0.13275932818E+02 0.12621562128E+02 0.12348244988E+02 0.12621641844E+02 0.13276046832E+02
 0.13898752197E+02 0.14043111112E+02 0.13463176260E+02 0.12241941246E+02 0.10732547629E+02
 0.92295552586E+01 0.78531950832E+01 0.66824121888E+01 0.57593804101E+01 0.50992958172E+01
 0.47041258545E+01 0.45726101160E+01 0.47041489218E+01 0.50993460384E+01 0.57594429590E+01
 0.66824578441E+01 0.78532121432E+01 0.92295554685E+01 0.10732538593E+02 0.12241914615E+02
 0.13463123778E+02 0.14043031897E+02 0.15847338878E+02 0.16207341233E+02 0.16330937217E+02
 0.16330803494E+02 0.16207095906E+02 0.15847249515E+02 0.15095251124E+02 0.13865563347E+02
 0.12241941246E+02 0.10484510664E+02 0.88202840964E+01 0.73357743351E+01 0.60864228528E+01
 0.50990625788E+01 0.43760736634E+01 0.39060366789E+01 0.36751603539E+01 0.36750652847E+01
 0.39059124659E+01 0.43761666861E+01 0.50993460384E+01 0.60866350269E+01 0.73357661837E+01
 0.88201569858E+01 0.10484395371E+02 0.12241815091E+02 0.13865380908E+02 0.15095125384E+02
 0.18244436977E+02 0.19151621732E+02 0.19460944370E+02 0.19151652025E+02 0.18244479295E+02
 0.16801806465E+02 0.14936052749E+02 0.12829566031E+02 0.10732547629E+02 0.88202840964E+01
 0.71590977244E+01 0.57841734636E+01 0.47041482721E+01 0.39059039811E+01 0.33640622499E+01
 0.30519206260E+01 0.29501862985E+01 0.30519296420E+01 0.33640755652E+01 0.39059124659E+01
 0.47041489218E+01 0.57841781526E+01 0.71591195685E+01 0.88203166725E+01 0.10732569539E+02
 0.12829564181E+02 0.14936030006E+02 0.16801769620E+02 0.20326208945E+02 0.21257754684E+02
 0.21257990650E+02 0.20326711476E+02 0.18608999622E+02 0.16354400383E+02 0.13864672361E+02
 0.11432856358E+02 0.92295552586E+01 0.73357743351E+01 0.57841734636E+01 0.45728059124E+01
 0.36751993047E+01 0.30519343818E+01 0.26628565331E+01 0.24767227814E+01 0.24767702085E+01
 0.26629363137E+01 0.30519296420E+01 0.36750652847E+01 0.45726101160E+01 0.57840312785E+01
 0.73357787178E+01 0.92297485085E+01 0.11433193123E+02 0.13864972771E+02 0.16354416695E+02
 0.18608640172E+02 0.21679311667E+02 0.22238667111E+02 0.21679363808E+02 0.20108326118E+02
 0.17809953190E+02 0.15156272861E+02 0.12478590948E+02 0.10001803389E+02 0.78531950832E+01
 0.60864228528E+01 0.47041482721E+01 0.36751993047E+01 0.29502286715E+01 0.24768082556E+01
 0.22113533160E+01 0.21260124628E+01 0.22113291476E+01 0.24767702085E+01 0.29501862985E+01
 0.36751603539E+01 0.47041258545E+01 0.60864290255E+01 0.78532245052E+01 0.10001833353E+02
 0.12478599262E+02 0.15156248526E+02 0.17809896593E+02 0.20108254186E+02 0.22335560905E+02
 0.22335338728E+02 0.21196785105E+02 0.19144862765E+02 0.16538418953E+02 0.13747553628E+02
 0.11065404336E+02 0.86792031645E+01 0.66824121888E+01 0.50990625788E+01 0.39059039811E+01
 0.30519343818E+01 0.24768082556E+01 0.21260856672E+01 0.19606755711E+01 0.19606496840E+01
 0.21260124628E+01 0.24767227814E+01 0.30519206260E+01 0.39060366789E+01 0.50992958172E+01
 0.66825509450E+01 0.86790518150E+01 0.11064983041E+02 0.13747145628E+02 0.16538351373E+02
 0.19145206443E+02 0.21197266671E+02 0.22529057087E+02 0.21941108675E+02 0.20295820560E+02
 0.17899995772E+02 0.15134405124E+02 0.12342275157E+02 0.97691158833E+01 0.75559276753E+01
 0.57593804101E+01 0.43760736634E+01 0.33640622499E+01 0.26628565331E+01 0.22113533160E+01
 0.19606755711E+01 0.18804939212E+01 0.19606755711E+01 0.22113533160E+01 0.26628565331E+01
 0.33640622499E+01 0.43760736634E+01 0.57593804101E+01 0.75559276753E+01 0.97691158833E+01
 0.12342275157E+02 0.15134405124E+02 0.17899995772E+02 0.20295820560E+02 0.21941108675E+02
 0.22335560905E+02 0.21197266671E+02 0.19145206443E+02 0.16538351373E+02 0.13747145628E+02
 0.11064983041E+02 0.86790518150E+01 0.66825509450E+01 0.50992958172E+01 0.39060366789E+01
 0.30519206260E+01 0.24767227814E+01 0.21260124628E+01 0.19606496840E+01 0.19606755711E+01
 0.21260856672E+01 0.24768082556E+01 0.30519343818E+01 0.39059039811E+01 0.50990625788E+01
 0.66824121888E+01 0.86792031645E+01 0.11065404336E+02 0.13747553628E+02 0.16538418953E+02
 0.19144862765E+02 0.21196785105E+02 0.22335338728E+02 0.21679311667E+02 0.20108254186E+02
 0.17809896593E+02 0.15156248526E+02 0.12478599262E+02 0.10001833353E+02 0.78532245052E+01
 0.60864290255E+01 0.47041258545E+01 0.36751603539E+01 0.29501862985E+01 0.24767702085E+01
 0.22113291476E+01 0.21260124628E+01 0.22113533160E+01 0.24768082556E+01 0.29502286715E+01
 0.36751993047E+01 0.47041482721E+01 0.60864228528E+01 0.78531950832E+01 0.10001803389E+02
 0.12478590948E+02 0.15156272861E+02 0.17809953190E+02 0.20108326118E+02 0.21679363808E+02
 0.22238667111E+02 0.20326208945E+02 0.18608640172E+02 0.16354416695E+02 0.13864972771E+02
 0.11433193123E+02 0.92297485085E+01 0.73357787178E+01 0.57840312785E+01 0.45726101160E+01
 0.36750652847E+01 0.30519296420E+01 0.26629363137E+01 0.24767702085E+01 0.24767227814E+01
 0.26628565331E+01 0.30519343818E+01 0.36751993047E+01 0.45728059124E+01 0.57841734636E+01
 0.73357743351E+01 0.92295552586E+01 0.11432856358E+02 0.13864672361E+02 0.16354400383E+02
 0.18608999622E+02 0.20326711476E+02 0.21257990650E+02 0.21257754684E+02 0.18244436977E+02
 0.16801769620E+02 0.14936030006E+02 0.12829564181E+02 0.10732569539E+02 0.88203166725E+01
 0.71591195685E+01 0.57841781526E+01 0.47041489218E+01 0.39059124659E+01 0.33640755652E+01
 0.30519296420E+01 0.29501862985E+01 0.30519206260E+01 0.33640622499E+01 0.39059039811E+01
 0.47041482721E+01 0.57841734636E+01 0.71590977244E+01 0.88202840964E+01 0.10732547629E+02
 0.12829566031E+02 0.14936052749E+02 0.16801806465E+02 0.18244479295E+02 0.19151652025E+02
 0.19460944370E+02 0.19151621732E+02 0.15847338878E+02 0.15095125384E+02 0.13865380908E+02
 0.12241815091E+02 0.10484395371E+02 0.88201569858E+01 0.73357661837E+01 0.60866350269E+01
 0.50993460384E+01 0.43761666861E+01 0.39059124659E+01 0.36750652847E+01 0.36751603539E+01
 0.39060366789E+01 0.43760736634E+01 0.50990625788E+01 0.60864228528E+01 0.73357743351E+01
 0.88202840964E+01 0.10484510664E+02 0.12241941246E+02 0.13865563347E+02 0.15095251124E+02
 0.15847249515E+02 0.16207095906E+02 0.16330803494E+02 0.16330937217E+02 0.16207341233E+02
 0.13898647785E+02 0.14043031897E+02 0.13463123778E+02 0.12241914615E+02 0.10732538593E+02
 0.92295554685E+01 0.78532121432E+01 0.66824578441E+01 0.57594429590E+01 0.50993460384E+01
 0.47041489218E+01 0.45726101160E+01 0.47041258545E+01 0.50992958172E+01 0.57593804101E+01
 0.66824121888E+01 0.78531950832E+01 0.92295552586E+01 0.10732547629E+02 0.12241941246E+02
 0.13463176260E+02 0.14043111112E+02 0.13898752197E+02 0.13276046832E+02 0.12621641844E+02
 0.12348244988E+02 0.12621562128E+02 0.13275932818E+02 0.13145580007E+02 0.14043003661E+02
 0.13865399810E+02 0.12829615520E+02 0.11433153044E+02 0.10002001849E+02 0.86790316541E+01
 0.75555891456E+01 0.66824578441E+01 0.60866350269E+01 0.57841781526E+01 0.57840312785E+01
 0.60864290255E+01 0.66825509450E+01 0.75559276753E+01 0.86792031645E+01 0.10001803389E+02
 0.11432856358E+02 0.12829566031E+02 0.13865563347E+02 0.14043111112E+02 0.13145582488E+02
 0.11435254304E+02 0.95893119923E+01 0.84019725423E+01 0.84018331939E+01 0.95890683383E+01
 0.11435154959E+02 0.13898685347E+02 0.15095202442E+02 0.14936042514E+02 0.13864680049E+02
 0.12478571929E+02 0.11065353862E+02 0.97690712797E+01 0.86790316541E+01 0.78532121432E+01
 0.73357661837E+01 0.71591195685E+01 0.73357787178E+01 0.78532245052E+01 0.86790518150E+01
 0.97691158833E+01 0.11065404336E+02 0.12478590948E+02 0.13864672361E+02 0.14936052749E+02
 0.15095251124E+02 0.13898752197E+02 0.11435254304E+02 0.84168038270E+01 0.59361607034E+01
 0.49777058954E+01 0.59361102054E+01 0.84167349990E+01 0.11435185998E+02 0.15847374109E+02
 0.16802114870E+02 0.16354435643E+02 0.15155869182E+02 0.13747136638E+02 0.12342317762E+02
 0.11065353862E+02 0.10002001849E+02 0.92295554685E+01 0.88201569858E+01 0.88203166725E+01
 0.92297485085E+01 0.10001833353E+02 0.11064983041E+02 0.12342275157E+02 0.13747553628E+02
 0.15156272861E+02 0.16354400383E+02 0.16801806465E+02 0.15847249515E+02 0.13276046832E+02
 0.95893119923E+01 0.59361607034E+01 0.36594050346E+01 0.36594286381E+01 0.59361184683E+01
 0.95891017543E+01 0.13275866939E+02 0.18244439406E+02 0.18608989734E+02 0.17809960742E+02
 0.16538428507E+02 0.15134408560E+02 0.13747136638E+02 0.12478571929E+02 0.11433153044E+02
 0.10732538593E+02 0.10484395371E+02 0.10732569539E+02 0.11433193123E+02 0.12478599262E+02
 0.13747145628E+02 0.15134405124E+02 0.16538418953E+02 0.17809953190E+02 0.18608999622E+02
 0.18244479295E+02 0.16207095906E+02 0.12621641844E+02 0.84019725423E+01 0.49777058954E+01
 0.36594286381E+01 0.49777010269E+01 0.84019458625E+01 0.12621587559E+02 0.16207034683E+02
 0.20326181555E+02 0.20108155791E+02 0.19145296744E+02 0.17900557409E+02 0.16538428507E+02
 0.15155869182E+02 0.13864680049E+02 0.12829615520E+02 0.12241914615E+02 0.12241815091E+02
 0.12829564181E+02 0.13864972771E+02 0.15156248526E+02 0.16538351373E+02 0.17899995772E+02
 0.19144862765E+02 0.20108326118E+02 0.20326711476E+02 0.19151652025E+02 0.16330803494E+02
 0.12348244988E+02 0.84018331939E+01 0.59361102054E+01 0.59361184683E+01 0.84019458625E+01
 0.12348497882E+02 0.16330925573E+02 0.19151350306E+02 0.21679267628E+02 0.21196734552E+02
 0.20295859389E+02 0.19145296744E+02 0.17809960742E+02 0.16354435643E+02 0.14936042514E+02
 0.13865399810E+02 0.13463123778E+02 0.13865380908E+02 0.14936030006E+02 0.16354416695E+02
 0.17809896593E+02 0.19145206443E+02 0.20295820560E+02 0.21196785105E+02 0.21679363808E+02
 0.21257990650E+02 0.19460944370E+02 0.16330937217E+02 0.12621562128E+02 0.95890683383E+01
 0.84167349990E+01 0.95891017543E+01 0.12621587559E+02 0.16330925573E+02 0.19460894946E+02
 0.21257907419E+02 0.22335505128E+02 0.21940714687E+02 0.21196734552E+02 0.20108155791E+02
 0.18608989734E+02 0.16802114870E+02 0.15095202442E+02 0.14043003661E+02 0.14043031897E+02
 0.15095125384E+02 0.16801769620E+02 0.18608640172E+02 0.20108254186E+02 0.21197266671E+02
 0.21941108675E+02 0.22335338728E+02 0.22238667111E+02 0.21257754684E+02 0.19151621732E+02
 0.16207341233E+02 0.13275932818E+02 0.11435154959E+02 0.11435185998E+02 0.13275866939E+02
 0.16207034683E+02 0.19151350306E+02 0.21257907419E+02 0.22239117912E+02 0.22335494005E+02
 0.22239098289E+02 0.21257891955E+02 0.19151340589E+02 0.16207022459E+02 0.13275854705E+02
 0.11435184739E+02 0.11435162753E+02 0.13275937041E+02 0.16207340735E+02 0.19151625884E+02
 0.21257762279E+02 0.22238667766E+02 0.22335333731E+02 0.21941109000E+02 0.21197271614E+02
 0.20108253216E+02 0.18608634540E+02 0.16801770881E+02 0.15095133950E+02 0.14043038174E+02
 0.14043008664E+02 0.15095215705E+02 0.16802133302E+02 0.18608999997E+02 0.20108156494E+02
 0.21196735176E+02 0.21940714351E+02 0.22239098289E+02 0.21756590005E+02 0.19815895664E+02
 0.16471255073E+02 0.12524244759E+02 0.93038732950E+01 0.80601668855E+01 0.93046016617E+01
 0.12525154104E+02 0.16471725769E+02 0.19815726235E+02 0.21756070310E+02 0.22238685031E+02
 0.21752869132E+02 0.20825392243E+02 0.19640513740E+02 0.18263142577E+02 0.16751553067E+02
 0.15269972039E+02 0.14148334673E+02 0.13726546896E+02 0.14148719845E+02 0.15270417229E+02
 0.16751710753E+02 0.18262921187E+02 0.19640097714E+02 0.20825082500E+02 0.21752906149E+02
 0.21257891955E+02 0.19815895664E+02 0.16541928754E+02 0.11993994643E+02 0.75182804826E+01
 0.47305921249E+01 0.47309696546E+01 0.75189913132E+01 0.11994334847E+02 0.16541791641E+02
 0.19815744787E+02 0.21257976916E+02 0.21124922216E+02 0.20124383261E+02 0.18810914339E+02
 0.17371221791E+02 0.15905582065E+02 0.14530404672E+02 0.13419021157E+02 0.12784515049E+02
 0.12784766578E+02 0.13419415605E+02 0.14530398193E+02 0.15905237295E+02 0.17371066990E+02
 0.18811137333E+02 0.20124614379E+02 0.21124879089E+02 0.19151340589E+02 0.16471255073E+02
 0.11993994643E+02 0.68252399541E+01 0.26663649450E+01 0.10705918586E+01 0.26661371937E+01
 0.68250617316E+01 0.11994107168E+02 0.16471599928E+02 0.19151631784E+02 0.19845333930E+02
 0.19107686675E+02 0.17755683585E+02 0.16245959123E+02 0.14747069593E+02 0.13370088988E+02
 0.12229795457E+02 0.11462414985E+02 0.11189922848E+02 0.11462289269E+02 0.12229620179E+02
 0.13369964224E+02 0.14747074554E+02 0.16246127847E+02 0.17755963748E+02 0.19107912784E+02
 0.19845315297E+02 0.16207022459E+02 0.12524244759E+02 0.75182804826E+01 0.26663649450E+01
 -.32850753628E+00 -.32869145379E+00 0.26661429227E+01 0.75184965664E+01 0.12524758251E+02
 0.16207226324E+02 0.17879371481E+02 0.17737389916E+02 0.16537962251E+02 0.15024237655E+02
 0.13493274416E+02 0.12090618411E+02 0.10915754330E+02 0.10058005724E+02 0.96014513569E+01
 0.96012425047E+01 0.10057697522E+02 0.10915795281E+02 0.12090883377E+02 0.13493293317E+02
 0.15023980672E+02 0.16537907596E+02 0.17737746985E+02 0.17879687424E+02 0.13275854705E+02
 0.93038732950E+01 0.47305921249E+01 0.10705918586E+01 -.32869145379E+00 0.10708162411E+01
 0.47308883624E+01 0.93040601866E+01 0.13275843456E+02 0.15615521153E+02 0.16103863867E+02
 0.15232331627E+02 0.13792869879E+02 0.12267840742E+02 0.10843922128E+02 0.96334399757E+01
 0.87093345154E+01 0.81271804229E+01 0.79278619542E+01 0.81272184765E+01 0.87094365438E+01
 0.96335429221E+01 0.10843893703E+02 0.12267660571E+02 0.13792695285E+02 0.15232326732E+02
 0.16104020734E+02 0.15615683265E+02 0.11435184739E+02 0.80601668855E+01 0.47309696546E+01
 0.26661371937E+01 0.26661429227E+01 0.47308883624E+01 0.80599346218E+01 0.11435028101E+02
 0.13774665076E+02 0.14567791644E+02 0.13983983682E+02 0.12652284722E+02 0.11157059844E+02
 0.97263808723E+01 0.84864848118E+01 0.75100274865E+01 0.68379534279E+01 0.64953091831E+01
 0.64954610785E+01 0.68381836506E+01 0.75099885862E+01 0.84862189190E+01 0.97262661419E+01
 0.11157254825E+02 0.12652478976E+02 0.13983835777E+02 0.14567423024E+02 0.13774488965E+02
 0.11435162753E+02 0.93046016617E+01 0.75189913132E+01 0.68250617316E+01 0.75184965664E+01
 0.93040601866E+01 0.11435028101E+02 0.13063099647E+02 0.13622335497E+02 0.13051099757E+02
 0.11747544263E+02 0.10250178006E+02 0.88059519137E+01 0.75372310786E+01 0.65162390806E+01
 0.57764407519E+01 0.53299735181E+01 0.51808001083E+01 0.53299742933E+01 0.57764183415E+01
 0.65161713182E+01 0.75371563851E+01 0.88059718481E+01 0.10250324909E+02 0.11747659131E+02
 0.13050956015E+02 0.13621940966E+02 0.13062792012E+02 0.13275937041E+02 0.12525154104E+02
 0.11994334847E+02 0.11994107168E+02 0.12524758251E+02 0.13275843456E+02 0.13774665076E+02
 0.13622335497E+02 0.12701917548E+02 0.11239561285E+02 0.96470802800E+01 0.81437372801E+01
 0.68266026828E+01 0.57562737533E+01 0.49578173546E+01 0.44325661111E+01 0.41728628899E+01
 0.41727581227E+01 0.44324350262E+01 0.49579103085E+01 0.57564941200E+01 0.68266479777E+01
 0.81435710597E+01 0.96469757297E+01 0.11239645474E+02 0.12701955415E+02 0.13622122414E+02
 0.13774417856E+02 0.16207340735E+02 0.16471725769E+02 0.16541791641E+02 0.16471599928E+02
 0.16207226324E+02 0.15615521153E+02 0.14567791644E+02 0.13051099757E+02 0.11239561285E+02
 0.94342390132E+01 0.77947059903E+01 0.63850782174E+01 0.52438605640E+01 0.43814836087E+01
 0.37873042682E+01 0.34419178671E+01 0.33288554865E+01 0.34418995456E+01 0.37873394756E+01
 0.43815932689E+01 0.52439656162E+01 0.63851021542E+01 0.77946675247E+01 0.94341974593E+01
 0.11239516611E+02 0.13051015425E+02 0.14567697940E+02 0.15615515524E+02 0.19151625884E+02
 0.19815726235E+02 0.19815744787E+02 0.19151631784E+02 0.17879371481E+02 0.16103863867E+02
 0.13983983682E+02 0.11747544263E+02 0.96470802800E+01 0.77947059903E+01 0.62348778894E+01
 0.49856547660E+01 0.40401576062E+01 0.33731837738E+01 0.29524926414E+01 0.27501054487E+01
 0.27501502797E+01 0.29525556770E+01 0.33731617016E+01 0.40400779707E+01 0.49856396240E+01
 0.62349614879E+01 0.77947826160E+01 0.96470613190E+01 0.11747486407E+02 0.13983999345E+02
 0.16103955306E+02 0.17879438257E+02 0.21257762279E+02 0.21756070310E+02 0.21257976916E+02
 0.19845333930E+02 0.17737389916E+02 0.15232331627E+02 0.12652284722E+02 0.10250178006E+02
 0.81437372801E+01 0.63850782174E+01 0.49856547660E+01 0.39271021325E+01 0.31713225674E+01
 0.26730482649E+01 0.23920231095E+01 0.23014408705E+01 0.23920138192E+01 0.26730304369E+01
 0.31712878962E+01 0.39270339215E+01 0.49855535543E+01 0.63849932578E+01 0.81437560473E+01
 0.10250352343E+02 0.12652548708E+02 0.15232513318E+02 0.17737347425E+02 0.19845101941E+02
 0.22238667766E+02 0.22238685031E+02 0.21124922216E+02 0.19107686675E+02 0.16537962251E+02
 0.13792869879E+02 0.11157059844E+02 0.88059519137E+01 0.68266026828E+01 0.52438605640E+01
 0.40401576062E+01 0.31713225674E+01 0.25822997625E+01 0.22215420771E+01 0.20510050154E+01
 0.20509748341E+01 0.22214854547E+01 0.25822697780E+01 0.31713193795E+01 0.40401406420E+01
 0.52438212498E+01 0.68265843230E+01 0.88059870268E+01 0.11157118914E+02 0.13792893371E+02
 0.16537927516E+02 0.19107623907E+02 0.21124872818E+02 0.22335333731E+02 0.21752869132E+02
 0.20124383261E+02 0.17755683585E+02 0.15024237655E+02 0.12267840742E+02 0.97263808723E+01
 0.75372310786E+01 0.57562737533E+01 0.43814836087E+01 0.33731837738E+01 0.26730482649E+01
 0.22215420771E+01 0.19706568628E+01 0.18903851315E+01 0.19706386917E+01 0.22214862431E+01
 0.26729813384E+01 0.33731946879E+01 0.43816271714E+01 0.57564613480E+01 0.75372669116E+01
 0.97261504315E+01 0.12267462039E+02 0.15023992923E+02 0.17755771361E+02 0.20124727121E+02
 0.21753172223E+02 0.21941109000E+02 0.20825392243E+02 0.18810914339E+02 0.16245959123E+02
 0.13493274416E+02 0.10843922128E+02 0.84864848118E+01 0.65162390806E+01 0.49578173546E+01
 0.37873042682E+01 0.29524926414E+01 0.23920231095E+01 0.20510050154E+01 0.18903851315E+01
 0.18903996012E+01 0.20510298628E+01 0.23920297613E+01 0.29524813756E+01 0.37872958914E+01
 0.49578158527E+01 0.65162268686E+01 0.84864561565E+01 0.10843898709E+02 0.13493277535E+02
 0.16245980905E+02 0.18810929622E+02 0.20825391598E+02 0.21941105426E+02 0.21197271614E+02
 0.19640513740E+02 0.17371221791E+02 0.14747069593E+02 0.12090618411E+02 0.96334399757E+01
 0.75100274865E+01 0.57764407519E+01 0.44325661111E+01 0.34419178671E+01 0.27501054487E+01
 0.23014408705E+01 0.20509748341E+01 0.19706386917E+01 0.20510298628E+01 0.23015463798E+01
 0.27502010586E+01 0.34418895530E+01 0.44323606929E+01 0.57761850814E+01 0.75099730084E+01
 0.96337247039E+01 0.12091083338E+02 0.14747358023E+02 0.17371096135E+02 0.19640080786E+02
 0.21196897707E+02 0.21753181483E+02 0.20108253216E+02 0.18263142577E+02 0.15905582065E+02
 0.13370088988E+02 0.10915754330E+02 0.87093345154E+01 0.68379534279E+01 0.53299735181E+01
 0.41728628899E+01 0.33288554865E+01 0.27501502797E+01 0.23920138192E+01 0.22214854547E+01
 0.22214862431E+01 0.23920297613E+01 0.27502010586E+01 0.33289296308E+01 0.41729158160E+01
 0.53299739954E+01 0.68379224363E+01 0.87093196359E+01 0.10915772811E+02 0.13370120893E+02
 0.15905615403E+02 0.18263188361E+02 0.20108307011E+02 0.21124896248E+02 0.21124870504E+02
 0.18608634540E+02 0.16751553067E+02 0.14530404672E+02 0.12229795457E+02 0.10058005724E+02
 0.81271804229E+01 0.64953091831E+01 0.51808001083E+01 0.41727581227E+01 0.34418995456E+01
 0.29525556770E+01 0.26730304369E+01 0.25822697780E+01 0.26729813384E+01 0.29524813756E+01
 0.34418895530E+01 0.41729158160E+01 0.51810941944E+01 0.64955258225E+01 0.81270971486E+01
 0.10057626219E+02 0.12229384484E+02 0.14530277198E+02 0.16751818380E+02 0.18609114690E+02
 0.19845452840E+02 0.20279514100E+02 0.19845088029E+02 0.16801770881E+02 0.15269972039E+02
 0.13419021157E+02 0.11462414985E+02 0.96014513569E+01 0.79278619542E+01 0.64954610785E+01
 0.53299742933E+01 0.44324350262E+01 0.37873394756E+01 0.33731617016E+01 0.31712878962E+01
 0.31713193795E+01 0.33731946879E+01 0.37872958914E+01 0.44323606929E+01 0.53299739954E+01
 0.64955258225E+01 0.79278717200E+01 0.96013620423E+01 0.11462341194E+02 0.13419078130E+02
 0.15270108555E+02 0.16801841094E+02 0.17879399002E+02 0.18432668055E+02 0.18432704264E+02
 0.17879434036E+02 0.15095133950E+02 0.14148334673E+02 0.12784515049E+02 0.11189922848E+02
 0.96012425047E+01 0.81272184765E+01 0.68381836506E+01 0.57764183415E+01 0.49579103085E+01
 0.43815932689E+01 0.40400779707E+01 0.39270339215E+01 0.40401406420E+01 0.43816271714E+01
 0.49578158527E+01 0.57761850814E+01 0.68379224363E+01 0.81270971486E+01 0.96013620423E+01
 0.11190226384E+02 0.12784816187E+02 0.14148455438E+02 0.15095034355E+02 0.15615311716E+02
 0.15830434198E+02 0.15882034171E+02 0.15830593958E+02 0.15615522600E+02 0.14043038174E+02
 0.13726546896E+02 0.12784766578E+02 0.11462289269E+02 0.10057697522E+02 0.87094365438E+01
 0.75099885862E+01 0.65161713182E+01 0.57564941200E+01 0.52439656162E+01 0.49856396240E+01
 0.49855535543E+01 0.52438212498E+01 0.57564613480E+01 0.65162268686E+01 0.75099730084E+01
 0.87093196359E+01 0.10057626219E+02 0.11462341194E+02 0.12784816187E+02 0.13726485946E+02
 0.14043006482E+02 0.13774632246E+02 0.13230094667E+02 0.12817035581E+02 0.12816836093E+02
 0.13229707776E+02 0.13774417898E+02 0.14043008664E+02 0.14148719845E+02 0.13419415605E+02
 0.12229620179E+02 0.10915795281E+02 0.96335429221E+01 0.84862189190E+01 0.75371563851E+01
 0.68266479777E+01 0.63851021542E+01 0.62349614879E+01 0.63849932578E+01 0.68265843230E+01
 0.75372669116E+01 0.84864561565E+01 0.96337247039E+01 0.10915772811E+02 0.12229384484E+02
 0.13419078130E+02 0.14148455438E+02 0.14043006482E+02 0.13063146290E+02 0.11594166950E+02
 0.10295554936E+02 0.97798217616E+01 0.10295099562E+02 0.11593580353E+02 0.13062787181E+02
 0.15095215705E+02 0.15270417229E+02 0.14530398193E+02 0.13369964224E+02 0.12090883377E+02
 0.10843893703E+02 0.97262661419E+01 0.88059718481E+01 0.81435710597E+01 0.77946675247E+01
 0.77947826160E+01 0.81437560473E+01 0.88059870268E+01 0.97261504315E+01 0.10843898709E+02
 0.12091083338E+02 0.13370120893E+02 0.14530277198E+02 0.15270108555E+02 0.15095034355E+02
 0.13774632246E+02 0.11594166950E+02 0.93180915591E+01 0.78679073989E+01 0.78677855898E+01
 0.93177762298E+01 0.11593825610E+02 0.13774500806E+02 0.16802133302E+02 0.16751710753E+02
 0.15905237295E+02 0.14747074554E+02 0.13493293317E+02 0.12267660571E+02 0.11157254825E+02
 0.10250324909E+02 0.96469757297E+01 0.94341974593E+01 0.96470613190E+01 0.10250352343E+02
 0.11157118914E+02 0.12267462039E+02 0.13493277535E+02 0.14747358023E+02 0.15905615403E+02
 0.16751818380E+02 0.16801841094E+02 0.15615311716E+02 0.13230094667E+02 0.10295554936E+02
 0.78679073989E+01 0.69259779074E+01 0.78675313117E+01 0.10295222429E+02 0.13230172225E+02
 0.15615710736E+02 0.18608999997E+02 0.18262921187E+02 0.17371066990E+02 0.16246127847E+02
 0.15023980672E+02 0.13792695285E+02 0.12652478976E+02 0.11747659131E+02 0.11239645474E+02
 0.11239516611E+02 0.11747486407E+02 0.12652548708E+02 0.13792893371E+02 0.15023992923E+02
 0.16245980905E+02 0.17371096135E+02 0.18263188361E+02 0.18609114690E+02 0.17879399002E+02
 0.15830434198E+02 0.12817035581E+02 0.97798217616E+01 0.78677855898E+01 0.78675313117E+01
 0.97794069280E+01 0.12817024770E+02 0.15830843379E+02 0.17879707073E+02 0.20108156494E+02
 0.19640097714E+02 0.18811137333E+02 0.17755963748E+02 0.16537907596E+02 0.15232326732E+02
 0.13983835777E+02 0.13050956015E+02 0.12701955415E+02 0.13051015425E+02 0.13983999345E+02
 0.15232513318E+02 0.16537927516E+02 0.17755771361E+02 0.18810929622E+02 0.19640080786E+02
 0.20108307011E+02 0.19845452840E+02 0.18432668055E+02 0.15882034171E+02 0.12816836093E+02
 0.10295099562E+02 0.93177762298E+01 0.10295222429E+02 0.12817024770E+02 0.15882190253E+02
 0.18432690954E+02 0.19845323522E+02 0.21196735176E+02 0.20825082500E+02 0.20124614379E+02
 0.19107912784E+02 0.17737746985E+02 0.16104020734E+02 0.14567423024E+02 0.13621940966E+02
 0.13622122414E+02 0.14567697940E+02 0.16103955306E+02 0.17737347425E+02 0.19107623907E+02
 0.20124727121E+02 0.20825391598E+02 0.21196897707E+02 0.21124896248E+02 0.20279514100E+02
 0.18432704264E+02 0.15830593958E+02 0.13229707776E+02 0.11593580353E+02 0.11593825610E+02
 0.13230172225E+02 0.15830843379E+02 0.18432690954E+02 0.20279481975E+02 0.21124893274E+02
 0.21940714351E+02 0.21752906149E+02 0.21124879089E+02 0.19845315297E+02 0.17879687424E+02
 0.15615683265E+02 0.13774488965E+02 0.13062792012E+02 0.13774417856E+02 0.15615515524E+02
 0.17879438257E+02 0.19845101941E+02 0.21124872818E+02 0.21753172223E+02 0.21941105426E+02
 0.21753181483E+02 0.21124870504E+02 0.19845088029E+02 0.17879434036E+02 0.15615522600E+02
 0.13774417898E+02 0.13062787181E+02 0.13774500806E+02 0.15615710736E+02 0.17879707073E+02
 0.19845323522E+02 0.21124893274E+02 0.21752924084E+02 0.21679245071E+02 0.21257877424E+02
 0.19460880021E+02 0.16330924863E+02 0.12621582921E+02 0.95890962672E+01 0.84167460809E+01
 0.95890893261E+01 0.12621570360E+02 0.16330934287E+02 0.19460949622E+02 0.21258001523E+02
 0.21679361871E+02 0.21196774661E+02 0.20295821672E+02 0.19145215973E+02 0.17809895395E+02
 0.16354409065E+02 0.14936036739E+02 0.13865399508E+02 0.13463134476E+02 0.13865404262E+02
 0.14936057235E+02 0.16354453802E+02 0.17809960228E+02 0.19145280178E+02 0.20295847328E+02
 0.21196725713E+02 0.21257877424E+02 0.19815881645E+02 0.16541926063E+02 0.11994001143E+02
 0.75182858404E+01 0.47305969504E+01 0.47309809580E+01 0.75190042830E+01 0.11994338726E+02
 0.16541789076E+02 0.19815746339E+02 0.21257981253E+02 0.21124920680E+02 0.20124378836E+02
 0.18810916712E+02 0.17371228514E+02 0.15905583857E+02 0.14530404511E+02 0.13419028861E+02
 0.12784527678E+02 0.12784773245E+02 0.13419416785E+02 0.14530401288E+02 0.15905238365E+02
 0.17371056436E+02 0.18811119008E+02 0.20124599969E+02 0.21124868350E+02 0.19460880021E+02
 0.16541926063E+02 0.11734801896E+02 0.62154193450E+01 0.17852558473E+01 0.87158406903E-01