   2   2   0   0
  0.1658137E+02  0.3606245E-09  0.3606245E-09  0.3606245E-09  0.5000000E-15
  1.000000000000000E-004
  CAR 
 diamond Si                              
     20.06155423     -6.67522113  301      7.99529531      1.00000000
     -6.675  0.0000E+00  0.0000E+00
     -6.586  0.0000E+00  0.0000E+00
     -6.497  0.0000E+00  0.0000E+00
     -6.408  0.0000E+00  0.0000E+00
     -6.319  0.0000E+00  0.0000E+00
     -6.230  0.0000E+00  0.0000E+00
     -6.140  0.0000E+00  0.0000E+00
     -6.051  0.9359E-18  0.8341E-19
     -5.962  0.1022E-13  0.9107E-15
     -5.873  0.4306E-10  0.3838E-11
     -5.784  0.3857E-07  0.3441E-08
     -5.695  0.7495E-05  0.6714E-06
     -5.606  0.3309E-03  0.3016E-04
     -5.517  0.3932E-02  0.3806E-03
     -5.428  0.2209E-01  0.2349E-02
     -5.338  0.7870E-01  0.9364E-02
     -5.249  0.1111E+00  0.1927E-01
     -5.160  0.9708E-01  0.2792E-01
     -5.071  0.1607E+00  0.4224E-01
     -4.982  0.2603E+00  0.6544E-01
     -4.893  0.2133E+00  0.8446E-01
     -4.804  0.9654E-01  0.9306E-01
     -4.715  0.1736E+00  0.1085E+00
     -4.625  0.3650E+00  0.1411E+00
     -4.536  0.3220E+00  0.1698E+00
     -4.447  0.2599E+00  0.1929E+00
     -4.358  0.3119E+00  0.2207E+00
     -4.269  0.2792E+00  0.2456E+00
     -4.180  0.1479E+00  0.2588E+00
     -4.091  0.2351E+00  0.2797E+00
     -4.002  0.5546E+00  0.3292E+00
     -3.912  0.5432E+00  0.3776E+00
     -3.823  0.2949E+00  0.4039E+00
     -3.734  0.3724E+00  0.4370E+00
     -3.645  0.4234E+00  0.4748E+00
     -3.556  0.2750E+00  0.4993E+00
     -3.467  0.1904E+00  0.5163E+00
     -3.378  0.4328E+00  0.5548E+00
     -3.289  0.6389E+00  0.6118E+00
     -3.199  0.6444E+00  0.6692E+00
     -3.110  0.6512E+00  0.7272E+00
     -3.021  0.5439E+00  0.7757E+00
     -2.932  0.3317E+00  0.8053E+00
     -2.843  0.3873E+00  0.8398E+00
     -2.754  0.4581E+00  0.8806E+00
     -2.665  0.4421E+00  0.9200E+00
     -2.576  0.7596E+00  0.9877E+00
     -2.486  0.1158E+01  0.1091E+01
     -2.397  0.8905E+00  0.1170E+01
     -2.308  0.5135E+00  0.1216E+01
     -2.219  0.6576E+00  0.1275E+01
     -2.130  0.6520E+00  0.1333E+01
     -2.041  0.3646E+00  0.1365E+01
     -1.952  0.2743E+00  0.1390E+01
     -1.863  0.7503E+00  0.1457E+01
     -1.773  0.1082E+01  0.1553E+01
     -1.684  0.6349E+00  0.1610E+01
     -1.595  0.2512E+00  0.1632E+01
     -1.506  0.2950E+00  0.1658E+01
     -1.417  0.4126E+00  0.1695E+01
     -1.328  0.3699E+00  0.1728E+01
     -1.239  0.6724E+00  0.1788E+01
     -1.150  0.6575E+00  0.1847E+01
     -1.060  0.3573E+00  0.1878E+01
     -0.971  0.2539E+00  0.1901E+01
     -0.882  0.1023E+00  0.1910E+01
     -0.793  0.1121E+00  0.1920E+01
     -0.704  0.2614E+00  0.1943E+01
     -0.615  0.3500E+00  0.1975E+01
     -0.526  0.2976E+00  0.2001E+01
     -0.437  0.1486E+00  0.2014E+01
     -0.348  0.7282E-01  0.2021E+01
     -0.258  0.1553E+00  0.2035E+01
     -0.169  0.1688E+00  0.2050E+01
     -0.080  0.7022E-01  0.2056E+01
      0.009  0.1964E+00  0.2074E+01
      0.098  0.4329E+00  0.2112E+01
      0.187  0.5478E+00  0.2161E+01
      0.276  0.1135E+01  0.2262E+01
      0.365  0.1602E+01  0.2405E+01
      0.455  0.1150E+01  0.2507E+01
      0.544  0.8145E+00  0.2580E+01
      0.633  0.9158E+00  0.2662E+01
      0.722  0.6075E+00  0.2716E+01
      0.811  0.6247E+00  0.2771E+01
      0.900  0.8185E+00  0.2844E+01
      0.989  0.8102E+00  0.2917E+01
      1.078  0.5476E+00  0.2965E+01
      1.168  0.4651E+00  0.3007E+01
      1.257  0.4791E+00  0.3050E+01
      1.346  0.4891E+00  0.3093E+01
      1.435  0.4093E+00  0.3130E+01
      1.524  0.4682E+00  0.3171E+01
      1.613  0.6954E+00  0.3233E+01
      1.702  0.4230E+00  0.3271E+01
      1.791  0.8092E-01  0.3278E+01
      1.881  0.1208E+00  0.3289E+01
      1.970  0.3295E+00  0.3318E+01
      2.059  0.4587E+00  0.3359E+01
      2.148  0.6347E+00  0.3416E+01
      2.237  0.4654E+00  0.3457E+01
      2.326  0.1037E+00  0.3466E+01
      2.415  0.7144E-01  0.3473E+01
      2.504  0.2986E+00  0.3499E+01
      2.594  0.5458E+00  0.3548E+01
      2.683  0.6151E+00  0.3603E+01
      2.772  0.6854E+00  0.3664E+01
      2.861  0.9201E+00  0.3746E+01
      2.950  0.7913E+00  0.3817E+01
      3.039  0.6521E+00  0.3875E+01
      3.128  0.7008E+00  0.3937E+01
      3.217  0.1083E+01  0.4034E+01
      3.307  0.1035E+01  0.4126E+01
      3.396  0.8850E+00  0.4205E+01
      3.485  0.1274E+01  0.4318E+01
      3.574  0.1006E+01  0.4408E+01
      3.663  0.5918E+00  0.4461E+01
      3.752  0.8047E+00  0.4532E+01
      3.841  0.9339E+00  0.4616E+01
      3.930  0.6517E+00  0.4674E+01
      4.019  0.5464E+00  0.4722E+01
      4.109  0.7113E+00  0.4786E+01
      4.198  0.1323E+01  0.4904E+01
      4.287  0.1598E+01  0.5046E+01
      4.376  0.1337E+01  0.5165E+01
      4.465  0.7837E+00  0.5235E+01
      4.554  0.6606E+00  0.5294E+01
      4.643  0.9124E+00  0.5375E+01
      4.732  0.1591E+01  0.5517E+01
      4.822  0.2108E+01  0.5705E+01
      4.911  0.1453E+01  0.5835E+01
      5.000  0.6603E+00  0.5893E+01
      5.089  0.1022E+01  0.5985E+01
      5.178  0.1423E+01  0.6111E+01
      5.267  0.1321E+01  0.6229E+01
      5.356  0.1079E+01  0.6325E+01
      5.445  0.5114E+00  0.6371E+01
      5.535  0.3873E+00  0.6405E+01
      5.624  0.1158E+01  0.6509E+01
      5.713  0.1774E+01  0.6667E+01
      5.802  0.1370E+01  0.6789E+01
      5.891  0.1167E+01  0.6893E+01
      5.980  0.1045E+01  0.6986E+01
      6.069  0.7764E+00  0.7055E+01
      6.158  0.1056E+01  0.7149E+01
      6.248  0.1192E+01  0.7255E+01
      6.337  0.9112E+00  0.7337E+01
      6.426  0.5657E+00  0.7387E+01
      6.515  0.4616E+00  0.7428E+01
      6.604  0.8002E+00  0.7499E+01
      6.693  0.1081E+01  0.7596E+01
      6.782  0.7560E+00  0.7663E+01
      6.871  0.4608E+00  0.7704E+01
      6.961  0.4331E+00  0.7743E+01
      7.050  0.5295E+00  0.7790E+01
      7.139  0.4714E+00  0.7832E+01
      7.228  0.3998E+00  0.7868E+01
      7.317  0.3312E+00  0.7897E+01
      7.406  0.2663E+00  0.7921E+01
      7.495  0.2273E+00  0.7941E+01
      7.584  0.1276E+00  0.7952E+01
      7.674  0.9235E-01  0.7961E+01
      7.763  0.1953E+00  0.7978E+01
      7.852  0.1620E+00  0.7993E+01
      7.941  0.6186E-01  0.7998E+01
      8.030  0.3734E-01  0.8001E+01
      8.119  0.6164E-01  0.8007E+01
      8.208  0.1069E+00  0.8016E+01
      8.297  0.1748E+00  0.8032E+01
      8.386  0.2521E+00  0.8054E+01
      8.476  0.2746E+00  0.8079E+01
      8.565  0.2402E+00  0.8100E+01
      8.654  0.1977E+00  0.8118E+01
      8.743  0.1536E+00  0.8132E+01
      8.832  0.2590E+00  0.8155E+01
      8.921  0.4102E+00  0.8191E+01
      9.010  0.5818E+00  0.8243E+01
      9.099  0.5914E+00  0.8296E+01
      9.189  0.5986E+00  0.8349E+01
      9.278  0.6549E+00  0.8408E+01
      9.367  0.6295E+00  0.8464E+01
      9.456  0.7700E+00  0.8532E+01
      9.545  0.8084E+00  0.8604E+01
      9.634  0.6618E+00  0.8663E+01
      9.723  0.8784E+00  0.8742E+01
      9.812  0.6904E+00  0.8803E+01
      9.902  0.5897E+00  0.8856E+01
      9.991  0.7541E+00  0.8923E+01
     10.080  0.8562E+00  0.8999E+01
     10.169  0.1037E+01  0.9092E+01
     10.258  0.1112E+01  0.9191E+01
     10.347  0.9926E+00  0.9279E+01
     10.436  0.8674E+00  0.9356E+01
     10.525  0.8931E+00  0.9436E+01
     10.615  0.7794E+00  0.9506E+01
     10.704  0.1360E+01  0.9627E+01
     10.793  0.2143E+01  0.9818E+01
     10.882  0.1702E+01  0.9969E+01
     10.971  0.1252E+01  0.1008E+02
     11.060  0.1313E+01  0.1020E+02
     11.149  0.1436E+01  0.1033E+02
     11.238  0.1332E+01  0.1044E+02
     11.328  0.1729E+01  0.1060E+02
     11.417  0.2010E+01  0.1078E+02
     11.506  0.2241E+01  0.1098E+02
     11.595  0.1958E+01  0.1115E+02
     11.684  0.1102E+01  0.1125E+02
     11.773  0.9500E+00  0.1134E+02
     11.862  0.9882E+00  0.1142E+02
     11.951  0.1301E+01  0.1154E+02
     12.041  0.1386E+01  0.1166E+02
     12.130  0.9421E+00  0.1175E+02
     12.219  0.9086E+00  0.1183E+02
     12.308  0.7506E+00  0.1189E+02
     12.397  0.8875E+00  0.1197E+02
     12.486  0.7257E+00  0.1204E+02
     12.575  0.5224E+00  0.1208E+02
     12.664  0.9287E+00  0.1217E+02
     12.754  0.1949E+01  0.1234E+02
     12.843  0.2142E+01  0.1253E+02
     12.932  0.1087E+01  0.1263E+02
     13.021  0.6660E+00  0.1269E+02
     13.110  0.1104E+01  0.1279E+02
     13.199  0.1398E+01  0.1291E+02
     13.288  0.9080E+00  0.1299E+02
     13.377  0.9751E+00  0.1308E+02
     13.466  0.1591E+01  0.1322E+02
     13.556  0.1395E+01  0.1335E+02
     13.645  0.7021E+00  0.1341E+02
     13.734  0.3045E+00  0.1343E+02
     13.823  0.5958E+00  0.1349E+02
     13.912  0.9539E+00  0.1357E+02
     14.001  0.9174E+00  0.1365E+02
     14.090  0.1081E+01  0.1375E+02
     14.179  0.1165E+01  0.1385E+02
     14.269  0.1129E+01  0.1396E+02
     14.358  0.7912E+00  0.1403E+02
     14.447  0.6021E+00  0.1408E+02
     14.536  0.8901E+00  0.1416E+02
     14.625  0.1275E+01  0.1427E+02
     14.714  0.1116E+01  0.1437E+02
     14.803  0.7352E+00  0.1444E+02
     14.892  0.5243E+00  0.1448E+02
     14.982  0.5672E+00  0.1453E+02
     15.071  0.1095E+01  0.1463E+02
     15.160  0.1284E+01  0.1475E+02
     15.249  0.9797E+00  0.1483E+02
     15.338  0.4713E+00  0.1488E+02
     15.427  0.2288E+00  0.1490E+02
     15.516  0.6624E+00  0.1496E+02
     15.605  0.1006E+01  0.1505E+02
     15.695  0.6764E+00  0.1511E+02
     15.784  0.6847E+00  0.1517E+02
     15.873  0.7906E+00  0.1524E+02
     15.962  0.6859E+00  0.1530E+02
     16.051  0.6164E+00  0.1535E+02
     16.140  0.4817E+00  0.1540E+02
     16.229  0.3860E+00  0.1543E+02
     16.318  0.4372E+00  0.1547E+02
     16.408  0.7180E+00  0.1553E+02
     16.497  0.7611E+00  0.1560E+02
     16.586  0.4619E+00  0.1564E+02
     16.675  0.4177E+00  0.1568E+02
     16.764  0.4043E+00  0.1572E+02
     16.853  0.2199E+00  0.1574E+02
     16.942  0.2483E+00  0.1576E+02
     17.031  0.4327E+00  0.1580E+02
     17.121  0.6267E+00  0.1585E+02
     17.210  0.4539E+00  0.1589E+02
     17.299  0.1703E+00  0.1591E+02
     17.388  0.2514E-01  0.1591E+02
     17.477  0.1019E-02  0.1591E+02
     17.566  0.9676E-05  0.1591E+02
     17.655  0.2025E-07  0.1591E+02
     17.744  0.9082E-11  0.1591E+02
     17.833  0.8536E-15  0.1591E+02
     17.923  0.0000E+00  0.1591E+02
     18.012  0.8603E-14  0.1591E+02
     18.101  0.6314E-10  0.1591E+02
     18.190  0.9802E-07  0.1591E+02
     18.279  0.3269E-04  0.1591E+02
     18.368  0.2401E-02  0.1591E+02
     18.457  0.4047E-01  0.1591E+02
     18.546  0.1697E+00  0.1593E+02
     18.636  0.2371E+00  0.1595E+02
     18.725  0.2298E+00  0.1597E+02
     18.814  0.1748E+00  0.1599E+02
     18.903  0.1137E+00  0.1600E+02
     18.992  0.3961E-01  0.1600E+02
     19.081  0.3880E-02  0.1600E+02
     19.170  0.8970E-04  0.1600E+02
     19.259  0.4627E-06  0.1600E+02
     19.349  0.5167E-09  0.1600E+02
     19.438  0.1226E-12  0.1600E+02
     19.527  0.0000E+00  0.1600E+02
     19.616  0.0000E+00  0.1600E+02
     19.705  0.0000E+00  0.1600E+02
     19.794  0.0000E+00  0.1600E+02
     19.883  0.0000E+00  0.1600E+02
     19.972  0.0000E+00  0.1600E+02
     20.062  0.0000E+00  0.1600E+02
