    2    2    1    1
  0.1658137E+02  0.3606245E-09  0.3606245E-09  0.3606245E-09  0.5000000E-15
  1.000000000000000E-004
  CAR 
 diamond Si                              
      8     56      8
 
  0.0000000E+00  0.0000000E+00  0.0000000E+00  0.7513148E-03
      1         -5.459913   1.000000
      2          7.924604   0.841277
      3          7.924628   0.841197
      4          7.924628   0.841197
      5         10.550617   0.000000
      6         10.550642   0.000000
      7         10.550642   0.000000
      8         13.584008   0.000000
 
  0.9090909E-01 -0.1605160E-17  0.5659033E-18  0.6010518E-02
      1         -5.333154   1.000000
      2          6.869325   1.000000
      3          7.719466   0.999952
      4          7.719490   0.999952
      5         10.805194   0.000000
      6         10.851984   0.000000
      7         10.852012   0.000000
      8         14.150424   0.000000
 
  0.1818182E+00 -0.3210321E-17  0.1131807E-17  0.6010518E-02
      1         -4.956079   1.000000
      2          4.997560   1.000000
      3          7.316600   1.000000
      4          7.316637   1.000000
      5         10.751448   0.000000
      6         11.388064   0.000000
      7         11.388128   0.000000
      8         15.008202   0.000000
 
  0.2727273E+00  0.2152170E-18 -0.3332988E-17  0.6010518E-02
      1         -4.344257   1.000000
      2          3.098843   1.000000
      3          6.950147   1.000000
      4          6.950192   1.000000
      5         10.498638   0.000000
      6         11.547450   0.000000
      7         11.547571   0.000000
      8         15.428577   0.000000
 
  0.3636364E+00  0.7457146E-17 -0.1161417E-16  0.6010518E-02
      1         -3.543903   1.000000
      2          1.396218   1.000000
      3          6.695697   1.000000
      4          6.695746   1.000000
      5         10.274440   0.000000
      6         11.342204   0.000000
      7         11.342339   0.000000
      8         16.163424   0.000000
 
  0.4545455E+00  0.8212880E-18 -0.6017573E-17  0.6010518E-02
      1         -2.759286   1.000000
      2          0.150869   1.000000
      3          6.568533   1.000000
      4          6.568584   1.000000
      5         10.155167   0.000000
      6         11.158044   0.000000
      7         11.158178   0.000000
      8         15.888968   0.000000
 
  0.9090909E-01  0.9090909E-01 -0.2522076E-17  0.4507889E-02
      1         -5.290556   1.000000
      2          7.230204   1.000000
      3          7.300357   1.000000
      4          7.300373   1.000000
      5         10.171444   0.000000
      6         11.378915   0.000000
      7         11.378932   0.000000
      8         13.929886   0.000000
 
  0.1818182E+00  0.9090909E-01 -0.6543309E-17  0.1803156E-01
      1         -4.996442   1.000000
      2          5.626266   1.000000
      3          6.825742   1.000000
      4          7.158089   1.000000
      5         10.238542   0.000000
      6         11.750625   0.000000
      7         12.068087   0.000000
      8         13.476981   0.000000
 
  0.2727273E+00  0.9090909E-01 -0.1100810E-16  0.1803156E-01
      1         -4.460807   1.000000
      2          3.758205   1.000000
      3          6.461866   1.000000
      4          6.738964   1.000000
      5         10.520243   0.000000
      6         11.704971   0.000000
      7         12.379241   0.000000
      8         13.413683   0.000000
 
  0.3636364E+00  0.9090909E-01 -0.5411502E-17  0.1803156E-01
      1         -3.714691   1.000000
      2          1.996318   1.000000
      3          6.261789   1.000000
      4          6.300477   1.000000
      5         10.489124   0.000000
      6         11.504693   0.000000
      7         12.152139   0.000000
      8         14.388545   0.000000
 
  0.4545455E+00  0.9090909E-01 -0.1993769E-16  0.1803156E-01
      1         -2.876350   1.000000
      2          0.557928   1.000000
      3          5.947329   1.000000
      4          6.234344   1.000000
      5         10.416965   0.000000
      6         11.330331   0.000000
      7         11.785042   0.000000
      8         15.842276   0.000000
 
 -0.4545455E+00  0.9090909E-01 -0.1553533E-16  0.1803156E-01
      1         -2.511567   1.000000
      2          0.041622   1.000000
      3          5.722286   1.000000
      4          6.371112   1.000000
      5         10.485333   0.000000
      6         11.304000   0.000000
      7         11.542911   0.000000
      8         16.427885   0.000000
 
 -0.3636364E+00  0.9090909E-01  0.1018406E-16  0.1803156E-01
      1         -3.149774   1.000000
      2          0.984700   1.000000
      3          5.652766   1.000000
      4          6.649452   1.000000
      5         10.690182   0.000000
      6         11.461287   0.000000
      7         11.480985   0.000000
      8         16.315421   0.000000
 
 -0.2727273E+00  0.9090909E-01  0.9535661E-17  0.1803156E-01
      1         -3.984477   1.000000
      2          2.563667   1.000000
      3          5.759015   1.000000
      4          7.034440   1.000000
      5         10.957913   0.000000
      6         11.515813   0.000000
      7         11.753316   0.000000
      8         14.824366   0.000000
 
 -0.1818182E+00  0.9090909E-01 -0.8806922E-17  0.1803156E-01
      1         -4.665865   1.000000
      2          4.372991   1.000000
      3          6.061542   1.000000
      4          7.465534   1.000000
      5         11.213416   0.000000
      6         11.328568   0.000000
      7         11.808178   0.000000
      8         14.211733   0.000000
 
 -0.9090909E-01  0.9090909E-01 -0.3210321E-17  0.9015778E-02
      1         -5.122556   1.000000
      2          6.061999   1.000000
      3          6.678896   1.000000
      4          7.781705   0.998739
      5         10.889180   0.000000
      6         11.165579   0.000000
      7         11.385246   0.000000
      8         14.524028   0.000000
 
  0.1818182E+00  0.1818182E+00 -0.5044152E-17  0.4507889E-02
      1         -4.785576   1.000000
      2          5.720546   1.000000
      3          6.301620   1.000000
      4          6.301652   1.000000
      5          9.393584   0.000000
      6         12.234833   0.000000
      7         12.974000   0.000000
      8         12.974019   0.000000
 
  0.2727273E+00  0.1818182E+00 -0.5499321E-17  0.1803156E-01
      1         -4.329644   1.000000
      2          4.312718   1.000000
      3          5.898038   1.000000
      4          5.902657   1.000000
      5          9.458002   0.000000
      6         11.603775   0.000000
      7         13.398342   0.000000
      8         13.599438   0.000000
 
  0.3636364E+00  0.1818182E+00 -0.1308662E-16  0.1803156E-01
      1         -3.649491   1.000000
      2          2.657170   1.000000
      3          5.309330   1.000000
      4          5.683432   1.000000
      5          9.676240   0.000000
      6         11.999978   0.000000
      7         13.359565   0.000000
      8         13.535399   0.000000
 
  0.4545455E+00  0.1818182E+00 -0.7490016E-17  0.1803156E-01
      1         -2.816133   1.000000
      2          1.153883   1.000000
      3          4.757735   1.000000
      4          5.659572   1.000000
      5          9.690973   0.000000
      6         12.801647   0.000000
      7         13.132310   0.000000
      8         13.799861   0.000000
 
 -0.4545455E+00  0.1818182E+00 -0.1072044E-16  0.1803156E-01
      1         -2.178919   1.000000
      2          0.244458   1.000000
      3          4.350523   1.000000
      4          5.828766   1.000000
      5          9.836571   0.000000
      6         12.756205   0.000000
      7         12.802215   0.000000
      8         15.526315   0.000000
 
 -0.3636364E+00  0.1818182E+00  0.2508948E-17  0.1803156E-01
      1         -2.558345   1.000000
      2          0.773597   1.000000
      3          4.136284   1.000000
      4          6.171353   1.000000
      5         10.201398   0.000000
      6         12.522547   0.000000
      7         12.752805   0.000000
      8         16.077342   0.000000
 
 -0.2727273E+00  0.1818182E+00 -0.5772238E-17  0.1803156E-01
      1         -3.395526   1.000000
      2          2.153547   1.000000
      3          4.167938   1.000000
      4          6.643488   1.000000
      5         10.741949   0.000000
      6         12.362326   0.000000
      7         12.711362   0.000000
      8         14.484143   0.000000
 
 -0.1818182E+00  0.1818182E+00 -0.6420641E-17  0.9015778E-02
      1         -4.135723   1.000000
      2          3.583615   1.000000
      3          4.661198   1.000000
      4          7.149051   1.000000
      5         11.298973   0.000000
      6         11.900939   0.000000
      7         12.334441   0.000000
      8         13.851103   0.000000
 
  0.2727273E+00  0.2727273E+00 -0.7566228E-17  0.4507889E-02
      1         -3.953609   1.000000
      2          3.940942   1.000000
      3          5.457191   1.000000
      4          5.457222   1.000000
      5          8.674876   0.000000
      6         10.457254   0.000000
      7         14.782561   0.000000
      8         14.782582   0.000000
 
  0.3636364E+00  0.2727273E+00 -0.5669639E-17  0.1803156E-01
      1         -3.346114   1.000000
      2          2.821735   1.000000
      3          4.807669   1.000000
      4          5.190961   1.000000
      5          8.805674   0.000000
      6         10.161209   0.000000
      7         15.204997   0.000000
      8         15.255786   0.000000
 
  0.4545455E+00  0.2727273E+00 -0.1273652E-16  0.1803156E-01
      1         -2.550783   1.000000
      2          1.573765   1.000000
      3          3.936309   1.000000
      4          5.127217   1.000000
      5          8.952408   0.000000
      6         11.144540   0.000000
      7         14.901872   0.000000
      8         15.210691   0.000000
 
 -0.4545455E+00  0.2727273E+00  0.1560503E-16  0.1803156E-01
      1         -1.766388   1.000000
      2          0.549027   1.000000
      3          3.257183   1.000000
      4          5.268181   1.000000
      5          9.100906   0.000000
      6         12.806423   0.000000
      7         14.471768   0.000000
      8         15.119307   0.000000
 
 -0.3636364E+00  0.2727273E+00  0.8711621E-17  0.1803156E-01
      1         -1.822513   1.000000
      2          0.637135   1.000000
      3          2.891187   1.000000
      4          5.601920   1.000000
      5          9.470213   0.000000
      6         14.095740   0.000000
      7         14.119784   0.000000
      8         15.678578   0.000000
 
 -0.2727273E+00  0.2727273E+00  0.4304341E-18  0.9015778E-02
      1         -2.619275   1.000000
      2          1.577970   1.000000
      3          3.047329   1.000000
      4          6.090773   1.000000
      5         10.052464   0.000000
      6         13.580247   0.000000
      7         13.912222   0.000000
      8         14.629040   0.000000
 
  0.3636364E+00  0.3636364E+00 -0.1008830E-16  0.4507889E-02
      1         -2.811293   1.000000
      2          2.079656   1.000000
      3          4.869614   1.000000
      4          4.869645   1.000000
      5          8.212407   0.001069
      6          9.165266   0.000000
      7         16.699756   0.000000
      8         16.699776   0.000000
 
  0.4545455E+00  0.3636364E+00 -0.8962460E-17  0.1803156E-01
      1         -2.071631   1.000000
      2          1.133180   1.000000
      3          4.178552   1.000000
      4          4.750012   1.000000
      5          8.401669   0.000000
      6          9.285594   0.000000
      7         16.913730   0.000000
      8         17.189475   0.000000
 
 -0.4545455E+00  0.3636364E+00  0.1695047E-16  0.1803156E-01
      1         -1.237621   1.000000
      2          0.286718   1.000000
      3          3.178076   1.000000
      4          4.840484   1.000000
      5          8.559536   0.000000
      6         10.732600   0.000000
      7         16.512756   0.000000
      8         17.104165   0.000000
 
 -0.3636364E+00  0.3636364E+00  0.1491429E-16  0.9015778E-02
      1         -1.096510   1.000000
      2          0.200903   1.000000
      3          2.562633   1.000000
      4          5.133154   1.000000
      5          8.897080   0.000000
      6         12.672920   0.000000
      7         15.893537   0.000000
      8         16.458589   0.000000
 
  0.4545455E+00  0.4545455E+00 -0.1261038E-16  0.4507889E-02
      1         -1.388861   1.000000
      2          0.267621   1.000000
      3          4.569798   1.000000
      4          4.569832   1.000000
      5          8.094237   0.080870
      6          8.393980   0.000000
      7         18.675490   0.000000
      8         18.675512   0.000000
 
 -0.4545455E+00  0.4545455E+00  0.1642576E-17  0.9015778E-02
      1         -0.602332   1.000000
      2         -0.497756   1.000000
      3          3.978492   1.000000
      4          4.600625   1.000000
      5          8.270383   0.000050
      6          8.992937   0.000000
      7         18.712175   0.000000
      8         18.846246   0.000000
 
  0.2727273E+00  0.1818182E+00  0.9090909E-01  0.1803156E-01
      1         -4.621827   1.000000
      2          4.765063   1.000000
      3          5.674799   1.000000
      4          7.001935   1.000000
      5         10.289356   0.000000
      6         12.204481   0.000000
      7         12.720074   0.000000
      8         12.725161   0.000000
 
  0.3636364E+00  0.1818182E+00  0.9090909E-01  0.3606311E-01
      1         -4.013247   1.000000
      2          3.206929   1.000000
      3          5.081180   1.000000
      4          6.603498   1.000000
      5         10.665183   0.000000
      6         11.930014   0.000000
      7         12.835896   0.000000
      8         13.158650   0.000000
 
  0.4545455E+00  0.1818182E+00  0.9090909E-01  0.3606311E-01
      1         -3.216129   1.000000
      2          1.592381   1.000000
      3          4.849630   1.000000
      4          6.168327   1.000000
      5         10.742452   0.000000
      6         11.471554   0.000000
      7         13.119959   0.000000
      8         14.033263   0.000000
 
 -0.4545455E+00  0.1818182E+00  0.9090909E-01  0.3606311E-01
      1         -2.429319   1.000000
      2          0.372964   1.000000
      3          4.775264   1.000000
      4          5.893949   1.000000
      5         10.799079   0.000000
      6         11.089300   0.000000
      7         13.023421   0.000000
      8         15.762702   0.000000
 
  0.3636364E+00  0.2727273E+00  0.9090909E-01  0.1803156E-01
      1         -3.798781   1.000000
      2          3.425937   1.000000
      3          4.830915   1.000000
      4          5.743157   1.000000
      5          9.603809   0.000000
      6         11.069473   0.000000
      7         13.523888   0.000000
      8         14.629305   0.000000
 
  0.4545455E+00  0.2727273E+00  0.9090909E-01  0.3606311E-01
      1         -3.058556   1.000000
      2          2.131675   1.000000
      3          4.197885   1.000000
      4          5.329905   1.000000
      5          9.958957   0.000000
      6         11.578881   0.000000
      7         13.179171   0.000000
      8         15.067029   0.000000
 
 -0.4545455E+00  0.2727273E+00  0.9090909E-01  0.3606311E-01
      1         -2.221519   1.000000
      2          0.864790   1.000000
      3          3.791999   1.000000
      4          5.125573   1.000000
      5         10.070649   0.000000
      6         12.390002   0.000000
      7         13.452110   0.000000
      8         15.069428   0.000000
 
 -0.3636364E+00  0.2727273E+00  0.9090909E-01  0.3606311E-01
      1         -1.860779   1.000000
      2          0.398214   1.000000
      3          3.513099   1.000000
      4          5.242621   1.000000
      5         10.332281   0.000000
      6         12.177280   0.000000
      7         14.605558   0.000000
      8         15.546707   0.000000
 
 -0.2727273E+00  0.2727273E+00  0.9090909E-01  0.3606311E-01
      1         -2.517384   1.000000
      2          1.291868   1.000000
      3          3.442827   1.000000
      4          5.617150   1.000000
      5         10.788264   0.000000
      6         11.958792   0.000000
      7         13.879610   0.000000
      8         14.721262   0.000000
 
 -0.1818182E+00  0.2727273E+00  0.9090909E-01  0.1803156E-01
      1         -3.343201   1.000000
      2          2.489582   1.000000
      3          3.829681   1.000000
      4          6.140866   1.000000
      5         11.388733   0.000000
      6         11.501131   0.000000
      7         12.813921   0.000000
      8         14.247375   0.000000
 
  0.4545455E+00  0.3636364E+00  0.9090909E-01  0.1803156E-01
      1         -2.674000   1.000000
      2          1.923206   1.000000
      3          4.267698   1.000000
      4          4.721935   1.000000
      5          9.142070   0.000000
      6          9.906326   0.000000
      7         15.026157   0.000000
      8         16.640094   0.000000
 
 -0.4545455E+00  0.3636364E+00  0.9090909E-01  0.3606311E-01
      1         -1.846501   1.000000
      2          0.956584   1.000000
      3          3.455610   1.000000
      4          4.501608   1.000000
      5          9.464953   0.000000
      6         10.954818   0.000000
      7         14.588180   0.000000
      8         17.055998   0.000000
 
 -0.3636364E+00  0.3636364E+00  0.9090909E-01  0.3606311E-01
      1         -1.227198   1.000000
      2          0.315310   1.000000
      3          2.799869   1.000000
      4          4.652354   1.000000
      5          9.712151   0.000000
      6         12.701132   0.000000
      7         14.273115   0.000000
      8         16.000813   0.000000
 
 -0.2727273E+00  0.3636364E+00  0.9090909E-01  0.1803156E-01
      1         -1.702958   1.000000
      2          0.789611   1.000000
      3          2.668237   1.000000
      4          5.050411   1.000000
      5         10.163678   0.000000
      6         13.295606   0.000000
      7         14.210438   0.000000
      8         15.181692   0.000000
 
 -0.4545455E+00  0.4545455E+00  0.9090909E-01  0.1803156E-01
      1         -1.286332   1.000000
      2          0.291450   1.000000
      3          4.032118   1.000000
      4          4.164491   1.000000
      5          9.002737   0.000000
      6          9.237770   0.000000
      7         16.720399   0.000000
      8         18.545814   0.000000
 
 -0.3636364E+00  0.4545455E+00  0.9090909E-01  0.1803156E-01
      1         -0.630125   1.000000
      2         -0.251933   1.000000
      3          3.158564   1.000000
      4          4.258772   1.000000
      5          9.295692   0.000000
      6         10.750980   0.000000
      7         16.201289   0.000000
      8         16.399870   0.000000
 
 -0.4545455E+00  0.3636364E+00  0.1818182E+00  0.1803156E-01
      1         -2.281036   1.000000
      2          1.437661   1.000000
      3          3.323238   1.000000
      4          4.723854   1.000000
      5         11.078549   0.000000
      6         11.475633   0.000000
      7         12.786342   0.000000
      8         16.399430   0.000000
 
 -0.3636364E+00  0.3636364E+00  0.1818182E+00  0.3606311E-01
      1         -1.484998   1.000000
      2          0.583754   1.000000
      3          2.996417   1.000000
      4          4.316112   1.000000
      5         11.302130   0.000000
      6         11.977661   0.000000
      7         13.436366   0.000000
      8         15.551069   0.000000
 
 -0.3636364E+00  0.4545455E+00  0.1818182E+00  0.1803156E-01
      1         -1.024776   1.000000
      2          0.273730   1.000000
      3          3.229889   1.000000
      4          3.668147   1.000000
      5         10.919213   0.000000
      6         11.063595   0.000000
      7         14.114741   0.000000
      8         15.860845   0.000000
 
 -0.2727273E+00  0.4545455E+00  0.1818182E+00  0.1803156E-01
      1         -0.750753   1.000000
      2          0.066530   1.000000
      3          2.853755   1.000000
      4          3.721973   1.000000
      5         11.256022   0.000000
      6         12.586878   0.000000
      7         13.829625   0.000000
      8         14.004785   0.000000
