       N       E                     dE             d eps       ncg     rms          rms(c)
DAV:   1    -0.199122590362E+01   -0.19912E+01   -0.21479E+03   912   0.430E+02
DAV:   2    -0.104764415442E+02   -0.84852E+01   -0.82138E+01  1408   0.558E+01
DAV:   3    -0.105466336385E+02   -0.70192E-01   -0.70192E-01  1128   0.626E+00
DAV:   4    -0.105467842420E+02   -0.15060E-03   -0.15060E-03  1408   0.272E-01
DAV:   5    -0.105467843240E+02   -0.82052E-07   -0.81888E-07  1192   0.510E-03    0.699E+00
DAV:   6    -0.103235577071E+02    0.22323E+00   -0.16150E-01  1024   0.213E+00    0.437E+00
DAV:   7    -0.102331736856E+02    0.90384E-01   -0.26899E-01  1136   0.288E+00    0.469E-01
DAV:   8    -0.102336904699E+02   -0.51678E-03   -0.61594E-03  1016   0.581E-01    0.842E-02
DAV:   9    -0.102338167858E+02   -0.12632E-03   -0.12200E-04  1248   0.953E-02    0.703E-02
DAV:  10    -0.102338377944E+02   -0.21009E-04   -0.28909E-05   568   0.401E-02
   1 F= -.10233838E+02 E0= -.10233747E+02  d E =-.180914E-03
