 vasp.6.3.0 20Jan22 (build Feb 01 2022 16:52:37) complex                        
  
 executed on           TETRA_NSC1 date 2022.02.23  07:07:24
 running    4 mpi-ranks, with    1 threads/rank
 distrk:  each k-point on    4 cores,    1 groups
 distr:  one band on NCORE=   1 cores,    4 groups


--------------------------------------------------------------------------------------------------------


 INCAR:
   SYSTEM = diamond Si
   ISTART = 0
   ICHARG = 2
   ENCUT = 240
   ISMEAR = 0
   SIGMA = 0.1

 POTCAR:    PAW_PBE Si 05Jan2001                  
 POTCAR:    PAW_PBE Si 05Jan2001                  
   VRHFIN =Si: s2p2                                                                                 
   LEXCH  = PE                                                                                      
   EATOM  =   103.0669 eV,    7.5752 Ry                                                             
                                                                                                    
   TITEL  = PAW_PBE Si 05Jan2001                                                                    
   LULTRA =        F    use ultrasoft PP ?                                                          
   IUNSCR =        1    unscreen: 0-lin 1-nonlin 2-no                                               
   RPACOR =    1.500    partial core radius                                                         
   POMASS =   28.085; ZVAL   =    4.000    mass and valenz                                          
   RCORE  =    1.900    outmost cutoff radius                                                       
   RWIGS  =    2.480; RWIGS  =    1.312    wigner-seitz radius (au A)                               
   ENMAX  =  245.345; ENMIN  =  184.009 eV                                                          
   ICORE  =        2    local potential                                                             
   LCOR   =        T    correct aug charges                                                         
   LPAW   =        T    paw PP                                                                      
   EAUG   =  322.069                                                                                
   DEXC   =    0.000                                                                                
   RMAX   =    1.950    core radius for proj-oper                                                   
   RAUG   =    1.300    factor for augmentation sphere                                              
   RDEP   =    1.993    radius for radial grids                                                     
   RDEPT  =    1.837    core radius for aug-charge                                                  
                                                                                                    
   Atomic configuration                                                                             
    6 entries                                                                                       
     n  l   j            E        occ.                                                              
     1  0  0.50     -1785.8828   2.0000                                                             
     2  0  0.50      -139.4969   2.0000                                                             
     2  1  1.50       -95.5546   6.0000                                                             
     3  0  0.50       -10.8127   2.0000                                                             
     3  1  0.50        -4.0811   2.0000                                                             
     3  2  1.50        -4.0817   0.0000                                                             
   Description                                                                                      
     l       E           TYP  RCUT    TYP  RCUT                                                     
     0    -10.8127223     23  1.900                                                                 
     0     -7.6451159     23  1.900                                                                 
     1     -4.0811372     23  1.900                                                                 
     1      2.4879257     23  1.900                                                                 
     2     -4.0817478      7  1.900                                                                 
  local pseudopotential read in
  partial core-charges read in
  partial kinetic energy density read in
  atomic valenz-charges read in
  non local Contribution for L=           0  read in
    real space projection operators read in
  non local Contribution for L=           0  read in
    real space projection operators read in
  non local Contribution for L=           1  read in
    real space projection operators read in
  non local Contribution for L=           1  read in
    real space projection operators read in
    PAW grid and wavefunctions read in
 
   number of l-projection  operators is LMAX  =           4
   number of lm-projection operators is LMMAX =           8
 
  PAW_PBE Si 05Jan2001                  :
 energy of atom  1       EATOM= -103.0669
 kinetic energy error for atom=    0.0061 (will be added to EATOM!!)
 
 
 POSCAR: cubic diamond Si
  positions in direct lattice
  No initial velocities read in
 exchange correlation table for  LEXCH =        8
   RHO(1)=    0.500       N(1)  =     2000
   RHO(2)=  100.500       N(2)  =     4000
 


--------------------------------------------------------------------------------------------------------


 ion  position               nearest neighbor table
   1  0.875  0.875  0.875-   2 2.21   2 2.21   2 2.21   2 2.21
   2  0.125  0.125  0.125-   1 2.21   1 2.21   1 2.21   1 2.21
 
  LATTYP: Found a face centered cubic cell.
 ALAT       =     5.1000000000
  
  Lattice vectors:
  
 A1 = (   0.0000000000,   2.5500000000,   2.5500000000)
 A2 = (   2.5500000000,   0.0000000000,   2.5500000000)
 A3 = (   2.5500000000,   2.5500000000,   0.0000000000)


Analysis of symmetry for initial positions (statically):
=====================================================================
 Subroutine PRICEL returns:
 Original cell was already a primitive cell.
 

 Routine SETGRP: Setting up the symmetry group for a 
 face centered cubic supercell.


 Subroutine GETGRP returns: Found 48 space group operations
 (whereof 12 operations were pure point group operations)
 out of a pool of 48 trial point group operations.


The static configuration has the point symmetry D_3d.
 The point group associated with its full space group is O_h .


Analysis of symmetry for dynamics (positions and initial velocities):
=====================================================================
 Subroutine PRICEL returns:
 Original cell was already a primitive cell.
 

 Routine SETGRP: Setting up the symmetry group for a 
 face centered cubic supercell.


 Subroutine GETGRP returns: Found 48 space group operations
 (whereof 12 operations were pure point group operations)
 out of a pool of 48 trial point group operations.


The dynamic configuration has the point symmetry D_3d.
 The point group associated with its full space group is O_h .


 Subroutine INISYM returns: Found 48 space group operations
 (whereof 12 operations are pure point group operations),
 and found     1 'primitive' translations


----------------------------------------------------------------------------------------

                                     Primitive cell                                     

  volume of cell :      33.1627

  direct lattice vectors                    reciprocal lattice vectors
     0.000000000  2.550000000  2.550000000    -0.196078431  0.196078431  0.196078431
     2.550000000  0.000000000  2.550000000     0.196078431 -0.196078431  0.196078431
     2.550000000  2.550000000  0.000000000     0.196078431  0.196078431 -0.196078431

  length of vectors
     3.606244584  3.606244584  3.606244584     0.339617805  0.339617805  0.339617805

  position of ions in fractional coordinates (direct lattice)
     0.875000000  0.875000000  0.875000000
     0.125000000  0.125000000  0.125000000

  ion indices of the primitive-cell ions
   primitive index   ion index
                 1           1
                 2           2

----------------------------------------------------------------------------------------

 
 
 KPOINTS: k-points                                

Automatic generation of k-mesh.
 Grid dimensions read from file:
 generate k-points for:   11   11   11

 Generating k-lattice:

  Cartesian coordinates                     Fractional coordinates (reciprocal lattice)
    -0.017825312  0.017825312  0.017825312     0.090909091 -0.000000000  0.000000000
     0.017825312 -0.017825312  0.017825312    -0.000000000  0.090909091 -0.000000000
     0.017825312  0.017825312 -0.017825312     0.000000000  0.000000000  0.090909091

  Length of vectors
     0.030874346  0.030874346  0.030874346

  Shift w.r.t. Gamma in fractional coordinates (k-lattice)
     0.000000000  0.000000000  0.000000000

 
 Subroutine IBZKPT returns following result:
 ===========================================
 
 Found     56 irreducible k-points:
 
 Following reciprocal coordinates:
            Coordinates               Weight
  0.000000  0.000000  0.000000      1.000000
  0.090909 -0.000000  0.000000      8.000000
  0.181818 -0.000000  0.000000      8.000000
  0.272727  0.000000 -0.000000      8.000000
  0.363636  0.000000 -0.000000      8.000000
  0.454545  0.000000 -0.000000      8.000000
  0.090909  0.090909 -0.000000      6.000000
  0.181818  0.090909 -0.000000     24.000000
  0.272727  0.090909 -0.000000     24.000000
  0.363636  0.090909 -0.000000     24.000000
  0.454545  0.090909 -0.000000     24.000000
 -0.454545  0.090909 -0.000000     24.000000
 -0.363636  0.090909  0.000000     24.000000
 -0.272727  0.090909  0.000000     24.000000
 -0.181818  0.090909 -0.000000     24.000000
 -0.090909  0.090909 -0.000000     12.000000
  0.181818  0.181818 -0.000000      6.000000
  0.272727  0.181818 -0.000000     24.000000
  0.363636  0.181818 -0.000000     24.000000
  0.454545  0.181818 -0.000000     24.000000
 -0.454545  0.181818 -0.000000     24.000000
 -0.363636  0.181818  0.000000     24.000000
 -0.272727  0.181818 -0.000000     24.000000
 -0.181818  0.181818 -0.000000     12.000000
  0.272727  0.272727 -0.000000      6.000000
  0.363636  0.272727 -0.000000     24.000000
  0.454545  0.272727 -0.000000     24.000000
 -0.454545  0.272727  0.000000     24.000000
 -0.363636  0.272727  0.000000     24.000000
 -0.272727  0.272727  0.000000     12.000000
  0.363636  0.363636 -0.000000      6.000000
  0.454545  0.363636 -0.000000     24.000000
 -0.454545  0.363636  0.000000     24.000000
 -0.363636  0.363636  0.000000     12.000000
  0.454545  0.454545 -0.000000      6.000000
 -0.454545  0.454545  0.000000     12.000000
  0.272727  0.181818  0.090909     24.000000
  0.363636  0.181818  0.090909     48.000000
  0.454545  0.181818  0.090909     48.000000
 -0.454545  0.181818  0.090909     48.000000
  0.363636  0.272727  0.090909     24.000000
  0.454545  0.272727  0.090909     48.000000
 -0.454545  0.272727  0.090909     48.000000
 -0.363636  0.272727  0.090909     48.000000
 -0.272727  0.272727  0.090909     48.000000
 -0.181818  0.272727  0.090909     24.000000
  0.454545  0.363636  0.090909     24.000000
 -0.454545  0.363636  0.090909     48.000000
 -0.363636  0.363636  0.090909     48.000000
 -0.272727  0.363636  0.090909     24.000000
 -0.454545  0.454545  0.090909     24.000000
 -0.363636  0.454545  0.090909     24.000000
 -0.454545  0.363636  0.181818     24.000000
 -0.363636  0.363636  0.181818     48.000000
 -0.363636  0.454545  0.181818     24.000000
 -0.272727  0.454545  0.181818     24.000000
 
 Following cartesian coordinates:
            Coordinates               Weight
  0.000000  0.000000  0.000000      1.000000
 -0.090909  0.090909  0.090909      8.000000
 -0.181818  0.181818  0.181818      8.000000
 -0.272727  0.272727  0.272727      8.000000
 -0.363636  0.363636  0.363636      8.000000
 -0.454545  0.454545  0.454545      8.000000
  0.000000 -0.000000  0.181818      6.000000
 -0.090909  0.090909  0.272727     24.000000
 -0.181818  0.181818  0.363636     24.000000
 -0.272727  0.272727  0.454545     24.000000
 -0.363636  0.363636  0.545455     24.000000
  0.545455 -0.545455 -0.363636     24.000000
  0.454545 -0.454545 -0.272727     24.000000
  0.363636 -0.363636 -0.181818     24.000000
  0.272727 -0.272727 -0.090909     24.000000
  0.181818 -0.181818 -0.000000     12.000000
 -0.000000  0.000000  0.363636      6.000000
 -0.090909  0.090909  0.454545     24.000000
 -0.181818  0.181818  0.545455     24.000000
 -0.272727  0.272727  0.636364     24.000000
  0.636364 -0.636364 -0.272727     24.000000
  0.545455 -0.545455 -0.181818     24.000000
  0.454545 -0.454545 -0.090909     24.000000
  0.363636 -0.363636 -0.000000     12.000000
 -0.000000  0.000000  0.545455      6.000000
 -0.090909  0.090909  0.636364     24.000000
 -0.181818  0.181818  0.727273     24.000000
  0.727273 -0.727273 -0.181818     24.000000
  0.636364 -0.636364 -0.090909     24.000000
  0.545455 -0.545455 -0.000000     12.000000
 -0.000000 -0.000000  0.727273      6.000000
 -0.090909  0.090909  0.818182     24.000000
  0.818182 -0.818182 -0.090909     24.000000
  0.727273 -0.727273 -0.000000     12.000000
 -0.000000  0.000000  0.909091      6.000000
  0.909091 -0.909091 -0.000000     12.000000
  0.000000  0.181818  0.363636     24.000000
 -0.090909  0.272727  0.454545     48.000000
 -0.181818  0.363636  0.545455     48.000000
  0.727273 -0.545455 -0.363636     48.000000
 -0.000000  0.181818  0.545455     24.000000
 -0.090909  0.272727  0.636364     48.000000
  0.818182 -0.636364 -0.272727     48.000000
  0.727273 -0.545455 -0.181818     48.000000
  0.636364 -0.454545 -0.090909     48.000000
  0.545455 -0.363636  0.000000     24.000000
  0.000000  0.181818  0.727273     24.000000
  0.909091 -0.727273 -0.181818     48.000000
  0.818182 -0.636364 -0.090909     48.000000
  0.727273 -0.545455 -0.000000     24.000000
  1.000000 -0.818182 -0.090909     24.000000
  0.909091 -0.727273 -0.000000     24.000000
  1.000000 -0.636364 -0.272727     24.000000
  0.909091 -0.545455 -0.181818     48.000000
  1.000000 -0.636364 -0.090909     24.000000
  0.909091 -0.545455  0.000000     24.000000
 


--------------------------------------------------------------------------------------------------------




 Dimension of arrays:
   k-points           NKPTS =     56   k-points in BZ     NKDIM =     56   number of bands    NBANDS=      8
   number of dos      NEDOS =    301   number of ions     NIONS =      2
   non local maximal  LDIM  =      4   non local SUM 2l+1 LMDIM =      8
   total plane-waves  NPLWV =   2744
   max r-space proj   IRMAX =      1   max aug-charges    IRDMAX=   2966
   dimension x,y,z NGX =    14 NGY =   14 NGZ =   14
   dimension x,y,z NGXF=    28 NGYF=   28 NGZF=   28
   support grid    NGXF=    28 NGYF=   28 NGZF=   28
   ions per type =               2
   NGX,Y,Z   is equivalent  to a cutoff of   6.45,  6.45,  6.45 a.u.
   NGXF,Y,Z  is equivalent  to a cutoff of  12.91, 12.91, 12.91 a.u.

 SYSTEM =  diamond Si                              
 POSCAR =  cubic diamond Si                        

 Startparameter for this run:
   NWRITE =      2    write-flag & timer
   PREC   = normal    normal or accurate (medium, high low for compatibility)
   ISTART =      0    job   : 0-new  1-cont  2-samecut
   ICHARG =      2    charge: 1-file 2-atom 10-const
   ISPIN  =      1    spin polarized calculation?
   LNONCOLLINEAR =      F non collinear calculations
   LSORBIT =      F    spin-orbit coupling
   INIWAV =      1    electr: 0-lowe 1-rand  2-diag
   LASPH  =      F    aspherical Exc in radial PAW
 Electronic Relaxation 1
   ENCUT  =  240.0 eV  17.64 Ry    4.20 a.u.   4.56  4.56  4.56*2*pi/ulx,y,z
   ENINI  =  240.0     initial cutoff
   ENAUG  =  322.1 eV  augmentation charge cutoff
   NELM   =     60;   NELMIN=  2; NELMDL= -5     # of ELM steps 
   EDIFF  = 0.1E-03   stopping-criterion for ELM
   LREAL  =      F    real-space projection
   NLSPLINE    = F    spline interpolate recip. space projectors
   LCOMPAT=      F    compatible to vasp.4.4
   GGA_COMPAT  = T    GGA compatible to vasp.4.4-vasp.4.6
   LMAXPAW     = -100 max onsite density
   LMAXMIX     =    2 max onsite mixed and CHGCAR
   VOSKOWN=      0    Vosko Wilk Nusair interpolation
   ROPT   =    0.00000
 Ionic relaxation
   EDIFFG = 0.1E-02   stopping-criterion for IOM
   NSW    =      0    number of steps for IOM
   NBLOCK =      1;   KBLOCK =      1    inner block; outer block 
   IBRION =     -1    ionic relax: 0-MD 1-quasi-New 2-CG
   NFREE  =      0    steps in history (QN), initial steepest desc. (CG)
   ISIF   =      2    stress and relaxation
   IWAVPR =     10    prediction:  0-non 1-charg 2-wave 3-comb
   ISYM   =      2    0-nonsym 1-usesym 2-fastsym
   LCORR  =      T    Harris-Foulkes like correction to forces

   POTIM  = 0.5000    time-step for ionic-motion
   TEIN   =    0.0    initial temperature
   TEBEG  =    0.0;   TEEND  =   0.0 temperature during run
   SMASS  =  -3.00    Nose mass-parameter (am)
   estimated Nose-frequenzy (Omega)   =  0.10E-29 period in steps = 0.13E+47 mass=  -0.297E-27a.u.
   SCALEE = 1.0000    scale energy and forces
   NPACO  =    256;   APACO  = 10.0  distance and # of slots for P.C.
   PSTRESS=    0.0 pullay stress

  Mass of Ions in am
   POMASS =  28.09
  Ionic Valenz
   ZVAL   =   4.00
  Atomic Wigner-Seitz radii
   RWIGS  =  -1.00
  virtual crystal weights 
   VCA    =   1.00
   NELECT =       8.0000    total number of electrons
   NUPDOWN=      -1.0000    fix difference up-down

 DOS related values:
   EMIN   =  10.00;   EMAX   =-10.00  energy-range for DOS
   EFERMI =   0.00
   ISMEAR =     0;   SIGMA  =   0.10  broadening in eV -4-tet -1-fermi 0-gaus

 Electronic relaxation 2 (details)
   IALGO  =     38    algorithm
   LDIAG  =      T    sub-space diagonalisation (order eigenvalues)
   LSUBROT=      F    optimize rotation matrix (better conditioning)
   TURBO    =      0    0=normal 1=particle mesh
   IRESTART =      0    0=no restart 2=restart with 2 vectors
   NREBOOT  =      0    no. of reboots
   NMIN     =      0    reboot dimension
   EREF     =   0.00    reference energy to select bands
   IMIX   =      4    mixing-type and parameters
     AMIX     =   0.40;   BMIX     =  1.00
     AMIX_MAG =   1.60;   BMIX_MAG =  1.00
     AMIN     =   0.10
     WC   =   100.;   INIMIX=   1;  MIXPRE=   1;  MAXMIX= -45

 Intra band minimization:
   WEIMIN = 0.0000     energy-eigenvalue tresh-hold
   EBREAK =  0.31E-05  absolut break condition
   DEPER  =   0.30     relativ break condition  

   TIME   =   0.40     timestep for ELM

  volume/ion in A,a.u.               =      16.58       111.90
  Fermi-wavevector in a.u.,A,eV,Ry     =   1.019111  1.925840 14.130826  1.038586
  Thomas-Fermi vector in A             =   2.152606
 
 Write flags
   LWAVE        =      T    write WAVECAR
   LDOWNSAMPLE  =      F    k-point downsampling of WAVECAR
   LCHARG       =      T    write CHGCAR
   LVTOT        =      F    write LOCPOT, total local potential
   LVHAR        =      F    write LOCPOT, Hartree potential only
   LELF         =      F    write electronic localiz. function (ELF)
   LORBIT       =      0    0 simple, 1 ext, 2 COOP (PROOUT), +10 PAW based schemes


 Dipole corrections
   LMONO  =      F    monopole corrections only (constant potential shift)
   LDIPOL =      F    correct potential (dipole corrections)
   IDIPOL =      0    1-x, 2-y, 3-z, 4-all directions 
   EPSILON=  1.0000000 bulk dielectric constant

 Exchange correlation treatment:
   GGA     =    --    GGA type
   LEXCH   =     8    internal setting for exchange type
   LIBXC   =     F    Libxc                    
   VOSKOWN =     0    Vosko Wilk Nusair interpolation
   LHFCALC =     F    Hartree Fock is set to
   LHFONE  =     F    Hartree Fock one center treatment
   AEXX    =    0.0000 exact exchange contribution

 Linear response parameters
   LEPSILON=     F    determine dielectric tensor
   LRPA    =     F    only Hartree local field effects (RPA)
   LNABLA  =     F    use nabla operator in PAW spheres
   LVEL    =     F    velocity operator in full k-point grid
   CSHIFT  =0.1000    complex shift for real part using Kramers Kronig
   OMEGAMAX=  -1.0    maximum frequency
   DEG_THRESHOLD= 0.2000000E-02 threshold for treating states as degnerate
   RTIME   =   -0.100 relaxation time in fs
  (WPLASMAI=    0.000 imaginary part of plasma frequency in eV, 0.658/RTIME)
   DFIELD  = 0.0000000 0.0000000 0.0000000 field for delta impulse in time
 
  Optional k-point grid parameters
   LKPOINTS_OPT  =     F    use optional k-point grid
   KPOINTS_OPT_MODE=     1    mode for optional k-point grid
 
 Orbital magnetization related:
   ORBITALMAG=     F  switch on orbital magnetization
   LCHIMAG   =     F  perturbation theory with respect to B field
   DQ        =  0.001000  dq finite difference perturbation B field
   LLRAUG    =     F  two centre corrections for induced B field



--------------------------------------------------------------------------------------------------------


 Static calculation
 charge density and potential will be updated during run
 non-spin polarized calculation
 Variant of blocked Davidson
 Davidson routine will perform the subspace rotation
 perform sub-space diagonalisation
    after iterative eigenvector-optimisation
 modified Broyden-mixing scheme, WC =      100.0
 initial mixing is a Kerker type mixing with AMIX =  0.4000 and BMIX =      1.0000
 Hartree-type preconditioning will be used
 using additional bands            4
 reciprocal scheme for non local part
 use partial core corrections
 calculate Harris-corrections to forces 
   (improved forces if not selfconsistent)
 use gradient corrections 
 use of overlap-Matrix (Vanderbilt PP)
 Gauss-broadening in eV      SIGMA  =   0.10


--------------------------------------------------------------------------------------------------------


  energy-cutoff  :      240.00
  volume of cell :       33.16
      direct lattice vectors                 reciprocal lattice vectors
     0.000000000  2.550000000  2.550000000    -0.196078431  0.196078431  0.196078431
     2.550000000  0.000000000  2.550000000     0.196078431 -0.196078431  0.196078431
     2.550000000  2.550000000  0.000000000     0.196078431  0.196078431 -0.196078431

  length of vectors
     3.606244584  3.606244584  3.606244584     0.339617805  0.339617805  0.339617805


 
 k-points in units of 2pi/SCALE and weight: k-points                                
   0.00000000  0.00000000  0.00000000       0.001
  -0.09090909  0.09090909  0.09090909       0.006
  -0.18181818  0.18181818  0.18181818       0.006
  -0.27272727  0.27272727  0.27272727       0.006
  -0.36363636  0.36363636  0.36363636       0.006
  -0.45454545  0.45454545  0.45454545       0.006
   0.00000000 -0.00000000  0.18181818       0.005
  -0.09090909  0.09090909  0.27272727       0.018
  -0.18181818  0.18181818  0.36363636       0.018
  -0.27272727  0.27272727  0.45454545       0.018
  -0.36363636  0.36363636  0.54545455       0.018
   0.54545455 -0.54545455 -0.36363636       0.018
   0.45454545 -0.45454545 -0.27272727       0.018
   0.36363636 -0.36363636 -0.18181818       0.018
   0.27272727 -0.27272727 -0.09090909       0.018
   0.18181818 -0.18181818 -0.00000000       0.009
  -0.00000000  0.00000000  0.36363636       0.005
  -0.09090909  0.09090909  0.45454545       0.018
  -0.18181818  0.18181818  0.54545455       0.018
  -0.27272727  0.27272727  0.63636364       0.018
   0.63636364 -0.63636364 -0.27272727       0.018
   0.54545455 -0.54545455 -0.18181818       0.018
   0.45454545 -0.45454545 -0.09090909       0.018
   0.36363636 -0.36363636 -0.00000000       0.009
  -0.00000000  0.00000000  0.54545455       0.005
  -0.09090909  0.09090909  0.63636364       0.018
  -0.18181818  0.18181818  0.72727273       0.018
   0.72727273 -0.72727273 -0.18181818       0.018
   0.63636364 -0.63636364 -0.09090909       0.018
   0.54545455 -0.54545455 -0.00000000       0.009
  -0.00000000 -0.00000000  0.72727273       0.005
  -0.09090909  0.09090909  0.81818182       0.018
   0.81818182 -0.81818182 -0.09090909       0.018
   0.72727273 -0.72727273 -0.00000000       0.009
  -0.00000000  0.00000000  0.90909091       0.005
   0.90909091 -0.90909091 -0.00000000       0.009
   0.00000000  0.18181818  0.36363636       0.018
  -0.09090909  0.27272727  0.45454545       0.036
  -0.18181818  0.36363636  0.54545455       0.036
   0.72727273 -0.54545455 -0.36363636       0.036
  -0.00000000  0.18181818  0.54545455       0.018
  -0.09090909  0.27272727  0.63636364       0.036
   0.81818182 -0.63636364 -0.27272727       0.036
   0.72727273 -0.54545455 -0.18181818       0.036
   0.63636364 -0.45454545 -0.09090909       0.036
   0.54545455 -0.36363636  0.00000000       0.018
   0.00000000  0.18181818  0.72727273       0.018
   0.90909091 -0.72727273 -0.18181818       0.036
   0.81818182 -0.63636364 -0.09090909       0.036
   0.72727273 -0.54545455 -0.00000000       0.018
   1.00000000 -0.81818182 -0.09090909       0.018
   0.90909091 -0.72727273 -0.00000000       0.018
   1.00000000 -0.63636364 -0.27272727       0.018
   0.90909091 -0.54545455 -0.18181818       0.036
   1.00000000 -0.63636364 -0.09090909       0.018
   0.90909091 -0.54545455  0.00000000       0.018
 
 k-points in reciprocal lattice and weights: k-points                                
   0.00000000  0.00000000  0.00000000       0.001
   0.09090909 -0.00000000  0.00000000       0.006
   0.18181818 -0.00000000  0.00000000       0.006
   0.27272727  0.00000000 -0.00000000       0.006
   0.36363636  0.00000000 -0.00000000       0.006
   0.45454545  0.00000000 -0.00000000       0.006
   0.09090909  0.09090909 -0.00000000       0.005
   0.18181818  0.09090909 -0.00000000       0.018
   0.27272727  0.09090909 -0.00000000       0.018
   0.36363636  0.09090909 -0.00000000       0.018
   0.45454545  0.09090909 -0.00000000       0.018
  -0.45454545  0.09090909 -0.00000000       0.018
  -0.36363636  0.09090909  0.00000000       0.018
  -0.27272727  0.09090909  0.00000000       0.018
  -0.18181818  0.09090909 -0.00000000       0.018
  -0.09090909  0.09090909 -0.00000000       0.009
   0.18181818  0.18181818 -0.00000000       0.005
   0.27272727  0.18181818 -0.00000000       0.018
   0.36363636  0.18181818 -0.00000000       0.018
   0.45454545  0.18181818 -0.00000000       0.018
  -0.45454545  0.18181818 -0.00000000       0.018
  -0.36363636  0.18181818  0.00000000       0.018
  -0.27272727  0.18181818 -0.00000000       0.018
  -0.18181818  0.18181818 -0.00000000       0.009
   0.27272727  0.27272727 -0.00000000       0.005
   0.36363636  0.27272727 -0.00000000       0.018
   0.45454545  0.27272727 -0.00000000       0.018
  -0.45454545  0.27272727  0.00000000       0.018
  -0.36363636  0.27272727  0.00000000       0.018
  -0.27272727  0.27272727  0.00000000       0.009
   0.36363636  0.36363636 -0.00000000       0.005
   0.45454545  0.36363636 -0.00000000       0.018
  -0.45454545  0.36363636  0.00000000       0.018
  -0.36363636  0.36363636  0.00000000       0.009
   0.45454545  0.45454545 -0.00000000       0.005
  -0.45454545  0.45454545  0.00000000       0.009
   0.27272727  0.18181818  0.09090909       0.018
   0.36363636  0.18181818  0.09090909       0.036
   0.45454545  0.18181818  0.09090909       0.036
  -0.45454545  0.18181818  0.09090909       0.036
   0.36363636  0.27272727  0.09090909       0.018
   0.45454545  0.27272727  0.09090909       0.036
  -0.45454545  0.27272727  0.09090909       0.036
  -0.36363636  0.27272727  0.09090909       0.036
  -0.27272727  0.27272727  0.09090909       0.036
  -0.18181818  0.27272727  0.09090909       0.018
   0.45454545  0.36363636  0.09090909       0.018
  -0.45454545  0.36363636  0.09090909       0.036
  -0.36363636  0.36363636  0.09090909       0.036
  -0.27272727  0.36363636  0.09090909       0.018
  -0.45454545  0.45454545  0.09090909       0.018
  -0.36363636  0.45454545  0.09090909       0.018
  -0.45454545  0.36363636  0.18181818       0.018
  -0.36363636  0.36363636  0.18181818       0.036
  -0.36363636  0.45454545  0.18181818       0.018
  -0.27272727  0.45454545  0.18181818       0.018
 
 position of ions in fractional coordinates (direct lattice) 
   0.87500000  0.87500000  0.87500000
   0.12500000  0.12500000  0.12500000
 
 position of ions in cartesian coordinates  (Angst):
   4.46250000  4.46250000  4.46250000
   0.63750000  0.63750000  0.63750000
 


--------------------------------------------------------------------------------------------------------


 k-point   1 :   0.0000 0.0000 0.0000  plane waves:     283
 k-point   2 :   0.0909-0.0000 0.0000  plane waves:     286
 k-point   3 :   0.1818-0.0000 0.0000  plane waves:     283
 k-point   4 :   0.2727 0.0000-0.0000  plane waves:     286
 k-point   5 :   0.3636 0.0000-0.0000  plane waves:     281
 k-point   6 :   0.4545 0.0000-0.0000  plane waves:     269
 k-point   7 :   0.0909 0.0909-0.0000  plane waves:     283
 k-point   8 :   0.1818 0.0909-0.0000  plane waves:     286
 k-point   9 :   0.2727 0.0909-0.0000  plane waves:     288
 k-point  10 :   0.3636 0.0909-0.0000  plane waves:     281
 k-point  11 :   0.4545 0.0909-0.0000  plane waves:     275
 k-point  12 :  -0.4545 0.0909-0.0000  plane waves:     272
 k-point  13 :  -0.3636 0.0909 0.0000  plane waves:     277
 k-point  14 :  -0.2727 0.0909 0.0000  plane waves:     288
 k-point  15 :  -0.1818 0.0909-0.0000  plane waves:     284
 k-point  16 :  -0.0909 0.0909-0.0000  plane waves:     285
 k-point  17 :   0.1818 0.1818-0.0000  plane waves:     291
 k-point  18 :   0.2727 0.1818-0.0000  plane waves:     290
 k-point  19 :   0.3636 0.1818-0.0000  plane waves:     285
 k-point  20 :   0.4545 0.1818-0.0000  plane waves:     278
 k-point  21 :  -0.4545 0.1818-0.0000  plane waves:     275
 k-point  22 :  -0.3636 0.1818 0.0000  plane waves:     278
 k-point  23 :  -0.2727 0.1818-0.0000  plane waves:     281
 k-point  24 :  -0.1818 0.1818-0.0000  plane waves:     285
 k-point  25 :   0.2727 0.2727-0.0000  plane waves:     290
 k-point  26 :   0.3636 0.2727-0.0000  plane waves:     284
 k-point  27 :   0.4545 0.2727-0.0000  plane waves:     279
 k-point  28 :  -0.4545 0.2727 0.0000  plane waves:     278
 k-point  29 :  -0.3636 0.2727 0.0000  plane waves:     278
 k-point  30 :  -0.2727 0.2727 0.0000  plane waves:     279
 k-point  31 :   0.3636 0.3636-0.0000  plane waves:     278
 k-point  32 :   0.4545 0.3636-0.0000  plane waves:     279
 k-point  33 :  -0.4545 0.3636 0.0000  plane waves:     278
 k-point  34 :  -0.3636 0.3636 0.0000  plane waves:     276
 k-point  35 :   0.4545 0.4545-0.0000  plane waves:     286
 k-point  36 :  -0.4545 0.4545 0.0000  plane waves:     280
 k-point  37 :   0.2727 0.1818 0.0909  plane waves:     288
 k-point  38 :   0.3636 0.1818 0.0909  plane waves:     284
 k-point  39 :   0.4545 0.1818 0.0909  plane waves:     280
 k-point  40 :  -0.4545 0.1818 0.0909  plane waves:     279
 k-point  41 :   0.3636 0.2727 0.0909  plane waves:     287
 k-point  42 :   0.4545 0.2727 0.0909  plane waves:     277
 k-point  43 :  -0.4545 0.2727 0.0909  plane waves:     281
 k-point  44 :  -0.3636 0.2727 0.0909  plane waves:     276
 k-point  45 :  -0.2727 0.2727 0.0909  plane waves:     278
 k-point  46 :  -0.1818 0.2727 0.0909  plane waves:     276
 k-point  47 :   0.4545 0.3636 0.0909  plane waves:     281
 k-point  48 :  -0.4545 0.3636 0.0909  plane waves:     284
 k-point  49 :  -0.3636 0.3636 0.0909  plane waves:     276
 k-point  50 :  -0.2727 0.3636 0.0909  plane waves:     278
 k-point  51 :  -0.4545 0.4545 0.0909  plane waves:     276
 k-point  52 :  -0.3636 0.4545 0.0909  plane waves:     278
 k-point  53 :  -0.4545 0.3636 0.1818  plane waves:     281
 k-point  54 :  -0.3636 0.3636 0.1818  plane waves:     275
 k-point  55 :  -0.3636 0.4545 0.1818  plane waves:     277
 k-point  56 :  -0.2727 0.4545 0.1818  plane waves:     272

 maximum and minimum number of plane-waves per node :       291      269

 maximum number of plane-waves:       291
 maximum index in each direction: 
   IXMAX=    5   IYMAX=    4   IZMAX=    4
   IXMIN=   -4   IYMIN=   -4   IZMIN=   -4


 serial   3D FFT for wavefunctions
 parallel 3D FFT for charge:
    minimum data exchange during FFTs selected (reduces bandwidth)


 total amount of memory used by VASP MPI-rank0    32204. kBytes
=======================================================================

   base      :      30000. kBytes
   nonl-proj :       1055. kBytes
   fftplans  :        204. kBytes
   grid      :        388. kBytes
   one-center:          6. kBytes
   wavefun   :        551. kBytes
 
     INWAV:  cpu time      0.0000: real time      0.0001
 Broyden mixing: mesh for mixing (old mesh)
   NGX =  9   NGY =  9   NGZ =  9
  (NGX  = 28   NGY  = 28   NGZ  = 28)
  gives a total of    729 points

 initial charge density was supplied:
 charge density of overlapping atoms calculated
 number of electron       8.0000000 magnetization 
 keeping initial charge density in first step


--------------------------------------------------------------------------------------------------------


 Maximum index for augmentation-charges          695 (set IRDMAX)


--------------------------------------------------------------------------------------------------------


 First call to EWALD:  gamma=   0.552
 Maximum number of real-space cells 3x 3x 3
 Maximum number of reciprocal cells 3x 3x 3

    FEWALD:  cpu time      0.0015: real time      0.0016


--------------------------------------- Iteration      1(   1)  ---------------------------------------


    POTLOK:  cpu time      0.0039: real time      0.0047
    SETDIJ:  cpu time      0.0016: real time      0.0016
     EDDAV:  cpu time      0.0683: real time      0.0701
       DOS:  cpu time      0.0007: real time      0.0008
    --------------------------------------------
      LOOP:  cpu time      0.0745: real time      0.0773

 eigenvalue-minimisations  :   912
 total energy-change (2. order) :-0.1991226E+01  (-0.2147881E+03)
 number of electron       8.0000000 magnetization 
 augmentation part        8.0000000 magnetization 

 Free energy of the ion-electron system (eV)
  ---------------------------------------------------
  alpha Z        PSCENC =         4.06035456
  Ewald energy   TEWEN  =      -243.35292948
  -Hartree energ DENC   =        -8.36381138
  -exchange      EXHF   =         0.00000000
  -V(xc)+E(xc)   XCENC  =       -17.82043379
  PAW double counting   =       176.24759923     -141.06103558
  entropy T*S    EENTRO =        -0.00263766
  eigenvalues    EBANDS =        22.18011504
  atomic energy  EATOM  =       206.12155316
  Solvation  Ediel_sol  =         0.00000000
  ---------------------------------------------------
  free energy    TOTEN  =        -1.99122590 eV

  energy without entropy =       -1.98858824  energy(sigma->0) =       -1.98990707


--------------------------------------------------------------------------------------------------------




--------------------------------------- Iteration      1(   2)  ---------------------------------------


     EDDAV:  cpu time      0.1064: real time      0.1080
       DOS:  cpu time      0.0005: real time      0.0005
    --------------------------------------------
      LOOP:  cpu time      0.1069: real time      0.1085

 eigenvalue-minimisations  :  1408
 total energy-change (2. order) :-0.8485216E+01  (-0.8213753E+01)
 number of electron       8.0000000 magnetization 
 augmentation part        8.0000000 magnetization 

 Free energy of the ion-electron system (eV)
  ---------------------------------------------------
  alpha Z        PSCENC =         4.06035456
  Ewald energy   TEWEN  =      -243.35292948
  -Hartree energ DENC   =        -8.36381138
  -exchange      EXHF   =         0.00000000
  -V(xc)+E(xc)   XCENC  =       -17.82043379
  PAW double counting   =       176.24759923     -141.06103558
  entropy T*S    EENTRO =        -0.00000003
  eigenvalues    EBANDS =        13.69226178
  atomic energy  EATOM  =       206.12155316
  Solvation  Ediel_sol  =         0.00000000
  ---------------------------------------------------
  free energy    TOTEN  =       -10.47644154 eV

  energy without entropy =      -10.47644151  energy(sigma->0) =      -10.47644153


--------------------------------------------------------------------------------------------------------




--------------------------------------- Iteration      1(   3)  ---------------------------------------


     EDDAV:  cpu time      0.0819: real time      0.0833
       DOS:  cpu time      0.0005: real time      0.0005
    --------------------------------------------
      LOOP:  cpu time      0.0824: real time      0.0838

 eigenvalue-minimisations  :  1128
 total energy-change (2. order) :-0.7019209E-01  (-0.7019209E-01)
 number of electron       8.0000000 magnetization 
 augmentation part        8.0000000 magnetization 

 Free energy of the ion-electron system (eV)
  ---------------------------------------------------
  alpha Z        PSCENC =         4.06035456
  Ewald energy   TEWEN  =      -243.35292948
  -Hartree energ DENC   =        -8.36381138
  -exchange      EXHF   =         0.00000000
  -V(xc)+E(xc)   XCENC  =       -17.82043379
  PAW double counting   =       176.24759923     -141.06103558
  entropy T*S    EENTRO =        -0.00000003
  eigenvalues    EBANDS =        13.62206967
  atomic energy  EATOM  =       206.12155316
  Solvation  Ediel_sol  =         0.00000000
  ---------------------------------------------------
  free energy    TOTEN  =       -10.54663364 eV

  energy without entropy =      -10.54663361  energy(sigma->0) =      -10.54663363


--------------------------------------------------------------------------------------------------------




--------------------------------------- Iteration      1(   4)  ---------------------------------------


     EDDAV:  cpu time      0.1054: real time      0.1070
       DOS:  cpu time      0.0005: real time      0.0005
    --------------------------------------------
      LOOP:  cpu time      0.1059: real time      0.1075

 eigenvalue-minimisations  :  1408
 total energy-change (2. order) :-0.1506035E-03  (-0.1506044E-03)
 number of electron       8.0000000 magnetization 
 augmentation part        8.0000000 magnetization 

 Free energy of the ion-electron system (eV)
  ---------------------------------------------------
  alpha Z        PSCENC =         4.06035456
  Ewald energy   TEWEN  =      -243.35292948
  -Hartree energ DENC   =        -8.36381138
  -exchange      EXHF   =         0.00000000
  -V(xc)+E(xc)   XCENC  =       -17.82043379
  PAW double counting   =       176.24759923     -141.06103558
  entropy T*S    EENTRO =        -0.00000003
  eigenvalues    EBANDS =        13.62191907
  atomic energy  EATOM  =       206.12155316
  Solvation  Ediel_sol  =         0.00000000
  ---------------------------------------------------
  free energy    TOTEN  =       -10.54678424 eV

  energy without entropy =      -10.54678422  energy(sigma->0) =      -10.54678423


--------------------------------------------------------------------------------------------------------




--------------------------------------- Iteration      1(   5)  ---------------------------------------


     EDDAV:  cpu time      0.0868: real time      0.0881
       DOS:  cpu time      0.0005: real time      0.0005
    CHARGE:  cpu time      0.0028: real time      0.0030
    MIXING:  cpu time      0.0005: real time      0.0005
    --------------------------------------------
      LOOP:  cpu time      0.0905: real time      0.0921

 eigenvalue-minimisations  :  1192
 total energy-change (2. order) :-0.8205186E-07  (-0.8188822E-07)
 number of electron       8.0000016 magnetization 
 augmentation part       -0.4855881 magnetization 

 Broyden mixing:
  rms(total) = 0.69882E+00    rms(broyden)= 0.69881E+00
  rms(prec ) = 0.12237E+01
  weight for this iteration     100.00

 Free energy of the ion-electron system (eV)
  ---------------------------------------------------
  alpha Z        PSCENC =         4.06035456
  Ewald energy   TEWEN  =      -243.35292948
  -Hartree energ DENC   =        -8.36381138
  -exchange      EXHF   =         0.00000000
  -V(xc)+E(xc)   XCENC  =       -17.82043379
  PAW double counting   =       176.24759923     -141.06103558
  entropy T*S    EENTRO =        -0.00000003
  eigenvalues    EBANDS =        13.62191899
  atomic energy  EATOM  =       206.12155316
  Solvation  Ediel_sol  =         0.00000000
  ---------------------------------------------------
  free energy    TOTEN  =       -10.54678432 eV

  energy without entropy =      -10.54678430  energy(sigma->0) =      -10.54678431


--------------------------------------------------------------------------------------------------------




--------------------------------------- Iteration      1(   6)  ---------------------------------------


    POTLOK:  cpu time      0.0030: real time      0.0031
    SETDIJ:  cpu time      0.0012: real time      0.0012
     EDDAV:  cpu time      0.0732: real time      0.0742
       DOS:  cpu time      0.0005: real time      0.0005
    CHARGE:  cpu time      0.0025: real time      0.0025
    MIXING:  cpu time      0.0006: real time      0.0006
    --------------------------------------------
      LOOP:  cpu time      0.0809: real time      0.0821

 eigenvalue-minimisations  :  1024
 total energy-change (2. order) : 0.2232266E+00  (-0.1615047E-01)
 number of electron       8.0000016 magnetization 
 augmentation part       -0.4769462 magnetization 

 Broyden mixing:
  rms(total) = 0.43745E+00    rms(broyden)= 0.43745E+00
  rms(prec ) = 0.71817E+00
  weight for this iteration     100.00

 eigenvalues of (default mixing * dielectric matrix)
  average eigenvalue GAMMA=   2.6515
  2.6515

 Free energy of the ion-electron system (eV)
  ---------------------------------------------------
  alpha Z        PSCENC =         4.06035456
  Ewald energy   TEWEN  =      -243.35292948
  -Hartree energ DENC   =       -10.10724513
  -exchange      EXHF   =         0.00000000
  -V(xc)+E(xc)   XCENC  =       -17.52640196
  PAW double counting   =       540.08003801     -505.09507662
  entropy T*S    EENTRO =        -0.00000651
  eigenvalues    EBANDS =        15.49615627
  atomic energy  EATOM  =       206.12155316
  Solvation  Ediel_sol  =         0.00000000
  ---------------------------------------------------
  free energy    TOTEN  =       -10.32355771 eV

  energy without entropy =      -10.32355120  energy(sigma->0) =      -10.32355445


--------------------------------------------------------------------------------------------------------




--------------------------------------- Iteration      1(   7)  ---------------------------------------


    POTLOK:  cpu time      0.0030: real time      0.0031
    SETDIJ:  cpu time      0.0011: real time      0.0011
     EDDAV:  cpu time      0.0814: real time      0.0826
       DOS:  cpu time      0.0006: real time      0.0006
    CHARGE:  cpu time      0.0024: real time      0.0024
    MIXING:  cpu time      0.0004: real time      0.0004
    --------------------------------------------
      LOOP:  cpu time      0.0888: real time      0.0902

 eigenvalue-minimisations  :  1136
 total energy-change (2. order) : 0.9038402E-01  (-0.2689928E-01)
 number of electron       8.0000016 magnetization 
 augmentation part       -0.4666587 magnetization 

 Broyden mixing:
  rms(total) = 0.46929E-01    rms(broyden)= 0.46929E-01
  rms(prec ) = 0.69259E-01
  weight for this iteration     100.00

 eigenvalues of (default mixing * dielectric matrix)
  average eigenvalue GAMMA=   2.1475
  1.9264  2.3686

 Free energy of the ion-electron system (eV)
  ---------------------------------------------------
  alpha Z        PSCENC =         4.06035456
  Ewald energy   TEWEN  =      -243.35292948
  -Hartree energ DENC   =       -12.82992696
  -exchange      EXHF   =         0.00000000
  -V(xc)+E(xc)   XCENC  =       -17.06267020
  PAW double counting   =      1533.51719144    -1498.80213979
  entropy T*S    EENTRO =        -0.00024426
  eigenvalues    EBANDS =        18.11563784
  atomic energy  EATOM  =       206.12155316
  Solvation  Ediel_sol  =         0.00000000
  ---------------------------------------------------
  free energy    TOTEN  =       -10.23317369 eV

  energy without entropy =      -10.23292943  energy(sigma->0) =      -10.23305156


--------------------------------------------------------------------------------------------------------




--------------------------------------- Iteration      1(   8)  ---------------------------------------


    POTLOK:  cpu time      0.0031: real time      0.0032
    SETDIJ:  cpu time      0.0011: real time      0.0011
     EDDAV:  cpu time      0.0726: real time      0.0737
       DOS:  cpu time      0.0006: real time      0.0006
    CHARGE:  cpu time      0.0024: real time      0.0024
    MIXING:  cpu time      0.0004: real time      0.0005
    --------------------------------------------
      LOOP:  cpu time      0.0802: real time      0.0815

 eigenvalue-minimisations  :  1016
 total energy-change (2. order) :-0.5167842E-03  (-0.6159436E-03)
 number of electron       8.0000016 magnetization 
 augmentation part       -0.4680525 magnetization 

 Broyden mixing:
  rms(total) = 0.84172E-02    rms(broyden)= 0.84168E-02
  rms(prec ) = 0.14052E-01
  weight for this iteration     100.00

 eigenvalues of (default mixing * dielectric matrix)
  average eigenvalue GAMMA=   2.2381
  2.8486  1.9329  1.9329

 Free energy of the ion-electron system (eV)
  ---------------------------------------------------
  alpha Z        PSCENC =         4.06035456
  Ewald energy   TEWEN  =      -243.35292948
  -Hartree energ DENC   =       -12.69542096
  -exchange      EXHF   =         0.00000000
  -V(xc)+E(xc)   XCENC  =       -17.06259769
  PAW double counting   =      1624.17704088    -1589.42739201
  entropy T*S    EENTRO =        -0.00018512
  eigenvalues    EBANDS =        17.94588620
  atomic energy  EATOM  =       206.12155316
  Solvation  Ediel_sol  =         0.00000000
  ---------------------------------------------------
  free energy    TOTEN  =       -10.23369047 eV

  energy without entropy =      -10.23350535  energy(sigma->0) =      -10.23359791


--------------------------------------------------------------------------------------------------------




--------------------------------------- Iteration      1(   9)  ---------------------------------------


    POTLOK:  cpu time      0.0031: real time      0.0032
    SETDIJ:  cpu time      0.0011: real time      0.0011
     EDDAV:  cpu time      0.0917: real time      0.0931
       DOS:  cpu time      0.0006: real time      0.0006
    CHARGE:  cpu time      0.0024: real time      0.0024
    MIXING:  cpu time      0.0003: real time      0.0003
    --------------------------------------------
      LOOP:  cpu time      0.0992: real time      0.1007

 eigenvalue-minimisations  :  1248
 total energy-change (2. order) :-0.1263159E-03  (-0.1220042E-04)
 number of electron       8.0000016 magnetization 
 augmentation part       -0.4681184 magnetization 

 Broyden mixing:
  rms(total) = 0.70264E-02    rms(broyden)= 0.70264E-02
  rms(prec ) = 0.80053E-02
  weight for this iteration     100.00

 eigenvalues of (default mixing * dielectric matrix)
  average eigenvalue GAMMA=   2.1120
  0.9347  2.5913  2.5913  2.3310

 Free energy of the ion-electron system (eV)
  ---------------------------------------------------
  alpha Z        PSCENC =         4.06035456
  Ewald energy   TEWEN  =      -243.35292948
  -Hartree energ DENC   =       -12.74047651
  -exchange      EXHF   =         0.00000000
  -V(xc)+E(xc)   XCENC  =       -17.05269139
  PAW double counting   =      1642.39472817    -1607.64581181
  entropy T*S    EENTRO =        -0.00018430
  eigenvalues    EBANDS =        17.98164083
  atomic energy  EATOM  =       206.12155316
  Solvation  Ediel_sol  =         0.00000000
  ---------------------------------------------------
  free energy    TOTEN  =       -10.23381679 eV

  energy without entropy =      -10.23363249  energy(sigma->0) =      -10.23372464


--------------------------------------------------------------------------------------------------------




--------------------------------------- Iteration      1(  10)  ---------------------------------------


    POTLOK:  cpu time      0.0031: real time      0.0032
    SETDIJ:  cpu time      0.0011: real time      0.0011
     EDDAV:  cpu time      0.0445: real time      0.0452
       DOS:  cpu time      0.0006: real time      0.0006
    --------------------------------------------
      LOOP:  cpu time      0.0494: real time      0.0501

 eigenvalue-minimisations  :   568
 total energy-change (2. order) :-0.2100862E-04  (-0.2890879E-05)
 number of electron       8.0000016 magnetization 
 augmentation part       -0.4681184 magnetization 

 Free energy of the ion-electron system (eV)
  ---------------------------------------------------
  alpha Z        PSCENC =         4.06035456
  Ewald energy   TEWEN  =      -243.35292948
  -Hartree energ DENC   =       -12.74350597
  -exchange      EXHF   =         0.00000000
  -V(xc)+E(xc)   XCENC  =       -17.05247975
  PAW double counting   =      1620.49598900    -1585.74576818
  entropy T*S    EENTRO =        -0.00018091
  eigenvalues    EBANDS =        17.98312979
  atomic energy  EATOM  =       206.12155316
  Solvation  Ediel_sol  =         0.00000000
  ---------------------------------------------------
  free energy    TOTEN  =       -10.23383779 eV

  energy without entropy =      -10.23365688  energy(sigma->0) =      -10.23374734


--------------------------------------------------------------------------------------------------------




 average (electrostatic) potential at core
  the test charge radii are     0.9892
  (the norm of the test charge is              1.0000)
       1 -81.0104       2 -81.0104
 
 
 
 E-fermi :   7.9953     XC(G=0): -10.1661     alpha+bet :-14.4647

 Fermi energy:         7.9952953084

 k-point     1 :       0.0000    0.0000    0.0000
  band No.  band energies     occupation 
      1      -5.4599      2.00000
      2       7.9246      1.68255
      3       7.9246      1.68239
      4       7.9246      1.68239
      5      10.5506      0.00000
      6      10.5506      0.00000
      7      10.5506      0.00000
      8      13.5840      0.00000

 k-point     2 :       0.0909   -0.0000    0.0000
  band No.  band energies     occupation 
      1      -5.3332      2.00000
      2       6.8693      2.00000
      3       7.7195      1.99990
      4       7.7195      1.99990
      5      10.8052      0.00000
      6      10.8520      0.00000
      7      10.8520      0.00000
      8      14.1504      0.00000

 k-point     3 :       0.1818   -0.0000    0.0000
  band No.  band energies     occupation 
      1      -4.9561      2.00000
      2       4.9976      2.00000
      3       7.3166      2.00000
      4       7.3166      2.00000
      5      10.7514      0.00000
      6      11.3881      0.00000
      7      11.3881      0.00000
      8      15.0082      0.00000

 k-point     4 :       0.2727    0.0000   -0.0000
  band No.  band energies     occupation 
      1      -4.3443      2.00000
      2       3.0988      2.00000
      3       6.9501      2.00000
      4       6.9502      2.00000
      5      10.4986      0.00000
      6      11.5474      0.00000
      7      11.5476      0.00000
      8      15.4286      0.00000

 k-point     5 :       0.3636    0.0000   -0.0000
  band No.  band energies     occupation 
      1      -3.5439      2.00000
      2       1.3962      2.00000
      3       6.6957      2.00000
      4       6.6957      2.00000
      5      10.2744      0.00000
      6      11.3422      0.00000
      7      11.3423      0.00000
      8      16.1634      0.00000

 k-point     6 :       0.4545    0.0000   -0.0000
  band No.  band energies     occupation 
      1      -2.7593      2.00000
      2       0.1509      2.00000
      3       6.5685      2.00000
      4       6.5686      2.00000
      5      10.1552      0.00000
      6      11.1580      0.00000
      7      11.1582      0.00000
      8      15.8890      0.00000

 k-point     7 :       0.0909    0.0909   -0.0000
  band No.  band energies     occupation 
      1      -5.2906      2.00000
      2       7.2302      2.00000
      3       7.3004      2.00000
      4       7.3004      2.00000
      5      10.1714      0.00000
      6      11.3789      0.00000
      7      11.3789      0.00000
      8      13.9299      0.00000

 k-point     8 :       0.1818    0.0909   -0.0000
  band No.  band energies     occupation 
      1      -4.9964      2.00000
      2       5.6263      2.00000
      3       6.8257      2.00000
      4       7.1581      2.00000
      5      10.2385      0.00000
      6      11.7506      0.00000
      7      12.0681      0.00000
      8      13.4770      0.00000

 k-point     9 :       0.2727    0.0909   -0.0000
  band No.  band energies     occupation 
      1      -4.4608      2.00000
      2       3.7582      2.00000
      3       6.4619      2.00000
      4       6.7390      2.00000
      5      10.5202      0.00000
      6      11.7050      0.00000
      7      12.3792      0.00000
      8      13.4137      0.00000

 k-point    10 :       0.3636    0.0909   -0.0000
  band No.  band energies     occupation 
      1      -3.7147      2.00000
      2       1.9963      2.00000
      3       6.2618      2.00000
      4       6.3005      2.00000
      5      10.4891      0.00000
      6      11.5047      0.00000
      7      12.1521      0.00000
      8      14.3885      0.00000

 k-point    11 :       0.4545    0.0909   -0.0000
  band No.  band energies     occupation 
      1      -2.8764      2.00000
      2       0.5579      2.00000
      3       5.9473      2.00000
      4       6.2343      2.00000
      5      10.4170      0.00000
      6      11.3303      0.00000
      7      11.7850      0.00000
      8      15.8423      0.00000

 k-point    12 :      -0.4545    0.0909   -0.0000
  band No.  band energies     occupation 
      1      -2.5116      2.00000
      2       0.0416      2.00000
      3       5.7223      2.00000
      4       6.3711      2.00000
      5      10.4853      0.00000
      6      11.3040      0.00000
      7      11.5429      0.00000
      8      16.4279      0.00000

 k-point    13 :      -0.3636    0.0909    0.0000
  band No.  band energies     occupation 
      1      -3.1498      2.00000
      2       0.9847      2.00000
      3       5.6528      2.00000
      4       6.6495      2.00000
      5      10.6902      0.00000
      6      11.4613      0.00000
      7      11.4810      0.00000
      8      16.3154      0.00000

 k-point    14 :      -0.2727    0.0909    0.0000
  band No.  band energies     occupation 
      1      -3.9845      2.00000
      2       2.5637      2.00000
      3       5.7590      2.00000
      4       7.0344      2.00000
      5      10.9579      0.00000
      6      11.5158      0.00000
      7      11.7533      0.00000
      8      14.8244      0.00000

 k-point    15 :      -0.1818    0.0909   -0.0000
  band No.  band energies     occupation 
      1      -4.6659      2.00000
      2       4.3730      2.00000
      3       6.0615      2.00000
      4       7.4655      2.00000
      5      11.2134      0.00000
      6      11.3286      0.00000
      7      11.8082      0.00000
      8      14.2117      0.00000

 k-point    16 :      -0.0909    0.0909   -0.0000
  band No.  band energies     occupation 
      1      -5.1226      2.00000
      2       6.0620      2.00000
      3       6.6789      2.00000
      4       7.7817      1.99748
      5      10.8892      0.00000
      6      11.1656      0.00000
      7      11.3852      0.00000
      8      14.5240      0.00000

 k-point    17 :       0.1818    0.1818   -0.0000
  band No.  band energies     occupation 
      1      -4.7856      2.00000
      2       5.7205      2.00000
      3       6.3016      2.00000
      4       6.3017      2.00000
      5       9.3936      0.00000
      6      12.2348      0.00000
      7      12.9740      0.00000
      8      12.9740      0.00000

 k-point    18 :       0.2727    0.1818   -0.0000
  band No.  band energies     occupation 
      1      -4.3296      2.00000
      2       4.3127      2.00000
      3       5.8980      2.00000
      4       5.9027      2.00000
      5       9.4580      0.00000
      6      11.6038      0.00000
      7      13.3983      0.00000
      8      13.5994      0.00000

 k-point    19 :       0.3636    0.1818   -0.0000
  band No.  band energies     occupation 
      1      -3.6495      2.00000
      2       2.6572      2.00000
      3       5.3093      2.00000
      4       5.6834      2.00000
      5       9.6762      0.00000
      6      12.0000      0.00000
      7      13.3596      0.00000
      8      13.5354      0.00000

 k-point    20 :       0.4545    0.1818   -0.0000
  band No.  band energies     occupation 
      1      -2.8161      2.00000
      2       1.1539      2.00000
      3       4.7577      2.00000
      4       5.6596      2.00000
      5       9.6910      0.00000
      6      12.8016      0.00000
      7      13.1323      0.00000
      8      13.7999      0.00000

 k-point    21 :      -0.4545    0.1818   -0.0000
  band No.  band energies     occupation 
      1      -2.1789      2.00000
      2       0.2445      2.00000
      3       4.3505      2.00000
      4       5.8288      2.00000
      5       9.8366      0.00000
      6      12.7562      0.00000
      7      12.8022      0.00000
      8      15.5263      0.00000

 k-point    22 :      -0.3636    0.1818    0.0000
  band No.  band energies     occupation 
      1      -2.5583      2.00000
      2       0.7736      2.00000
      3       4.1363      2.00000
      4       6.1714      2.00000
      5      10.2014      0.00000
      6      12.5225      0.00000
      7      12.7528      0.00000
      8      16.0773      0.00000

 k-point    23 :      -0.2727    0.1818   -0.0000
  band No.  band energies     occupation 
      1      -3.3955      2.00000
      2       2.1535      2.00000
      3       4.1679      2.00000
      4       6.6435      2.00000
      5      10.7419      0.00000
      6      12.3623      0.00000
      7      12.7114      0.00000
      8      14.4841      0.00000

 k-point    24 :      -0.1818    0.1818   -0.0000
  band No.  band energies     occupation 
      1      -4.1357      2.00000
      2       3.5836      2.00000
      3       4.6612      2.00000
      4       7.1491      2.00000
      5      11.2990      0.00000
      6      11.9009      0.00000
      7      12.3344      0.00000
      8      13.8511      0.00000

 k-point    25 :       0.2727    0.2727   -0.0000
  band No.  band energies     occupation 
      1      -3.9536      2.00000
      2       3.9409      2.00000
      3       5.4572      2.00000
      4       5.4572      2.00000
      5       8.6749      0.00000
      6      10.4573      0.00000
      7      14.7826      0.00000
      8      14.7826      0.00000

 k-point    26 :       0.3636    0.2727   -0.0000
  band No.  band energies     occupation 
      1      -3.3461      2.00000
      2       2.8217      2.00000
      3       4.8077      2.00000
      4       5.1910      2.00000
      5       8.8057      0.00000
      6      10.1612      0.00000
      7      15.2050      0.00000
      8      15.2558      0.00000

 k-point    27 :       0.4545    0.2727   -0.0000
  band No.  band energies     occupation 
      1      -2.5508      2.00000
      2       1.5738      2.00000
      3       3.9363      2.00000
      4       5.1272      2.00000
      5       8.9524      0.00000
      6      11.1445      0.00000
      7      14.9019      0.00000
      8      15.2107      0.00000

 k-point    28 :      -0.4545    0.2727    0.0000
  band No.  band energies     occupation 
      1      -1.7664      2.00000
      2       0.5490      2.00000
      3       3.2572      2.00000
      4       5.2682      2.00000
      5       9.1009      0.00000
      6      12.8064      0.00000
      7      14.4718      0.00000
      8      15.1193      0.00000

 k-point    29 :      -0.3636    0.2727    0.0000
  band No.  band energies     occupation 
      1      -1.8225      2.00000
      2       0.6371      2.00000
      3       2.8912      2.00000
      4       5.6019      2.00000
      5       9.4702      0.00000
      6      14.0957      0.00000
      7      14.1198      0.00000
      8      15.6786      0.00000

 k-point    30 :      -0.2727    0.2727    0.0000
  band No.  band energies     occupation 
      1      -2.6193      2.00000
      2       1.5780      2.00000
      3       3.0473      2.00000
      4       6.0908      2.00000
      5      10.0525      0.00000
      6      13.5802      0.00000
      7      13.9122      0.00000
      8      14.6290      0.00000

 k-point    31 :       0.3636    0.3636   -0.0000
  band No.  band energies     occupation 
      1      -2.8113      2.00000
      2       2.0797      2.00000
      3       4.8696      2.00000
      4       4.8696      2.00000
      5       8.2124      0.00214
      6       9.1653      0.00000
      7      16.6998      0.00000
      8      16.6998      0.00000

 k-point    32 :       0.4545    0.3636   -0.0000
  band No.  band energies     occupation 
      1      -2.0716      2.00000
      2       1.1332      2.00000
      3       4.1786      2.00000
      4       4.7500      2.00000
      5       8.4017      0.00000
      6       9.2856      0.00000
      7      16.9137      0.00000
      8      17.1895      0.00000

 k-point    33 :      -0.4545    0.3636    0.0000
  band No.  band energies     occupation 
      1      -1.2376      2.00000
      2       0.2867      2.00000
      3       3.1781      2.00000
      4       4.8405      2.00000
      5       8.5595      0.00000
      6      10.7326      0.00000
      7      16.5128      0.00000
      8      17.1042      0.00000

 k-point    34 :      -0.3636    0.3636    0.0000
  band No.  band energies     occupation 
      1      -1.0965      2.00000
      2       0.2009      2.00000
      3       2.5626      2.00000
      4       5.1332      2.00000
      5       8.8971      0.00000
      6      12.6729      0.00000
      7      15.8935      0.00000
      8      16.4586      0.00000

 k-point    35 :       0.4545    0.4545   -0.0000
  band No.  band energies     occupation 
      1      -1.3889      2.00000
      2       0.2676      2.00000
      3       4.5698      2.00000
      4       4.5698      2.00000
      5       8.0942      0.16174
      6       8.3940      0.00000
      7      18.6755      0.00000
      8      18.6755      0.00000

 k-point    36 :      -0.4545    0.4545    0.0000
  band No.  band energies     occupation 
      1      -0.6023      2.00000
      2      -0.4978      2.00000
      3       3.9785      2.00000
      4       4.6006      2.00000
      5       8.2704      0.00010
      6       8.9929      0.00000
      7      18.7122      0.00000
      8      18.8462      0.00000

 k-point    37 :       0.2727    0.1818    0.0909
  band No.  band energies     occupation 
      1      -4.6218      2.00000
      2       4.7651      2.00000
      3       5.6748      2.00000
      4       7.0019      2.00000
      5      10.2894      0.00000
      6      12.2045      0.00000
      7      12.7201      0.00000
      8      12.7252      0.00000

 k-point    38 :       0.3636    0.1818    0.0909
  band No.  band energies     occupation 
      1      -4.0132      2.00000
      2       3.2069      2.00000
      3       5.0812      2.00000
      4       6.6035      2.00000
      5      10.6652      0.00000
      6      11.9300      0.00000
      7      12.8359      0.00000
      8      13.1586      0.00000

 k-point    39 :       0.4545    0.1818    0.0909
  band No.  band energies     occupation 
      1      -3.2161      2.00000
      2       1.5924      2.00000
      3       4.8496      2.00000
      4       6.1683      2.00000
      5      10.7425      0.00000
      6      11.4716      0.00000
      7      13.1200      0.00000
      8      14.0333      0.00000

 k-point    40 :      -0.4545    0.1818    0.0909
  band No.  band energies     occupation 
      1      -2.4293      2.00000
      2       0.3730      2.00000
      3       4.7753      2.00000
      4       5.8939      2.00000
      5      10.7991      0.00000
      6      11.0893      0.00000
      7      13.0234      0.00000
      8      15.7627      0.00000

 k-point    41 :       0.3636    0.2727    0.0909
  band No.  band energies     occupation 
      1      -3.7988      2.00000
      2       3.4259      2.00000
      3       4.8309      2.00000
      4       5.7432      2.00000
      5       9.6038      0.00000
      6      11.0695      0.00000
      7      13.5239      0.00000
      8      14.6293      0.00000

 k-point    42 :       0.4545    0.2727    0.0909
  band No.  band energies     occupation 
      1      -3.0586      2.00000
      2       2.1317      2.00000
      3       4.1979      2.00000
      4       5.3299      2.00000
      5       9.9590      0.00000
      6      11.5789      0.00000
      7      13.1792      0.00000
      8      15.0670      0.00000

 k-point    43 :      -0.4545    0.2727    0.0909
  band No.  band energies     occupation 
      1      -2.2215      2.00000
      2       0.8648      2.00000
      3       3.7920      2.00000
      4       5.1256      2.00000
      5      10.0706      0.00000
      6      12.3900      0.00000
      7      13.4521      0.00000
      8      15.0694      0.00000

 k-point    44 :      -0.3636    0.2727    0.0909
  band No.  band energies     occupation 
      1      -1.8608      2.00000
      2       0.3982      2.00000
      3       3.5131      2.00000
      4       5.2426      2.00000
      5      10.3323      0.00000
      6      12.1773      0.00000
      7      14.6056      0.00000
      8      15.5467      0.00000

 k-point    45 :      -0.2727    0.2727    0.0909
  band No.  band energies     occupation 
      1      -2.5174      2.00000
      2       1.2919      2.00000
      3       3.4428      2.00000
      4       5.6171      2.00000
      5      10.7883      0.00000
      6      11.9588      0.00000
      7      13.8796      0.00000
      8      14.7213      0.00000

 k-point    46 :      -0.1818    0.2727    0.0909
  band No.  band energies     occupation 
      1      -3.3432      2.00000
      2       2.4896      2.00000
      3       3.8297      2.00000
      4       6.1409      2.00000
      5      11.3887      0.00000
      6      11.5011      0.00000
      7      12.8139      0.00000
      8      14.2474      0.00000

 k-point    47 :       0.4545    0.3636    0.0909
  band No.  band energies     occupation 
      1      -2.6740      2.00000
      2       1.9232      2.00000
      3       4.2677      2.00000
      4       4.7219      2.00000
      5       9.1421      0.00000
      6       9.9063      0.00000
      7      15.0262      0.00000
      8      16.6401      0.00000

 k-point    48 :      -0.4545    0.3636    0.0909
  band No.  band energies     occupation 
      1      -1.8465      2.00000
      2       0.9566      2.00000
      3       3.4556      2.00000
      4       4.5016      2.00000
      5       9.4650      0.00000
      6      10.9548      0.00000
      7      14.5882      0.00000
      8      17.0560      0.00000

 k-point    49 :      -0.3636    0.3636    0.0909
  band No.  band energies     occupation 
      1      -1.2272      2.00000
      2       0.3153      2.00000
      3       2.7999      2.00000
      4       4.6524      2.00000
      5       9.7122      0.00000
      6      12.7011      0.00000
      7      14.2731      0.00000
      8      16.0008      0.00000

 k-point    50 :      -0.2727    0.3636    0.0909
  band No.  band energies     occupation 
      1      -1.7030      2.00000
      2       0.7896      2.00000
      3       2.6682      2.00000
      4       5.0504      2.00000
      5      10.1637      0.00000
      6      13.2956      0.00000
      7      14.2104      0.00000
      8      15.1817      0.00000

 k-point    51 :      -0.4545    0.4545    0.0909
  band No.  band energies     occupation 
      1      -1.2863      2.00000
      2       0.2915      2.00000
      3       4.0321      2.00000
      4       4.1645      2.00000
      5       9.0027      0.00000
      6       9.2378      0.00000
      7      16.7204      0.00000
      8      18.5458      0.00000

 k-point    52 :      -0.3636    0.4545    0.0909
  band No.  band energies     occupation 
      1      -0.6301      2.00000
      2      -0.2519      2.00000
      3       3.1586      2.00000
      4       4.2588      2.00000
      5       9.2957      0.00000
      6      10.7510      0.00000
      7      16.2013      0.00000
      8      16.3999      0.00000

 k-point    53 :      -0.4545    0.3636    0.1818
  band No.  band energies     occupation 
      1      -2.2810      2.00000
      2       1.4377      2.00000
      3       3.3232      2.00000
      4       4.7239      2.00000
      5      11.0785      0.00000
      6      11.4756      0.00000
      7      12.7863      0.00000
      8      16.3994      0.00000

 k-point    54 :      -0.3636    0.3636    0.1818
  band No.  band energies     occupation 
      1      -1.4850      2.00000
      2       0.5838      2.00000
      3       2.9964      2.00000
      4       4.3161      2.00000
      5      11.3021      0.00000
      6      11.9777      0.00000
      7      13.4364      0.00000
      8      15.5511      0.00000

 k-point    55 :      -0.3636    0.4545    0.1818
  band No.  band energies     occupation 
      1      -1.0248      2.00000
      2       0.2737      2.00000
      3       3.2299      2.00000
      4       3.6681      2.00000
      5      10.9192      0.00000
      6      11.0636      0.00000
      7      14.1147      0.00000
      8      15.8608      0.00000

 k-point    56 :      -0.2727    0.4545    0.1818
  band No.  band energies     occupation 
      1      -0.7508      2.00000
      2       0.0665      2.00000
      3       2.8538      2.00000
      4       3.7220      2.00000
      5      11.2560      0.00000
      6      12.5869      0.00000
      7      13.8296      0.00000
      8      14.0048      0.00000


--------------------------------------------------------------------------------------------------------


 soft charge-density along one line, spin component           1
         0         1         2         3         4         5         6         7         8         9
 total charge-density along one line
 
 pseudopotential strength for first ion, spin component:           1
 18.194  25.381  -0.000  -0.000  -0.000  -0.000  -0.000  -0.000
 25.381  35.413  -0.000  -0.000  -0.000  -0.000  -0.000  -0.000
 -0.000  -0.000   4.160  -0.000  -0.000   7.748  -0.000  -0.000
 -0.000  -0.000  -0.000   4.160  -0.000  -0.000   7.748  -0.000
 -0.000  -0.000  -0.000  -0.000   4.160  -0.000  -0.000   7.748
 -0.000  -0.000   7.748  -0.000  -0.000  14.444  -0.000  -0.000
 -0.000  -0.000  -0.000   7.748  -0.000  -0.000  14.444  -0.000
 -0.000  -0.000  -0.000  -0.000   7.748  -0.000  -0.000  14.444
 total augmentation occupancy for first ion, spin component:           1
  8.221  -3.563  -0.000  -0.000   0.000   0.000   0.000   0.000
 -3.563   1.645  -0.000   0.000   0.000   0.000   0.000  -0.000
 -0.000   0.000   4.377  -0.000   0.000  -1.151   0.000  -0.000
 -0.000   0.000  -0.000   4.377   0.000   0.000  -1.151  -0.000
  0.000   0.000   0.000   0.000   4.377  -0.000  -0.000  -1.151
 -0.000   0.000  -1.151   0.000  -0.000   0.312  -0.000   0.000
  0.000   0.000   0.000  -1.151  -0.000  -0.000   0.312   0.000
  0.000  -0.000  -0.000  -0.000  -1.151   0.000   0.000   0.312


------------------------ aborting loop because EDIFF is reached ----------------------------------------


    CHARGE:  cpu time      0.0024: real time      0.0024
    FORLOC:  cpu time      0.0002: real time      0.0002
    FORNL :  cpu time      0.0039: real time      0.0040
    STRESS:  cpu time      0.0617: real time      0.0625
    FORCOR:  cpu time      0.0029: real time      0.0030
    FORHAR:  cpu time      0.0007: real time      0.0007
    MIXING:  cpu time      0.0003: real time      0.0003
    OFIELD:  cpu time      0.0000: real time      0.0000

  FORCE on cell =-STRESS in cart. coord.  units (eV):
  Direction    XX          YY          ZZ          XY          YZ          ZX
  --------------------------------------------------------------------------------------
  Alpha Z     4.06035     4.06035     4.06035
  Ewald     -81.11768   -81.11768   -81.11768    -0.00000     0.00000    -0.00000
  Hartree     4.24740     4.24740     4.24740    -0.00000    -0.00000    -0.00000
  E(xc)     -26.59355   -26.59355   -26.59355     0.00000     0.00000     0.00000
  Local     -27.03151   -27.03151   -27.03151     0.00006     0.00005     0.00005
  n-local    83.72666    85.18833    79.13163     2.70898    -1.64475     0.73751
  augment   -11.80440   -11.80440   -11.80440    -0.00007    -0.00007    -0.00007
  Kinetic    63.77057    59.24197    61.35880     3.59906    -0.29374     1.09545
  Fock        0.00000     0.00000     0.00000     0.00000     0.00000     0.00000
  -------------------------------------------------------------------------------------
  Total       5.89993     5.89993     5.89993    -0.00000    -0.00000    -0.00000
  in kB     285.04094   285.04094   285.04094    -0.00000    -0.00000    -0.00000
  external pressure =      285.04 kB  Pullay stress =        0.00 kB


 VOLUME and BASIS-vectors are now :
 -----------------------------------------------------------------------------
  energy-cutoff  :      240.00
  volume of cell :       33.16
      direct lattice vectors                 reciprocal lattice vectors
     0.000000000  2.550000000  2.550000000    -0.196078431  0.196078431  0.196078431
     2.550000000  0.000000000  2.550000000     0.196078431 -0.196078431  0.196078431
     2.550000000  2.550000000  0.000000000     0.196078431  0.196078431 -0.196078431

  length of vectors
     3.606244584  3.606244584  3.606244584     0.339617805  0.339617805  0.339617805


 FORCES acting on ions
    electron-ion (+dipol)            ewald-force                    non-local-force                 convergence-correction
 -----------------------------------------------------------------------------------------------
   0.673E-05 0.673E-05 0.635E-05   0.255E-14 -.177E-14 0.170E-14   0.656E-16 0.107E-15 0.762E-16   0.526E-06 0.526E-06 0.526E-06
   -.673E-05 -.673E-05 -.635E-05   -.285E-14 0.220E-14 -.116E-14   -.675E-16 -.328E-16 -.420E-16   -.526E-06 -.526E-06 -.526E-06
 -----------------------------------------------------------------------------------------------
   0.702E-13 -.488E-13 -.148E-13   -.303E-15 0.430E-15 0.542E-15   -.195E-17 0.744E-16 0.342E-16   -.108E-14 0.143E-14 0.931E-15
 
 
 POSITION                                       TOTAL-FORCE (eV/Angst)
 -----------------------------------------------------------------------------------
      4.46250      4.46250      4.46250         0.000000      0.000000      0.000000
      0.63750      0.63750      0.63750        -0.000000     -0.000000     -0.000000
 -----------------------------------------------------------------------------------
    total drift:                                0.000000     -0.000000     -0.000000


--------------------------------------------------------------------------------------------------------



  FREE ENERGIE OF THE ION-ELECTRON SYSTEM (eV)
  ---------------------------------------------------
  free  energy   TOTEN  =       -10.23383779 eV

  energy  without entropy=      -10.23365688  energy(sigma->0) =      -10.23374734
 


--------------------------------------------------------------------------------------------------------


    POTLOK:  cpu time      0.0045: real time      0.0046


--------------------------------------------------------------------------------------------------------


 writing wavefunctions
     LOOP+:  cpu time      0.9784: real time      0.9988
    4ORBIT:  cpu time      0.0000: real time      0.0000

 total amount of memory used by VASP MPI-rank0    32204. kBytes
=======================================================================

   base      :      30000. kBytes
   nonl-proj :       1055. kBytes
   fftplans  :        204. kBytes
   grid      :        388. kBytes
   one-center:          6. kBytes
   wavefun   :        551. kBytes
 
  
  
 General timing and accounting informations for this job:
 ========================================================
  
                  Total CPU time used (sec):        1.207
                            User time (sec):        1.096
                          System time (sec):        0.111
                         Elapsed time (sec):        1.284
  
                   Maximum memory used (kb):       44524.
                   Average memory used (kb):          N/A
  
                          Minor page faults:         9234
                          Major page faults:            0
                 Voluntary context switches:         1563
