<?xml version="1.0" encoding="ISO-8859-1"?>
<modeling>
 <generator>
  <i name="program" type="string">vasp </i>
  <i name="version" type="string">6.3.0  </i>
  <i name="subversion" type="string">20Jan22 (build Feb 01 2022 16:52:37) complex                          parallel </i>
  <i name="platform" type="string">TETRA_NSC1 </i>
  <i name="date" type="string">2022 02 23 </i>
  <i name="time" type="string">07:07:24 </i>
 </generator>
 <incar>
  <i type="string" name="SYSTEM">diamond Si</i>
  <i type="int" name="ISTART">     0</i>
  <i type="int" name="ICHARG">     2</i>
  <i name="ENCUT">    240.00000000</i>
  <i type="int" name="ISMEAR">     0</i>
  <i name="SIGMA">      0.10000000</i>
 </incar>
 <primitive_cell>
  <structure name="primitive_cell" >
   <crystal>
    <varray name="basis" >
     <v>       0.00000000       2.55000000       2.55000000 </v>
     <v>       2.55000000       0.00000000       2.55000000 </v>
     <v>       2.55000000       2.55000000       0.00000000 </v>
    </varray>
    <i name="volume">     33.16275000 </i>
    <varray name="rec_basis" >
     <v>      -0.19607843       0.19607843       0.19607843 </v>
     <v>       0.19607843      -0.19607843       0.19607843 </v>
     <v>       0.19607843       0.19607843      -0.19607843 </v>
    </varray>
   </crystal>
   <varray name="positions" >
    <v>       0.87500000       0.87500000       0.87500000 </v>
    <v>       0.12500000       0.12500000       0.12500000 </v>
   </varray>
  </structure>
  <varray name="primitive_index" >
   <v type="int" >        1 </v>
   <v type="int" >        2 </v>
  </varray>
 </primitive_cell>
 <kpoints>
  <generation param="Monkhorst-Pack">
   <v type="int" name="divisions">      11       11       11 </v>
   <v name="usershift">      0.00000000       0.00000000       0.00000000 </v>
   <v name="genvec1">      0.09090909      -0.00000000       0.00000000 </v>
   <v name="genvec2">     -0.00000000       0.09090909      -0.00000000 </v>
   <v name="genvec3">      0.00000000       0.00000000       0.09090909 </v>
   <v name="shift">      0.00000000       0.00000000       0.00000000 </v>
  </generation>
  <varray name="kpointlist" >
   <v>       0.00000000       0.00000000       0.00000000 </v>
   <v>       0.09090909      -0.00000000       0.00000000 </v>
   <v>       0.18181818      -0.00000000       0.00000000 </v>
   <v>       0.27272727       0.00000000      -0.00000000 </v>
   <v>       0.36363636       0.00000000      -0.00000000 </v>
   <v>       0.45454545       0.00000000      -0.00000000 </v>
   <v>       0.09090909       0.09090909      -0.00000000 </v>
   <v>       0.18181818       0.09090909      -0.00000000 </v>
   <v>       0.27272727       0.09090909      -0.00000000 </v>
   <v>       0.36363636       0.09090909      -0.00000000 </v>
   <v>       0.45454545       0.09090909      -0.00000000 </v>
   <v>      -0.45454545       0.09090909      -0.00000000 </v>
   <v>      -0.36363636       0.09090909       0.00000000 </v>
   <v>      -0.27272727       0.09090909       0.00000000 </v>
   <v>      -0.18181818       0.09090909      -0.00000000 </v>
   <v>      -0.09090909       0.09090909      -0.00000000 </v>
   <v>       0.18181818       0.18181818      -0.00000000 </v>
   <v>       0.27272727       0.18181818      -0.00000000 </v>
   <v>       0.36363636       0.18181818      -0.00000000 </v>
   <v>       0.45454545       0.18181818      -0.00000000 </v>
   <v>      -0.45454545       0.18181818      -0.00000000 </v>
   <v>      -0.36363636       0.18181818       0.00000000 </v>
   <v>      -0.27272727       0.18181818      -0.00000000 </v>
   <v>      -0.18181818       0.18181818      -0.00000000 </v>
   <v>       0.27272727       0.27272727      -0.00000000 </v>
   <v>       0.36363636       0.27272727      -0.00000000 </v>
   <v>       0.45454545       0.27272727      -0.00000000 </v>
   <v>      -0.45454545       0.27272727       0.00000000 </v>
   <v>      -0.36363636       0.27272727       0.00000000 </v>
   <v>      -0.27272727       0.27272727       0.00000000 </v>
   <v>       0.36363636       0.36363636      -0.00000000 </v>
   <v>       0.45454545       0.36363636      -0.00000000 </v>
   <v>      -0.45454545       0.36363636       0.00000000 </v>
   <v>      -0.36363636       0.36363636       0.00000000 </v>
   <v>       0.45454545       0.45454545      -0.00000000 </v>
   <v>      -0.45454545       0.45454545       0.00000000 </v>
   <v>       0.27272727       0.18181818       0.09090909 </v>
   <v>       0.36363636       0.18181818       0.09090909 </v>
   <v>       0.45454545       0.18181818       0.09090909 </v>
   <v>      -0.45454545       0.18181818       0.09090909 </v>
   <v>       0.36363636       0.27272727       0.09090909 </v>
   <v>       0.45454545       0.27272727       0.09090909 </v>
   <v>      -0.45454545       0.27272727       0.09090909 </v>
   <v>      -0.36363636       0.27272727       0.09090909 </v>
   <v>      -0.27272727       0.27272727       0.09090909 </v>
   <v>      -0.18181818       0.27272727       0.09090909 </v>
   <v>       0.45454545       0.36363636       0.09090909 </v>
   <v>      -0.45454545       0.36363636       0.09090909 </v>
   <v>      -0.36363636       0.36363636       0.09090909 </v>
   <v>      -0.27272727       0.36363636       0.09090909 </v>
   <v>      -0.45454545       0.45454545       0.09090909 </v>
   <v>      -0.36363636       0.45454545       0.09090909 </v>
   <v>      -0.45454545       0.36363636       0.18181818 </v>
   <v>      -0.36363636       0.36363636       0.18181818 </v>
   <v>      -0.36363636       0.45454545       0.18181818 </v>
   <v>      -0.27272727       0.45454545       0.18181818 </v>
  </varray>
  <varray name="weights" >
   <v>       0.00075131 </v>
   <v>       0.00601052 </v>
   <v>       0.00601052 </v>
   <v>       0.00601052 </v>
   <v>       0.00601052 </v>
   <v>       0.00601052 </v>
   <v>       0.00450789 </v>
   <v>       0.01803156 </v>
   <v>       0.01803156 </v>
   <v>       0.01803156 </v>
   <v>       0.01803156 </v>
   <v>       0.01803156 </v>
   <v>       0.01803156 </v>
   <v>       0.01803156 </v>
   <v>       0.01803156 </v>
   <v>       0.00901578 </v>
   <v>       0.00450789 </v>
   <v>       0.01803156 </v>
   <v>       0.01803156 </v>
   <v>       0.01803156 </v>
   <v>       0.01803156 </v>
   <v>       0.01803156 </v>
   <v>       0.01803156 </v>
   <v>       0.00901578 </v>
   <v>       0.00450789 </v>
   <v>       0.01803156 </v>
   <v>       0.01803156 </v>
   <v>       0.01803156 </v>
   <v>       0.01803156 </v>
   <v>       0.00901578 </v>
   <v>       0.00450789 </v>
   <v>       0.01803156 </v>
   <v>       0.01803156 </v>
   <v>       0.00901578 </v>
   <v>       0.00450789 </v>
   <v>       0.00901578 </v>
   <v>       0.01803156 </v>
   <v>       0.03606311 </v>
   <v>       0.03606311 </v>
   <v>       0.03606311 </v>
   <v>       0.01803156 </v>
   <v>       0.03606311 </v>
   <v>       0.03606311 </v>
   <v>       0.03606311 </v>
   <v>       0.03606311 </v>
   <v>       0.01803156 </v>
   <v>       0.01803156 </v>
   <v>       0.03606311 </v>
   <v>       0.03606311 </v>
   <v>       0.01803156 </v>
   <v>       0.01803156 </v>
   <v>       0.01803156 </v>
   <v>       0.01803156 </v>
   <v>       0.03606311 </v>
   <v>       0.01803156 </v>
   <v>       0.01803156 </v>
  </varray>
 </kpoints>
 <parameters>
  <separator name="general" >
   <i type="string" name="SYSTEM">diamond Si</i>
   <i type="logical" name="LCOMPAT"> F  </i>
  </separator>
  <separator name="electronic" >
   <i type="string" name="PREC">normal</i>
   <i name="ENMAX">    240.00000000</i>
   <i name="ENAUG">    322.06900000</i>
   <i name="EDIFF">      0.00010000</i>
   <i type="int" name="IALGO">    38</i>
   <i type="int" name="IWAVPR">    10</i>
   <i type="int" name="NBANDS">     8</i>
   <i type="int" name="NBANDSLOW">    -1</i>
   <i type="int" name="NBANDSHIGH">    -1</i>
   <i name="NELECT">      8.00000000</i>
   <i type="int" name="TURBO">     0</i>
   <i type="int" name="IRESTART">     0</i>
   <i type="int" name="NREBOOT">     0</i>
   <i type="int" name="NMIN">     0</i>
   <i name="EREF">      0.00000000</i>
   <separator name="electronic smearing" >
    <i type="int" name="ISMEAR">     0</i>
    <i name="SIGMA">      0.10000000</i>
    <i name="KSPACING">      0.50000000</i>
    <i type="logical" name="KGAMMA"> T  </i>
    <i type="logical" name="KBLOWUP"> T  </i>
   </separator>
   <separator name="electronic projectors" >
    <i type="logical" name="LREAL"> F  </i>
    <v name="ROPT">      0.00000000</v>
    <i type="int" name="LMAXPAW">  -100</i>
    <i type="int" name="LMAXMIX">     2</i>
    <i type="logical" name="NLSPLINE"> F  </i>
   </separator>
   <separator name="electronic startup" >
    <i type="int" name="ISTART">     0</i>
    <i type="int" name="ICHARG">     2</i>
    <i type="int" name="INIWAV">     1</i>
   </separator>
   <separator name="electronic spin" >
    <i type="int" name="ISPIN">     1</i>
    <i type="logical" name="LNONCOLLINEAR"> F  </i>
    <v name="MAGMOM">      1.00000000      1.00000000</v>
    <i name="NUPDOWN">     -1.00000000</i>
    <i type="logical" name="LSORBIT"> F  </i>
    <v name="SAXIS">      0.00000000      0.00000000      1.00000000</v>
    <i type="logical" name="LSPIRAL"> F  </i>
    <v name="QSPIRAL">      0.00000000      0.00000000      0.00000000</v>
    <i type="logical" name="LZEROZ"> F  </i>
   </separator>
   <separator name="electronic exchange-correlation" >
    <i type="logical" name="LASPH"> F  </i>
    <i type="logical" name="LMETAGGA"> F  </i>
   </separator>
   <separator name="electronic convergence" >
    <i type="int" name="NELM">    60</i>
    <i type="int" name="NELMDL">    -5</i>
    <i type="int" name="NELMIN">     2</i>
    <i name="ENINI">    240.00000000</i>
    <separator name="electronic convergence detail" >
     <i type="logical" name="LDIAG"> T  </i>
     <i type="logical" name="LSUBROT"> F  </i>
     <i name="WEIMIN">      0.00000000</i>
     <i name="EBREAK">      0.00000313</i>
     <i name="DEPER">      0.30000000</i>
     <i type="int" name="NRMM">     4</i>
     <i name="TIME">      0.40000000</i>
    </separator>
   </separator>
   <separator name="electronic mixer" >
    <i name="AMIX">      0.40000000</i>
    <i name="BMIX">      1.00000000</i>
    <i name="AMIN">      0.10000000</i>
    <i name="AMIX_MAG">      1.60000000</i>
    <i name="BMIX_MAG">      1.00000000</i>
    <separator name="electronic mixer details" >
     <i type="int" name="IMIX">     4</i>
     <i type="logical" name="MIXFIRST"> F  </i>
     <i type="int" name="MAXMIX">   -45</i>
     <i name="WC">    100.00000000</i>
     <i type="int" name="INIMIX">     1</i>
     <i type="int" name="MIXPRE">     1</i>
     <i type="int" name="MREMOVE">     5</i>
    </separator>
   </separator>
   <separator name="electronic dipolcorrection" >
    <i type="logical" name="LDIPOL"> F  </i>
    <i type="logical" name="LMONO"> F  </i>
    <i type="int" name="IDIPOL">     0</i>
    <i name="EPSILON">      1.00000000</i>
    <v name="DIPOL">   -100.00000000   -100.00000000   -100.00000000</v>
    <i name="EFIELD">      0.00000000</i>
   </separator>
  </separator>
  <separator name="grids" >
   <i type="int" name="NGX">    14</i>
   <i type="int" name="NGY">    14</i>
   <i type="int" name="NGZ">    14</i>
   <i type="int" name="NGXF">    28</i>
   <i type="int" name="NGYF">    28</i>
   <i type="int" name="NGZF">    28</i>
   <i type="logical" name="ADDGRID"> F  </i>
  </separator>
  <separator name="ionic" >
   <i type="int" name="NSW">     0</i>
   <i type="int" name="IBRION">    -1</i>
   <i type="int" name="MDALGO">     0</i>
   <i type="int" name="ISIF">     2</i>
   <i name="PSTRESS">      0.00000000</i>
   <i name="EDIFFG">      0.00100000</i>
   <i type="int" name="NFREE">     0</i>
   <i name="POTIM">      0.50000000</i>
   <i name="SMASS">     -3.00000000</i>
   <i name="SCALEE">      1.00000000</i>
  </separator>
  <separator name="ionic md" >
   <i name="TEBEG">      0.00010000</i>
   <i name="TEEND">      0.00010000</i>
   <i type="int" name="NBLOCK">     1</i>
   <i type="int" name="KBLOCK">     1</i>
   <i type="int" name="NPACO">   256</i>
   <i name="APACO">     10.00000000</i>
  </separator>
  <separator name="symmetry" >
   <i type="int" name="ISYM">     2</i>
   <i name="SYMPREC">      0.00001000</i>
  </separator>
  <separator name="dos" >
   <i type="int" name="LORBIT">     0</i>
   <v name="RWIGS">     -1.00000000</v>
   <i type="int" name="NEDOS">   301</i>
   <i name="EMIN">     10.00000000</i>
   <i name="EMAX">    -10.00000000</i>
   <i name="EFERMI">      0.00000000</i>
  </separator>
  <separator name="writing" >
   <i type="int" name="NWRITE">     2</i>
   <i type="logical" name="LWAVE"> T  </i>
   <i type="logical" name="LDOWNSAMPLE"> F  </i>
   <i type="logical" name="LCHARG"> T  </i>
   <i type="logical" name="LPARD"> F  </i>
   <i type="logical" name="LVTOT"> F  </i>
   <i type="logical" name="LVHAR"> F  </i>
   <i type="logical" name="LELF"> F  </i>
   <i type="logical" name="LOPTICS"> F  </i>
   <v name="STM">      0.00000000      0.00000000      0.00000000      0.00000000      0.00000000      0.00000000      0.00000000</v>
  </separator>
  <separator name="performance" >
   <i type="int" name="NPAR">     4</i>
   <i type="int" name="NSIM">     4</i>
   <i type="int" name="NBLK">    -1</i>
   <i type="logical" name="LPLANE"> T  </i>
   <i type="logical" name="LSCALAPACK"> T  </i>
   <i type="logical" name="LSCAAWARE"> F  </i>
   <i type="logical" name="LSCALU"> F  </i>
   <i type="logical" name="LASYNC"> F  </i>
   <i type="logical" name="LORBITALREAL"> F  </i>
  </separator>
  <separator name="miscellaneous" >
   <i type="int" name="IDIOT">     3</i>
   <i type="int" name="PHON_NSTRUCT">    -1</i>
   <i type="logical" name="LMUSIC"> F  </i>
   <v name="POMASS">     28.08500000</v>
   <v name="DARWINR">      0.00000000</v>
   <v name="DARWINV">      1.00000000</v>
   <i type="logical" name="LCORR"> T  </i>
  </separator>
  <i type="logical" name="GGA_COMPAT"> T  </i>
  <i type="logical" name="LBERRY"> F  </i>
  <i type="int" name="ICORELEVEL">     0</i>
  <i type="logical" name="LDAU"> F  </i>
  <i type="int" name="I_CONSTRAINED_M">     0</i>
  <separator name="electronic exchange-correlation" >
   <i type="string" name="GGA">--</i>
   <i type="int" name="VOSKOWN">     0</i>
   <i type="logical" name="LHFCALC"> F  </i>
   <i type="string" name="PRECFOCK"></i>
   <i type="logical" name="LSYMGRAD"> F  </i>
   <i type="logical" name="LHFONE"> F  </i>
   <i type="logical" name="LRHFCALC"> F  </i>
   <i type="logical" name="LTHOMAS"> F  </i>
   <i type="logical" name="LMODELHF"> F  </i>
   <i type="logical" name="LFOCKACE"> F  </i>
   <i name="ENCUT4O">     -1.00000000</i>
   <i type="int" name="EXXOEP">     0</i>
   <i type="int" name="FOURORBIT">     0</i>
   <i name="AEXX">      0.00000000</i>
   <i name="HFALPHA">      0.00000000</i>
   <i name="MCALPHA">      0.00000000</i>
   <i name="ALDAX">      1.00000000</i>
   <i name="AGGAX">      1.00000000</i>
   <i name="ALDAC">      1.00000000</i>
   <i name="AGGAC">      1.00000000</i>
   <i type="int" name="NKREDX">     1</i>
   <i type="int" name="NKREDY">     1</i>
   <i type="int" name="NKREDZ">     1</i>
   <i type="logical" name="SHIFTRED"> F  </i>
   <i type="logical" name="ODDONLY"> F  </i>
   <i type="logical" name="EVENONLY"> F  </i>
   <i type="int" name="LMAXFOCK">     0</i>
   <i type="int" name="NMAXFOCKAE">     0</i>
   <i type="logical" name="LFOCKAEDFT"> F  </i>
   <i name="HFSCREEN">      0.00000000</i>
   <i name="HFSCREENC">      0.00000000</i>
   <i type="int" name="NBANDSGWLOW">     0</i>
  </separator>
  <separator name="vdW DFT" >
   <i type="logical" name="LUSE_VDW"> F  </i>
   <i name="Zab_VDW">     -0.84910000</i>
   <i name="PARAM1">      0.12340000</i>
   <i name="PARAM2">      1.00000000</i>
   <i name="PARAM3">      0.00000000</i>
  </separator>
  <separator name="model GW" >
   <i type="int" name="MODEL_GW">     0</i>
   <i name="MODEL_EPS0">      9.94882500</i>
   <i name="MODEL_ALPHA">      1.00000000</i>
  </separator>
  <separator name="linear response parameters" >
   <i type="logical" name="LEPSILON"> F  </i>
   <i type="logical" name="LRPA"> F  </i>
   <i type="logical" name="LNABLA"> F  </i>
   <i type="logical" name="LVEL"> F  </i>
   <i name="CSHIFT">      0.10000000</i>
   <i name="OMEGAMAX">     -1.00000000</i>
   <i name="DEG_THRESHOLD">      0.00200000</i>
   <i name="RTIME">     -0.10000000</i>
   <i name="WPLASMAI">      0.00000000</i>
   <v name="DFIELD">      0.00000000      0.00000000      0.00000000</v>
   <v name="WPLASMA">      0.00000000      0.00000000      0.00000000      0.00000000      0.00000000      0.00000000      0.00000000      0.00000000      0.00000000</v>
  </separator>
  <separator name="orbital magnetization" >
   <i type="logical" name="NUCIND"> F  </i>
   <v name="MAGPOS">      0.00000000      0.00000000      0.00000000</v>
   <i type="logical" name="LNICSALL"> T  </i>
   <i type="logical" name="ORBITALMAG"> F  </i>
   <i type="logical" name="LMAGBLOCH"> F  </i>
   <i type="logical" name="LCHIMAG"> F  </i>
   <i type="logical" name="LGAUGE"> T  </i>
   <i type="int" name="MAGATOM">     0</i>
   <v name="MAGDIPOL">      0.00000000      0.00000000      0.00000000</v>
   <v name="AVECCONST">      0.00000000      0.00000000      0.00000000</v>
  </separator>
  <separator name="response functions" >
   <i type="logical" name="LFINITE_TEMPERATURE"> F  </i>
   <i type="logical" name="LADDER"> F  </i>
   <i type="logical" name="LRPAFORCE"> F  </i>
   <i type="logical" name="LFXC"> F  </i>
   <i type="logical" name="LHARTREE"> T  </i>
   <i type="int" name="IBSE">     0</i>
   <v type="int" name="KPOINT">    -1     0     0     0</v>
   <i type="logical" name="LTCTC"> F  </i>
   <i type="logical" name="LTCTE"> F  </i>
   <i type="logical" name="LTETE"> F  </i>
   <i type="logical" name="LTRIPLET"> F  </i>
   <i type="logical" name="LFXCEPS"> F  </i>
   <i type="logical" name="LFXHEG"> F  </i>
   <i type="int" name="NATURALO">     2</i>
   <i type="logical" name="LHOLEGF"> F  </i>
   <i type="logical" name="L2ORDER"> F  </i>
   <i type="logical" name="LDMP1"> F  </i>
   <i type="logical" name="LMP2LT"> F  </i>
   <i type="logical" name="LSMP2LT"> F  </i>
   <i type="logical" name="LGWLF"> F  </i>
   <i name="ENCUTGW">     -2.00000000</i>
   <i name="ENCUTGWSOFT">     -2.00000000</i>
   <i name="ENCUTLF">     -1.00000000</i>
   <i type="logical" name="LESF_SPLINES"> F  </i>
   <i type="int" name="LMAXMP2">    -1</i>
   <i name="SCISSOR">      0.00000000</i>
   <i type="int" name="NOMEGA">     0</i>
   <i type="int" name="NOMEGAR">     0</i>
   <i type="int" name="NBANDSGW">    -1</i>
   <i type="int" name="NBANDSO">    -1</i>
   <i type="int" name="NBANDSV">    -1</i>
   <i type="int" name="NELMGW">     1</i>
   <i type="int" name="NELMHF">     1</i>
   <i type="int" name="DIM">     3</i>
   <i type="int" name="IESPILON">     4</i>
   <i type="int" name="ANTIRES">     0</i>
   <i name="OMEGAMAX">    -30.00000000</i>
   <i name="OMEGAMIN">    -30.00000000</i>
   <i name="OMEGATL">   -200.00000000</i>
   <i type="int" name="OMEGAGRID">     0</i>
   <i name="CSHIFT">     -0.10000000</i>
   <i type="logical" name="LSELFENERGY"> F  </i>
   <i type="logical" name="LSPECTRAL"> F  </i>
   <i type="logical" name="LSPECTRALGW"> F  </i>
   <i type="logical" name="LSINGLES"> F  </i>
   <i type="logical" name="LFERMIGW"> F  </i>
   <i type="logical" name="ODDONLYGW"> F  </i>
   <i type="logical" name="EVENONLYGW"> F  </i>
   <i type="int" name="NKREDLFX">     1</i>
   <i type="int" name="NKREDLFY">     1</i>
   <i type="int" name="NKREDLFZ">     1</i>
   <i type="int" name="MAXMEM">  2800</i>
   <i type="int" name="TELESCOPE">     0</i>
   <i type="int" name="NTAUPAR">    -1</i>
   <i type="int" name="NOMEGAPAR">    -1</i>
   <i name="DAMP_NEWTON">      0.80000001</i>
   <i name="LAMBDA">      1.00000000</i>
  </separator>
  <separator name="External order field" >
   <i name="OFIELD_KAPPA">      0.00000000</i>
   <v name="OFIELD_K">      0.00000000      0.00000000      0.00000000</v>
   <i name="OFIELD_Q6_NEAR">      0.00000000</i>
   <i name="OFIELD_Q6_FAR">      0.00000000</i>
   <i name="OFIELD_A">      0.00000000</i>
  </separator>
  <separator name="optional k-points parameters" >
   <i type="int" name="KPOINTS_OPT_MODE">     1</i>
   <i type="logical" name="LKPOINTS_OPT"> F  </i>
  </separator>
 </parameters>
 <atominfo>
  <atoms>       2 </atoms>
  <types>       1 </types>
  <array name="atoms" >
   <dimension dim="1">ion</dimension>
   <field type="string">element</field>
   <field type="int">atomtype</field>
   <set>
    <rc><c>Si</c><c>   1</c></rc>
    <rc><c>Si</c><c>   1</c></rc>
   </set>
  </array>
  <array name="atomtypes" >
   <dimension dim="1">type</dimension>
   <field type="int">atomspertype</field>
   <field type="string">element</field>
   <field>mass</field>
   <field>valence</field>
   <field type="string">pseudopotential</field>
   <set>
    <rc><c>   2</c><c>Si</c><c>     28.08500000</c><c>      4.00000000</c><c>  PAW_PBE Si 05Jan2001                  </c></rc>
   </set>
  </array>
 </atominfo>
 <structure name="initialpos" >
  <crystal>
   <varray name="basis" >
    <v>       0.00000000       2.55000000       2.55000000 </v>
    <v>       2.55000000       0.00000000       2.55000000 </v>
    <v>       2.55000000       2.55000000       0.00000000 </v>
   </varray>
   <i name="volume">     33.16275000 </i>
   <varray name="rec_basis" >
    <v>      -0.19607843       0.19607843       0.19607843 </v>
    <v>       0.19607843      -0.19607843       0.19607843 </v>
    <v>       0.19607843       0.19607843      -0.19607843 </v>
   </varray>
  </crystal>
  <varray name="positions" >
   <v>       0.87500000       0.87500000       0.87500000 </v>
   <v>       0.12500000       0.12500000       0.12500000 </v>
  </varray>
 </structure>
 <calculation>
  <scstep>
   <time name="dav">    0.07    0.07</time>
   <time name="total">    0.07    0.08</time>
   <energy>
    <i name="alphaZ">      4.06035456 </i>
    <i name="ewald">   -243.35292948 </i>
    <i name="hartreedc">     -8.36381138 </i>
    <i name="XCdc">    -17.82043379 </i>
    <i name="pawpsdc">    176.24759923 </i>
    <i name="pawaedc">   -141.06103558 </i>
    <i name="eentropy">     -0.00263766 </i>
    <i name="bandstr">     22.18011504 </i>
    <i name="atom">    206.12155316 </i>
    <i name="e_fr_energy">     -1.99122590 </i>
    <i name="e_wo_entrp">     -1.98858824 </i>
    <i name="e_0_energy">     -1.98990707 </i>
   </energy>
  </scstep>
  <scstep>
   <time name="dav">    0.11    0.11</time>
   <time name="total">    0.11    0.11</time>
   <energy>
    <i name="e_fr_energy">    -10.47644154 </i>
    <i name="e_wo_entrp">    -10.47644151 </i>
    <i name="e_0_energy">    -10.47644153 </i>
   </energy>
  </scstep>
  <scstep>
   <time name="dav">    0.08    0.08</time>
   <time name="total">    0.08    0.08</time>
   <energy>
    <i name="e_fr_energy">    -10.54663364 </i>
    <i name="e_wo_entrp">    -10.54663361 </i>
    <i name="e_0_energy">    -10.54663363 </i>
   </energy>
  </scstep>
  <scstep>
   <time name="dav">    0.11    0.11</time>
   <time name="total">    0.11    0.11</time>
   <energy>
    <i name="e_fr_energy">    -10.54678424 </i>
    <i name="e_wo_entrp">    -10.54678422 </i>
    <i name="e_0_energy">    -10.54678423 </i>
   </energy>
  </scstep>
  <scstep>
   <time name="dav">    0.09    0.09</time>
   <time name="total">    0.09    0.09</time>
   <energy>
    <i name="e_fr_energy">    -10.54678432 </i>
    <i name="e_wo_entrp">    -10.54678430 </i>
    <i name="e_0_energy">    -10.54678431 </i>
   </energy>
  </scstep>
  <scstep>
   <time name="dav">    0.07    0.07</time>
   <time name="total">    0.08    0.08</time>
   <energy>
    <i name="e_fr_energy">    -10.32355771 </i>
    <i name="e_wo_entrp">    -10.32355120 </i>
    <i name="e_0_energy">    -10.32355445 </i>
   </energy>
  </scstep>
  <scstep>
   <time name="dav">    0.08    0.08</time>
   <time name="total">    0.09    0.09</time>
   <energy>
    <i name="e_fr_energy">    -10.23317369 </i>
    <i name="e_wo_entrp">    -10.23292943 </i>
    <i name="e_0_energy">    -10.23305156 </i>
   </energy>
  </scstep>
  <scstep>
   <time name="dav">    0.07    0.07</time>
   <time name="total">    0.08    0.08</time>
   <energy>
    <i name="e_fr_energy">    -10.23369047 </i>
    <i name="e_wo_entrp">    -10.23350535 </i>
    <i name="e_0_energy">    -10.23359791 </i>
   </energy>
  </scstep>
  <scstep>
   <time name="dav">    0.09    0.09</time>
   <time name="total">    0.10    0.10</time>
   <energy>
    <i name="e_fr_energy">    -10.23381679 </i>
    <i name="e_wo_entrp">    -10.23363249 </i>
    <i name="e_0_energy">    -10.23372464 </i>
   </energy>
  </scstep>
  <scstep>
   <time name="dav">    0.04    0.05</time>
   <time name="total">    0.05    0.05</time>
   <energy>
    <i name="alphaZ">      4.06035456 </i>
    <i name="ewald">   -243.35292948 </i>
    <i name="hartreedc">    -12.74350597 </i>
    <i name="XCdc">    -17.05247975 </i>
    <i name="pawpsdc">   1620.49598900 </i>
    <i name="pawaedc">  -1585.74576818 </i>
    <i name="eentropy">     -0.00018091 </i>
    <i name="bandstr">     17.98312979 </i>
    <i name="atom">    206.12155316 </i>
    <i name="e_fr_energy">    -10.23383779 </i>
    <i name="e_wo_entrp">    -10.23365688 </i>
    <i name="e_0_energy">    -10.23374734 </i>
   </energy>
  </scstep>
  <structure>
   <crystal>
    <varray name="basis" >
     <v>       0.00000000       2.55000000       2.55000000 </v>
     <v>       2.55000000       0.00000000       2.55000000 </v>
     <v>       2.55000000       2.55000000       0.00000000 </v>
    </varray>
    <i name="volume">     33.16275000 </i>
    <varray name="rec_basis" >
     <v>      -0.19607843       0.19607843       0.19607843 </v>
     <v>       0.19607843      -0.19607843       0.19607843 </v>
     <v>       0.19607843       0.19607843      -0.19607843 </v>
    </varray>
   </crystal>
   <varray name="positions" >
    <v>       0.87500000       0.87500000       0.87500000 </v>
    <v>       0.12500000       0.12500000       0.12500000 </v>
   </varray>
  </structure>
  <varray name="forces" >
   <v>       0.00000000       0.00000000       0.00000000 </v>
   <v>      -0.00000000      -0.00000000      -0.00000000 </v>
  </varray>
  <varray name="stress" >
   <v>     285.04094340       0.00000000      -0.00000000 </v>
   <v>      -0.00000000     285.04094340      -0.00000000 </v>
   <v>       0.00000000      -0.00000000     285.04094340 </v>
  </varray>
  <energy>
   <i name="e_fr_energy">    -10.23383779 </i>
   <i name="e_wo_entrp">    -10.23365688 </i>
   <i name="e_0_energy">    -10.23374734 </i>
  </energy>
  <time name="totalsc">    0.98    1.00</time>
  <eigenvalues>
   <array>
    <dimension dim="1">band</dimension>
    <dimension dim="2">kpoint</dimension>
    <dimension dim="3">spin</dimension>
    <field>eigene</field>
    <field>occ</field>
    <set>
     <set comment="spin 1">
      <set comment="kpoint 1">
       <r>   -5.4599    1.0000 </r>
       <r>    7.9246    0.8413 </r>
       <r>    7.9246    0.8412 </r>
       <r>    7.9246    0.8412 </r>
       <r>   10.5506    0.0000 </r>
       <r>   10.5506    0.0000 </r>
       <r>   10.5506    0.0000 </r>
       <r>   13.5840    0.0000 </r>
      </set>
      <set comment="kpoint 2">
       <r>   -5.3332    1.0000 </r>
       <r>    6.8693    1.0000 </r>
       <r>    7.7195    1.0000 </r>
       <r>    7.7195    1.0000 </r>
       <r>   10.8052    0.0000 </r>
       <r>   10.8520    0.0000 </r>
       <r>   10.8520    0.0000 </r>
       <r>   14.1504    0.0000 </r>
      </set>
      <set comment="kpoint 3">
       <r>   -4.9561    1.0000 </r>
       <r>    4.9976    1.0000 </r>
       <r>    7.3166    1.0000 </r>
       <r>    7.3166    1.0000 </r>
       <r>   10.7514    0.0000 </r>
       <r>   11.3881    0.0000 </r>
       <r>   11.3881    0.0000 </r>
       <r>   15.0082    0.0000 </r>
      </set>
      <set comment="kpoint 4">
       <r>   -4.3443    1.0000 </r>
       <r>    3.0988    1.0000 </r>
       <r>    6.9501    1.0000 </r>
       <r>    6.9502    1.0000 </r>
       <r>   10.4986    0.0000 </r>
       <r>   11.5474    0.0000 </r>
       <r>   11.5476    0.0000 </r>
       <r>   15.4286    0.0000 </r>
      </set>
      <set comment="kpoint 5">
       <r>   -3.5439    1.0000 </r>
       <r>    1.3962    1.0000 </r>
       <r>    6.6957    1.0000 </r>
       <r>    6.6957    1.0000 </r>
       <r>   10.2744    0.0000 </r>
       <r>   11.3422    0.0000 </r>
       <r>   11.3423    0.0000 </r>
       <r>   16.1634    0.0000 </r>
      </set>
      <set comment="kpoint 6">
       <r>   -2.7593    1.0000 </r>
       <r>    0.1509    1.0000 </r>
       <r>    6.5685    1.0000 </r>
       <r>    6.5686    1.0000 </r>
       <r>   10.1552    0.0000 </r>
       <r>   11.1580    0.0000 </r>
       <r>   11.1582    0.0000 </r>
       <r>   15.8890    0.0000 </r>
      </set>
      <set comment="kpoint 7">
       <r>   -5.2906    1.0000 </r>
       <r>    7.2302    1.0000 </r>
       <r>    7.3004    1.0000 </r>
       <r>    7.3004    1.0000 </r>
       <r>   10.1714    0.0000 </r>
       <r>   11.3789    0.0000 </r>
       <r>   11.3789    0.0000 </r>
       <r>   13.9299    0.0000 </r>
      </set>
      <set comment="kpoint 8">
       <r>   -4.9964    1.0000 </r>
       <r>    5.6263    1.0000 </r>
       <r>    6.8257    1.0000 </r>
       <r>    7.1581    1.0000 </r>
       <r>   10.2385    0.0000 </r>
       <r>   11.7506    0.0000 </r>
       <r>   12.0681    0.0000 </r>
       <r>   13.4770    0.0000 </r>
      </set>
      <set comment="kpoint 9">
       <r>   -4.4608    1.0000 </r>
       <r>    3.7582    1.0000 </r>
       <r>    6.4619    1.0000 </r>
       <r>    6.7390    1.0000 </r>
       <r>   10.5202    0.0000 </r>
       <r>   11.7050    0.0000 </r>
       <r>   12.3792    0.0000 </r>
       <r>   13.4137    0.0000 </r>
      </set>
      <set comment="kpoint 10">
       <r>   -3.7147    1.0000 </r>
       <r>    1.9963    1.0000 </r>
       <r>    6.2618    1.0000 </r>
       <r>    6.3005    1.0000 </r>
       <r>   10.4891    0.0000 </r>
       <r>   11.5047    0.0000 </r>
       <r>   12.1521    0.0000 </r>
       <r>   14.3885    0.0000 </r>
      </set>
      <set comment="kpoint 11">
       <r>   -2.8764    1.0000 </r>
       <r>    0.5579    1.0000 </r>
       <r>    5.9473    1.0000 </r>
       <r>    6.2343    1.0000 </r>
       <r>   10.4170    0.0000 </r>
       <r>   11.3303    0.0000 </r>
       <r>   11.7850    0.0000 </r>
       <r>   15.8423    0.0000 </r>
      </set>
      <set comment="kpoint 12">
       <r>   -2.5116    1.0000 </r>
       <r>    0.0416    1.0000 </r>
       <r>    5.7223    1.0000 </r>
       <r>    6.3711    1.0000 </r>
       <r>   10.4853    0.0000 </r>
       <r>   11.3040    0.0000 </r>
       <r>   11.5429    0.0000 </r>
       <r>   16.4279    0.0000 </r>
      </set>
      <set comment="kpoint 13">
       <r>   -3.1498    1.0000 </r>
       <r>    0.9847    1.0000 </r>
       <r>    5.6528    1.0000 </r>
       <r>    6.6495    1.0000 </r>
       <r>   10.6902    0.0000 </r>
       <r>   11.4613    0.0000 </r>
       <r>   11.4810    0.0000 </r>
       <r>   16.3154    0.0000 </r>
      </set>
      <set comment="kpoint 14">
       <r>   -3.9845    1.0000 </r>
       <r>    2.5637    1.0000 </r>
       <r>    5.7590    1.0000 </r>
       <r>    7.0344    1.0000 </r>
       <r>   10.9579    0.0000 </r>
       <r>   11.5158    0.0000 </r>
       <r>   11.7533    0.0000 </r>
       <r>   14.8244    0.0000 </r>
      </set>
      <set comment="kpoint 15">
       <r>   -4.6659    1.0000 </r>
       <r>    4.3730    1.0000 </r>
       <r>    6.0615    1.0000 </r>
       <r>    7.4655    1.0000 </r>
       <r>   11.2134    0.0000 </r>
       <r>   11.3286    0.0000 </r>
       <r>   11.8082    0.0000 </r>
       <r>   14.2117    0.0000 </r>
      </set>
      <set comment="kpoint 16">
       <r>   -5.1226    1.0000 </r>
       <r>    6.0620    1.0000 </r>
       <r>    6.6789    1.0000 </r>
       <r>    7.7817    0.9987 </r>
       <r>   10.8892    0.0000 </r>
       <r>   11.1656    0.0000 </r>
       <r>   11.3852    0.0000 </r>
       <r>   14.5240    0.0000 </r>
      </set>
      <set comment="kpoint 17">
       <r>   -4.7856    1.0000 </r>
       <r>    5.7205    1.0000 </r>
       <r>    6.3016    1.0000 </r>
       <r>    6.3017    1.0000 </r>
       <r>    9.3936    0.0000 </r>
       <r>   12.2348    0.0000 </r>
       <r>   12.9740    0.0000 </r>
       <r>   12.9740    0.0000 </r>
      </set>
      <set comment="kpoint 18">
       <r>   -4.3296    1.0000 </r>
       <r>    4.3127    1.0000 </r>
       <r>    5.8980    1.0000 </r>
       <r>    5.9027    1.0000 </r>
       <r>    9.4580    0.0000 </r>
       <r>   11.6038    0.0000 </r>
       <r>   13.3983    0.0000 </r>
       <r>   13.5994    0.0000 </r>
      </set>
      <set comment="kpoint 19">
       <r>   -3.6495    1.0000 </r>
       <r>    2.6572    1.0000 </r>
       <r>    5.3093    1.0000 </r>
       <r>    5.6834    1.0000 </r>
       <r>    9.6762    0.0000 </r>
       <r>   12.0000    0.0000 </r>
       <r>   13.3596    0.0000 </r>
       <r>   13.5354    0.0000 </r>
      </set>
      <set comment="kpoint 20">
       <r>   -2.8161    1.0000 </r>
       <r>    1.1539    1.0000 </r>
       <r>    4.7577    1.0000 </r>
       <r>    5.6596    1.0000 </r>
       <r>    9.6910    0.0000 </r>
       <r>   12.8016    0.0000 </r>
       <r>   13.1323    0.0000 </r>
       <r>   13.7999    0.0000 </r>
      </set>
      <set comment="kpoint 21">
       <r>   -2.1789    1.0000 </r>
       <r>    0.2445    1.0000 </r>
       <r>    4.3505    1.0000 </r>
       <r>    5.8288    1.0000 </r>
       <r>    9.8366    0.0000 </r>
       <r>   12.7562    0.0000 </r>
       <r>   12.8022    0.0000 </r>
       <r>   15.5263    0.0000 </r>
      </set>
      <set comment="kpoint 22">
       <r>   -2.5583    1.0000 </r>
       <r>    0.7736    1.0000 </r>
       <r>    4.1363    1.0000 </r>
       <r>    6.1714    1.0000 </r>
       <r>   10.2014    0.0000 </r>
       <r>   12.5225    0.0000 </r>
       <r>   12.7528    0.0000 </r>
       <r>   16.0773    0.0000 </r>
      </set>
      <set comment="kpoint 23">
       <r>   -3.3955    1.0000 </r>
       <r>    2.1535    1.0000 </r>
       <r>    4.1679    1.0000 </r>
       <r>    6.6435    1.0000 </r>
       <r>   10.7419    0.0000 </r>
       <r>   12.3623    0.0000 </r>
       <r>   12.7114    0.0000 </r>
       <r>   14.4841    0.0000 </r>
      </set>
      <set comment="kpoint 24">
       <r>   -4.1357    1.0000 </r>
       <r>    3.5836    1.0000 </r>
       <r>    4.6612    1.0000 </r>
       <r>    7.1491    1.0000 </r>
       <r>   11.2990    0.0000 </r>
       <r>   11.9009    0.0000 </r>
       <r>   12.3344    0.0000 </r>
       <r>   13.8511    0.0000 </r>
      </set>
      <set comment="kpoint 25">
       <r>   -3.9536    1.0000 </r>
       <r>    3.9409    1.0000 </r>
       <r>    5.4572    1.0000 </r>
       <r>    5.4572    1.0000 </r>
       <r>    8.6749    0.0000 </r>
       <r>   10.4573    0.0000 </r>
       <r>   14.7826    0.0000 </r>
       <r>   14.7826    0.0000 </r>
      </set>
      <set comment="kpoint 26">
       <r>   -3.3461    1.0000 </r>
       <r>    2.8217    1.0000 </r>
       <r>    4.8077    1.0000 </r>
       <r>    5.1910    1.0000 </r>
       <r>    8.8057    0.0000 </r>
       <r>   10.1612    0.0000 </r>
       <r>   15.2050    0.0000 </r>
       <r>   15.2558    0.0000 </r>
      </set>
      <set comment="kpoint 27">
       <r>   -2.5508    1.0000 </r>
       <r>    1.5738    1.0000 </r>
       <r>    3.9363    1.0000 </r>
       <r>    5.1272    1.0000 </r>
       <r>    8.9524    0.0000 </r>
       <r>   11.1445    0.0000 </r>
       <r>   14.9019    0.0000 </r>
       <r>   15.2107    0.0000 </r>
      </set>
      <set comment="kpoint 28">
       <r>   -1.7664    1.0000 </r>
       <r>    0.5490    1.0000 </r>
       <r>    3.2572    1.0000 </r>
       <r>    5.2682    1.0000 </r>
       <r>    9.1009    0.0000 </r>
       <r>   12.8064    0.0000 </r>
       <r>   14.4718    0.0000 </r>
       <r>   15.1193    0.0000 </r>
      </set>
      <set comment="kpoint 29">
       <r>   -1.8225    1.0000 </r>
       <r>    0.6371    1.0000 </r>
       <r>    2.8912    1.0000 </r>
       <r>    5.6019    1.0000 </r>
       <r>    9.4702    0.0000 </r>
       <r>   14.0957    0.0000 </r>
       <r>   14.1198    0.0000 </r>
       <r>   15.6786    0.0000 </r>
      </set>
      <set comment="kpoint 30">
       <r>   -2.6193    1.0000 </r>
       <r>    1.5780    1.0000 </r>
       <r>    3.0473    1.0000 </r>
       <r>    6.0908    1.0000 </r>
       <r>   10.0525    0.0000 </r>
       <r>   13.5802    0.0000 </r>
       <r>   13.9122    0.0000 </r>
       <r>   14.6290    0.0000 </r>
      </set>
      <set comment="kpoint 31">
       <r>   -2.8113    1.0000 </r>
       <r>    2.0797    1.0000 </r>
       <r>    4.8696    1.0000 </r>
       <r>    4.8696    1.0000 </r>
       <r>    8.2124    0.0011 </r>
       <r>    9.1653    0.0000 </r>
       <r>   16.6998    0.0000 </r>
       <r>   16.6998    0.0000 </r>
      </set>
      <set comment="kpoint 32">
       <r>   -2.0716    1.0000 </r>
       <r>    1.1332    1.0000 </r>
       <r>    4.1786    1.0000 </r>
       <r>    4.7500    1.0000 </r>
       <r>    8.4017    0.0000 </r>
       <r>    9.2856    0.0000 </r>
       <r>   16.9137    0.0000 </r>
       <r>   17.1895    0.0000 </r>
      </set>
      <set comment="kpoint 33">
       <r>   -1.2376    1.0000 </r>
       <r>    0.2867    1.0000 </r>
       <r>    3.1781    1.0000 </r>
       <r>    4.8405    1.0000 </r>
       <r>    8.5595    0.0000 </r>
       <r>   10.7326    0.0000 </r>
       <r>   16.5128    0.0000 </r>
       <r>   17.1042    0.0000 </r>
      </set>
      <set comment="kpoint 34">
       <r>   -1.0965    1.0000 </r>
       <r>    0.2009    1.0000 </r>
       <r>    2.5626    1.0000 </r>
       <r>    5.1332    1.0000 </r>
       <r>    8.8971    0.0000 </r>
       <r>   12.6729    0.0000 </r>
       <r>   15.8935    0.0000 </r>
       <r>   16.4586    0.0000 </r>
      </set>
      <set comment="kpoint 35">
       <r>   -1.3889    1.0000 </r>
       <r>    0.2676    1.0000 </r>
       <r>    4.5698    1.0000 </r>
       <r>    4.5698    1.0000 </r>
       <r>    8.0942    0.0809 </r>
       <r>    8.3940    0.0000 </r>
       <r>   18.6755    0.0000 </r>
       <r>   18.6755    0.0000 </r>
      </set>
      <set comment="kpoint 36">
       <r>   -0.6023    1.0000 </r>
       <r>   -0.4978    1.0000 </r>
       <r>    3.9785    1.0000 </r>
       <r>    4.6006    1.0000 </r>
       <r>    8.2704    0.0001 </r>
       <r>    8.9929    0.0000 </r>
       <r>   18.7122    0.0000 </r>
       <r>   18.8462    0.0000 </r>
      </set>
      <set comment="kpoint 37">
       <r>   -4.6218    1.0000 </r>
       <r>    4.7651    1.0000 </r>
       <r>    5.6748    1.0000 </r>
       <r>    7.0019    1.0000 </r>
       <r>   10.2894    0.0000 </r>
       <r>   12.2045    0.0000 </r>
       <r>   12.7201    0.0000 </r>
       <r>   12.7252    0.0000 </r>
      </set>
      <set comment="kpoint 38">
       <r>   -4.0132    1.0000 </r>
       <r>    3.2069    1.0000 </r>
       <r>    5.0812    1.0000 </r>
       <r>    6.6035    1.0000 </r>
       <r>   10.6652    0.0000 </r>
       <r>   11.9300    0.0000 </r>
       <r>   12.8359    0.0000 </r>
       <r>   13.1586    0.0000 </r>
      </set>
      <set comment="kpoint 39">
       <r>   -3.2161    1.0000 </r>
       <r>    1.5924    1.0000 </r>
       <r>    4.8496    1.0000 </r>
       <r>    6.1683    1.0000 </r>
       <r>   10.7425    0.0000 </r>
       <r>   11.4716    0.0000 </r>
       <r>   13.1200    0.0000 </r>
       <r>   14.0333    0.0000 </r>
      </set>
      <set comment="kpoint 40">
       <r>   -2.4293    1.0000 </r>
       <r>    0.3730    1.0000 </r>
       <r>    4.7753    1.0000 </r>
       <r>    5.8939    1.0000 </r>
       <r>   10.7991    0.0000 </r>
       <r>   11.0893    0.0000 </r>
       <r>   13.0234    0.0000 </r>
       <r>   15.7627    0.0000 </r>
      </set>
      <set comment="kpoint 41">
       <r>   -3.7988    1.0000 </r>
       <r>    3.4259    1.0000 </r>
       <r>    4.8309    1.0000 </r>
       <r>    5.7432    1.0000 </r>
       <r>    9.6038    0.0000 </r>
       <r>   11.0695    0.0000 </r>
       <r>   13.5239    0.0000 </r>
       <r>   14.6293    0.0000 </r>
      </set>
      <set comment="kpoint 42">
       <r>   -3.0586    1.0000 </r>
       <r>    2.1317    1.0000 </r>
       <r>    4.1979    1.0000 </r>
       <r>    5.3299    1.0000 </r>
       <r>    9.9590    0.0000 </r>
       <r>   11.5789    0.0000 </r>
       <r>   13.1792    0.0000 </r>
       <r>   15.0670    0.0000 </r>
      </set>
      <set comment="kpoint 43">
       <r>   -2.2215    1.0000 </r>
       <r>    0.8648    1.0000 </r>
       <r>    3.7920    1.0000 </r>
       <r>    5.1256    1.0000 </r>
       <r>   10.0706    0.0000 </r>
       <r>   12.3900    0.0000 </r>
       <r>   13.4521    0.0000 </r>
       <r>   15.0694    0.0000 </r>
      </set>
      <set comment="kpoint 44">
       <r>   -1.8608    1.0000 </r>
       <r>    0.3982    1.0000 </r>
       <r>    3.5131    1.0000 </r>
       <r>    5.2426    1.0000 </r>
       <r>   10.3323    0.0000 </r>
       <r>   12.1773    0.0000 </r>
       <r>   14.6056    0.0000 </r>
       <r>   15.5467    0.0000 </r>
      </set>
      <set comment="kpoint 45">
       <r>   -2.5174    1.0000 </r>
       <r>    1.2919    1.0000 </r>
       <r>    3.4428    1.0000 </r>
       <r>    5.6171    1.0000 </r>
       <r>   10.7883    0.0000 </r>
       <r>   11.9588    0.0000 </r>
       <r>   13.8796    0.0000 </r>
       <r>   14.7213    0.0000 </r>
      </set>
      <set comment="kpoint 46">
       <r>   -3.3432    1.0000 </r>
       <r>    2.4896    1.0000 </r>
       <r>    3.8297    1.0000 </r>
       <r>    6.1409    1.0000 </r>
       <r>   11.3887    0.0000 </r>
       <r>   11.5011    0.0000 </r>
       <r>   12.8139    0.0000 </r>
       <r>   14.2474    0.0000 </r>
      </set>
      <set comment="kpoint 47">
       <r>   -2.6740    1.0000 </r>
       <r>    1.9232    1.0000 </r>
       <r>    4.2677    1.0000 </r>
       <r>    4.7219    1.0000 </r>
       <r>    9.1421    0.0000 </r>
       <r>    9.9063    0.0000 </r>
       <r>   15.0262    0.0000 </r>
       <r>   16.6401    0.0000 </r>
      </set>
      <set comment="kpoint 48">
       <r>   -1.8465    1.0000 </r>
       <r>    0.9566    1.0000 </r>
       <r>    3.4556    1.0000 </r>
       <r>    4.5016    1.0000 </r>
       <r>    9.4650    0.0000 </r>
       <r>   10.9548    0.0000 </r>
       <r>   14.5882    0.0000 </r>
       <r>   17.0560    0.0000 </r>
      </set>
      <set comment="kpoint 49">
       <r>   -1.2272    1.0000 </r>
       <r>    0.3153    1.0000 </r>
       <r>    2.7999    1.0000 </r>
       <r>    4.6524    1.0000 </r>
       <r>    9.7122    0.0000 </r>
       <r>   12.7011    0.0000 </r>
       <r>   14.2731    0.0000 </r>
       <r>   16.0008    0.0000 </r>
      </set>
      <set comment="kpoint 50">
       <r>   -1.7030    1.0000 </r>
       <r>    0.7896    1.0000 </r>
       <r>    2.6682    1.0000 </r>
       <r>    5.0504    1.0000 </r>
       <r>   10.1637    0.0000 </r>
       <r>   13.2956    0.0000 </r>
       <r>   14.2104    0.0000 </r>
       <r>   15.1817    0.0000 </r>
      </set>
      <set comment="kpoint 51">
       <r>   -1.2863    1.0000 </r>
       <r>    0.2915    1.0000 </r>
       <r>    4.0321    1.0000 </r>
       <r>    4.1645    1.0000 </r>
       <r>    9.0027    0.0000 </r>
       <r>    9.2378    0.0000 </r>
       <r>   16.7204    0.0000 </r>
       <r>   18.5458    0.0000 </r>
      </set>
      <set comment="kpoint 52">
       <r>   -0.6301    1.0000 </r>
       <r>   -0.2519    1.0000 </r>
       <r>    3.1586    1.0000 </r>
       <r>    4.2588    1.0000 </r>
       <r>    9.2957    0.0000 </r>
       <r>   10.7510    0.0000 </r>
       <r>   16.2013    0.0000 </r>
       <r>   16.3999    0.0000 </r>
      </set>
      <set comment="kpoint 53">
       <r>   -2.2810    1.0000 </r>
       <r>    1.4377    1.0000 </r>
       <r>    3.3232    1.0000 </r>
       <r>    4.7239    1.0000 </r>
       <r>   11.0785    0.0000 </r>
       <r>   11.4756    0.0000 </r>
       <r>   12.7863    0.0000 </r>
       <r>   16.3994    0.0000 </r>
      </set>
      <set comment="kpoint 54">
       <r>   -1.4850    1.0000 </r>
       <r>    0.5838    1.0000 </r>
       <r>    2.9964    1.0000 </r>
       <r>    4.3161    1.0000 </r>
       <r>   11.3021    0.0000 </r>
       <r>   11.9777    0.0000 </r>
       <r>   13.4364    0.0000 </r>
       <r>   15.5511    0.0000 </r>
      </set>
      <set comment="kpoint 55">
       <r>   -1.0248    1.0000 </r>
       <r>    0.2737    1.0000 </r>
       <r>    3.2299    1.0000 </r>
       <r>    3.6681    1.0000 </r>
       <r>   10.9192    0.0000 </r>
       <r>   11.0636    0.0000 </r>
       <r>   14.1147    0.0000 </r>
       <r>   15.8608    0.0000 </r>
      </set>
      <set comment="kpoint 56">
       <r>   -0.7508    1.0000 </r>
       <r>    0.0665    1.0000 </r>
       <r>    2.8538    1.0000 </r>
       <r>    3.7220    1.0000 </r>
       <r>   11.2560    0.0000 </r>
       <r>   12.5869    0.0000 </r>
       <r>   13.8296    0.0000 </r>
       <r>   14.0048    0.0000 </r>
      </set>
     </set>
    </set>
   </array>
  </eigenvalues>
  <separator name="orbital magnetization" >
   <v name="MAGDIPOLOUT">      0.00000000      0.00000000      0.00000000</v>
  </separator>
  <dos>
   <i name="efermi">      7.99529531 </i>
   <total>
    <array>
     <dimension dim="1">gridpoints</dimension>
     <dimension dim="2">spin</dimension>
     <field>energy</field>
     <field>total</field>
     <field>integrated</field>
     <set>
      <set comment="spin 1">
       <r>    -6.6752     0.0000     0.0000 </r>
       <r>    -6.5861     0.0000     0.0000 </r>
       <r>    -6.4970     0.0000     0.0000 </r>
       <r>    -6.4079     0.0000     0.0000 </r>
       <r>    -6.3187     0.0000     0.0000 </r>
       <r>    -6.2296     0.0000     0.0000 </r>
       <r>    -6.1405     0.0000     0.0000 </r>
       <r>    -6.0514     0.0000     0.0000 </r>
       <r>    -5.9622     0.0000     0.0000 </r>
       <r>    -5.8731     0.0000     0.0000 </r>
       <r>    -5.7840     0.0000     0.0000 </r>
       <r>    -5.6949     0.0000     0.0000 </r>
       <r>    -5.6058     0.0003     0.0000 </r>
       <r>    -5.5166     0.0039     0.0004 </r>
       <r>    -5.4275     0.0221     0.0023 </r>
       <r>    -5.3384     0.0787     0.0094 </r>
       <r>    -5.2493     0.1111     0.0193 </r>
       <r>    -5.1601     0.0971     0.0279 </r>
       <r>    -5.0710     0.1607     0.0422 </r>
       <r>    -4.9819     0.2603     0.0654 </r>
       <r>    -4.8928     0.2133     0.0845 </r>
       <r>    -4.8036     0.0965     0.0931 </r>
       <r>    -4.7145     0.1736     0.1085 </r>
       <r>    -4.6254     0.3650     0.1411 </r>
       <r>    -4.5363     0.3220     0.1698 </r>
       <r>    -4.4472     0.2599     0.1929 </r>
       <r>    -4.3580     0.3119     0.2207 </r>
       <r>    -4.2689     0.2792     0.2456 </r>
       <r>    -4.1798     0.1479     0.2588 </r>
       <r>    -4.0907     0.2351     0.2797 </r>
       <r>    -4.0015     0.5546     0.3292 </r>
       <r>    -3.9124     0.5432     0.3776 </r>
       <r>    -3.8233     0.2949     0.4039 </r>
       <r>    -3.7342     0.3724     0.4370 </r>
       <r>    -3.6451     0.4234     0.4748 </r>
       <r>    -3.5559     0.2750     0.4993 </r>
       <r>    -3.4668     0.1904     0.5163 </r>
       <r>    -3.3777     0.4328     0.5548 </r>
       <r>    -3.2886     0.6389     0.6118 </r>
       <r>    -3.1994     0.6444     0.6692 </r>
       <r>    -3.1103     0.6512     0.7272 </r>
       <r>    -3.0212     0.5439     0.7757 </r>
       <r>    -2.9321     0.3317     0.8053 </r>
       <r>    -2.8429     0.3873     0.8398 </r>
       <r>    -2.7538     0.4581     0.8806 </r>
       <r>    -2.6647     0.4421     0.9200 </r>
       <r>    -2.5756     0.7596     0.9877 </r>
       <r>    -2.4865     1.1583     1.0909 </r>
       <r>    -2.3973     0.8905     1.1703 </r>
       <r>    -2.3082     0.5135     1.2161 </r>
       <r>    -2.2191     0.6576     1.2747 </r>
       <r>    -2.1300     0.6520     1.3328 </r>
       <r>    -2.0408     0.3646     1.3653 </r>
       <r>    -1.9517     0.2743     1.3897 </r>
       <r>    -1.8626     0.7503     1.4566 </r>
       <r>    -1.7735     1.0823     1.5531 </r>
       <r>    -1.6844     0.6349     1.6096 </r>
       <r>    -1.5952     0.2512     1.6320 </r>
       <r>    -1.5061     0.2950     1.6583 </r>
       <r>    -1.4170     0.4126     1.6951 </r>
       <r>    -1.3279     0.3699     1.7281 </r>
       <r>    -1.2387     0.6724     1.7880 </r>
       <r>    -1.1496     0.6575     1.8466 </r>
       <r>    -1.0605     0.3573     1.8784 </r>
       <r>    -0.9714     0.2539     1.9011 </r>
       <r>    -0.8823     0.1023     1.9102 </r>
       <r>    -0.7931     0.1121     1.9202 </r>
       <r>    -0.7040     0.2614     1.9435 </r>
       <r>    -0.6149     0.3500     1.9747 </r>
       <r>    -0.5258     0.2976     2.0012 </r>
       <r>    -0.4366     0.1486     2.0144 </r>
       <r>    -0.3475     0.0728     2.0209 </r>
       <r>    -0.2584     0.1553     2.0347 </r>
       <r>    -0.1693     0.1688     2.0498 </r>
       <r>    -0.0801     0.0702     2.0560 </r>
       <r>     0.0090     0.1964     2.0736 </r>
       <r>     0.0981     0.4329     2.1121 </r>
       <r>     0.1872     0.5478     2.1610 </r>
       <r>     0.2763     1.1352     2.2621 </r>
       <r>     0.3655     1.6017     2.4049 </r>
       <r>     0.4546     1.1502     2.5074 </r>
       <r>     0.5437     0.8145     2.5800 </r>
       <r>     0.6328     0.9158     2.6616 </r>
       <r>     0.7220     0.6075     2.7157 </r>
       <r>     0.8111     0.6247     2.7714 </r>
       <r>     0.9002     0.8185     2.8443 </r>
       <r>     0.9893     0.8102     2.9166 </r>
       <r>     1.0784     0.5476     2.9654 </r>
       <r>     1.1676     0.4651     3.0068 </r>
       <r>     1.2567     0.4791     3.0495 </r>
       <r>     1.3458     0.4891     3.0931 </r>
       <r>     1.4349     0.4093     3.1296 </r>
       <r>     1.5241     0.4682     3.1713 </r>
       <r>     1.6132     0.6954     3.2333 </r>
       <r>     1.7023     0.4230     3.2710 </r>
       <r>     1.7914     0.0809     3.2782 </r>
       <r>     1.8805     0.1208     3.2890 </r>
       <r>     1.9697     0.3295     3.3183 </r>
       <r>     2.0588     0.4587     3.3592 </r>
       <r>     2.1479     0.6347     3.4158 </r>
       <r>     2.2370     0.4654     3.4572 </r>
       <r>     2.3262     0.1037     3.4665 </r>
       <r>     2.4153     0.0714     3.4728 </r>
       <r>     2.5044     0.2986     3.4995 </r>
       <r>     2.5935     0.5458     3.5481 </r>
       <r>     2.6827     0.6151     3.6029 </r>
       <r>     2.7718     0.6854     3.6640 </r>
       <r>     2.8609     0.9201     3.7460 </r>
       <r>     2.9500     0.7913     3.8165 </r>
       <r>     3.0391     0.6521     3.8747 </r>
       <r>     3.1283     0.7008     3.9371 </r>
       <r>     3.2174     1.0834     4.0337 </r>
       <r>     3.3065     1.0351     4.1259 </r>
       <r>     3.3956     0.8850     4.2048 </r>
       <r>     3.4848     1.2743     4.3184 </r>
       <r>     3.5739     1.0060     4.4080 </r>
       <r>     3.6630     0.5918     4.4608 </r>
       <r>     3.7521     0.8047     4.5325 </r>
       <r>     3.8412     0.9339     4.6157 </r>
       <r>     3.9304     0.6517     4.6738 </r>
       <r>     4.0195     0.5464     4.7225 </r>
       <r>     4.1086     0.7113     4.7859 </r>
       <r>     4.1977     1.3231     4.9038 </r>
       <r>     4.2869     1.5982     5.0462 </r>
       <r>     4.3760     1.3368     5.1654 </r>
       <r>     4.4651     0.7837     5.2352 </r>
       <r>     4.5542     0.6606     5.2941 </r>
       <r>     4.6433     0.9124     5.3754 </r>
       <r>     4.7325     1.5913     5.5172 </r>
       <r>     4.8216     2.1083     5.7051 </r>
       <r>     4.9107     1.4527     5.8346 </r>
       <r>     4.9998     0.6603     5.8934 </r>
       <r>     5.0890     1.0219     5.9845 </r>
       <r>     5.1781     1.4232     6.1114 </r>
       <r>     5.2672     1.3209     6.2291 </r>
       <r>     5.3563     1.0787     6.3252 </r>
       <r>     5.4455     0.5114     6.3708 </r>
       <r>     5.5346     0.3873     6.4053 </r>
       <r>     5.6237     1.1582     6.5085 </r>
       <r>     5.7128     1.7738     6.6666 </r>
       <r>     5.8019     1.3699     6.7887 </r>
       <r>     5.8911     1.1667     6.8927 </r>
       <r>     5.9802     1.0448     6.9858 </r>
       <r>     6.0693     0.7764     7.0550 </r>
       <r>     6.1584     1.0559     7.1491 </r>
       <r>     6.2476     1.1917     7.2553 </r>
       <r>     6.3367     0.9112     7.3365 </r>
       <r>     6.4258     0.5657     7.3869 </r>
       <r>     6.5149     0.4616     7.4281 </r>
       <r>     6.6040     0.8002     7.4994 </r>
       <r>     6.6932     1.0807     7.5957 </r>
       <r>     6.7823     0.7560     7.6631 </r>
       <r>     6.8714     0.4608     7.7042 </r>
       <r>     6.9605     0.4331     7.7428 </r>
       <r>     7.0497     0.5295     7.7899 </r>
       <r>     7.1388     0.4714     7.8320 </r>
       <r>     7.2279     0.3998     7.8676 </r>
       <r>     7.3170     0.3312     7.8971 </r>
       <r>     7.4061     0.2663     7.9208 </r>
       <r>     7.4953     0.2273     7.9411 </r>
       <r>     7.5844     0.1276     7.9525 </r>
       <r>     7.6735     0.0924     7.9607 </r>
       <r>     7.7626     0.1953     7.9781 </r>
       <r>     7.8518     0.1620     7.9925 </r>
       <r>     7.9409     0.0619     7.9981 </r>
       <r>     8.0300     0.0373     8.0014 </r>
       <r>     8.1191     0.0616     8.0069 </r>
       <r>     8.2083     0.1069     8.0164 </r>
       <r>     8.2974     0.1748     8.0320 </r>
       <r>     8.3865     0.2521     8.0544 </r>
       <r>     8.4756     0.2746     8.0789 </r>
       <r>     8.5647     0.2402     8.1003 </r>
       <r>     8.6539     0.1977     8.1179 </r>
       <r>     8.7430     0.1536     8.1316 </r>
       <r>     8.8321     0.2590     8.1547 </r>
       <r>     8.9212     0.4102     8.1913 </r>
       <r>     9.0104     0.5818     8.2431 </r>
       <r>     9.0995     0.5914     8.2958 </r>
       <r>     9.1886     0.5986     8.3492 </r>
       <r>     9.2777     0.6549     8.4075 </r>
       <r>     9.3668     0.6295     8.4637 </r>
       <r>     9.4560     0.7700     8.5323 </r>
       <r>     9.5451     0.8084     8.6043 </r>
       <r>     9.6342     0.6618     8.6633 </r>
       <r>     9.7233     0.8784     8.7416 </r>
       <r>     9.8125     0.6904     8.8031 </r>
       <r>     9.9016     0.5897     8.8557 </r>
       <r>     9.9907     0.7541     8.9229 </r>
       <r>    10.0798     0.8562     8.9992 </r>
       <r>    10.1689     1.0366     9.0916 </r>
       <r>    10.2581     1.1122     9.1907 </r>
       <r>    10.3472     0.9926     9.2792 </r>
       <r>    10.4363     0.8674     9.3565 </r>
       <r>    10.5254     0.8931     9.4361 </r>
       <r>    10.6146     0.7794     9.5055 </r>
       <r>    10.7037     1.3605     9.6268 </r>
       <r>    10.7928     2.1426     9.8177 </r>
       <r>    10.8819     1.7023     9.9694 </r>
       <r>    10.9711     1.2522    10.0810 </r>
       <r>    11.0602     1.3132    10.1981 </r>
       <r>    11.1493     1.4356    10.3260 </r>
       <r>    11.2384     1.3316    10.4447 </r>
       <r>    11.3275     1.7293    10.5988 </r>
       <r>    11.4167     2.0098    10.7779 </r>
       <r>    11.5058     2.2409    10.9776 </r>
       <r>    11.5949     1.9583    11.1522 </r>
       <r>    11.6840     1.1019    11.2504 </r>
       <r>    11.7732     0.9500    11.3350 </r>
       <r>    11.8623     0.9882    11.4231 </r>
       <r>    11.9514     1.3006    11.5390 </r>
       <r>    12.0405     1.3856    11.6625 </r>
       <r>    12.1296     0.9421    11.7465 </r>
       <r>    12.2188     0.9086    11.8275 </r>
       <r>    12.3079     0.7506    11.8944 </r>
       <r>    12.3970     0.8875    11.9735 </r>
       <r>    12.4861     0.7257    12.0381 </r>
       <r>    12.5753     0.5224    12.0847 </r>
       <r>    12.6644     0.9287    12.1675 </r>
       <r>    12.7535     1.9487    12.3411 </r>
       <r>    12.8426     2.1416    12.5320 </r>
       <r>    12.9317     1.0868    12.6289 </r>
       <r>    13.0209     0.6660    12.6882 </r>
       <r>    13.1100     1.1040    12.7866 </r>
       <r>    13.1991     1.3983    12.9112 </r>
       <r>    13.2882     0.9080    12.9921 </r>
       <r>    13.3774     0.9751    13.0790 </r>
       <r>    13.4665     1.5915    13.2209 </r>
       <r>    13.5556     1.3950    13.3452 </r>
       <r>    13.6447     0.7021    13.4078 </r>
       <r>    13.7339     0.3045    13.4349 </r>
       <r>    13.8230     0.5958    13.4880 </r>
       <r>    13.9121     0.9539    13.5730 </r>
       <r>    14.0012     0.9174    13.6548 </r>
       <r>    14.0903     1.0811    13.7512 </r>
       <r>    14.1795     1.1649    13.8550 </r>
       <r>    14.2686     1.1285    13.9555 </r>
       <r>    14.3577     0.7912    14.0261 </r>
       <r>    14.4468     0.6021    14.0797 </r>
       <r>    14.5360     0.8901    14.1590 </r>
       <r>    14.6251     1.2751    14.2727 </r>
       <r>    14.7142     1.1156    14.3721 </r>
       <r>    14.8033     0.7352    14.4376 </r>
       <r>    14.8924     0.5243    14.4844 </r>
       <r>    14.9816     0.5672    14.5349 </r>
       <r>    15.0707     1.0951    14.6325 </r>
       <r>    15.1598     1.2842    14.7470 </r>
       <r>    15.2489     0.9797    14.8343 </r>
       <r>    15.3381     0.4713    14.8763 </r>
       <r>    15.4272     0.2288    14.8967 </r>
       <r>    15.5163     0.6624    14.9557 </r>
       <r>    15.6054     1.0059    15.0454 </r>
       <r>    15.6945     0.6764    15.1056 </r>
       <r>    15.7837     0.6847    15.1667 </r>
       <r>    15.8728     0.7906    15.2371 </r>
       <r>    15.9619     0.6859    15.2982 </r>
       <r>    16.0510     0.6164    15.3532 </r>
       <r>    16.1402     0.4817    15.3961 </r>
       <r>    16.2293     0.3860    15.4305 </r>
       <r>    16.3184     0.4372    15.4695 </r>
       <r>    16.4075     0.7180    15.5335 </r>
       <r>    16.4967     0.7611    15.6013 </r>
       <r>    16.5858     0.4619    15.6425 </r>
       <r>    16.6749     0.4177    15.6797 </r>
       <r>    16.7640     0.4043    15.7157 </r>
       <r>    16.8531     0.2199    15.7353 </r>
       <r>    16.9423     0.2483    15.7575 </r>
       <r>    17.0314     0.4327    15.7960 </r>
       <r>    17.1205     0.6267    15.8519 </r>
       <r>    17.2096     0.4539    15.8923 </r>
       <r>    17.2988     0.1703    15.9075 </r>
       <r>    17.3879     0.0251    15.9098 </r>
       <r>    17.4770     0.0010    15.9098 </r>
       <r>    17.5661     0.0000    15.9098 </r>
       <r>    17.6552     0.0000    15.9098 </r>
       <r>    17.7444     0.0000    15.9098 </r>
       <r>    17.8335     0.0000    15.9098 </r>
       <r>    17.9226     0.0000    15.9098 </r>
       <r>    18.0117     0.0000    15.9098 </r>
       <r>    18.1009     0.0000    15.9098 </r>
       <r>    18.1900     0.0000    15.9098 </r>
       <r>    18.2791     0.0000    15.9098 </r>
       <r>    18.3682     0.0024    15.9101 </r>
       <r>    18.4573     0.0405    15.9137 </r>
       <r>    18.5465     0.1697    15.9288 </r>
       <r>    18.6356     0.2371    15.9499 </r>
       <r>    18.7247     0.2298    15.9704 </r>
       <r>    18.8138     0.1748    15.9860 </r>
       <r>    18.9030     0.1137    15.9961 </r>
       <r>    18.9921     0.0396    15.9996 </r>
       <r>    19.0812     0.0039    16.0000 </r>
       <r>    19.1703     0.0001    16.0000 </r>
       <r>    19.2595     0.0000    16.0000 </r>
       <r>    19.3486     0.0000    16.0000 </r>
       <r>    19.4377     0.0000    16.0000 </r>
       <r>    19.5268     0.0000    16.0000 </r>
       <r>    19.6159     0.0000    16.0000 </r>
       <r>    19.7051     0.0000    16.0000 </r>
       <r>    19.7942     0.0000    16.0000 </r>
       <r>    19.8833     0.0000    16.0000 </r>
       <r>    19.9724     0.0000    16.0000 </r>
       <r>    20.0616     0.0000    16.0000 </r>
      </set>
     </set>
    </array>
   </total>
  </dos>
 </calculation>
 <structure name="finalpos" >
  <crystal>
   <varray name="basis" >
    <v>       0.00000000       2.55000000       2.55000000 </v>
    <v>       2.55000000       0.00000000       2.55000000 </v>
    <v>       2.55000000       2.55000000       0.00000000 </v>
   </varray>
   <i name="volume">     33.16275000 </i>
   <varray name="rec_basis" >
    <v>      -0.19607843       0.19607843       0.19607843 </v>
    <v>       0.19607843      -0.19607843       0.19607843 </v>
    <v>       0.19607843       0.19607843      -0.19607843 </v>
   </varray>
  </crystal>
  <varray name="positions" >
   <v>       0.87500000       0.87500000       0.87500000 </v>
   <v>       0.12500000       0.12500000       0.12500000 </v>
  </varray>
 </structure>
</modeling>
