mpprun info: Starting impi run on 1 node ( 4 rank X 1 th ) for job ID 18781569
 ----------------------------------------------------
    OOO  PPPP  EEEEE N   N M   M PPPP
   O   O P   P E     NN  N MM MM P   P
   O   O PPPP  EEEEE N N N M M M PPPP   -- VERSION
   O   O P     E     N  NN M   M P
    OOO  P     EEEEE N   N M   M P
 ----------------------------------------------------
 running    4 mpi-ranks, with    1 threads/rank
 distrk:  each k-point on    4 cores,    1 groups
 distr:  one band on    1 cores,    4 groups
 vasp.6.3.0 20Jan22 (build Feb 01 2022 16:52:37) complex                        
  
 POSCAR found type information on POSCAR Ni
 POSCAR found :  1 types and       1 ions
 scaLAPACK will be used
 LDA part: xc-table for Pade appr. of Perdew
 POSCAR, INCAR and KPOINTS ok, starting setup
 FFT: planning ... GRIDC
 FFT: planning ... GRID_SOFT
 FFT: planning ... GRID
 WAVECAR not read
 entering main loop
       N       E                     dE             d eps       ncg     rms          rms(c)
DAV:   1     0.179855652341E+02    0.17986E+02   -0.28733E+03  3108   0.688E+02
DAV:   2    -0.346792723349E+01   -0.21453E+02   -0.20498E+02  2932   0.125E+02
DAV:   3    -0.378020171604E+01   -0.31227E+00   -0.31205E+00  3104   0.153E+01
DAV:   4    -0.378129423770E+01   -0.10925E-02   -0.10925E-02  3100   0.817E-01
DAV:   5    -0.378130063597E+01   -0.63983E-05   -0.63972E-05  2816   0.559E-02    0.207E+01
DAV:   6    -0.315332087368E+01    0.62798E+00   -0.32913E+00  3532   0.244E+01    0.881E+00
DAV:   7    -0.307405293328E+01    0.79268E-01   -0.80358E-02  3104   0.404E+00    0.509E+00
DAV:   8    -0.304620250021E+01    0.27850E-01   -0.11529E-02  3528   0.772E-01    0.166E+00
DAV:   9    -0.304469050336E+01    0.15120E-02   -0.13817E-03  3772   0.254E-01    0.832E-02
DAV:  10    -0.304473657788E+01   -0.46075E-04   -0.18998E-05  1728   0.562E-02
   1 F= -.30447366E+01 E0= -.30456856E+01  d E =0.284712E-02  mag=     0.5772
 writing wavefunctions
mpprun info: Elapsed time (h:m:s):  0:00:02.474168
mpprun info: Starting impi run on 1 node ( 4 rank X 1 th ) for job ID 18781569
 ----------------------------------------------------
    OOO  PPPP  EEEEE N   N M   M PPPP
   O   O P   P E     NN  N MM MM P   P
   O   O PPPP  EEEEE N N N M M M PPPP   -- VERSION
   O   O P     E     N  NN M   M P
    OOO  P     EEEEE N   N M   M P
 ----------------------------------------------------
 running    4 mpi-ranks, with    1 threads/rank
 distrk:  each k-point on    4 cores,    1 groups
 distr:  one band on    1 cores,    4 groups
 vasp.6.3.0 20Jan22 (build Feb 01 2022 16:52:37) complex                        
  
 POSCAR found type information on POSCAR Ni
 POSCAR found :  1 types and       1 ions
 scaLAPACK will be used
 LDA part: xc-table for Pade appr. of Perdew
 POSCAR, INCAR and KPOINTS ok, starting setup
 FFT: planning ... GRIDC
 FFT: planning ... GRID_SOFT
 FFT: planning ... GRID
 WAVECAR not read
 entering main loop
       N       E                     dE             d eps       ncg     rms          rms(c)
DAV:   1     0.173346883563E+02    0.17335E+02   -0.29430E+03  3068   0.670E+02
DAV:   2    -0.456421793345E+01   -0.21899E+02   -0.20683E+02  2956   0.123E+02
DAV:   3    -0.490605355423E+01   -0.34184E+00   -0.34149E+00  3024   0.162E+01
DAV:   4    -0.490743879541E+01   -0.13852E-02   -0.13852E-02  3112   0.948E-01
DAV:   5    -0.490744878984E+01   -0.99944E-05   -0.99933E-05  2964   0.737E-02    0.170E+01
DAV:   6    -0.419130992398E+01    0.71614E+00   -0.51180E+00  3508   0.298E+01    0.653E+00
DAV:   7    -0.411777980979E+01    0.73530E-01   -0.24382E-01  3164   0.670E+00    0.415E+00
DAV:   8    -0.408824936463E+01    0.29530E-01   -0.21239E-02  3464   0.109E+00    0.841E-01
DAV:   9    -0.408861625766E+01   -0.36689E-03   -0.42803E-04  3328   0.166E-01    0.121E-01
DAV:  10    -0.408859614646E+01    0.20111E-04   -0.31401E-05  1896   0.568E-02
   1 F= -.40885961E+01 E0= -.40895219E+01  d E =0.277716E-02  mag=     0.5728
 writing wavefunctions
mpprun info: Elapsed time (h:m:s):  0:00:02.491498
mpprun info: Starting impi run on 1 node ( 4 rank X 1 th ) for job ID 18781569
 ----------------------------------------------------
    OOO  PPPP  EEEEE N   N M   M PPPP
   O   O P   P E     NN  N MM MM P   P
   O   O PPPP  EEEEE N N N M M M PPPP   -- VERSION
   O   O P     E     N  NN M   M P
    OOO  P     EEEEE N   N M   M P
 ----------------------------------------------------
 running    4 mpi-ranks, with    1 threads/rank
 distrk:  each k-point on    4 cores,    1 groups
 distr:  one band on    1 cores,    4 groups
 vasp.6.3.0 20Jan22 (build Feb 01 2022 16:52:37) complex                        
  
 POSCAR found type information on POSCAR Ni
 POSCAR found :  1 types and       1 ions
 scaLAPACK will be used
 LDA part: xc-table for Pade appr. of Perdew
 POSCAR, INCAR and KPOINTS ok, starting setup
 FFT: planning ... GRIDC
 FFT: planning ... GRID_SOFT
 FFT: planning ... GRID
 WAVECAR not read
 entering main loop
       N       E                     dE             d eps       ncg     rms          rms(c)
DAV:   1     0.165162717420E+02    0.16516E+02   -0.29837E+03  3036   0.674E+02
DAV:   2    -0.533352872994E+01   -0.21850E+02   -0.20657E+02  2948   0.121E+02
DAV:   3    -0.566439985765E+01   -0.33087E+00   -0.33032E+00  3092   0.157E+01
DAV:   4    -0.566575231187E+01   -0.13525E-02   -0.13523E-02  3128   0.922E-01
DAV:   5    -0.566576446706E+01   -0.12155E-04   -0.12157E-04  2848   0.801E-02    0.143E+01
DAV:   6    -0.489034370973E+01    0.77542E+00   -0.72283E+00  3444   0.345E+01    0.517E+00
DAV:   7    -0.479491136350E+01    0.95432E-01   -0.54612E-01  3344   0.939E+00    0.336E+00
DAV:   8    -0.476834096158E+01    0.26570E-01   -0.24945E-02  3468   0.122E+00    0.618E-01
DAV:   9    -0.476823102642E+01    0.10994E-03   -0.23369E-04  3024   0.131E-01    0.222E-01
DAV:  10    -0.476811067826E+01    0.12035E-03   -0.12915E-04  2052   0.742E-02    0.563E-02
DAV:  11    -0.476812735399E+01   -0.16676E-04   -0.93274E-06  1492   0.295E-02
   1 F= -.47681274E+01 E0= -.47688621E+01  d E =0.220435E-02  mag=     0.5710
 writing wavefunctions
mpprun info: Elapsed time (h:m:s):  0:00:02.687983
mpprun info: Starting impi run on 1 node ( 4 rank X 1 th ) for job ID 18781569
 ----------------------------------------------------
    OOO  PPPP  EEEEE N   N M   M PPPP
   O   O P   P E     NN  N MM MM P   P
   O   O PPPP  EEEEE N N N M M M PPPP   -- VERSION
   O   O P     E     N  NN M   M P
    OOO  P     EEEEE N   N M   M P
 ----------------------------------------------------
 running    4 mpi-ranks, with    1 threads/rank
 distrk:  each k-point on    4 cores,    1 groups
 distr:  one band on    1 cores,    4 groups
 vasp.6.3.0 20Jan22 (build Feb 01 2022 16:52:37) complex                        
  
 POSCAR found type information on POSCAR Ni
 POSCAR found :  1 types and       1 ions
 scaLAPACK will be used
 LDA part: xc-table for Pade appr. of Perdew
 POSCAR, INCAR and KPOINTS ok, starting setup
 FFT: planning ... GRIDC
 FFT: planning ... GRID_SOFT
 FFT: planning ... GRID
 WAVECAR not read
 entering main loop
       N       E                     dE             d eps       ncg     rms          rms(c)
DAV:   1     0.175053577028E+02    0.17505E+02   -0.28861E+03  3056   0.635E+02
DAV:   2    -0.573314258990E+01   -0.23239E+02   -0.21926E+02  2968   0.123E+02
DAV:   3    -0.613557085364E+01   -0.40243E+00   -0.40183E+00  2996   0.174E+01
DAV:   4    -0.613758221227E+01   -0.20114E-02   -0.20112E-02  3164   0.108E+00
DAV:   5    -0.613760385383E+01   -0.21642E-04   -0.21640E-04  2976   0.103E-01    0.123E+01
DAV:   6    -0.534209556770E+01    0.79551E+00   -0.94102E+00  3408   0.383E+01    0.465E+00
DAV:   7    -0.520182294909E+01    0.14027E+00   -0.97859E-01  3328   0.118E+01    0.271E+00
DAV:   8    -0.517938792254E+01    0.22435E-01   -0.23346E-02  3444   0.122E+00    0.803E-01
DAV:   9    -0.517852264994E+01    0.86527E-03   -0.39361E-04  3088   0.138E-01    0.235E-01
DAV:  10    -0.517828217195E+01    0.24048E-03   -0.22555E-04  2052   0.859E-02    0.577E-02
DAV:  11    -0.517828599690E+01   -0.38249E-05   -0.10897E-05  1460   0.356E-02
   1 F= -.51782860E+01 E0= -.51786607E+01  d E =0.112419E-02  mag=     0.5682
 writing wavefunctions
mpprun info: Elapsed time (h:m:s):  0:00:02.826816
mpprun info: Starting impi run on 1 node ( 4 rank X 1 th ) for job ID 18781569
 ----------------------------------------------------
    OOO  PPPP  EEEEE N   N M   M PPPP
   O   O P   P E     NN  N MM MM P   P
   O   O PPPP  EEEEE N N N M M M PPPP   -- VERSION
   O   O P     E     N  NN M   M P
    OOO  P     EEEEE N   N M   M P
 ----------------------------------------------------
 running    4 mpi-ranks, with    1 threads/rank
 distrk:  each k-point on    4 cores,    1 groups
 distr:  one band on    1 cores,    4 groups
 vasp.6.3.0 20Jan22 (build Feb 01 2022 16:52:37) complex                        
  
 POSCAR found type information on POSCAR Ni
 POSCAR found :  1 types and       1 ions
 scaLAPACK will be used
 LDA part: xc-table for Pade appr. of Perdew
 POSCAR, INCAR and KPOINTS ok, starting setup
 FFT: planning ... GRIDC
 FFT: planning ... GRID_SOFT
 FFT: planning ... GRID
 WAVECAR not read
 entering main loop
       N       E                     dE             d eps       ncg     rms          rms(c)
DAV:   1     0.166337911961E+02    0.16634E+02   -0.29528E+03  3044   0.640E+02
DAV:   2    -0.601773733985E+01   -0.22652E+02   -0.21322E+02  2944   0.119E+02
DAV:   3    -0.638871422740E+01   -0.37098E+00   -0.37028E+00  3084   0.165E+01
DAV:   4    -0.639064031347E+01   -0.19261E-02   -0.19259E-02  3064   0.109E+00
DAV:   5    -0.639066347954E+01   -0.23166E-04   -0.23165E-04  3040   0.111E-01    0.109E+01
DAV:   6    -0.562197024409E+01    0.76869E+00   -0.11635E+01  3332   0.416E+01    0.486E+00
DAV:   7    -0.541324742306E+01    0.20872E+00   -0.16093E+00  3292   0.144E+01    0.221E+00
DAV:   8    -0.539395018195E+01    0.19297E-01   -0.23919E-02  3456   0.131E+00    0.887E-01
DAV:   9    -0.539240488290E+01    0.15453E-02   -0.76525E-04  2948   0.178E-01    0.242E-01
DAV:  10    -0.539202574960E+01    0.37913E-03   -0.28262E-04  1988   0.931E-02    0.332E-02
DAV:  11    -0.539203524646E+01   -0.94969E-05   -0.21017E-05  1424   0.358E-02
   1 F= -.53920352E+01 E0= -.53918771E+01  d E =-.474390E-03  mag=     0.5687
 writing wavefunctions
mpprun info: Elapsed time (h:m:s):  0:00:02.376701
mpprun info: Starting impi run on 1 node ( 4 rank X 1 th ) for job ID 18781569
 ----------------------------------------------------
    OOO  PPPP  EEEEE N   N M   M PPPP
   O   O P   P E     NN  N MM MM P   P
   O   O PPPP  EEEEE N N N M M M PPPP   -- VERSION
   O   O P     E     N  NN M   M P
    OOO  P     EEEEE N   N M   M P
 ----------------------------------------------------
 running    4 mpi-ranks, with    1 threads/rank
 distrk:  each k-point on    4 cores,    1 groups
 distr:  one band on    1 cores,    4 groups
 vasp.6.3.0 20Jan22 (build Feb 01 2022 16:52:37) complex                        
  
 POSCAR found type information on POSCAR Ni
 POSCAR found :  1 types and       1 ions
 scaLAPACK will be used
 LDA part: xc-table for Pade appr. of Perdew
 POSCAR, INCAR and KPOINTS ok, starting setup
 FFT: planning ... GRIDC
 FFT: planning ... GRID_SOFT
 FFT: planning ... GRID
 WAVECAR not read
 entering main loop
       N       E                     dE             d eps       ncg     rms          rms(c)
DAV:   1     0.169021108869E+02    0.16902E+02   -0.30512E+03  3008   0.634E+02
DAV:   2    -0.605083386030E+01   -0.22953E+02   -0.21590E+02  2916   0.118E+02
DAV:   3    -0.647832493375E+01   -0.42749E+00   -0.42636E+00  3084   0.181E+01
DAV:   4    -0.648055562810E+01   -0.22307E-02   -0.22305E-02  3072   0.115E+00
DAV:   5    -0.648058475913E+01   -0.29131E-04   -0.29131E-04  3020   0.125E-01    0.994E+00
DAV:   6    -0.578018020351E+01    0.70040E+00   -0.13751E+01  3316   0.442E+01    0.556E+00
DAV:   7    -0.548259384181E+01    0.29759E+00   -0.23224E+00  3280   0.166E+01    0.184E+00
DAV:   8    -0.546680588471E+01    0.15788E-01   -0.20635E-02  3464   0.121E+00    0.883E-01
DAV:   9    -0.546470801473E+01    0.20979E-02   -0.12197E-03  2956   0.235E-01    0.249E-01
DAV:  10    -0.546417873982E+01    0.52927E-03   -0.56021E-04  2116   0.136E-01    0.369E-02
DAV:  11    -0.546418516261E+01   -0.64228E-05   -0.21070E-05  1448   0.393E-02
   1 F= -.54641852E+01 E0= -.54634843E+01  d E =-.210252E-02  mag=     0.5721
 writing wavefunctions
mpprun info: Elapsed time (h:m:s):  0:00:02.283546
mpprun info: Starting impi run on 1 node ( 4 rank X 1 th ) for job ID 18781569
 ----------------------------------------------------
    OOO  PPPP  EEEEE N   N M   M PPPP
   O   O P   P E     NN  N MM MM P   P
   O   O PPPP  EEEEE N N N M M M PPPP   -- VERSION
   O   O P     E     N  NN M   M P
    OOO  P     EEEEE N   N M   M P
 ----------------------------------------------------
 running    4 mpi-ranks, with    1 threads/rank
 distrk:  each k-point on    4 cores,    1 groups
 distr:  one band on    1 cores,    4 groups
 vasp.6.3.0 20Jan22 (build Feb 01 2022 16:52:37) complex                        
  
 POSCAR found type information on POSCAR Ni
 POSCAR found :  1 types and       1 ions
 scaLAPACK will be used
 LDA part: xc-table for Pade appr. of Perdew
 POSCAR, INCAR and KPOINTS ok, starting setup
 FFT: planning ... GRIDC
 FFT: planning ... GRID_SOFT
 FFT: planning ... GRID
 WAVECAR not read
 entering main loop
       N       E                     dE             d eps       ncg     rms          rms(c)
DAV:   1     0.172789436522E+02    0.17279E+02   -0.30324E+03  2984   0.618E+02
DAV:   2    -0.599635242415E+01   -0.23275E+02   -0.21881E+02  2916   0.118E+02
DAV:   3    -0.644749906543E+01   -0.45115E+00   -0.44888E+00  3128   0.182E+01
DAV:   4    -0.644979630180E+01   -0.22972E-02   -0.22969E-02  3052   0.116E+00
DAV:   5    -0.644982697829E+01   -0.30676E-04   -0.30678E-04  3068   0.127E-01    0.932E+00
DAV:   6    -0.584527746561E+01    0.60455E+00   -0.15631E+01  3260   0.461E+01    0.647E+00
DAV:   7    -0.544886402645E+01    0.39641E+00   -0.30197E+00  3260   0.183E+01    0.157E+00
DAV:   8    -0.543672519523E+01    0.12139E-01   -0.14851E-02  3376   0.962E-01    0.844E-01
DAV:   9    -0.543459836041E+01    0.21268E-02   -0.12715E-03  2828   0.246E-01    0.251E-01
DAV:  10    -0.543396061725E+01    0.63774E-03   -0.11425E-03  2436   0.210E-01    0.547E-02
DAV:  11    -0.543396341624E+01   -0.27990E-05   -0.15091E-05  1452   0.373E-02
   1 F= -.54339634E+01 E0= -.54327772E+01  d E =-.355875E-02  mag=     0.5764
 writing wavefunctions
mpprun info: Elapsed time (h:m:s):  0:00:02.386398
mpprun info: Starting impi run on 1 node ( 4 rank X 1 th ) for job ID 18781569
 ----------------------------------------------------
    OOO  PPPP  EEEEE N   N M   M PPPP
   O   O P   P E     NN  N MM MM P   P
   O   O PPPP  EEEEE N N N M M M PPPP   -- VERSION
   O   O P     E     N  NN M   M P
    OOO  P     EEEEE N   N M   M P
 ----------------------------------------------------
 running    4 mpi-ranks, with    1 threads/rank
 distrk:  each k-point on    4 cores,    1 groups
 distr:  one band on    1 cores,    4 groups
 vasp.6.3.0 20Jan22 (build Feb 01 2022 16:52:37) complex                        
  
 POSCAR found type information on POSCAR Ni
 POSCAR found :  1 types and       1 ions
 scaLAPACK will be used
 LDA part: xc-table for Pade appr. of Perdew
 POSCAR, INCAR and KPOINTS ok, starting setup
 FFT: planning ... GRIDC
 FFT: planning ... GRID_SOFT
 FFT: planning ... GRID
 WAVECAR not read
 entering main loop
       N       E                     dE             d eps       ncg     rms          rms(c)
DAV:   1     0.181514640249E+02    0.18151E+02   -0.30558E+03  2972   0.604E+02
DAV:   2    -0.587817504484E+01   -0.24030E+02   -0.22641E+02  2876   0.116E+02
DAV:   3    -0.632718453636E+01   -0.44901E+00   -0.44768E+00  3120   0.184E+01
DAV:   4    -0.632948143095E+01   -0.22969E-02   -0.22967E-02  3040   0.118E+00
DAV:   5    -0.632951592587E+01   -0.34495E-04   -0.34495E-04  3108   0.140E-01    0.892E+00
DAV:   6    -0.584339544605E+01    0.48612E+00   -0.17251E+01  3216   0.474E+01    0.745E+00
DAV:   7    -0.534299301558E+01    0.50040E+00   -0.37332E+00  3192   0.197E+01    0.139E+00
DAV:   8    -0.533382754943E+01    0.91655E-02   -0.10703E-02  3152   0.772E-01    0.786E-01
DAV:   9    -0.533182756834E+01    0.20000E-02   -0.12356E-03  2708   0.237E-01    0.237E-01
DAV:  10    -0.533119907187E+01    0.62850E-03   -0.15236E-03  2756   0.254E-01    0.634E-02
DAV:  11    -0.533120181088E+01   -0.27390E-05   -0.16896E-05  1520   0.348E-02
   1 F= -.53312018E+01 E0= -.53294703E+01  d E =-.519459E-02  mag=     0.5863
 writing wavefunctions
mpprun info: Elapsed time (h:m:s):  0:00:02.458554
mpprun info: Starting impi run on 1 node ( 4 rank X 1 th ) for job ID 18781569
 ----------------------------------------------------
    OOO  PPPP  EEEEE N   N M   M PPPP
   O   O P   P E     NN  N MM MM P   P
   O   O PPPP  EEEEE N N N M M M PPPP   -- VERSION
   O   O P     E     N  NN M   M P
    OOO  P     EEEEE N   N M   M P
 ----------------------------------------------------
 running    4 mpi-ranks, with    1 threads/rank
 distrk:  each k-point on    4 cores,    1 groups
 distr:  one band on    1 cores,    4 groups
 vasp.6.3.0 20Jan22 (build Feb 01 2022 16:52:37) complex                        
  
 POSCAR found type information on POSCAR Ni
 POSCAR found :  1 types and       1 ions
 scaLAPACK will be used
 LDA part: xc-table for Pade appr. of Perdew
 POSCAR, INCAR and KPOINTS ok, starting setup
 FFT: planning ... GRIDC
 FFT: planning ... GRID_SOFT
 FFT: planning ... GRID
 WAVECAR not read
 entering main loop
       N       E                     dE             d eps       ncg     rms          rms(c)
DAV:   1     0.198487150187E+02    0.19849E+02   -0.30223E+03  2940   0.593E+02
DAV:   2    -0.561292253800E+01   -0.25462E+02   -0.23950E+02  2912   0.118E+02
DAV:   3    -0.614180449041E+01   -0.52888E+00   -0.52753E+00  3132   0.197E+01
DAV:   4    -0.614444699758E+01   -0.26425E-02   -0.26423E-02  3084   0.126E+00
DAV:   5    -0.614448634238E+01   -0.39345E-04   -0.39345E-04  3152   0.150E-01    0.864E+00
DAV:   6    -0.579102684693E+01    0.35346E+00   -0.18561E+01  3220   0.482E+01    0.835E+00
DAV:   7    -0.518569836596E+01    0.60533E+00   -0.43988E+00  3160   0.208E+01    0.127E+00
DAV:   8    -0.517899781615E+01    0.67005E-02   -0.72412E-03  3036   0.626E-01    0.731E-01
DAV:   9    -0.517705629827E+01    0.19415E-02   -0.13851E-03  2816   0.250E-01    0.216E-01
DAV:  10    -0.517648398135E+01    0.57232E-03   -0.16924E-03  2504   0.278E-01    0.647E-02
DAV:  11    -0.517648759282E+01   -0.36115E-05   -0.29400E-05  1676   0.525E-02
   1 F= -.51764876E+01 E0= -.51739266E+01  d E =-.768285E-02  mag=     0.6185
 writing wavefunctions
mpprun info: Elapsed time (h:m:s):  0:00:02.579355
mpprun info: Starting impi run on 1 node ( 4 rank X 1 th ) for job ID 18781569
 ----------------------------------------------------
    OOO  PPPP  EEEEE N   N M   M PPPP
   O   O P   P E     NN  N MM MM P   P
   O   O PPPP  EEEEE N N N M M M PPPP   -- VERSION
   O   O P     E     N  NN M   M P
    OOO  P     EEEEE N   N M   M P
 ----------------------------------------------------
 running    4 mpi-ranks, with    1 threads/rank
 distrk:  each k-point on    4 cores,    1 groups
 distr:  one band on    1 cores,    4 groups
 vasp.6.3.0 20Jan22 (build Feb 01 2022 16:52:37) complex                        
  
 POSCAR found type information on POSCAR Ni
 POSCAR found :  1 types and       1 ions
 scaLAPACK will be used
 LDA part: xc-table for Pade appr. of Perdew
 POSCAR, INCAR and KPOINTS ok, starting setup
 FFT: planning ... GRIDC
 FFT: planning ... GRID_SOFT
 FFT: planning ... GRID
 WAVECAR not read
 entering main loop
       N       E                     dE             d eps       ncg     rms          rms(c)
DAV:   1     0.204202481703E+02    0.20420E+02   -0.29782E+03  2856   0.571E+02
DAV:   2    -0.537682015651E+01   -0.25797E+02   -0.24248E+02  2864   0.118E+02
DAV:   3    -0.591013928628E+01   -0.53332E+00   -0.52894E+00  3180   0.195E+01
DAV:   4    -0.591314082176E+01   -0.30015E-02   -0.30013E-02  3052   0.133E+00
DAV:   5    -0.591319052425E+01   -0.49702E-04   -0.49702E-04  3192   0.168E-01    0.840E+00
DAV:   6    -0.570322050826E+01    0.20997E+00   -0.19564E+01  3200   0.485E+01    0.912E+00
DAV:   7    -0.499553769129E+01    0.70768E+00   -0.49748E+00  3140   0.216E+01    0.121E+00
DAV:   8    -0.499127325178E+01    0.42644E-02   -0.59499E-03  2964   0.562E-01    0.716E-01
DAV:   9    -0.498938565456E+01    0.18876E-02   -0.19312E-03  3280   0.307E-01    0.244E-01
DAV:  10    -0.498881709290E+01    0.56856E-03   -0.25089E-03  2684   0.375E-01    0.661E-02
DAV:  11    -0.498881677869E+01    0.31421E-06   -0.56358E-05  1688   0.804E-02
   1 F= -.49888168E+01 E0= -.49857312E+01  d E =-.925663E-02  mag=     0.6956
 writing wavefunctions
mpprun info: Elapsed time (h:m:s):  0:00:02.482591
