fcc Ni                                  
   3.00000000000000     
     0.500000    0.500000    0.000000
     0.000000    0.500000    0.500000
     0.500000    0.000000    0.500000
   Ni
     1
Direct
  0.000000  0.000000  0.000000
 
   20   20   20
  92.660      88.345      76.510      60.033      42.474      26.951      15.409      8.3960      5.2185      4.3690    
  4.2438      4.3690      5.2185      8.3960      15.409      26.951      42.474      60.033      76.510      88.345    
  88.345      80.278      66.178      49.308      33.025      19.838      10.954      6.2470      4.5619      4.2433    
  4.2433      4.5618      6.2469      10.954      19.838      33.025      49.308      66.178      80.278      88.345    
  76.510      66.178      51.806      36.532      23.113      13.260      7.4140      4.8817      4.2423      4.1196    
  4.2422      4.8816      7.4139      13.260      23.113      36.532      51.806      66.178      76.510      80.278    
  60.033      49.308      36.532      24.321      14.629      8.3425      5.2395      4.2527      4.0162      4.0161    
  4.2526      5.2394      8.3425      14.629      24.321      36.532      49.308      60.033      66.178      66.178    
  42.474      33.025      23.113      14.629      8.6965      5.4769      4.2801      3.9457      3.8312      3.9457    
  4.2800      5.4768      8.6965      14.629      23.113      33.025      42.474      49.308      51.806      49.308    
  26.951      19.838      13.260      8.3425      5.4769      4.2951      3.9112      3.7146      3.7145      3.9111    
  4.2950      5.4768      8.3425      13.260      19.838      26.951      33.025      36.532      36.532      33.025    
  15.409      10.954      7.4140      5.2395      4.2801      3.9112      3.6753      3.5908      3.6752      3.9111    
  4.2800      5.2395      7.4140      10.954      15.409      19.838      23.113      24.321      23.113      19.838    
  8.3960      6.2470      4.8817      4.2527      3.9457      3.7146      3.5908      3.5908      3.7145      3.9457    
  4.2526      4.8817      6.2469      8.3961      10.954      13.260      14.629      14.629      13.260      10.954    
  5.2185      4.5619      4.2423      4.0162      3.8312      3.7145      3.6752      3.7145      3.8312      4.0162    
  4.2423      4.5619      5.2185      6.2469      7.4140      8.3425      8.6965      8.3425      7.4139      6.2469    
  4.3690      4.2433      4.1196      4.0161      3.9457      3.9111      3.9111      3.9457      4.0162      4.1197    
  4.2434      4.3690      4.5619      4.8817      5.2395      5.4768      5.4768      5.2394      4.8816      4.5618    
  4.2438      4.2433      4.2422      4.2526      4.2800      4.2950      4.2800      4.2526      4.2423      4.2434    
  4.2439      4.2434      4.2423      4.2526      4.2800      4.2950      4.2800      4.2526      4.2422      4.2433    
  4.3690      4.5618      4.8816      5.2394      5.4768      5.4768      5.2395      4.8817      4.5619      4.3690    
  4.2434      4.1197      4.0162      3.9457      3.9111      3.9111      3.9457      4.0161      4.1196      4.2433    
  5.2185      6.2469      7.4139      8.3425      8.6965      8.3425      7.4140      6.2469      5.2185      4.5619    
  4.2423      4.0162      3.8312      3.7145      3.6752      3.7145      3.8312      4.0162      4.2423      4.5619    
  8.3960      10.954      13.260      14.629      14.629      13.260      10.954      8.3961      6.2469      4.8817    
  4.2526      3.9457      3.7145      3.5908      3.5908      3.7146      3.9457      4.2527      4.8817      6.2470    
  15.409      19.838      23.113      24.321      23.113      19.838      15.409      10.954      7.4140      5.2395    
  4.2800      3.9111      3.6752      3.5908      3.6753      3.9112      4.2801      5.2395      7.4140      10.954    
  26.951      33.025      36.532      36.532      33.025      26.951      19.838      13.260      8.3425      5.4768    
  4.2950      3.9111      3.7145      3.7146      3.9112      4.2951      5.4769      8.3425      13.260      19.838    
  42.474      49.308      51.806      49.308      42.474      33.025      23.113      14.629      8.6965      5.4768    
  4.2800      3.9457      3.8312      3.9457      4.2801      5.4769      8.6965      14.629      23.113      33.025    
  60.033      66.178      66.178      60.033      49.308      36.532      24.321      14.629      8.3425      5.2394    
  4.2526      4.0161      4.0162      4.2527      5.2395      8.3425      14.629      24.321      36.532      49.308    
  76.510      80.278      76.510      66.178      51.806      36.532      23.113      13.260      7.4139      4.8816    
  4.2422      4.1196      4.2423      4.8817      7.4140      13.260      23.113      36.532      51.806      66.178    
  88.345      88.345      80.278      66.178      49.308      33.025      19.838      10.954      6.2469      4.5618    
  4.2433      4.2433      4.5619      6.2470      10.954      19.838      33.025      49.308      66.178      80.278    
  88.345      80.278      66.178      49.308      33.025      19.838      10.954      6.2470      4.5619      4.2433    
  4.2433      4.5618      6.2469      10.954      19.838      33.025      49.308      66.178      80.278      88.345    
  80.278      69.418      54.331      38.316      24.248      13.894      7.7092      4.9904      4.2929      4.1708    
  4.2929      4.9903      7.7091      13.894      24.248      38.317      54.331      69.418      80.278      84.242    
  66.178      54.331      40.247      26.796      16.088      9.0711      5.5268      4.3569      4.1070      4.1069    
  4.3569      5.5268      9.0711      16.088      26.796      40.248      54.331      66.178      72.978      72.978    
  49.308      38.316      26.796      16.900      9.8923      5.9779      4.4482      4.0605      3.9439      4.0605    
  4.4482      5.9779      9.8923      16.900      26.796      38.317      49.308      57.274      60.190      57.274    
  33.025      24.248      16.088      9.8923      6.1540      4.5182      4.0338      3.8283      3.8283      4.0338    
  4.5182      6.1540      9.8923      16.088      24.248      33.025      40.517      44.849      44.849      40.517    
  19.838      13.894      9.0711      5.9779      4.5182      4.0254      3.7701      3.6765      3.7701      4.0253    
  4.5182      5.9779      9.0711      13.894      19.838      25.696      30.016      31.609      30.016      25.696    
  10.954      7.7092      5.5268      4.4482      4.0338      3.7701      3.6244      3.6244      3.7701      4.0338    
  4.4482      5.5268      7.7091      10.954      14.699      18.026      19.989      19.989      18.026      14.699    
  6.2470      4.9904      4.3569      4.0605      3.8283      3.6765      3.6244      3.6765      3.8283      4.0605    
  4.3569      4.9904      6.2469      8.0579      10.014      11.531      12.103      11.531      10.014      8.0579    
  4.5619      4.2929      4.1070      3.9439      3.8283      3.7701      3.7701      3.8283      3.9439      4.1070    
  4.2929      4.5619      5.0904      5.8536      6.6263      7.1138      7.1138      6.6263      5.8536      5.0903    
  4.2433      4.1708      4.1069      4.0605      4.0338      4.0253      4.0338      4.0605      4.1070      4.1709    
  4.2434      4.3133      4.4210      4.5986      4.7747      4.8485      4.7747      4.5986      4.4209      4.3133    
  4.2433      4.2929      4.3569      4.4482      4.5182      4.5182      4.4482      4.3569      4.2929      4.2434    
  4.1886      4.1376      4.0978      4.0730      4.0643      4.0643      4.0729      4.0977      4.1375      4.1886    
  4.5618      4.9903      5.5268      5.9779      6.1540      5.9779      5.5268      4.9904      4.5619      4.3133    
  4.1376      3.9743      3.8486      3.7724      3.7474      3.7724      3.8485      3.9743      4.1375      4.3133    
  6.2469      7.7091      9.0711      9.8923      9.8923      9.0711      7.7091      6.2469      5.0904      4.4210    
  4.0978      3.8486      3.6645      3.5693      3.5693      3.6645      3.8485      4.0978      4.4210      5.0903    
  10.954      13.894      16.088      16.900      16.088      13.894      10.954      8.0579      5.8536      4.5986    
  4.0730      3.7724      3.5693      3.4985      3.5693      3.7725      4.0730      4.5987      5.8536      8.0579    
  19.838      24.248      26.796      26.796      24.248      19.838      14.699      10.014      6.6263      4.7747    
  4.0643      3.7474      3.5693      3.5693      3.7475      4.0644      4.7748      6.6264      10.014      14.699    
  33.025      38.317      40.248      38.317      33.025      25.696      18.026      11.531      7.1138      4.8485    
  4.0643      3.7724      3.6645      3.7725      4.0644      4.8486      7.1140      11.531      18.026      25.696    
  49.308      54.331      54.331      49.308      40.517      30.016      19.989      12.103      7.1138      4.7747    
  4.0729      3.8485      3.8485      4.0730      4.7748      7.1140      12.103      19.989      30.016      40.517    
  66.178      69.418      66.178      57.274      44.849      31.609      19.989      11.531      6.6263      4.5986    
  4.0977      3.9743      4.0978      4.5987      6.6264      11.531      19.989      31.609      44.849      57.274    
  80.278      80.278      72.978      60.190      44.849      30.016      18.026      10.014      5.8536      4.4209    
  4.1375      4.1375      4.4210      5.8536      10.014      18.026      30.016      44.849      60.190      72.978    
  88.345      84.242      72.978      57.274      40.517      25.696      14.699      8.0579      5.0903      4.3133    
  4.1886      4.3133      5.0903      8.0579      14.699      25.696      40.517      57.274      72.978      84.242    
  76.510      66.178      51.806      36.532      23.113      13.260      7.4140      4.8817      4.2423      4.1196    
  4.2422      4.8816      7.4139      13.260      23.113      36.532      51.806      66.178      76.510      80.278    
  66.178      54.331      40.247      26.796      16.088      9.0711      5.5268      4.3569      4.1070      4.1069    
  4.3569      5.5268      9.0711      16.088      26.796      40.248      54.331      66.178      72.978      72.978    
  51.806      40.247      28.140      17.733      10.336      6.1687      4.5128      4.1006      3.9836      4.1006    
  4.5128      6.1688      10.336      17.733      28.141      40.248      51.806      60.190      63.260      60.190    
  36.532      26.796      17.733      10.809      6.5691      4.6596      4.0992      3.8908      3.8908      4.0992    
  4.6597      6.5692      10.809      17.733      26.796      36.532      44.849      49.662      49.662      44.849    
  23.113      16.088      10.336      6.5691      4.7202      4.1001      3.8358      3.7373      3.8358      4.1001    
  4.7203      6.5692      10.336      16.088      23.113      30.016      35.106      36.983      35.106      30.016    
  13.260      9.0711      6.1687      4.6596      4.1001      3.8179      3.6583      3.6583      3.8179      4.1001    
  4.6597      6.1688      9.0711      13.260      18.026      22.234      24.712      24.712      22.234      18.026    
  7.4140      5.5268      4.5128      4.0992      3.8358      3.6583      3.5966      3.6583      3.8358      4.0992    
  4.5128      5.5268      7.4139      10.014      12.756      14.858      15.647      14.858      12.756      10.014    
  4.8817      4.3569      4.1006      3.8908      3.7373      3.6583      3.6583      3.7373      3.8908      4.1006    
  4.3569      4.8816      5.8535      7.1514      8.4081      9.1840      9.1840      8.4081      7.1514      5.8536    
  4.2423      4.1070      3.9836      3.8908      3.8358      3.8179      3.8358      3.8908      3.9836      4.1070    
  4.2423      4.4210      4.7557      5.2077      5.6053      5.7639      5.6053      5.2077      4.7557      4.4210    
  4.1196      4.1069      4.1006      4.0992      4.1001      4.1001      4.0992      4.1006      4.1070      4.1197    
  4.1376      4.1572      4.1869      4.2448      4.2952      4.2952      4.2448      4.1869      4.1572      4.1375    
  4.2422      4.3569      4.5128      4.6597      4.7203      4.6597      4.5128      4.3569      4.2423      4.1376    
  4.0318      3.9419      3.8781      3.8420      3.8306      3.8420      3.8780      3.9417      4.0317      4.1375    
  4.8816      5.5268      6.1688      6.5692      6.5692      6.1688      5.5268      4.8816      4.4210      4.1572    
  3.9419      3.7577      3.6296      3.5657      3.5657      3.6296      3.7576      3.9418      4.1572      4.4209    
  7.4139      9.0711      10.336      10.809      10.336      9.0711      7.4139      5.8535      4.7557      4.1869    
  3.8781      3.6296      3.4703      3.4162      3.4703      3.6296      3.8780      4.1869      4.7557      5.8536    
  13.260      16.088      17.733      17.733      16.088      13.260      10.014      7.1514      5.2077      4.2448    
  3.8420      3.5657      3.4162      3.4162      3.5658      3.8421      4.2449      5.2078      7.1514      10.014    
  23.113      26.796      28.141      26.796      23.113      18.026      12.756      8.4081      5.6053      4.2952    
  3.8306      3.5657      3.4703      3.5658      3.8307      4.2954      5.6055      8.4082      12.756      18.026    
  36.532      40.248      40.248      36.532      30.016      22.234      14.858      9.1840      5.7639      4.2952    
  3.8420      3.6296      3.6296      3.8421      4.2954      5.7641      9.1842      14.858      22.234      30.016    
  51.806      54.331      51.806      44.849      35.106      24.712      15.647      9.1840      5.6053      4.2448    
  3.8780      3.7576      3.8780      4.2449      5.6055      9.1842      15.647      24.712      35.106      44.849    
  66.178      66.178      60.190      49.662      36.983      24.712      14.858      8.4081      5.2077      4.1869    
  3.9417      3.9418      4.1869      5.2078      8.4082      14.858      24.712      36.983      49.662      60.190    
  76.510      72.978      63.260      49.662      35.106      22.234      12.756      7.1514      4.7557      4.1572    
  4.0317      4.1572      4.7557      7.1514      12.756      22.234      35.106      49.662      63.260      72.978    
  80.278      72.978      60.190      44.849      30.016      18.026      10.014      5.8536      4.4210      4.1375    
  4.1375      4.4209      5.8536      10.014      18.026      30.016      44.849      60.190      72.978      80.278    
  60.033      49.308      36.532      24.321      14.629      8.3425      5.2395      4.2527      4.0162      4.0161    
  4.2526      5.2394      8.3425      14.629      24.321      36.532      49.308      60.033      66.178      66.178    
  49.308      38.316      26.796      16.900      9.8923      5.9779      4.4482      4.0605      3.9439      4.0605    
  4.4482      5.9779      9.8923      16.900      26.796      38.317      49.308      57.274      60.190      57.274    
  36.532      26.796      17.733      10.809      6.5691      4.6596      4.0992      3.8908      3.8908      4.0992    
  4.6597      6.5692      10.809      17.733      26.796      36.532      44.849      49.662      49.662      44.849    
  24.321      16.900      10.809      6.7947      4.8000      4.1267      3.8593      3.7594      3.8593      4.1268    
  4.8001      6.7948      10.809      16.900      24.321      31.609      36.983      38.966      36.983      31.609    
  14.629      9.8923      6.5691      4.8000      4.1378      3.8455      3.6795      3.6795      3.8456      4.1379    
  4.8001      6.5692      9.8923      14.629      19.989      24.712      27.492      27.492      24.712      19.989    
  8.3425      5.9779      4.6596      4.1267      3.8455      3.6531      3.5855      3.6532      3.8456      4.1268    
  4.6597      5.9778      8.3424      11.531      14.858      17.395      18.346      17.396      14.858      11.531    
  5.2395      4.4482      4.0992      3.8593      3.6795      3.5855      3.5855      3.6795      3.8593      4.0992    
  4.4481      5.2394      6.6262      8.4080      10.098      11.131      11.131      10.098      8.4082      6.6264    
  4.2527      4.0605      3.8908      3.7594      3.6795      3.6532      3.6795      3.7594      3.8908      4.0605    
  4.2526      4.5986      5.2077      5.9648      6.6014      6.8506      6.6015      5.9649      5.2078      4.5987    
  4.0162      3.9439      3.8908      3.8593      3.8456      3.8456      3.8593      3.8908      3.9439      4.0162    
  4.0978      4.1869      4.3370      4.5287      4.6657      4.6657      4.5287      4.3370      4.1869      4.0978    
  4.0161      4.0605      4.0992      4.1268      4.1379      4.1268      4.0992      4.0605      4.0162      3.9743    
  3.9418      3.9218      3.9129      3.9122      3.9142      3.9122      3.9128      3.9217      3.9418      3.9743    
  4.2526      4.4482      4.6597      4.8001      4.8001      4.6597      4.4481      4.2526      4.0978      3.9418    
  3.7979      3.6855      3.6128      3.5784      3.5783      3.6127      3.6854      3.7977      3.9417      4.0977    
  5.2394      5.9779      6.5692      6.7948      6.5692      5.9778      5.2394      4.5986      4.1869      3.9218    
  3.6855      3.5028      3.3915      3.3547      3.3915      3.5027      3.6854      3.9217      4.1869      4.5986    
  8.3425      9.8923      10.809      10.809      9.8923      8.3424      6.6262      5.2077      4.3370      3.9129    
  3.6128      3.3915      3.2769      3.2768      3.3915      3.6128      3.9129      4.3370      5.2077      6.6263    
  14.629      16.900      17.733      16.900      14.629      11.531      8.4080      5.9648      4.5287      3.9122    
  3.5784      3.3547      3.2768      3.3547      3.5784      3.9123      4.5288      5.9649      8.4081      11.531    
  24.321      26.796      26.796      24.321      19.989      14.858      10.098      6.6014      4.6657      3.9142    
  3.5783      3.3915      3.3915      3.5784      3.9143      4.6658      6.6016      10.098      14.858      19.989    
  36.532      38.317      36.532      31.609      24.712      17.395      11.131      6.8506      4.6657      3.9122    
  3.6127      3.5027      3.6128      3.9123      4.6658      6.8507      11.132      17.396      24.712      31.609    
  49.308      49.308      44.849      36.983      27.492      18.346      11.131      6.6015      4.5287      3.9128    
  3.6854      3.6854      3.9129      4.5288      6.6016      11.132      18.346      27.492      36.983      44.849    
  60.033      57.274      49.662      38.966      27.492      17.396      10.098      5.9649      4.3370      3.9217    
  3.7977      3.9217      4.3370      5.9649      10.098      17.396      27.492      38.966      49.662      57.274    
  66.178      60.190      49.662      36.983      24.712      14.858      8.4082      5.2078      4.1869      3.9418    
  3.9417      4.1869      5.2077      8.4081      14.858      24.712      36.983      49.662      60.190      66.178    
  66.178      57.274      44.849      31.609      19.989      11.531      6.6264      4.5987      4.0978      3.9743    
  4.0977      4.5986      6.6263      11.531      19.989      31.609      44.849      57.274      66.178      69.418    
  42.474      33.025      23.113      14.629      8.6965      5.4769      4.2801      3.9457      3.8312      3.9457    
  4.2800      5.4768      8.6965      14.629      23.113      33.025      42.474      49.308      51.806      49.308    
  33.025      24.248      16.088      9.8923      6.1540      4.5182      4.0338      3.8283      3.8283      4.0338    
  4.5182      6.1540      9.8923      16.088      24.248      33.025      40.517      44.849      44.849      40.517    
  23.113      16.088      10.336      6.5691      4.7202      4.1001      3.8358      3.7373      3.8358      4.1001    
  4.7203      6.5692      10.336      16.088      23.113      30.016      35.106      36.983      35.106      30.016    
  14.629      9.8923      6.5691      4.8000      4.1378      3.8455      3.6795      3.6795      3.8456      4.1379    
  4.8001      6.5692      9.8923      14.629      19.989      24.712      27.492      27.492      24.712      19.989    
  8.6965      6.1540      4.7202      4.1378      3.8498      3.6526      3.5830      3.6527      3.8500      4.1379    
  4.7203      6.1540      8.6964      12.103      15.647      18.346      19.358      18.346      15.647      12.103    
  5.4769      4.5182      4.1001      3.8455      3.6526      3.5509      3.5509      3.6527      3.8456      4.1001    
  4.5181      5.4768      7.1137      9.1839      11.131      12.317      12.318      11.132      9.1842      7.1140    
  4.2801      4.0338      3.8358      3.6795      3.5830      3.5509      3.5831      3.6795      3.8358      4.0338    
  4.2800      4.7746      5.6052      6.6014      7.4233      7.7423      7.4234      6.6016      5.6055      4.7748    
  3.9457      3.8283      3.7373      3.6795      3.6527      3.6527      3.6795      3.7373      3.8283      3.9457    
  4.0729      4.2448      4.5287      4.8564      5.0787      5.0788      4.8565      4.5288      4.2449      4.0730    
  3.8312      3.8283      3.8358      3.8456      3.8500      3.8456      3.8358      3.8283      3.8312      3.8485    
  3.8780      3.9129      3.9518      3.9962      4.0169      3.9962      3.9518      3.9129      3.8780      3.8485    
  3.9457      4.0338      4.1001      4.1379      4.1379      4.1001      4.0338      3.9457      3.8485      3.7577    
  3.6855      3.6372      3.6107      3.5999      3.5999      3.6107      3.6371      3.6854      3.7576      3.8485    
  4.2800      4.5182      4.7203      4.8001      4.7203      4.5181      4.2800      4.0729      3.8780      3.6855    
  3.5225      3.4057      3.3382      3.3165      3.3382      3.4056      3.5224      3.6854      3.8780      4.0729    
  5.4768      6.1540      6.5692      6.5692      6.1540      5.4768      4.7746      4.2448      3.9129      3.6372    
  3.4057      3.2457      3.1658      3.1658      3.2456      3.4056      3.6371      3.9128      4.2448      4.7747    
  8.6965      9.8923      10.336      9.8923      8.6964      7.1137      5.6052      4.5287      3.9518      3.6107    
  3.3382      3.1658      3.1076      3.1658      3.3382      3.6107      3.9518      4.5287      5.6053      7.1138    
  14.629      16.088      16.088      14.629      12.103      9.1839      6.6014      4.8564      3.9962      3.5999    
  3.3165      3.1658      3.1658      3.3166      3.5999      3.9962      4.8565      6.6015      9.1840      12.103    
  23.113      24.248      23.113      19.989      15.647      11.131      7.4233      5.0787      4.0169      3.5999    
  3.3382      3.2456      3.3382      3.5999      4.0170      5.0788      7.4234      11.131      15.647      19.989    
  33.025      33.025      30.016      24.712      18.346      12.317      7.7423      5.0788      3.9962      3.6107    
  3.4056      3.4056      3.6107      3.9962      5.0788      7.7424      12.318      18.346      24.712      30.016    
  42.474      40.517      35.106      27.492      19.358      12.318      7.4234      4.8565      3.9518      3.6371    
  3.5224      3.6371      3.9518      4.8565      7.4234      12.318      19.358      27.492      35.106      40.517    
  49.308      44.849      36.983      27.492      18.346      11.132      6.6016      4.5288      3.9129      3.6854    
  3.6854      3.9128      4.5287      6.6015      11.131      18.346      27.492      36.983      44.849      49.308    
  51.806      44.849      35.106      24.712      15.647      9.1842      5.6055      4.2449      3.8780      3.7576    
  3.8780      4.2448      5.6053      9.1840      15.647      24.712      35.106      44.849      51.806      54.331    
  49.308      40.517      30.016      19.989      12.103      7.1140      4.7748      4.0730      3.8485      3.8485    
  4.0729      4.7747      7.1138      12.103      19.989      30.016      40.517      49.308      54.331      54.331    
  26.951      19.838      13.260      8.3425      5.4769      4.2951      3.9112      3.7146      3.7145      3.9111    
  4.2950      5.4768      8.3425      13.260      19.838      26.951      33.025      36.532      36.532      33.025    
  19.838      13.894      9.0711      5.9779      4.5182      4.0254      3.7701      3.6765      3.7701      4.0253    
  4.5182      5.9779      9.0711      13.894      19.838      25.696      30.016      31.609      30.016      25.696    
  13.260      9.0711      6.1687      4.6596      4.1001      3.8179      3.6583      3.6583      3.8179      4.1001    
  4.6597      6.1688      9.0711      13.260      18.026      22.234      24.712      24.712      22.234      18.026    
  8.3425      5.9779      4.6596      4.1267      3.8455      3.6531      3.5855      3.6532      3.8456      4.1268    
  4.6597      5.9778      8.3424      11.531      14.858      17.395      18.346      17.396      14.858      11.531    
  5.4769      4.5182      4.1001      3.8455      3.6526      3.5509      3.5509      3.6527      3.8456      4.1001    
  4.5181      5.4768      7.1137      9.1839      11.131      12.317      12.318      11.132      9.1842      7.1140    
  4.2951      4.0254      3.8179      3.6531      3.5509      3.5168      3.5510      3.6532      3.8179      4.0253    
  4.2950      4.8484      5.7638      6.8505      7.7422      8.0876      7.7424      6.8507      5.7641      4.8486    
  3.9112      3.7701      3.6583      3.5855      3.5509      3.5510      3.5855      3.6583      3.7701      3.9111    
  4.0643      4.2952      4.6656      5.0787      5.3539      5.3540      5.0788      4.6658      4.2954      4.0644    
  3.7146      3.6765      3.6583      3.6532      3.6527      3.6532      3.6583      3.6765      3.7145      3.7724    
  3.8420      3.9122      3.9961      4.0819      4.1193      4.0820      3.9962      3.9123      3.8421      3.7725    
  3.7145      3.7701      3.8179      3.8456      3.8456      3.8179      3.7701      3.7145      3.6645      3.6296    
  3.6128      3.6107      3.6160      3.6210      3.6210      3.6160      3.6107      3.6128      3.6296      3.6645    
  3.9111      4.0253      4.1001      4.1268      4.1001      4.0253      3.9111      3.7724      3.6296      3.5028    
  3.4057      3.3421      3.3082      3.2978      3.3081      3.3420      3.4056      3.5027      3.6296      3.7724    
  4.2950      4.5182      4.6597      4.6597      4.5181      4.2950      4.0643      3.8420      3.6128      3.4057    
  3.2445      3.1392      3.0885      3.0885      3.1392      3.2444      3.4056      3.6127      3.8420      4.0643    
  5.4768      5.9779      6.1688      5.9778      5.4768      4.8484      4.2952      3.9122      3.6107      3.3421    
  3.1392      3.0170      2.9766      3.0169      3.1392      3.3420      3.6107      3.9122      4.2952      4.8485    
  8.3425      9.0711      9.0711      8.3424      7.1137      5.7638      4.6656      3.9961      3.6160      3.3082    
  3.0885      2.9766      2.9766      3.0885      3.3081      3.6160      3.9962      4.6657      5.7639      7.1138    
  13.260      13.894      13.260      11.531      9.1839      6.8505      5.0787      4.0819      3.6210      3.2978    
  3.0885      3.0169      3.0885      3.2978      3.6210      4.0820      5.0788      6.8506      9.1840      11.531    
  19.838      19.838      18.026      14.858      11.131      7.7422      5.3539      4.1193      3.6210      3.3081    
  3.1392      3.1392      3.3081      3.6210      4.1193      5.3540      7.7423      11.131      14.858      18.026    
  26.951      25.696      22.234      17.395      12.317      8.0876      5.3540      4.0820      3.6160      3.3420    
  3.2444      3.3420      3.6160      4.0820      5.3540      8.0876      12.317      17.395      22.234      25.696    
  33.025      30.016      24.712      18.346      12.318      7.7424      5.0788      3.9962      3.6107      3.4056    
  3.4056      3.6107      3.9962      5.0788      7.7423      12.317      18.346      24.712      30.016      33.025    
  36.532      31.609      24.712      17.396      11.132      6.8507      4.6658      3.9123      3.6128      3.5027    
  3.6127      3.9122      4.6657      6.8506      11.131      17.395      24.712      31.609      36.532      38.317    
  36.532      30.016      22.234      14.858      9.1842      5.7641      4.2954      3.8421      3.6296      3.6296    
  3.8420      4.2952      5.7639      9.1840      14.858      22.234      30.016      36.532      40.248      40.248    
  33.025      25.696      18.026      11.531      7.1140      4.8486      4.0644      3.7725      3.6645      3.7724    
  4.0643      4.8485      7.1138      11.531      18.026      25.696      33.025      38.317      40.248      38.317    
  15.409      10.954      7.4140      5.2395      4.2801      3.9112      3.6753      3.5908      3.6752      3.9111    
  4.2800      5.2395      7.4140      10.954      15.409      19.838      23.113      24.321      23.113      19.838    
  10.954      7.7092      5.5268      4.4482      4.0338      3.7701      3.6244      3.6244      3.7701      4.0338    
  4.4482      5.5268      7.7091      10.954      14.699      18.026      19.989      19.989      18.026      14.699    
  7.4140      5.5268      4.5128      4.0992      3.8358      3.6583      3.5966      3.6583      3.8358      4.0992    