fcc Ni                                  
   3.00000000000000     
     0.500000    0.500000    0.000000
     0.000000    0.500000    0.500000
     0.500000    0.000000    0.500000
   Ni
     1
Direct
  0.000000  0.000000  0.000000
 
   20   20   20
 0.92660059442E+02 0.88344889683E+02 0.76509870332E+02 0.60032808128E+02 0.42474359608E+02
 0.26950846859E+02 0.15408817727E+02 0.83960494944E+01 0.52185156665E+01 0.43689820503E+01
 0.42437822681E+01 0.43689820503E+01 0.52185156665E+01 0.83960494944E+01 0.15408817727E+02
 0.26950846859E+02 0.42474359608E+02 0.60032808128E+02 0.76509870332E+02 0.88344889683E+02
 0.88344889683E+02 0.80277850887E+02 0.66177562468E+02 0.49308259331E+02 0.33024532355E+02
 0.19837958806E+02 0.10953653774E+02 0.62469505510E+01 0.45618645711E+01 0.42433292175E+01
 0.42433170959E+01 0.45618350808E+01 0.62469207887E+01 0.10953644725E+02 0.19837985474E+02
 0.33024597970E+02 0.49308351741E+02 0.66177658080E+02 0.80277923297E+02 0.88344916600E+02
 0.76509870332E+02 0.66177562468E+02 0.51805781461E+02 0.36532122863E+02 0.23112692387E+02
 0.13259691003E+02 0.74139946595E+01 0.48816799903E+01 0.42422785197E+01 0.41196420921E+01
 0.42422351076E+01 0.48816158378E+01 0.74139457556E+01 0.13259692181E+02 0.23112761764E+02
 0.36532253920E+02 0.51805942760E+02 0.66177708349E+02 0.76509956774E+02 0.80277923297E+02
 0.60032808128E+02 0.49308259331E+02 0.36532122863E+02 0.24320846249E+02 0.14628872116E+02
 0.83425442572E+01 0.52395197821E+01 0.42526839498E+01 0.40161671663E+01 0.40161352341E+01
 0.42526028564E+01 0.52394280581E+01 0.83424884273E+01 0.14628888187E+02 0.24320944114E+02
 0.36532281441E+02 0.49308432724E+02 0.60032941740E+02 0.66177708349E+02 0.66177658080E+02
 0.42474359608E+02 0.33024532355E+02 0.23112692387E+02 0.14628872116E+02 0.86965052629E+01
 0.54769087905E+01 0.42801110931E+01 0.39457246404E+01 0.38312396905E+01 0.39456567066E+01
 0.42800029077E+01 0.54768052312E+01 0.86964506507E+01 0.14628892987E+02 0.23112786849E+02
 0.33024669576E+02 0.42474492133E+02 0.49308432724E+02 0.51805942760E+02 0.49308351741E+02
 0.26950846859E+02 0.19837958806E+02 0.13259691003E+02 0.83425442572E+01 0.54769087905E+01
 0.42951286669E+01 0.39112033046E+01 0.37145622283E+01 0.37145289197E+01 0.39111155751E+01
 0.42950174353E+01 0.54768132385E+01 0.83424961591E+01 0.13259703617E+02 0.19838022690E+02
 0.26950932859E+02 0.33024669576E+02 0.36532281441E+02 0.36532253920E+02 0.33024597970E+02
 0.15408817727E+02 0.10953653774E+02 0.74139946595E+01 0.52395197821E+01 0.42801110931E+01
 0.39112033046E+01 0.36752735748E+01 0.35908051060E+01 0.36752274717E+01 0.39111257943E+01
 0.42800259164E+01 0.52394515482E+01 0.74139604262E+01 0.10953656186E+02 0.15408847093E+02
 0.19838022690E+02 0.23112786849E+02 0.24320944114E+02 0.23112761764E+02 0.19837985474E+02
 0.83960494944E+01 0.62469505510E+01 0.48816799903E+01 0.42526839498E+01 0.39457246404E+01
 0.37145622283E+01 0.35908051060E+01 0.35907945011E+01 0.37145330587E+01 0.39456859519E+01
 0.42526464729E+01 0.48816530524E+01 0.62469396876E+01 0.83960530417E+01 0.10953656186E+02
 0.13259703617E+02 0.14628892987E+02 0.14628888187E+02 0.13259692181E+02 0.10953644725E+02
 0.52185156665E+01 0.45618645711E+01 0.42422785197E+01 0.40161671663E+01 0.38312396905E+01
 0.37145289197E+01 0.36752274717E+01 0.37145330587E+01 0.38312483163E+01 0.40161799249E+01
 0.42422956847E+01 0.45618836575E+01 0.52185356696E+01 0.62469396876E+01 0.74139604262E+01
 0.83424961591E+01 0.86964506507E+01 0.83424884273E+01 0.74139457556E+01 0.62469207887E+01
 0.43689820503E+01 0.42433292175E+01 0.41196420921E+01 0.40161352341E+01 0.39456567066E+01
 0.39111155751E+01 0.39111257943E+01 0.39456859519E+01 0.40161799249E+01 0.41196963066E+01
 0.42433878639E+01 0.43690389915E+01 0.45618836575E+01 0.48816530524E+01 0.52394515482E+01
 0.54768132385E+01 0.54768052312E+01 0.52394280581E+01 0.48816158378E+01 0.45618350808E+01
 0.42437822681E+01 0.42433170959E+01 0.42422351076E+01 0.42526028564E+01 0.42800029077E+01
 0.42950174353E+01 0.42800259164E+01 0.42526464729E+01 0.42422956847E+01 0.42433878639E+01
 0.42438558625E+01 0.42433878639E+01 0.42422956847E+01 0.42526464729E+01 0.42800259164E+01
 0.42950174353E+01 0.42800029077E+01 0.42526028564E+01 0.42422351076E+01 0.42433170959E+01
 0.43689820503E+01 0.45618350808E+01 0.48816158378E+01 0.52394280581E+01 0.54768052312E+01
 0.54768132385E+01 0.52394515482E+01 0.48816530524E+01 0.45618836575E+01 0.43690389915E+01
 0.42433878639E+01 0.41196963066E+01 0.40161799249E+01 0.39456859519E+01 0.39111257943E+01
 0.39111155751E+01 0.39456567066E+01 0.40161352341E+01 0.41196420921E+01 0.42433292175E+01
 0.52185156665E+01 0.62469207887E+01 0.74139457556E+01 0.83424884273E+01 0.86964506507E+01
 0.83424961591E+01 0.74139604262E+01 0.62469396876E+01 0.52185356696E+01 0.45618836575E+01
 0.42422956847E+01 0.40161799249E+01 0.38312483163E+01 0.37145330587E+01 0.36752274717E+01
 0.37145289197E+01 0.38312396905E+01 0.40161671663E+01 0.42422785197E+01 0.45618645711E+01
 0.83960494944E+01 0.10953644725E+02 0.13259692181E+02 0.14628888187E+02 0.14628892987E+02
 0.13259703617E+02 0.10953656186E+02 0.83960530417E+01 0.62469396876E+01 0.48816530524E+01
 0.42526464729E+01 0.39456859519E+01 0.37145330587E+01 0.35907945011E+01 0.35908051060E+01
 0.37145622283E+01 0.39457246404E+01 0.42526839498E+01 0.48816799903E+01 0.62469505510E+01
 0.15408817727E+02 0.19837985474E+02 0.23112761764E+02 0.24320944114E+02 0.23112786849E+02
 0.19838022690E+02 0.15408847093E+02 0.10953656186E+02 0.74139604262E+01 0.52394515482E+01
 0.42800259164E+01 0.39111257943E+01 0.36752274717E+01 0.35908051060E+01 0.36752735748E+01
 0.39112033046E+01 0.42801110931E+01 0.52395197821E+01 0.74139946595E+01 0.10953653774E+02
 0.26950846859E+02 0.33024597970E+02 0.36532253920E+02 0.36532281441E+02 0.33024669576E+02
 0.26950932859E+02 0.19838022690E+02 0.13259703617E+02 0.83424961591E+01 0.54768132385E+01
 0.42950174353E+01 0.39111155751E+01 0.37145289197E+01 0.37145622283E+01 0.39112033046E+01
 0.42951286669E+01 0.54769087905E+01 0.83425442572E+01 0.13259691003E+02 0.19837958806E+02
 0.42474359608E+02 0.49308351741E+02 0.51805942760E+02 0.49308432724E+02 0.42474492133E+02
 0.33024669576E+02 0.23112786849E+02 0.14628892987E+02 0.86964506507E+01 0.54768052312E+01
 0.42800029077E+01 0.39456567066E+01 0.38312396905E+01 0.39457246404E+01 0.42801110931E+01
 0.54769087905E+01 0.86965052629E+01 0.14628872116E+02 0.23112692387E+02 0.33024532355E+02
 0.60032808128E+02 0.66177658080E+02 0.66177708349E+02 0.60032941740E+02 0.49308432724E+02
 0.36532281441E+02 0.24320944114E+02 0.14628888187E+02 0.83424884273E+01 0.52394280581E+01
 0.42526028564E+01 0.40161352341E+01 0.40161671663E+01 0.42526839498E+01 0.52395197821E+01
 0.83425442572E+01 0.14628872116E+02 0.24320846249E+02 0.36532122863E+02 0.49308259331E+02
 0.76509870332E+02 0.80277923297E+02 0.76509956774E+02 0.66177708349E+02 0.51805942760E+02
 0.36532253920E+02 0.23112761764E+02 0.13259692181E+02 0.74139457556E+01 0.48816158378E+01
 0.42422351076E+01 0.41196420921E+01 0.42422785197E+01 0.48816799903E+01 0.74139946595E+01
 0.13259691003E+02 0.23112692387E+02 0.36532122863E+02 0.51805781461E+02 0.66177562468E+02
 0.88344889683E+02 0.88344916600E+02 0.80277923297E+02 0.66177658080E+02 0.49308351741E+02
 0.33024597970E+02 0.19837985474E+02 0.10953644725E+02 0.62469207887E+01 0.45618350808E+01
 0.42433170959E+01 0.42433292175E+01 0.45618645711E+01 0.62469505510E+01 0.10953653774E+02
 0.19837958806E+02 0.33024532355E+02 0.49308259331E+02 0.66177562468E+02 0.80277850887E+02
 0.88344889683E+02 0.80277850887E+02 0.66177562468E+02 0.49308259331E+02 0.33024532355E+02
 0.19837958806E+02 0.10953653774E+02 0.62469505510E+01 0.45618645711E+01 0.42433292175E+01
 0.42433170959E+01 0.45618350808E+01 0.62469207887E+01 0.10953644725E+02 0.19837985474E+02
 0.33024597970E+02 0.49308351741E+02 0.66177658080E+02 0.80277923297E+02 0.88344916600E+02
 0.80277850887E+02 0.69417631634E+02 0.54330949677E+02 0.38316426620E+02 0.24247661331E+02
 0.13893861074E+02 0.77091622628E+01 0.49903875162E+01 0.42929333772E+01 0.41708149974E+01
 0.42929009410E+01 0.49903438908E+01 0.77091407754E+01 0.13893893005E+02 0.24247761194E+02
 0.38316585114E+02 0.54331132722E+02 0.69417792639E+02 0.80277945082E+02 0.84241539916E+02
 0.66177562468E+02 0.54330949677E+02 0.40247389717E+02 0.26796199861E+02 0.16087947630E+02
 0.90710909723E+01 0.55268122270E+01 0.43569082431E+01 0.41069602825E+01 0.41069424336E+01
 0.43568673029E+01 0.55267805467E+01 0.90711066740E+01 0.16088037735E+02 0.26796366147E+02
 0.40247605304E+02 0.54331165043E+02 0.66177720898E+02 0.72977921388E+02 0.72977863206E+02
 0.49308259331E+02 0.38316426620E+02 0.26796199861E+02 0.16900051416E+02 0.98922664217E+01
 0.59778873640E+01 0.44481855046E+01 0.40605107591E+01 0.39438543007E+01 0.40604832772E+01
 0.44481515522E+01 0.59778799257E+01 0.98923156554E+01 0.16900171106E+02 0.26796377855E+02
 0.38316627456E+02 0.49308433854E+02 0.57274258074E+02 0.60189824291E+02 0.57274156679E+02
 0.33024532355E+02 0.24247661331E+02 0.16087947630E+02 0.98922664217E+01 0.61540198005E+01
 0.45181759931E+01 0.40338384087E+01 0.38283216212E+01 0.38283098706E+01 0.40338110208E+01
 0.45181529198E+01 0.61540249365E+01 0.98923163163E+01 0.16088044428E+02 0.24247788696E+02
 0.33024660190E+02 0.40517068172E+02 0.44848882016E+02 0.44848847213E+02 0.40516973423E+02
 0.19837958806E+02 0.13893861074E+02 0.90710909723E+01 0.59778873640E+01 0.45181759931E+01
 0.40253541266E+01 0.37700932978E+01 0.36764861558E+01 0.37700776587E+01 0.40253305298E+01
 0.45181562775E+01 0.59778836246E+01 0.90711092640E+01 0.13893899814E+02 0.19838008265E+02
 0.25696436131E+02 0.30016278794E+02 0.31609249037E+02 0.30016251879E+02 0.25696390648E+02
 0.10953653774E+02 0.77091622628E+01 0.55268122270E+01 0.44481855046E+01 0.40338384087E+01
 0.37700932978E+01 0.36244224258E+01 0.36244175218E+01 0.37700793969E+01 0.40338188213E+01
 0.44481636026E+01 0.55267919975E+01 0.77091461575E+01 0.10953642302E+02 0.14698578693E+02
 0.18025654902E+02 0.19988683436E+02 0.19988684121E+02 0.18025658080E+02 0.14698585471E+02
 0.62469505510E+01 0.49903875162E+01 0.43569082431E+01 0.40605107591E+01 0.38283216212E+01
 0.36764861558E+01 0.36244175218E+01 0.36764835707E+01 0.38283155528E+01 0.40605005972E+01
 0.43568933646E+01 0.49903683717E+01 0.62469298811E+01 0.80579276788E+01 0.10013950971E+02
 0.11531020173E+02 0.12103175451E+02 0.11531029139E+02 0.10013967203E+02 0.80579477082E+01
 0.45618645711E+01 0.42929333772E+01 0.41069602825E+01 0.39438543007E+01 0.38283098706E+01
 0.37700776587E+01 0.37700793969E+01 0.38283155528E+01 0.39438631535E+01 0.41069718725E+01
 0.42929469442E+01 0.45618776999E+01 0.50903594714E+01 0.58535604751E+01 0.66262672126E+01
 0.71138432449E+01 0.71138409927E+01 0.66262604507E+01 0.58535502238E+01 0.50903474869E+01
 0.42433292175E+01 0.41708149974E+01 0.41069424336E+01 0.40604832772E+01 0.40338110208E+01
 0.40253305298E+01 0.40338188213E+01 0.40605005972E+01 0.41069718725E+01 0.41708572178E+01
 0.42433840232E+01 0.43133125838E+01 0.44209833021E+01 0.45986302821E+01 0.47746887895E+01
 0.48484746327E+01 0.47746627971E+01 0.45985835183E+01 0.44209243785E+01 0.43132508154E+01
 0.42433170959E+01 0.42929009410E+01 0.43568673029E+01 0.44481515522E+01 0.45181529198E+01
 0.45181562775E+01 0.44481636026E+01 0.43568933646E+01 0.42929469442E+01 0.42433840232E+01
 0.41886442480E+01 0.41375715732E+01 0.40978132473E+01 0.40729748955E+01 0.40642854808E+01
 0.40642647924E+01 0.40729177184E+01 0.40977312055E+01 0.41374810264E+01 0.41885609612E+01
 0.45618350808E+01 0.49903438908E+01 0.55267805467E+01 0.59778799257E+01 0.61540249365E+01
 0.59778836246E+01 0.55267919975E+01 0.49903683717E+01 0.45618776999E+01 0.43133125838E+01
 0.41375715732E+01 0.39743497419E+01 0.38485575621E+01 0.37724421077E+01 0.37473806435E+01
 0.37724081194E+01 0.38484969920E+01 0.39742758633E+01 0.41374980595E+01 0.43132508154E+01
 0.62469207887E+01 0.77091407754E+01 0.90711066740E+01 0.98923156554E+01 0.98923163163E+01
 0.90711092640E+01 0.77091461575E+01 0.62469298811E+01 0.50903594714E+01 0.44209833021E+01
 0.40978132473E+01 0.38485575621E+01 0.36645458452E+01 0.35692915105E+01 0.35692879140E+01
 0.36645354662E+01 0.38485429934E+01 0.40977967124E+01 0.44209682083E+01 0.50903474869E+01
 0.10953644725E+02 0.13893893005E+02 0.16088037735E+02 0.16900171106E+02 0.16088044428E+02
 0.13893899814E+02 0.10953642302E+02 0.80579276788E+01 0.58535604751E+01 0.45986302821E+01
 0.40729748955E+01 0.37724421077E+01 0.35692915105E+01 0.34984673229E+01 0.35693240187E+01
 0.37724985468E+01 0.40730403008E+01 0.45986898757E+01 0.58536020299E+01 0.80579477082E+01
 0.19837985474E+02 0.24247761194E+02 0.26796366147E+02 0.26796377855E+02 0.24247788696E+02
 0.19838008265E+02 0.14698578693E+02 0.10013950971E+02 0.66262672126E+01 0.47746887895E+01
 0.40642854808E+01 0.37473806435E+01 0.35692879140E+01 0.35693240187E+01 0.37474785250E+01
 0.40644178261E+01 0.47748207426E+01 0.66263677432E+01 0.10014003892E+02 0.14698585471E+02
 0.33024597970E+02 0.38316585114E+02 0.40247605304E+02 0.38316627456E+02 0.33024660190E+02
 0.25696436131E+02 0.18025654902E+02 0.11531020173E+02 0.71138432449E+01 0.48484746327E+01
 0.40642647924E+01 0.37724081194E+01 0.36645354662E+01 0.37724985468E+01 0.40644178261E+01
 0.48486447707E+01 0.71139830446E+01 0.11531097454E+02 0.18025661546E+02 0.25696390648E+02
 0.49308351741E+02 0.54331132722E+02 0.54331165043E+02 0.49308433854E+02 0.40517068172E+02
 0.30016278794E+02 0.19988683436E+02 0.12103175451E+02 0.71138409927E+01 0.47746627971E+01
 0.40729177184E+01 0.38484969920E+01 0.38485429934E+01 0.40730403008E+01 0.47748207426E+01
 0.71139830446E+01 0.12103258620E+02 0.19988688372E+02 0.30016216293E+02 0.40516973423E+02
 0.66177658080E+02 0.69417792639E+02 0.66177720898E+02 0.57274258074E+02 0.44848882016E+02
 0.31609249037E+02 0.19988684121E+02 0.11531029139E+02 0.66262604507E+01 0.45985835183E+01
 0.40977312055E+01 0.39742758633E+01 0.40977967124E+01 0.45986898757E+01 0.66263677432E+01
 0.11531097454E+02 0.19988688372E+02 0.31609189136E+02 0.44848781535E+02 0.57274156679E+02
 0.80277923297E+02 0.80277945082E+02 0.72977921388E+02 0.60189824291E+02 0.44848847213E+02
 0.30016251879E+02 0.18025658080E+02 0.10013967203E+02 0.58535502238E+01 0.44209243785E+01
 0.41374810264E+01 0.41374980595E+01 0.44209682083E+01 0.58536020299E+01 0.10014003892E+02
 0.18025661546E+02 0.30016216293E+02 0.44848781535E+02 0.60189749588E+02 0.72977863206E+02
 0.88344916600E+02 0.84241539916E+02 0.72977863206E+02 0.57274156679E+02 0.40516973423E+02
 0.25696390648E+02 0.14698585471E+02 0.80579477082E+01 0.50903474869E+01 0.43132508154E+01
 0.41885609612E+01 0.43132508154E+01 0.50903474869E+01 0.80579477082E+01 0.14698585471E+02
 0.25696390648E+02 0.40516973423E+02 0.57274156679E+02 0.72977863206E+02 0.84241539916E+02
 0.76509870332E+02 0.66177562468E+02 0.51805781461E+02 0.36532122863E+02 0.23112692387E+02
 0.13259691003E+02 0.74139946595E+01 0.48816799903E+01 0.42422785197E+01 0.41196420921E+01
 0.42422351076E+01 0.48816158378E+01 0.74139457556E+01 0.13259692181E+02 0.23112761764E+02
 0.36532253920E+02 0.51805942760E+02 0.66177708349E+02 0.76509956774E+02 0.80277923297E+02
 0.66177562468E+02 0.54330949677E+02 0.40247389717E+02 0.26796199861E+02 0.16087947630E+02
 0.90710909723E+01 0.55268122270E+01 0.43569082431E+01 0.41069602825E+01 0.41069424336E+01
 0.43568673029E+01 0.55267805467E+01 0.90711066740E+01 0.16088037735E+02 0.26796366147E+02
 0.40247605304E+02 0.54331165043E+02 0.66177720898E+02 0.72977921388E+02 0.72977863206E+02
 0.51805781461E+02 0.40247389717E+02 0.28140409205E+02 0.17732622771E+02 0.10336317270E+02
 0.61687276240E+01 0.45128249976E+01 0.41006256112E+01 0.39836374188E+01 0.41006179294E+01
 0.45128266058E+01 0.61687648652E+01 0.10336412562E+02 0.17732783530E+02 0.28140619051E+02
 0.40247612649E+02 0.51805968954E+02 0.60189856475E+02 0.63260250286E+02 0.60189749588E+02
 0.36532122863E+02 0.26796199861E+02 0.17732622771E+02 0.10809055938E+02 0.65690965288E+01
 0.46596470976E+01 0.40991515019E+01 0.38908059616E+01 0.38908144953E+01 0.40991799298E+01
 0.46597030604E+01 0.65691870840E+01 0.10809182430E+02 0.17732776945E+02 0.26796362331E+02
 0.36532267741E+02 0.44848882306E+02 0.49662078099E+02 0.49662041905E+02 0.44848781535E+02
 0.23112692387E+02 0.16087947630E+02 0.10336317270E+02 0.65690965288E+01 0.47202053011E+01
 0.41000523604E+01 0.38357760067E+01 0.37373303535E+01 0.38358087838E+01 0.41001125392E+01
 0.47202832684E+01 0.65691812784E+01 0.10336397836E+02 0.16088016771E+02 0.23112745156E+02
 0.30016250971E+02 0.35105547392E+02 0.36982947758E+02 0.35105530510E+02 0.30016216293E+02
 0.13259691003E+02 0.90710909723E+01 0.61687276240E+01 0.46596470976E+01 0.41000523604E+01
 0.38179010882E+01 0.36583136436E+01 0.36583314643E+01 0.38179481536E+01 0.41001117295E+01
 0.46596976814E+01 0.61687524336E+01 0.90710825192E+01 0.13259655021E+02 0.18025614331E+02
 0.22234230983E+02 0.24712107079E+02 0.24712122365E+02 0.22234270304E+02 0.18025661546E+02
 0.74139946595E+01 0.55268122270E+01 0.45128249976E+01 0.40991515019E+01 0.38357760067E+01
 0.36583136436E+01 0.35965665589E+01 0.36583385265E+01 0.38358127253E+01 0.40991799702E+01
 0.45128249479E+01 0.55267738718E+01 0.74139213589E+01 0.10013912943E+02 0.12755681706E+02
 0.14857595016E+02 0.15646669553E+02 0.14857643771E+02 0.12755764112E+02 0.10014003892E+02
 0.48816799903E+01 0.43569082431E+01 0.41006256112E+01 0.38908059616E+01 0.37373303535E+01
 0.36583314643E+01 0.36583385265E+01 0.37373475691E+01 0.38908212766E+01 0.41006259744E+01
 0.43568834563E+01 0.48816287236E+01 0.58535340157E+01 0.71513774302E+01 0.84080800514E+01
 0.91840123630E+01 0.91840315053E+01 0.84081316809E+01 0.71514466532E+01 0.58536020299E+01
 0.42422785197E+01 0.41069602825E+01 0.39836374188E+01 0.38908144953E+01 0.38358087838E+01
 0.38179481536E+01 0.38358127253E+01 0.38908212766E+01 0.39836448620E+01 0.41069662451E+01
 0.42422819298E+01 0.44209675261E+01 0.47557276730E+01 0.52077091503E+01 0.56053192549E+01
 0.57639177822E+01 0.56053216024E+01 0.52077126585E+01 0.47557309228E+01 0.44209682083E+01
 0.41196420921E+01 0.41069424336E+01 0.41006179294E+01 0.40991799298E+01 0.41001125392E+01
 0.41001117295E+01 0.40991799702E+01 0.41006259744E+01 0.41069662451E+01 0.41196859682E+01
 0.41375614800E+01 0.41572305113E+01 0.41869220341E+01 0.42448190534E+01 0.42952303181E+01
 0.42952123010E+01 0.42447694586E+01 0.41868527618E+01 0.41571566556E+01 0.41374980595E+01
 0.42422351076E+01 0.43568673029E+01 0.45128266058E+01 0.46597030604E+01 0.47202832684E+01
 0.46596976814E+01 0.45128249479E+01 0.43568834563E+01 0.42422819298E+01 0.41375614800E+01
 0.40317690280E+01 0.39418504540E+01 0.38780678286E+01 0.38420132617E+01 0.38306119188E+01
 0.38419582120E+01 0.38779718976E+01 0.39417366844E+01 0.40316629085E+01 0.41374810264E+01
 0.48816158378E+01 0.55267805467E+01 0.61687648652E+01 0.65691870840E+01 0.65691812784E+01
 0.61687524336E+01 0.55267738718E+01 0.48816287236E+01 0.44209675261E+01 0.41572305113E+01
 0.39418504540E+01 0.37577148275E+01 0.36296361206E+01 0.35657263253E+01 0.35657021928E+01
 0.36295699037E+01 0.37576243099E+01 0.39417583780E+01 0.41571566556E+01 0.44209243785E+01
 0.74139457556E+01 0.90711066740E+01 0.10336412562E+02 0.10809182430E+02 0.10336397836E+02
 0.90710825192E+01 0.74139213589E+01 0.58535340157E+01 0.47557276730E+01 0.41869220341E+01
 0.38780678286E+01 0.36296361206E+01 0.34703251888E+01 0.34161971839E+01 0.34703121564E+01
 0.36296154872E+01 0.38780478639E+01 0.41869109627E+01 0.47557309228E+01 0.58535502238E+01
 0.13259692181E+02 0.16088037735E+02 0.17732783530E+02 0.17732776945E+02 0.16088016771E+02
 0.13259655021E+02 0.10013912943E+02 0.71513774302E+01 0.52077091503E+01 0.42448190534E+01
 0.38420132617E+01 0.35657263253E+01 0.34161971839E+01 0.34162139737E+01 0.35657739603E+01
 0.38420828344E+01 0.42448995246E+01 0.52077886384E+01 0.71514466532E+01 0.10013967203E+02
 0.23112761764E+02 0.26796366147E+02 0.28140619051E+02 0.26796362331E+02 0.23112745156E+02
 0.18025614331E+02 0.12755681706E+02 0.84080800514E+01 0.56053192549E+01 0.42952303181E+01
 0.38306119188E+01 0.35657021928E+01 0.34703121564E+01 0.35657739603E+01 0.38307386719E+01
 0.42953842858E+01 0.56054694451E+01 0.84082023508E+01 0.12755764112E+02 0.18025658080E+02
 0.36532253920E+02 0.40247605304E+02 0.40247612649E+02 0.36532267741E+02 0.30016250971E+02
 0.22234230983E+02 0.14857595016E+02 0.91840123630E+01 0.57639177822E+01 0.42952123010E+01
 0.38419582120E+01 0.36295699037E+01 0.36296154872E+01 0.38420828344E+01 0.42953842858E+01
 0.57640957187E+01 0.91841594546E+01 0.14857689056E+02 0.22234270304E+02 0.30016251879E+02
 0.51805942760E+02 0.54331165043E+02 0.51805968954E+02 0.44848882306E+02 0.35105547392E+02
 0.24712107079E+02 0.15646669553E+02 0.91840315053E+01 0.56053216024E+01 0.42447694586E+01
 0.38779718976E+01 0.37576243099E+01 0.38780478639E+01 0.42448995246E+01 0.56054694451E+01
 0.91841594546E+01 0.15646750279E+02 0.24712133055E+02 0.35105530510E+02 0.44848847213E+02
 0.66177708349E+02 0.66177720898E+02 0.60189856475E+02 0.49662078099E+02 0.36982947758E+02
 0.24712122365E+02 0.14857643771E+02 0.84081316809E+01 0.52077126585E+01 0.41868527618E+01
 0.39417366844E+01 0.39417583780E+01 0.41869109627E+01 0.52077886384E+01 0.84082023508E+01
 0.14857689056E+02 0.24712133055E+02 0.36982927801E+02 0.49662041905E+02 0.60189824291E+02
 0.76509956774E+02 0.72977921388E+02 0.63260250286E+02 0.49662041905E+02 0.35105530510E+02
 0.22234270304E+02 0.12755764112E+02 0.71514466532E+01 0.47557309228E+01 0.41571566556E+01
 0.40316629085E+01 0.41571566556E+01 0.47557309228E+01 0.71514466532E+01 0.12755764112E+02
 0.22234270304E+02 0.35105530510E+02 0.49662041905E+02 0.63260250286E+02 0.72977921388E+02
 0.80277923297E+02 0.72977863206E+02 0.60189749588E+02 0.44848781535E+02 0.30016216293E+02
 0.18025661546E+02 0.10014003892E+02 0.58536020299E+01 0.44209682083E+01 0.41374980595E+01
 0.41374810264E+01 0.44209243785E+01 0.58535502238E+01 0.10013967203E+02 0.18025658080E+02
 0.30016251879E+02 0.44848847213E+02 0.60189824291E+02 0.72977921388E+02 0.80277945082E+02
 0.60032808128E+02 0.49308259331E+02 0.36532122863E+02 0.24320846249E+02 0.14628872116E+02
 0.83425442572E+01 0.52395197821E+01 0.42526839498E+01 0.40161671663E+01 0.40161352341E+01
 0.42526028564E+01 0.52394280581E+01 0.83424884273E+01 0.14628888187E+02 0.24320944114E+02
 0.36532281441E+02 0.49308432724E+02 0.60032941740E+02 0.66177708349E+02 0.66177658080E+02
 0.49308259331E+02 0.38316426620E+02 0.26796199861E+02 0.16900051416E+02 0.98922664217E+01
 0.59778873640E+01 0.44481855046E+01 0.40605107591E+01 0.39438543007E+01 0.40604832772E+01
 0.44481515522E+01 0.59778799257E+01 0.98923156554E+01 0.16900171106E+02 0.26796377855E+02
 0.38316627456E+02 0.49308433854E+02 0.57274258074E+02 0.60189824291E+02 0.57274156679E+02
 0.36532122863E+02 0.26796199861E+02 0.17732622771E+02 0.10809055938E+02 0.65690965288E+01
 0.46596470976E+01 0.40991515019E+01 0.38908059616E+01 0.38908144953E+01 0.40991799298E+01
 0.46597030604E+01 0.65691870840E+01 0.10809182430E+02 0.17732776945E+02 0.26796362331E+02
 0.36532267741E+02 0.44848882306E+02 0.49662078099E+02 0.49662041905E+02 0.44848781535E+02
 0.24320846249E+02 0.16900051416E+02 0.10809055938E+02 0.67947165894E+01 0.47999794187E+01
 0.41267021275E+01 0.38592533903E+01 0.37593570469E+01 0.38593095286E+01 0.41268024179E+01
 0.48001036886E+01 0.67948423730E+01 0.10809164118E+02 0.16900132010E+02 0.24320897193E+02
 0.31609215801E+02 0.36982938735E+02 0.38965698318E+02 0.36982927801E+02 0.31609189136E+02
 0.14628872116E+02 0.98922664217E+01 0.65690965288E+01 0.47999794187E+01 0.41378004827E+01
 0.38455341551E+01 0.36794680713E+01 0.36795061825E+01 0.38456357200E+01 0.41379308420E+01
 0.48000956634E+01 0.65691630135E+01 0.98922667821E+01 0.14628816168E+02 0.19988605907E+02
 0.24712062138E+02 0.27491609437E+02 0.27491637052E+02 0.24712133055E+02 0.19988688372E+02
 0.83425442572E+01 0.59778873640E+01 0.46596470976E+01 0.41267021275E+01 0.38455341551E+01
 0.36531129540E+01 0.35855022651E+01 0.36531792162E+01 0.38456375691E+01 0.41267963018E+01
 0.46596859669E+01 0.59778452049E+01 0.83424244547E+01 0.11530934662E+02 0.14857536016E+02
 0.17395420627E+02 0.18346438082E+02 0.17395512814E+02 0.14857689056E+02 0.11531097454E+02
 0.52395197821E+01 0.44481855046E+01 0.40991515019E+01 0.38592533903E+01 0.36794680713E+01
 0.35855022651E+01 0.35855259942E+01 0.36795265693E+01 0.38593139229E+01 0.40991750759E+01
 0.44481423260E+01 0.52394042266E+01 0.66262013545E+01 0.84080277841E+01 0.10098097541E+02
 0.11131405906E+02 0.11131454785E+02 0.10098229164E+02 0.84082023508E+01 0.66263677432E+01
 0.42526839498E+01 0.40605107591E+01 0.38908059616E+01 0.37593570469E+01 0.36795061825E+01
 0.36531792162E+01 0.36795265693E+01 0.37593848211E+01 0.38908196441E+01 0.40604912584E+01
 0.42526216483E+01 0.45985906059E+01 0.52076742961E+01 0.59647666200E+01 0.66014308590E+01
 0.68505820046E+01 0.66014896554E+01 0.59648671612E+01 0.52077886384E+01 0.45986898757E+01
 0.40161671663E+01 0.39438543007E+01 0.38908144953E+01 0.38593095286E+01 0.38456357200E+01
 0.38456375691E+01 0.38593139229E+01 0.38908196441E+01 0.39438575575E+01 0.40161663514E+01
 0.40977916853E+01 0.41869021735E+01 0.43369919835E+01 0.45286942922E+01 0.46656808159E+01
 0.46656837701E+01 0.45287017928E+01 0.43370017602E+01 0.41869109627E+01 0.40977967124E+01
 0.40161352341E+01 0.40604832772E+01 0.40991799298E+01 0.41268024179E+01 0.41379308420E+01
 0.41267963018E+01 0.40991750759E+01 0.40604912584E+01 0.40161663514E+01 0.39743339280E+01
 0.39418380921E+01 0.39218120618E+01 0.39128737118E+01 0.39122161004E+01 0.39141706869E+01
 0.39121736543E+01 0.39128000353E+01 0.39217255281E+01 0.39417583780E+01 0.39742758633E+01
 0.42526028564E+01 0.44481515522E+01 0.46597030604E+01 0.48001036886E+01 0.48000956634E+01
 0.46596859669E+01 0.44481423260E+01 0.42526216483E+01 0.40977916853E+01 0.39418380921E+01
 0.37978673074E+01 0.36855053494E+01 0.36128373525E+01 0.35783734346E+01 0.35783399204E+01
 0.36127463268E+01 0.36853806826E+01 0.37977402743E+01 0.39417366844E+01 0.40977312055E+01
 0.52394280581E+01 0.59778799257E+01 0.65691870840E+01 0.67948423730E+01 0.65691630135E+01
 0.59778452049E+01 0.52394042266E+01 0.45985906059E+01 0.41869021735E+01 0.39218120618E+01
 0.36855053494E+01 0.35028258865E+01 0.33915216363E+01 0.33546576845E+01 0.33914668674E+01
 0.35027326804E+01 0.36854015622E+01 0.39217255281E+01 0.41868527618E+01 0.45985835183E+01
 0.83424884273E+01 0.98923156554E+01 0.10809182430E+02 0.10809164118E+02 0.98922667821E+01
 0.83424244547E+01 0.66262013545E+01 0.52076742961E+01 0.43369919835E+01 0.39128737118E+01
 0.36128373525E+01 0.33915216363E+01 0.32768518310E+01 0.32768412686E+01 0.33914950725E+01
 0.36128081653E+01 0.39128576246E+01 0.43370017602E+01 0.52077126585E+01 0.66262604507E+01
 0.14628888187E+02 0.16900171106E+02 0.17732776945E+02 0.16900132010E+02 0.14628816168E+02
 0.11530934662E+02 0.84080277841E+01 0.59647666200E+01 0.45286942922E+01 0.39122161004E+01
 0.35783734346E+01 0.33546576845E+01 0.32768412686E+01 0.33546807459E+01 0.35784196795E+01
 0.39122844869E+01 0.45287821782E+01 0.59648671612E+01 0.84081316809E+01 0.11531029139E+02
 0.24320944114E+02 0.26796377855E+02 0.26796362331E+02 0.24320897193E+02 0.19988605907E+02
 0.14857536016E+02 0.10098097541E+02 0.66014308590E+01 0.46656808159E+01 0.39141706869E+01
 0.35783399204E+01 0.33914668674E+01 0.33914950725E+01 0.35784196795E+01 0.39142897438E+01
 0.46658216650E+01 0.66015748907E+01 0.10098229164E+02 0.14857643771E+02 0.19988684121E+02
 0.36532281441E+02 0.38316627456E+02 0.36532267741E+02 0.31609215801E+02 0.24712062138E+02
 0.17395420627E+02 0.11131405906E+02 0.68505820046E+01 0.46656837701E+01 0.39121736543E+01
 0.36127463268E+01 0.35027326804E+01 0.36128081653E+01 0.39122844869E+01 0.46658216650E+01
 0.68507223122E+01 0.11131528384E+02 0.17395512814E+02 0.24712122365E+02 0.31609249037E+02
 0.49308432724E+02 0.49308433854E+02 0.44848882306E+02 0.36982938735E+02 0.27491609437E+02
 0.18346438082E+02 0.11131454785E+02 0.66014896554E+01 0.45287017928E+01 0.39128000353E+01
 0.36853806826E+01 0.36854015622E+01 0.39128576246E+01 0.45287821782E+01 0.66015748907E+01
 0.11131528384E+02 0.18346489553E+02 0.27491637052E+02 0.36982947758E+02 0.44848882016E+02
 0.60032941740E+02 0.57274258074E+02 0.49662078099E+02 0.38965698318E+02 0.27491637052E+02
 0.17395512814E+02 0.10098229164E+02 0.59648671612E+01 0.43370017602E+01 0.39217255281E+01
 0.37977402743E+01 0.39217255281E+01 0.43370017602E+01 0.59648671612E+01 0.10098229164E+02
 0.17395512814E+02 0.27491637052E+02 0.38965698318E+02 0.49662078099E+02 0.57274258074E+02
 0.66177708349E+02 0.60189824291E+02 0.49662041905E+02 0.36982927801E+02 0.24712133055E+02
 0.14857689056E+02 0.84082023508E+01 0.52077886384E+01 0.41869109627E+01 0.39417583780E+01
 0.39417366844E+01 0.41868527618E+01 0.52077126585E+01 0.84081316809E+01 0.14857643771E+02
 0.24712122365E+02 0.36982947758E+02 0.49662078099E+02 0.60189856475E+02 0.66177720898E+02
 0.66177658080E+02 0.57274156679E+02 0.44848781535E+02 0.31609189136E+02 0.19988688372E+02
 0.11531097454E+02 0.66263677432E+01 0.45986898757E+01 0.40977967124E+01 0.39742758633E+01
 0.40977312055E+01 0.45985835183E+01 0.66262604507E+01 0.11531029139E+02 0.19988684121E+02
 0.31609249037E+02 0.44848882016E+02 0.57274258074E+02 0.66177720898E+02 0.69417792639E+02
 0.42474359608E+02 0.33024532355E+02 0.23112692387E+02 0.14628872116E+02 0.86965052629E+01
 0.54769087905E+01 0.42801110931E+01 0.39457246404E+01 0.38312396905E+01 0.39456567066E+01
 0.42800029077E+01 0.54768052312E+01 0.86964506507E+01 0.14628892987E+02 0.23112786849E+02
 0.33024669576E+02 0.42474492133E+02 0.49308432724E+02 0.51805942760E+02 0.49308351741E+02
 0.33024532355E+02 0.24247661331E+02 0.16087947630E+02 0.98922664217E+01 0.61540198005E+01
 0.45181759931E+01 0.40338384087E+01 0.38283216212E+01 0.38283098706E+01 0.40338110208E+01