   1   1   1   0
  0.6750000E+01  0.2121320E-09  0.2121320E-09  0.2121320E-09  0.5000000E-15
  1.000000000000000E-004
  CAR 
 fcc Ni                                  
     73.24528641      2.15437306  301     18.21876766      1.00000000
      2.154  0.0000E+00  0.0000E+00  0.0000E+00  0.0000E+00
      2.391  0.0000E+00  0.0000E+00  0.0000E+00  0.0000E+00
      2.628  0.0000E+00  0.0000E+00  0.0000E+00  0.0000E+00
      2.865  0.0000E+00  0.0000E+00  0.0000E+00  0.0000E+00
      3.102  0.0000E+00  0.0000E+00  0.0000E+00  0.0000E+00
      3.339  0.0000E+00  0.0000E+00  0.0000E+00  0.0000E+00
      3.576 -0.2262E-37 -0.2400E-38 -0.5360E-38 -0.5688E-39
      3.813 -0.9897E-29 -0.1411E-29 -0.2345E-29 -0.3345E-30
      4.050 -0.2554E-21 -0.4897E-22 -0.6051E-22 -0.1161E-22
      4.287 -0.3726E-15 -0.9626E-16 -0.8828E-16 -0.2281E-16
      4.524 -0.3165E-10 -0.1106E-10 -0.7500E-11 -0.2621E-11
      4.761 -0.1458E-06 -0.6939E-07 -0.3456E-07 -0.1645E-07
      4.998 -0.3058E-04 -0.2052E-04 -0.7282E-05 -0.4879E-05
      5.235  0.1012E-03 -0.3453E-05  0.1669E-04 -0.5697E-05
      5.472  0.2277E-02  0.2205E-02  0.5562E-03  0.5168E-03
      5.709  0.1216E-02  0.6162E-03  0.8443E-03  0.6628E-03
      5.946  0.2612E-01  0.2307E-01  0.7035E-02  0.6130E-02
      6.183  0.1832E-01  0.2179E-01  0.1138E-01  0.1129E-01
      6.420 -0.6490E-03 -0.9758E-03  0.1122E-01  0.1106E-01
      6.657  0.2734E-01  0.2409E-01  0.1770E-01  0.1677E-01
      6.894  0.1655E-01  0.1644E-01  0.2162E-01  0.2067E-01
      7.131  0.7500E-01  0.6820E-01  0.3939E-01  0.3683E-01
      7.368  0.2243E-01  0.3362E-01  0.4471E-01  0.4480E-01
      7.605  0.2542E-02  0.2102E-03  0.4531E-01  0.4485E-01
      7.842  0.1141E-01  0.1234E-01  0.4802E-01  0.4777E-01
      8.079  0.6059E-01  0.3870E-01  0.6237E-01  0.5694E-01
      8.316  0.9070E-01  0.1057E+00  0.8387E-01  0.8200E-01
      8.553  0.3406E-01  0.2421E-01  0.9194E-01  0.8773E-01
      8.790  0.7346E-01  0.6635E-01  0.1093E+00  0.1035E+00
      9.026  0.7078E-01  0.8052E-01  0.1261E+00  0.1225E+00
      9.263 -0.1820E-02  0.1947E-01  0.1257E+00  0.1272E+00
      9.500  0.6164E-01  0.4727E-03  0.1403E+00  0.1273E+00
      9.737  0.2805E+00  0.1426E+00  0.2068E+00  0.1611E+00
      9.974  0.3541E+00  0.2256E+00  0.2907E+00  0.2145E+00
     10.211  0.4107E+00  0.2824E+00  0.3880E+00  0.2814E+00
     10.448  0.2570E+00  0.3211E+00  0.4489E+00  0.3575E+00
     10.685  0.5713E+00  0.2940E+00  0.5843E+00  0.4272E+00
     10.922  0.6575E+00  0.3727E+00  0.7401E+00  0.5155E+00
     11.159  0.5922E+00  0.6320E+00  0.8804E+00  0.6653E+00
     11.396  0.5121E+00  0.4915E+00  0.1002E+01  0.7818E+00
     11.633  0.6269E+00  0.5320E+00  0.1150E+01  0.9078E+00
     11.870  0.4659E+00  0.4813E+00  0.1261E+01  0.1022E+01
     12.107  0.4755E+00  0.6102E+00  0.1373E+01  0.1166E+01
     12.344  0.5917E+00  0.3913E+00  0.1514E+01  0.1259E+01
     12.581  0.3394E+00  0.5804E+00  0.1594E+01  0.1397E+01
     12.818  0.3526E+00  0.4439E+00  0.1678E+01  0.1502E+01
     13.055  0.5464E+00  0.3986E+00  0.1807E+01  0.1596E+01
     13.292  0.7496E+00  0.3004E+00  0.1985E+01  0.1668E+01
     13.529  0.3885E+00  0.5469E+00  0.2077E+01  0.1797E+01
     13.766  0.7316E+00  0.6969E+00  0.2250E+01  0.1962E+01
     14.003  0.6999E+00  0.4032E+00  0.2416E+01  0.2058E+01
     14.240  0.7937E+00  0.6459E+00  0.2604E+01  0.2211E+01
     14.477  0.8418E+00  0.6684E+00  0.2804E+01  0.2369E+01
     14.714  0.8603E+00  0.7126E+00  0.3007E+01  0.2538E+01
     14.951  0.5631E+00  0.7702E+00  0.3141E+01  0.2721E+01
     15.188  0.5619E+00  0.8869E+00  0.3274E+01  0.2931E+01
     15.425  0.4891E+00  0.6974E+00  0.3390E+01  0.3096E+01
     15.662  0.5733E+00  0.5101E+00  0.3526E+01  0.3217E+01
     15.899  0.4743E+00  0.5174E+00  0.3638E+01  0.3340E+01
     16.136  0.8169E+00  0.5830E+00  0.3832E+01  0.3478E+01
     16.373  0.8540E+00  0.4544E+00  0.4034E+01  0.3585E+01
     16.610  0.4273E+00  0.4959E+00  0.4135E+01  0.3703E+01
     16.846  0.3863E+00  0.9485E+00  0.4227E+01  0.3928E+01
     17.083  0.7229E+00  0.7039E+00  0.4398E+01  0.4095E+01
     17.320  0.8018E+00  0.3215E+00  0.4588E+01  0.4171E+01
     17.557  0.6381E+00  0.3849E+00  0.4739E+01  0.4262E+01
     17.794  0.1337E+01  0.6901E+00  0.5056E+01  0.4425E+01
     18.031  0.8470E+00  0.7684E+00  0.5257E+01  0.4608E+01
     18.268  0.1275E+00  0.6305E+00  0.5287E+01  0.4757E+01
     18.505 -0.1979E-01  0.1272E+01  0.5282E+01  0.5058E+01
     18.742  0.4273E-01  0.7217E+00  0.5293E+01  0.5229E+01
     18.979  0.1005E+00  0.2390E+00  0.5316E+01  0.5286E+01
     19.216  0.4302E-01 -0.2890E-02  0.5327E+01  0.5285E+01
     19.453  0.1750E+00  0.1200E+00  0.5368E+01  0.5314E+01
     19.690  0.2524E+00  0.2518E-01  0.5428E+01  0.5320E+01
     19.927  0.1634E+00  0.1220E+00  0.5467E+01  0.5349E+01
     20.164  0.5676E-01  0.2819E+00  0.5480E+01  0.5416E+01
     20.401  0.1713E-01  0.2196E+00  0.5484E+01  0.5468E+01
     20.638  0.1263E+00  0.5687E-01  0.5514E+01  0.5481E+01
     20.875  0.3216E-01  0.7539E-01  0.5522E+01  0.5499E+01
     21.112  0.5964E-01  0.8909E-01  0.5536E+01  0.5520E+01
     21.349  0.1499E+00  0.6565E-02  0.5571E+01  0.5522E+01
     21.586  0.2215E-01  0.1027E+00  0.5577E+01  0.5546E+01
     21.823  0.1238E+00  0.1129E+00  0.5606E+01  0.5573E+01
     22.060  0.7380E-01  0.1547E-01  0.5623E+01  0.5576E+01
     22.297  0.1543E+00  0.1274E+00  0.5660E+01  0.5606E+01
     22.534  0.1622E+00  0.1055E+00  0.5698E+01  0.5631E+01
     22.771  0.1062E+00  0.2049E+00  0.5724E+01  0.5680E+01
     23.008  0.1402E+00  0.1415E+00  0.5757E+01  0.5714E+01
     23.245  0.2584E-03  0.1260E+00  0.5757E+01  0.5743E+01
     23.482 -0.1668E-02  0.6063E-01  0.5756E+01  0.5758E+01
     23.719 -0.8869E-02 -0.5167E-02  0.5754E+01  0.5757E+01
     23.956  0.1193E+00 -0.4272E-02  0.5783E+01  0.5756E+01
     24.193  0.1994E+00  0.2427E-01  0.5830E+01  0.5761E+01
     24.430  0.5114E-01  0.2467E+00  0.5842E+01  0.5820E+01
     24.666  0.2373E-01  0.6248E-01  0.5848E+01  0.5835E+01
     24.903  0.5870E-01  0.4934E-01  0.5862E+01  0.5846E+01
     25.140  0.8238E-02  0.2913E-01  0.5864E+01  0.5853E+01
     25.377  0.1204E+00  0.4579E-01  0.5892E+01  0.5864E+01
     25.614  0.1178E+00  0.5554E-01  0.5920E+01  0.5877E+01
     25.851  0.3870E-01  0.1636E+00  0.5929E+01  0.5916E+01
     26.088  0.3025E-01  0.3670E-01  0.5936E+01  0.5925E+01
     26.325  0.5709E-01  0.4990E-01  0.5950E+01  0.5937E+01
     26.562  0.1015E+00  0.2097E-01  0.5974E+01  0.5941E+01
     26.799 -0.3450E-02  0.1253E+00  0.5973E+01  0.5971E+01
     27.036 -0.7741E-03  0.9353E-02  0.5973E+01  0.5973E+01
     27.273 -0.7110E-03 -0.1902E-02  0.5973E+01  0.5973E+01
     27.510  0.2615E-01 -0.1290E-02  0.5979E+01  0.5973E+01
     27.747  0.1297E-01  0.1703E-01  0.5982E+01  0.5977E+01
     27.984  0.2391E-01  0.2222E-01  0.5988E+01  0.5982E+01
     28.221  0.1090E-01  0.1914E-01  0.5990E+01  0.5986E+01
     28.458  0.3505E-01  0.1999E-01  0.5999E+01  0.5991E+01
     28.695  0.1829E+00 -0.8431E-02  0.6042E+01  0.5989E+01
     28.932  0.2104E+00  0.9235E-01  0.6092E+01  0.6011E+01
     29.169  0.3036E+00  0.2815E+00  0.6164E+01  0.6078E+01
     29.406  0.7026E-01  0.2586E+00  0.6180E+01  0.6139E+01
     29.643  0.1123E+00  0.1548E+00  0.6207E+01  0.6176E+01
     29.880  0.5421E-01  0.9780E-01  0.6220E+01  0.6199E+01
     30.117  0.8212E-01  0.6461E-01  0.6239E+01  0.6214E+01
     30.354  0.1587E+00  0.6953E-01  0.6277E+01  0.6231E+01
     30.591  0.1061E+00  0.1574E+00  0.6302E+01  0.6268E+01
     30.828  0.1582E+00  0.1043E+00  0.6340E+01  0.6293E+01
     31.065  0.1700E-01  0.1817E+00  0.6344E+01  0.6336E+01
     31.302  0.5464E-01  0.1900E-01  0.6357E+01  0.6340E+01
     31.539  0.5037E-01  0.5186E-01  0.6368E+01  0.6353E+01
     31.776  0.1126E+00  0.4900E-01  0.6395E+01  0.6364E+01
     32.013  0.6979E-01  0.1316E+00  0.6412E+01  0.6395E+01
     32.250  0.1277E+00  0.6480E-01  0.6442E+01  0.6411E+01
     32.486  0.5779E-01  0.1029E+00  0.6456E+01  0.6435E+01
     32.723  0.8828E-01  0.8293E-01  0.6477E+01  0.6455E+01
     32.960  0.1171E+00  0.8269E-01  0.6504E+01  0.6474E+01
     33.197  0.2294E+00  0.1053E+00  0.6559E+01  0.6499E+01
     33.434  0.2109E+00  0.2547E+00  0.6609E+01  0.6560E+01
     33.671  0.7430E-01  0.1831E+00  0.6626E+01  0.6603E+01
     33.908  0.1416E+00  0.9807E-01  0.6660E+01  0.6626E+01
     34.145  0.1100E+00  0.1451E+00  0.6686E+01  0.6661E+01
     34.382  0.1052E+00  0.9442E-01  0.6711E+01  0.6683E+01
     34.619  0.1440E+00  0.1230E+00  0.6745E+01  0.6712E+01
     34.856  0.1794E+00  0.1411E+00  0.6787E+01  0.6746E+01
     35.093  0.2416E-01  0.1726E+00  0.6793E+01  0.6787E+01
     35.330  0.1670E+00  0.3215E-01  0.6833E+01  0.6794E+01
     35.567  0.1452E+00  0.1713E+00  0.6867E+01  0.6835E+01
     35.804  0.2984E+00  0.1790E+00  0.6938E+01  0.6877E+01
     36.041  0.6515E-01  0.2702E+00  0.6953E+01  0.6941E+01
     36.278  0.2183E+00  0.7604E-01  0.7005E+01  0.6959E+01
     36.515  0.1752E+00  0.2550E+00  0.7047E+01  0.7020E+01
     36.752  0.1384E+00  0.1331E+00  0.7079E+01  0.7051E+01
     36.989  0.7402E-01  0.1301E+00  0.7097E+01  0.7082E+01
     37.226  0.9469E-01  0.6553E-01  0.7119E+01  0.7098E+01
     37.463  0.2565E+00  0.1737E+00  0.7180E+01  0.7139E+01
     37.700  0.9879E-01  0.2291E+00  0.7204E+01  0.7193E+01
     37.937  0.2562E+00  0.7695E-01  0.7264E+01  0.7211E+01
     38.174  0.2552E+00  0.3248E+00  0.7325E+01  0.7288E+01
     38.411  0.3842E-01  0.1698E+00  0.7334E+01  0.7328E+01
     38.648  0.2077E+00  0.8373E-01  0.7383E+01  0.7348E+01
     38.885  0.1704E+00  0.2153E+00  0.7423E+01  0.7399E+01
     39.122  0.2781E+00  0.1942E+00  0.7489E+01  0.7445E+01
     39.359  0.6847E-01  0.2292E+00  0.7506E+01  0.7500E+01
     39.596  0.1551E+00  0.4152E-01  0.7542E+01  0.7509E+01
     39.833  0.2873E+00  0.2743E+00  0.7610E+01  0.7574E+01
     40.070  0.1765E+00  0.2226E+00  0.7652E+01  0.7627E+01
     40.306  0.1692E+00  0.1520E+00  0.7692E+01  0.7663E+01
     40.543  0.3031E+00  0.2818E+00  0.7764E+01  0.7730E+01
     40.780  0.1894E-01  0.1656E+00  0.7769E+01  0.7769E+01
     41.017  0.9832E-01  0.1508E-01  0.7792E+01  0.7773E+01
     41.254  0.4685E-01  0.1131E+00  0.7803E+01  0.7800E+01
     41.491  0.1613E-01  0.7970E-02  0.7807E+01  0.7802E+01
     41.728  0.3365E+00  0.1575E+00  0.7887E+01  0.7839E+01
     41.965  0.3280E+00  0.3988E+00  0.7964E+01  0.7933E+01
     42.202  0.7888E-01  0.1555E+00  0.7983E+01  0.7970E+01
     42.439  0.2840E+00  0.1754E+00  0.8050E+01  0.8012E+01
     42.676  0.1835E+00  0.2778E+00  0.8094E+01  0.8078E+01
     42.913  0.1628E+00  0.1097E+00  0.8132E+01  0.8104E+01
     43.150  0.1073E+00  0.1929E+00  0.8158E+01  0.8149E+01
     43.387  0.2013E+00  0.1748E+00  0.8205E+01  0.8191E+01
     43.624  0.1659E+00  0.2144E+00  0.8245E+01  0.8242E+01
     43.861  0.6708E-01  0.6918E-01  0.8261E+01  0.8258E+01
     44.098  0.1707E+00  0.9535E-01  0.8301E+01  0.8281E+01
     44.335  0.1820E+00  0.2205E+00  0.8344E+01  0.8333E+01
     44.572  0.6487E-03  0.5417E-01  0.8344E+01  0.8346E+01
     44.809  0.9870E-01  0.8399E-01  0.8368E+01  0.8366E+01
     45.046  0.1930E+00  0.1369E+00  0.8414E+01  0.8398E+01
     45.283  0.9733E-01  0.1287E+00  0.8437E+01  0.8428E+01
     45.520  0.2400E+00  0.1365E+00  0.8493E+01  0.8461E+01
     45.757  0.2235E+00  0.2585E+00  0.8546E+01  0.8522E+01
     45.994  0.7130E-01  0.1794E+00  0.8563E+01  0.8565E+01
     46.231  0.7891E-01  0.3825E-01  0.8582E+01  0.8574E+01
     46.468  0.1019E+00  0.1000E+00  0.8606E+01  0.8597E+01
     46.705  0.2115E+00  0.9818E-01  0.8656E+01  0.8621E+01
     46.942  0.1773E+00  0.2674E+00  0.8698E+01  0.8684E+01
     47.179  0.1124E+00  0.1426E+00  0.8725E+01  0.8718E+01
     47.416  0.1125E+00  0.1117E+00  0.8752E+01  0.8744E+01
     47.653  0.1503E+00  0.7662E-01  0.8787E+01  0.8762E+01
     47.890  0.1953E+00  0.2209E+00  0.8833E+01  0.8815E+01
     48.126  0.1263E+00  0.1658E+00  0.8863E+01  0.8854E+01
     48.363  0.1240E+00  0.1053E+00  0.8893E+01  0.8879E+01
     48.600  0.2223E+00  0.1584E+00  0.8945E+01  0.8917E+01
     48.837  0.1934E+00  0.2416E+00  0.8991E+01  0.8974E+01
     49.074  0.1921E+00  0.1698E+00  0.9037E+01  0.9014E+01
     49.311  0.1338E+00  0.1507E+00  0.9069E+01  0.9050E+01
     49.548  0.3208E+00  0.2793E+00  0.9145E+01  0.9116E+01
     49.785  0.1034E+00  0.1967E+00  0.9169E+01  0.9163E+01
     50.022  0.1414E+00  0.9782E-01  0.9203E+01  0.9186E+01
     50.259  0.1148E+00  0.1408E+00  0.9230E+01  0.9219E+01
     50.496  0.1297E+00  0.1130E+00  0.9260E+01  0.9246E+01
     50.733  0.2845E+00  0.1993E+00  0.9328E+01  0.9293E+01
     50.970  0.4984E+00  0.4974E+00  0.9446E+01  0.9411E+01
     51.207  0.1859E+00  0.3048E+00  0.9490E+01  0.9483E+01
     51.444  0.1042E+00  0.1150E+00  0.9515E+01  0.9510E+01
     51.681  0.6084E-01  0.5406E-01  0.9529E+01  0.9523E+01
     51.918  0.1595E+00  0.1170E+00  0.9567E+01  0.9551E+01
     52.155  0.2494E+00  0.2500E+00  0.9626E+01  0.9610E+01
     52.392  0.6385E-01  0.1063E+00  0.9641E+01  0.9635E+01
     52.629  0.2288E+00  0.1174E+00  0.9695E+01  0.9663E+01
     52.866  0.3658E+00  0.4318E+00  0.9782E+01  0.9766E+01
     53.103  0.2088E-01  0.7668E-01  0.9787E+01  0.9784E+01
     53.340  0.9427E-01  0.5405E-01  0.9809E+01  0.9796E+01
     53.577  0.1324E+00  0.1580E+00  0.9841E+01  0.9834E+01
     53.814  0.6922E-01  0.7470E-01  0.9857E+01  0.9852E+01
     54.051  0.9903E-01  0.1065E+00  0.9881E+01  0.9877E+01
     54.288  0.2993E-01  0.2538E-01  0.9888E+01  0.9883E+01
     54.525  0.7527E-01  0.2908E-01  0.9906E+01  0.9890E+01
     54.762  0.6712E-01  0.9277E-01  0.9921E+01  0.9912E+01
     54.999  0.1756E+00  0.1779E+00  0.9963E+01  0.9954E+01
     55.236  0.1758E+00  0.1515E+00  0.1000E+02  0.9990E+01
     55.473  0.2379E+00  0.2043E+00  0.1006E+02  0.1004E+02
     55.710  0.1168E+00  0.1139E+00  0.1009E+02  0.1007E+02
     55.946  0.1995E+00  0.1653E+00  0.1014E+02  0.1010E+02
     56.183  0.6799E-01  0.1993E+00  0.1015E+02  0.1015E+02
     56.420 -0.2285E-02  0.2396E-02  0.1015E+02  0.1015E+02
     56.657  0.7489E-02 -0.2431E-02  0.1015E+02  0.1015E+02
     56.894  0.4340E-01  0.3722E-01  0.1016E+02  0.1016E+02
     57.131  0.5802E-01  0.6558E-01  0.1018E+02  0.1018E+02
     57.368  0.7491E-01  0.3769E-01  0.1020E+02  0.1018E+02
     57.605  0.2415E+00  0.2060E+00  0.1025E+02  0.1023E+02
     57.842  0.2399E+00  0.2119E+00  0.1031E+02  0.1028E+02
     58.079  0.3423E+00  0.3214E+00  0.1039E+02  0.1036E+02
     58.316  0.4758E+00  0.4364E+00  0.1050E+02  0.1046E+02
     58.553  0.3117E+00  0.3536E+00  0.1058E+02  0.1055E+02
     58.790  0.4296E+00  0.2155E+00  0.1068E+02  0.1060E+02
     59.027  0.2221E+00  0.3829E+00  0.1073E+02  0.1069E+02
     59.264  0.7109E-01  0.2249E+00  0.1075E+02  0.1074E+02
     59.501  0.1195E+00  0.1116E+00  0.1078E+02  0.1077E+02
     59.738  0.7995E-01  0.9640E-01  0.1080E+02  0.1079E+02
     59.975  0.2213E+00  0.1116E+00  0.1085E+02  0.1082E+02
     60.212  0.2969E+00  0.3624E+00  0.1092E+02  0.1090E+02
     60.449  0.1875E+00  0.1774E+00  0.1096E+02  0.1095E+02
     60.686  0.1706E+00  0.1869E+00  0.1100E+02  0.1099E+02
     60.923  0.4150E-01  0.7264E-01  0.1101E+02  0.1101E+02
     61.160  0.4893E-01  0.5292E-01  0.1102E+02  0.1102E+02
     61.397  0.8963E-02  0.1882E-01  0.1103E+02  0.1102E+02
     61.634  0.2409E+00  0.9714E-01  0.1108E+02  0.1105E+02
     61.871  0.2031E+00  0.2988E+00  0.1113E+02  0.1112E+02
     62.108  0.1341E+00  0.9138E-01  0.1116E+02  0.1114E+02
     62.345  0.1471E+00  0.1936E+00  0.1120E+02  0.1119E+02
     62.582  0.3117E+00  0.2907E+00  0.1127E+02  0.1125E+02
     62.819  0.1545E+00  0.2107E+00  0.1131E+02  0.1130E+02
     63.056  0.1851E+00  0.1097E+00  0.1135E+02  0.1133E+02
     63.293  0.2181E+00  0.3881E-01  0.1140E+02  0.1134E+02
     63.530  0.1918E+00  0.3051E+00  0.1145E+02  0.1141E+02
     63.766  0.1139E+00  0.1714E+00  0.1148E+02  0.1145E+02
     64.003  0.2483E+00  0.1084E+00  0.1154E+02  0.1148E+02
     64.240  0.2076E+00  0.2136E+00  0.1159E+02  0.1153E+02
     64.477  0.8662E-01  0.1040E+00  0.1161E+02  0.1155E+02
     64.714  0.8616E-01  0.1906E+00  0.1163E+02  0.1160E+02
     64.951  0.1492E+00  0.1115E+00  0.1166E+02  0.1163E+02
     65.188  0.6685E-01 -0.1060E-02  0.1168E+02  0.1163E+02
     65.425  0.2209E+00  0.3724E-01  0.1173E+02  0.1163E+02
     65.662  0.1415E+00  0.1692E+00  0.1176E+02  0.1167E+02
     65.899  0.1517E+00  0.1468E+00  0.1180E+02  0.1171E+02
     66.136  0.1105E+00  0.2105E+00  0.1183E+02  0.1176E+02
     66.373  0.1518E+00  0.1268E+00  0.1186E+02  0.1179E+02
     66.610  0.7910E-01 -0.3679E-02  0.1188E+02  0.1179E+02
     66.847  0.8303E-01  0.1907E-01  0.1190E+02  0.1179E+02
     67.084  0.9863E-01  0.6230E-01  0.1192E+02  0.1181E+02
     67.321  0.4614E-01  0.1849E+00  0.1193E+02  0.1185E+02
     67.558  0.9264E-01  0.2325E+00  0.1196E+02  0.1191E+02
     67.795  0.1129E+00  0.8121E-01  0.1198E+02  0.1193E+02
     68.032  0.1859E-01  0.7947E-02  0.1199E+02  0.1193E+02
     68.269 -0.2518E-02  0.8326E-02  0.1199E+02  0.1193E+02
     68.506 -0.1836E-02  0.4438E-01  0.1199E+02  0.1194E+02
     68.743  0.3301E-01  0.5437E-01  0.1199E+02  0.1195E+02
     68.980  0.2802E-01  0.1049E+00  0.1200E+02  0.1198E+02
     69.217 -0.1929E-02  0.4174E-01  0.1200E+02  0.1199E+02
     69.454 -0.9276E-04 -0.3534E-02  0.1200E+02  0.1199E+02
     69.691 -0.1202E-06 -0.1452E-02  0.1200E+02  0.1199E+02
     69.928 -0.7870E-11  0.1198E-01  0.1200E+02  0.1199E+02
     70.165 -0.2534E-16  0.4554E-01  0.1200E+02  0.1200E+02
     70.402  0.0000E+00  0.1396E-02  0.1200E+02  0.1200E+02
     70.639  0.0000E+00 -0.5092E-03  0.1200E+02  0.1200E+02
     70.876  0.0000E+00 -0.2269E-05  0.1200E+02  0.1200E+02
     71.113  0.0000E+00 -0.4648E-09  0.1200E+02  0.1200E+02
     71.350  0.0000E+00 -0.5183E-14  0.1200E+02  0.1200E+02
     71.586  0.0000E+00  0.0000E+00  0.1200E+02  0.1200E+02
     71.823  0.0000E+00  0.0000E+00  0.1200E+02  0.1200E+02
     72.060  0.0000E+00  0.0000E+00  0.1200E+02  0.1200E+02
     72.297  0.0000E+00  0.0000E+00  0.1200E+02  0.1200E+02
     72.534  0.0000E+00  0.0000E+00  0.1200E+02  0.1200E+02
     72.771  0.0000E+00  0.0000E+00  0.1200E+02  0.1200E+02
     73.008  0.0000E+00  0.0000E+00  0.1200E+02  0.1200E+02
     73.245  0.0000E+00  0.0000E+00  0.1200E+02  0.1200E+02
     73.24528641      2.15437306  301     18.21876766      1.00000000
      2.154  0.0000E+00  0.0000E+00  0.0000E+00  0.0000E+00  0.0000E+00  0.0000E+00  0.0000E+00  0.0000E+00  0.0000E+00  0.0000E+00  0.0000E+00  0.0000E+00  0.0000E+00  0.0000E+00  0.0000E+00  0.0000E+00  0.0000E+00  0.0000E+00
      2.391  0.0000E+00  0.0000E+00  0.0000E+00  0.0000E+00  0.0000E+00  0.0000E+00  0.0000E+00  0.0000E+00  0.0000E+00  0.0000E+00  0.0000E+00  0.0000E+00  0.0000E+00  0.0000E+00  0.0000E+00  0.0000E+00  0.0000E+00  0.0000E+00
      2.628  0.0000E+00  0.0000E+00  0.0000E+00  0.0000E+00  0.0000E+00  0.0000E+00  0.0000E+00  0.0000E+00  0.0000E+00  0.0000E+00  0.0000E+00  0.0000E+00  0.0000E+00  0.0000E+00  0.0000E+00  0.0000E+00  0.0000E+00  0.0000E+00
      2.865  0.0000E+00  0.0000E+00  0.0000E+00  0.0000E+00  0.0000E+00  0.0000E+00  0.0000E+00  0.0000E+00  0.0000E+00  0.0000E+00  0.0000E+00  0.0000E+00  0.0000E+00  0.0000E+00  0.0000E+00  0.0000E+00  0.0000E+00  0.0000E+00
      3.102  0.0000E+00  0.0000E+00  0.0000E+00  0.0000E+00  0.0000E+00  0.0000E+00  0.0000E+00  0.0000E+00  0.0000E+00  0.0000E+00  0.0000E+00  0.0000E+00  0.0000E+00  0.0000E+00  0.0000E+00  0.0000E+00  0.0000E+00  0.0000E+00
      3.339  0.0000E+00  0.0000E+00  0.0000E+00  0.0000E+00  0.0000E+00  0.0000E+00  0.0000E+00  0.0000E+00  0.0000E+00  0.0000E+00  0.0000E+00  0.0000E+00  0.0000E+00  0.0000E+00  0.0000E+00  0.0000E+00  0.0000E+00  0.0000E+00
      3.576 -0.2941E-37 -0.3137E-38 -0.4309E-53 -0.3422E-56 -0.4309E-53 -0.3422E-56 -0.4309E-53 -0.3422E-56 -0.2494E-48 -0.7748E-49 -0.2494E-48 -0.7748E-49 -0.1706E-53 -0.5557E-55 -0.2494E-48 -0.7748E-49 -0.1706E-53 -0.5557E-55
      3.813 -0.1287E-28 -0.1844E-29 -0.1885E-44 -0.2012E-47 -0.1885E-44 -0.2012E-47 -0.1885E-44 -0.2012E-47 -0.1091E-39 -0.4556E-40 -0.1091E-39 -0.4556E-40 -0.7466E-45 -0.3267E-46 -0.1091E-39 -0.4556E-40 -0.7466E-45 -0.3267E-46
      4.050 -0.3320E-21 -0.6400E-22 -0.5455E-37 -0.6334E-39 -0.5455E-37 -0.6334E-39 -0.5455E-37 -0.6334E-39 -0.2816E-32 -0.1581E-32 -0.2816E-32 -0.1581E-32 -0.1926E-37 -0.1134E-38 -0.2816E-32 -0.1581E-32 -0.1926E-37 -0.1134E-38
      4.287 -0.4843E-15 -0.1258E-15 -0.2445E-29 -0.3093E-30 -0.2445E-29 -0.3093E-30 -0.2445E-29 -0.3093E-30 -0.4108E-26 -0.3107E-26 -0.4108E-26 -0.3107E-26 -0.2811E-31 -0.2229E-32 -0.4108E-26 -0.3107E-26 -0.2811E-31 -0.2229E-32
      4.524 -0.4115E-10 -0.1445E-10 -0.5624E-22 -0.1001E-22 -0.5624E-22 -0.1001E-22 -0.5624E-22 -0.1001E-22 -0.3507E-21 -0.3573E-21 -0.3507E-21 -0.3573E-21 -0.2448E-26 -0.2642E-27 -0.3507E-21 -0.3573E-21 -0.2448E-26 -0.2642E-27
      4.761 -0.1895E-06 -0.9068E-07 -0.7525E-16 -0.1834E-16 -0.7525E-16 -0.1834E-16 -0.7525E-16 -0.1834E-16 -0.3891E-17 -0.2750E-17 -0.3891E-17 -0.2750E-17 -0.5355E-21 -0.9912E-22 -0.3891E-17 -0.2750E-17 -0.5355E-21 -0.9912E-22
      4.998 -0.3976E-04 -0.2682E-04 -0.5864E-11 -0.1964E-11 -0.5864E-11 -0.1964E-11 -0.5864E-11 -0.1964E-11 -0.1782E-12 -0.5525E-13 -0.1782E-12 -0.5525E-13 -0.2548E-15 -0.6521E-16 -0.1782E-12 -0.5525E-13 -0.2548E-15 -0.6521E-16
      5.235  0.1316E-03 -0.4477E-05 -0.2483E-07 -0.1151E-07 -0.2483E-07 -0.1151E-07 -0.2483E-07 -0.1151E-07 -0.7490E-09 -0.3185E-09 -0.7490E-09 -0.3185E-09 -0.7135E-11 -0.2523E-11 -0.7490E-09 -0.3185E-09 -0.7135E-11 -0.2523E-11
      5.472  0.2974E-02  0.2891E-02 -0.4908E-05 -0.3247E-05 -0.4908E-05 -0.3247E-05 -0.4908E-05 -0.3247E-05 -0.1420E-06 -0.8696E-07 -0.1420E-06 -0.8696E-07 -0.1042E-07 -0.5157E-08 -0.1420E-06 -0.8696E-07 -0.1042E-07 -0.5157E-08
      5.709  0.1558E-02  0.8274E-03  0.7315E-05 -0.7209E-05  0.7315E-05 -0.7209E-05  0.7315E-05 -0.7209E-05  0.5915E-06  0.6908E-07  0.5915E-06  0.6908E-07 -0.5508E-06 -0.4182E-06  0.5915E-06  0.6908E-07 -0.5508E-06 -0.4182E-06
      5.946  0.3249E-01  0.2886E-01  0.4816E-03  0.4215E-03  0.4816E-03  0.4215E-03  0.4816E-03  0.4215E-03  0.1080E-04  0.9370E-05  0.1080E-04  0.9370E-05  0.5685E-05  0.3646E-05  0.1080E-04  0.9370E-05  0.5685E-05  0.3646E-05
      6.183  0.2262E-01  0.2706E-01  0.3914E-03  0.4624E-03  0.3914E-03  0.4624E-03  0.3914E-03  0.4624E-03  0.1619E-05  0.2825E-05  0.1619E-05  0.2825E-05  0.1463E-04  0.1519E-04  0.1619E-05  0.2825E-05  0.1463E-04  0.1519E-04
      6.420 -0.8013E-03 -0.1155E-02 -0.1368E-04 -0.3776E-04 -0.1368E-04 -0.3776E-04 -0.1368E-04 -0.3776E-04 -0.4887E-06 -0.2514E-05 -0.4887E-06 -0.2514E-05 -0.1516E-06 -0.2036E-06 -0.4887E-06 -0.2514E-05 -0.1516E-06 -0.2036E-06
      6.657  0.3180E-01  0.2816E-01  0.1171E-02  0.1045E-02  0.1171E-02  0.1045E-02  0.1171E-02  0.1045E-02  0.6934E-04  0.5672E-04  0.6934E-04  0.5672E-04  0.2077E-04  0.1868E-04  0.6934E-04  0.5672E-04  0.2077E-04  0.1868E-04
      6.894  0.1893E-01  0.1916E-01  0.7966E-03  0.7310E-03  0.7966E-03  0.7310E-03  0.7966E-03  0.7310E-03  0.4112E-04  0.3464E-04  0.4112E-04  0.3464E-04  0.3991E-04  0.2130E-04  0.4112E-04  0.3464E-04  0.3991E-04  0.2130E-04
      7.131  0.8283E-01  0.7583E-01  0.4342E-02  0.3987E-02  0.4342E-02  0.3987E-02  0.4342E-02  0.3987E-02  0.3455E-03  0.2662E-03  0.3455E-03  0.2662E-03  0.2898E-03  0.2632E-03  0.3455E-03  0.2662E-03  0.2898E-03  0.2632E-03
      7.368  0.2466E-01  0.3724E-01  0.1297E-02  0.1971E-02  0.1297E-02  0.1971E-02  0.1297E-02  0.1971E-02  0.1801E-03  0.2179E-03  0.1801E-03  0.2179E-03  0.2806E-04  0.6301E-04  0.1801E-03  0.2179E-03  0.2806E-04  0.6301E-04
      7.605  0.2400E-02  0.1881E-04  0.2434E-03  0.6316E-04  0.2434E-03  0.6316E-04  0.2434E-03  0.6316E-04 -0.1862E-04 -0.1104E-04 -0.1862E-04 -0.1104E-04  0.1022E-03  0.4365E-04 -0.1862E-04 -0.1104E-04  0.1022E-03  0.4365E-04
      7.842  0.1169E-01  0.1271E-01  0.8770E-03  0.9627E-03  0.8770E-03  0.9627E-03  0.8770E-03  0.9627E-03 -0.4993E-04 -0.5315E-04 -0.4993E-04 -0.5315E-04  0.2977E-03  0.3091E-03 -0.4993E-04 -0.5315E-04  0.2977E-03  0.3091E-03
      8.079  0.5875E-01  0.3803E-01  0.5246E-02  0.3374E-02  0.5246E-02  0.3374E-02  0.5246E-02  0.3374E-02  0.1099E-02  0.6411E-03  0.1099E-02  0.6411E-03  0.3405E-03  0.1789E-03  0.1099E-02  0.6411E-03  0.3405E-03  0.1789E-03
      8.316  0.8716E-01  0.1027E+00  0.8204E-02  0.9629E-02  0.8204E-02  0.9629E-02  0.8204E-02  0.9629E-02  0.1122E-02  0.1313E-02  0.1122E-02  0.1313E-02  0.1118E-02  0.1087E-02  0.1122E-02  0.1313E-02  0.1118E-02  0.1087E-02
      8.553  0.3016E-01  0.2248E-01  0.3177E-02  0.2323E-02  0.3177E-02  0.2323E-02  0.3177E-02  0.2323E-02  0.1148E-02  0.4462E-03  0.1148E-02  0.4462E-03  0.3555E-03  0.3281E-03  0.1148E-02  0.4462E-03  0.3555E-03  0.3281E-03
      8.790  0.6258E-01  0.5871E-01  0.6762E-02  0.6335E-02  0.6762E-02  0.6335E-02  0.6762E-02  0.6335E-02  0.3053E-02  0.2336E-02  0.3053E-02  0.2336E-02  0.1099E-02  0.6074E-03  0.3053E-02  0.2336E-02  0.1099E-02  0.6074E-03
      9.026  0.5696E-01  0.6653E-01  0.7385E-02  0.8350E-02  0.7385E-02  0.8350E-02  0.7385E-02  0.8350E-02  0.1162E-02  0.1810E-02  0.1162E-02  0.1810E-02  0.3801E-02  0.3261E-02  0.1162E-02  0.1810E-02  0.3801E-02  0.3261E-02
      9.263 -0.1147E-03  0.1607E-01 -0.2055E-04  0.2147E-02 -0.2055E-04  0.2147E-02 -0.2055E-04  0.2147E-02 -0.4498E-03  0.8002E-04 -0.4498E-03  0.8002E-04 -0.2727E-03  0.1128E-02 -0.4498E-03  0.8002E-04 -0.2727E-03  0.1128E-02
      9.500  0.3758E-01  0.4431E-03  0.5460E-02  0.1599E-03  0.5460E-02  0.1599E-03  0.5460E-02  0.1599E-03  0.3507E-02 -0.1668E-03  0.3507E-02 -0.1668E-03  0.5944E-02  0.1064E-03  0.3507E-02 -0.1668E-03  0.5944E-02  0.1064E-03
      9.737  0.1562E+00  0.1004E+00  0.2276E-01  0.1575E-01  0.2276E-01  0.1575E-01  0.2276E-01  0.1575E-01  0.2098E-01  0.8054E-02  0.2098E-01  0.8054E-02  0.2856E-01  0.4891E-02  0.2098E-01  0.8054E-02  0.2856E-01  0.4891E-02
      9.974  0.1277E+00  0.1323E+00  0.1943E-01  0.2068E-01  0.1943E-01  0.2068E-01  0.1943E-01  0.2068E-01  0.2456E-01  0.1435E-01  0.2456E-01  0.1435E-01  0.7819E-01  0.2159E-01  0.2456E-01  0.1435E-01  0.7819E-01  0.2159E-01
     10.211  0.1272E+00  0.9969E-01  0.1813E-01  0.1640E-01  0.1813E-01  0.1640E-01  0.1813E-01  0.1640E-01  0.5560E-01  0.1439E-01  0.5560E-01  0.1439E-01  0.6598E-01  0.7039E-01  0.5560E-01  0.1439E-01  0.6598E-01  0.7039E-01
     10.448  0.4168E-01  0.1018E+00  0.8283E-02  0.1609E-01  0.8283E-02  0.1609E-01  0.8283E-02  0.1609E-01  0.1913E-01  0.3277E-01  0.1913E-01  0.3277E-01  0.8176E-01  0.6468E-01  0.1913E-01  0.3277E-01  0.8176E-01  0.6468E-01
     10.685  0.1104E+00  0.6330E-01  0.2333E-01  0.7784E-02  0.2333E-01  0.7784E-02  0.2333E-01  0.7784E-02  0.9645E-01  0.3893E-01  0.9645E-01  0.3893E-01  0.9162E-01  0.6702E-01  0.9645E-01  0.3893E-01  0.9162E-01  0.6702E-01
     10.922  0.1181E+00  0.8556E-01  0.2983E-01  0.2051E-01  0.2983E-01  0.2051E-01  0.2983E-01  0.2051E-01  0.1251E+00  0.3490E-01  0.1251E+00  0.3490E-01  0.8460E-01  0.8872E-01  0.1251E+00  0.3490E-01  0.8460E-01  0.8872E-01
     11.159  0.6211E-01  0.1537E+00  0.2367E-01  0.3880E-01  0.2367E-01  0.3880E-01  0.2367E-01  0.3880E-01  0.9930E-01  0.9294E-01  0.9930E-01  0.9294E-01  0.1147E+00  0.9450E-01  0.9930E-01  0.9294E-01  0.1147E+00  0.9450E-01
     11.396  0.2296E-01  0.6297E-01  0.1880E-01  0.1823E-01  0.1880E-01  0.1823E-01  0.1880E-01  0.1823E-01  0.1073E+00  0.1003E+00  0.1073E+00  0.1003E+00  0.8202E-01  0.7004E-01  0.1073E+00  0.1003E+00  0.8202E-01  0.7004E-01
     11.633  0.4455E-01  0.3446E-01  0.2858E-01  0.1940E-01  0.2858E-01  0.1940E-01  0.2858E-01  0.1940E-01  0.1402E+00  0.8118E-01  0.1402E+00  0.8118E-01  0.7397E-01  0.1266E+00  0.1402E+00  0.8118E-01  0.7397E-01  0.1266E+00
     11.870  0.1958E-01  0.2500E-01  0.2520E-01  0.2209E-01  0.2520E-01  0.2209E-01  0.2520E-01  0.2209E-01  0.1085E+00  0.1028E+00  0.1085E+00  0.1028E+00  0.4864E-01  0.6934E-01  0.1085E+00  0.1028E+00  0.4864E-01  0.6934E-01
     12.107  0.6840E-02  0.4908E-01  0.2381E-01  0.2999E-01  0.2381E-01  0.2999E-01  0.2381E-01  0.2999E-01  0.1078E+00  0.1507E+00  0.1078E+00  0.1507E+00  0.5916E-01  0.4935E-01  0.1078E+00  0.1507E+00  0.5916E-01  0.4935E-01
     12.344  0.1073E-01  0.1064E-01  0.3483E-01  0.2276E-01  0.3483E-01  0.2276E-01  0.3483E-01  0.2276E-01  0.1107E+00  0.9285E-01  0.1107E+00  0.9285E-01  0.9917E-01  0.4032E-01  0.1107E+00  0.9285E-01  0.9917E-01  0.4032E-01
     12.581  0.1977E-02  0.5979E-02  0.1366E-01  0.3251E-01  0.1366E-01  0.3251E-01  0.1366E-01  0.3251E-01  0.7600E-01  0.1170E+00  0.7600E-01  0.1170E+00  0.4648E-01  0.9141E-01  0.7600E-01  0.1170E+00  0.4648E-01  0.9141E-01
     12.818  0.1895E-02  0.9802E-02  0.1490E-01  0.2535E-01  0.1490E-01  0.2535E-01  0.1490E-01  0.2535E-01  0.6418E-01  0.1006E+00  0.6418E-01  0.1006E+00  0.6763E-01  0.5121E-01  0.6418E-01  0.1006E+00  0.6763E-01  0.5121E-01
     13.055  0.8217E-02  0.2009E-02  0.2725E-01  0.1786E-01  0.2725E-01  0.1786E-01  0.2725E-01  0.1786E-01  0.1166E+00  0.8755E-01  0.1166E+00  0.8755E-01  0.7291E-01  0.5623E-01  0.1166E+00  0.8755E-01  0.7291E-01  0.5623E-01
     13.292  0.1639E-01  0.1105E-02  0.4424E-01  0.1319E-01  0.4424E-01  0.1319E-01  0.4424E-01  0.1319E-01  0.1707E+00  0.5730E-01  0.1707E+00  0.5730E-01  0.7454E-01  0.5427E-01  0.1707E+00  0.5730E-01  0.7454E-01  0.5427E-01
     13.529  0.1386E-01  0.6141E-02  0.1856E-01  0.3111E-01  0.1856E-01  0.3111E-01  0.1856E-01  0.3111E-01  0.8775E-01  0.1055E+00  0.8775E-01  0.1055E+00  0.4096E-01  0.8623E-01  0.8775E-01  0.1055E+00  0.4096E-01  0.8623E-01
     13.766  0.1913E-01  0.1446E-01  0.3732E-01  0.4432E-01  0.3732E-01  0.4432E-01  0.3732E-01  0.4432E-01  0.1576E+00  0.1720E+00  0.1576E+00  0.1720E+00  0.8947E-01  0.4902E-01  0.1576E+00  0.1720E+00  0.8947E-01  0.4902E-01
     14.003  0.2102E-01  0.1361E-01  0.3380E-01  0.2122E-01  0.3380E-01  0.2122E-01  0.3380E-01  0.2122E-01  0.1505E+00  0.9734E-01  0.1505E+00  0.9734E-01  0.8652E-01  0.3266E-01  0.1505E+00  0.9734E-01  0.8652E-01  0.3266E-01