    1    1    1    2
  0.6750000E+01  0.2121320E-09  0.2121320E-09  0.2121320E-09  0.5000000E-15
  1.000000000000000E-004
  CAR 
 fcc Ni                                  
     10     56     12
 
  0.0000000E+00  0.0000000E+00  0.0000000E+00  0.7513148E-03
      1          5.385778        5.410551   1.000000   1.000000
      2         14.012770       14.674665   1.000000   1.000000
      3         14.012770       14.674665   1.000000   1.000000
      4         14.012779       14.674676   1.000000   1.000000
      5         16.305729       16.903018   1.000000   1.000000
      6         16.305729       16.903018   1.000000   1.000000
      7         45.668587       45.614400   0.000000   0.000000
      8         53.569636       53.563846   0.000000   0.000000
      9         53.569661       53.563846   0.000000   0.000000
     10         53.569661       53.563924   0.000000   0.000000
     11         60.214597       60.182972   0.000000   0.000000
     12         60.801868       60.924380   0.000000   0.000000
 
  0.9090909E-01 -0.1734723E-17 -0.1734723E-17  0.6010518E-02
      1          5.852553        5.878672   1.000000   1.000000
      2         13.833999       14.481910   1.000000   1.000000
      3         14.150530       14.815027   1.000000   1.000000
      4         14.150538       14.815036   1.000000   1.000000
      5         16.241091       16.835201   1.000000   1.000000
      6         16.241093       16.835204   1.000000   1.000000
      7         45.431581       45.423400   0.000000   0.000000
      8         49.954821       49.955154   0.000000   0.000000
      9         53.548930       53.567455   0.000000   0.000000
     10         53.548968       53.567513   0.000000   0.000000
     11         59.847628       59.898148   0.000000   0.000000
     12         61.046762       61.145988   0.000000   0.000000
 
  0.1818182E+00  0.3469447E-17  0.3469447E-17  0.6010518E-02
      1          7.138786        7.175927   1.000000   1.000000
      2         13.466664       14.069939   1.000000   1.000000
      3         14.400521       15.057390   1.000000   1.000000
      4         14.400525       15.057396   1.000000   1.000000
      5         16.209688       16.812962   1.000000   1.000000
      6         16.209695       16.812976   1.000000   1.000000
      7         42.331549       42.462861   0.000000   0.000000
      8         47.336091       47.290762   0.000000   0.000000
      9         53.419988       53.491332   0.000000   0.000000
     10         53.420052       53.491362   0.000000   0.000000
     11         59.167681       59.213948   0.000000   0.000000
     12         60.773771       60.845755   0.000000   0.000000
 
  0.2727273E+00  0.6938894E-17  0.6938894E-17  0.6010518E-02
      1          8.755888        8.861646   1.000000   1.000000
      2         13.471150       13.957181   1.000000   1.000000
      3         14.380026       14.998279   1.000000   1.000000
      4         14.380027       14.998281   1.000000   1.000000
      5         16.586636       17.235118   1.000000   1.000000
      6         16.586660       17.235154   1.000000   1.000000
      7         37.165016       37.381031   0.000000   0.000000
      8         46.138948       46.099942   0.000000   0.000000
      9         53.209364       53.326082   0.000000   0.000000
     10         53.209441       53.326094   0.000000   0.000000
     11         58.792986       58.870139   0.000000   0.000000
     12         58.793009       58.870162   0.000000   0.000000
 
  0.3636364E+00 -0.2081668E-16  0.6938894E-17  0.6010518E-02
      1          9.673737        9.957301   1.000000   1.000000
      2         14.133188       14.720491   1.000000   1.000000
      3         14.133188       14.720494   1.000000   1.000000
      4         14.772496       15.011691   1.000000   1.000000
      5         17.228205       17.920146   1.000000   1.027958
      6         17.228264       17.920220   1.000000   1.027974
      7         32.359667       32.667048   0.000000   0.000000
      8         44.847484       44.800063   0.000000   0.000000
      9         52.736169       52.873280   0.000000   0.000000
     10         52.736267       52.873380   0.000000   0.000000
     11         56.749262       56.832622   0.000000   0.000000
     12         56.749310       56.832652   0.000000   0.000000
 
  0.4545455E+00  0.1387779E-16 -0.1387779E-16  0.6010518E-02
      1          9.816802       10.198071   1.000000   1.000000
      2         13.946192       14.519423   1.000000   1.000000
      3         13.946193       14.519426   1.000000   1.000000
      4         16.702308       16.753155   1.000000   1.000000
      5         17.691862       18.407475   1.000622  -0.018232
      6         17.691932       18.407562   1.000623  -0.018293
      7         28.967706       29.376961   0.000000   0.000000
      8         44.039428       43.982710   0.000000   0.000000
      9         52.288373       52.414393   0.000000   0.000000
     10         52.288547       52.414628   0.000000   0.000000
     11         55.861477       55.957676   0.000000   0.000000
     12         55.861538       55.957763   0.000000   0.000000
 
  0.9090909E-01  0.9090909E-01  0.5322447E-18  0.4507889E-02
      1          6.005746        6.032150   1.000000   1.000000
      2         13.679549       14.324911   1.000000   1.000000
      3         14.256108       14.922308   1.000000   1.000000
      4         14.256114       14.922315   1.000000   1.000000
      5         15.996059       16.579852   1.000000   1.000000
      6         16.416647       17.016369   1.000000   1.000000
      7         45.618633       45.607729   0.000000   0.000000
      8         50.702446       50.680181   0.000000   0.000000
      9         51.782322       51.841200   0.000000   0.000000
     10         51.782351       51.841229   0.000000   0.000000
     11         61.786080       61.850778   0.000000   0.000000
     12         61.786082       61.850820   0.000000   0.000000
 
  0.1818182E+00  0.9090909E-01 -0.1734723E-17  0.1803156E-01
      1          7.017483        7.050126   1.000000   1.000000
      2         13.296064       13.915354   1.000000   1.000000
      3         14.513842       15.173142   1.000000   1.000000
      4         14.544354       15.210195   1.000000   1.000000
      5         15.772820       16.352380   1.000000   1.000000
      6         16.524832       17.131332   1.000000   1.000000
      7         44.126509       44.222749   0.000000   0.000000
      8         47.166044       47.158683   0.000000   0.000000
      9         50.399492       50.497426   0.000000   0.000000
     10         52.741388       52.770129   0.000000   0.000000
     11         60.001158       60.087795   0.000000   0.000000
     12         62.603374       62.636957   0.000000   0.000000
 
  0.2727273E+00  0.9090909E-01 -0.6938894E-17  0.1803156E-01
      1          8.575590        8.646571   1.000000   1.000000
      2         13.025933       13.582906   1.000000   1.000000
      3         14.398635       15.001889   1.000000   1.000000
      4         14.662543       15.301357   1.000000   1.000000
      5         16.206495       16.826301   1.000000   1.000000
      6         16.839225       17.481203   1.000000   1.000001
      7         39.152283       39.336350   0.000000   0.000000
      8         45.922468       45.925289   0.000000   0.000000
      9         49.423145       49.548116   0.000000   0.000000
     10         53.813503       53.872847   0.000000   0.000000
     11         58.274600       58.369620   0.000000   0.000000
     12         62.100194       62.140369   0.000000   0.000000
 
  0.3636364E+00  0.9090909E-01  0.6938894E-17  0.1803156E-01
      1          9.800200       10.026207   1.000000   1.000000
      2         13.542015       13.932118   1.000000   1.000000
      3         14.038224       14.616659   1.000000   1.000000
      4         14.485098       15.089406   1.000000   1.000000
      5         17.344569       17.954405   1.000000   1.034190
      6         17.378130       18.065072   1.000000   0.981537
      7         34.085015       34.350997   0.000000   0.000000
      8         44.671645       44.671359   0.000000   0.000000
      9         48.887700       49.022857   0.000000   0.000000
     10         52.626277       52.750484   0.000000   0.000000
     11         58.112251       58.180876   0.000000   0.000000
     12         60.583366       60.643820   0.000000   0.000000
 
  0.4545455E+00  0.9090909E-01 -0.1387779E-16  0.1803156E-01
      1         10.101100       10.472190   1.000000   1.000000
      2         13.652329       14.158288   1.000000   1.000000
      3         14.253849       14.836378   1.000000   1.000000
      4         14.982674       15.343434   1.000000   1.000000
      5         17.748902       18.464075   1.002210  -0.035457
      6         18.881950       19.379911  -0.000014  -0.000000
      7         29.910887       30.275726   0.000000   0.000000
      8         43.652356       43.647075   0.000000   0.000000
      9         49.099743       49.229879   0.000000   0.000000
     10         50.670034       50.794714   0.000000   0.000000
     11         58.276943       58.349391   0.000000   0.000000
     12         59.126609       59.205098   0.000000   0.000000
 
 -0.4545455E+00  0.9090909E-01 -0.1387779E-16  0.1803156E-01
      1         10.121216       10.520283   1.000000   1.000000
      2         13.611354       14.131340   1.000000   1.000000
      3         14.154551       14.728766   1.000000   1.000000
      4         15.530734       15.877502   1.000000   1.000000
      5         17.664562       18.383034   1.000317   0.004695
      6         19.697519       20.129484  -0.000000  -0.000000
      7         28.491755       28.911094   0.000000   0.000000
      8         43.203122       43.206477   0.000000   0.000000
      9         49.418462       49.528500   0.000000   0.000000
     10         50.276945       50.404000   0.000000   0.000000
     11         58.073817       58.165555   0.000000   0.000000
     12         58.384616       58.463183   0.000000   0.000000
 
 -0.3636364E+00  0.9090909E-01  0.1387779E-16  0.1803156E-01
      1         10.090029       10.427845   1.000000   1.000000
      2         13.814142       14.341982   1.000000   1.000000
      3         14.256726       14.835862   1.000000   1.000000
      4         14.646041       14.976761   1.000000   1.000000
      5         17.103913       17.802668   1.000000   1.006111
      6         18.746968       19.330189  -0.000603  -0.000000
      7         31.140269       31.472082   0.000000   0.000000
      8         43.387348       43.414066   0.000000   0.000000
      9         49.367241       49.461962   0.000000   0.000000
     10         52.503045       52.630671   0.000000   0.000000
     11         57.450838       57.550322   0.000000   0.000000
     12         58.286525       58.349187   0.000000   0.000000
 
 -0.2727273E+00  0.9090909E-01 -0.6938894E-17  0.1803156E-01
      1          9.533827        9.692002   1.000000   1.000000
      2         13.355803       13.813732   1.000000   1.000000
      3         14.163187       14.744567   1.000000   1.000000
      4         14.516192       15.118719   1.000000   1.000000
      5         16.315880       16.975022   1.000000   1.000000
      6         17.660352       18.309515   1.000285   0.156360
      7         35.715522       35.955141   0.000000   0.000000
      8         44.041675       44.092862   0.000000   0.000000
      9         50.513518       50.591338   0.000000   0.000000
     10         55.333173       55.424977   0.000000   0.000000
     11         57.046665       57.083759   0.000000   0.000000
     12         57.529070       57.655740   0.000000   0.000000
 
 -0.1818182E+00  0.9090909E-01 -0.6938894E-17  0.1803156E-01
      1          8.046642        8.096423   1.000000   1.000000
      2         13.158192       13.744604   1.000000   1.000000
      3         14.432508       15.052789   1.000000   1.000000
      4         14.654602       15.313689   1.000000   1.000000
      5         15.781929       16.375818   1.000000   1.000000
      6         16.840208       17.473135   1.000000   1.000001
      7         40.907034       41.065717   0.000000   0.000000
      8         44.937848       44.990930   0.000000   0.000000
      9         51.982020       52.021967   0.000000   0.000000
     10         55.764871       55.813755   0.000000   0.000000
     11         56.020181       56.049380   0.000000   0.000000
     12         60.015409       60.149962   0.000000   0.000000
 
 -0.9090909E-01  0.9090909E-01  0.3469447E-17  0.9015778E-02
      1          6.596428        6.626042   1.000000   1.000000
      2         13.530704       14.160479   1.000000   1.000000
      3         14.357375       15.029175   1.000000   1.000000
      4         14.373284       15.029190   1.000000   1.000000
      5         15.932093       16.513414   1.000000   1.000000
      6         16.419318       17.023961   1.000000   1.000000
      7         44.771640       44.831783   0.000000   0.000000
      8         47.017152       47.049750   0.000000   0.000000
      9         51.959060       51.981276   0.000000   0.000000
     10         55.197378       55.199407   0.000000   0.000000
     11         57.539176       57.617167   0.000000   0.000000
     12         61.031049       61.141560   0.000000   0.000000
 
  0.1818182E+00  0.1818182E+00 -0.1281330E-16  0.4507889E-02
      1          7.672466        7.711096   1.000000   1.000000
      2         12.832807       13.439311   1.000000   1.000000
      3         14.959409       15.639636   1.000000   1.000000
      4         14.959416       15.639644   1.000000   1.000000
      5         15.306007       15.844035   1.000000   1.000000
      6         16.719441       17.325859   1.000000   1.000000
      7         45.545638       45.622882   0.000000   0.000000
      8         46.753268       46.759610   0.000000   0.000000
      9         47.974665       48.089892   0.000000   0.000000
     10         47.974703       48.089902   0.000000   0.000000
     11         60.574491       60.956092   0.000000   0.000000
     12         64.474549       64.492792   0.000000   0.000000
 
  0.2727273E+00  0.1818182E+00 -0.5204170E-17  0.1803156E-01
      1          8.896465        8.965660   1.000000   1.000000
      2         12.384673       12.963904   1.000000   1.000000
      3         14.600274       15.157063   1.000000   1.000000
      4         15.295294       15.966129   1.000000   1.000000
      5         16.043700       16.666840   1.000000   1.000000
      6         16.999890       17.629731   1.000000   1.000126
      7         41.606290       41.750795   0.000000   0.000000
      8         45.013695       45.082126   0.000000   0.000000
      9         46.245445       46.372053   0.000000   0.000000
     10         48.991631       49.077378   0.000000   0.000000
     11         58.837159       59.158985   0.000000   0.000000
     12         64.244661       64.266373   0.000000   0.000000
 
  0.3636364E+00  0.1818182E+00 -0.1387779E-16  0.1803156E-01
      1         10.136956       10.315173   1.000000   1.000000
      2         12.289302       12.796842   1.000000   1.000000
      3         14.045560       14.580288   1.000000   1.000000
      4         15.255549       15.888389   1.000000   1.000000
      5         17.485592       18.166056   1.000001   0.714682
      6         17.695708       18.267431   1.000681   0.300692
      7         36.306362       36.521933   0.000000   0.000000
      8         43.366395       43.451970   0.000000   0.000000
      9         45.339739       45.469266   0.000000   0.000000
     10         49.350773       49.471988   0.000000   0.000000
     11         60.343343       60.607305   0.000000   0.000000
     12         63.296306       63.379706   0.000000   0.000000
 
  0.4545455E+00  0.1818182E+00 -0.2081668E-16  0.1803156E-01
      1         10.668657       11.028112   1.000000   1.000000
      2         12.636548       13.037551   1.000000   1.000000
      3         13.954962       14.475959   1.000000   1.000000
      4         15.024570       15.627288   1.000000   1.000000
      5         17.817802       18.533584   1.007871  -0.024266
      6         20.040095       20.503734  -0.000000  -0.000000
      7         31.539163       31.832253   0.000000   0.000000
      8         41.712528       41.815412   0.000000   0.000000
      9         45.431907       45.559104   0.000000   0.000000
     10         48.582238       48.698148   0.000000   0.000000
     11         62.370513       62.411165   0.000000   0.000000
     12         63.313727       63.370480   0.000000   0.000000
 
 -0.4545455E+00  0.1818182E+00  0.1387779E-16  0.1803156E-01
      1         10.832982       11.260589   1.000000   1.000000
      2         12.751517       13.154504   1.000000   1.000000
      3         14.291894       14.783252   1.000000   1.000000
      4         14.836661       15.420902   1.000000   1.000000
      5         17.685667       18.410259   1.000536  -0.020130
      6         22.171085       22.528348  -0.000000  -0.000000
      7         28.553900       28.937752   0.000000   0.000000
      8         40.413886       40.536945   0.000000   0.000000
      9         46.658671       46.787034   0.000000   0.000000
     10         47.941679       48.025221   0.000000   0.000000
     11         61.741069       61.781811   0.000000   0.000000
     12         62.205821       62.271166   0.000000   0.000000
 
 -0.3636364E+00  0.1818182E+00 -0.1387779E-16  0.1803156E-01
      1         10.954280       11.348988   1.000000   1.000000
      2         13.010303       13.438786   1.000000   1.000000
      3         13.951569       14.412474   1.000000   1.000000
      4         14.810129       15.386177   1.000000   1.000000
      5         17.063267       17.775713   1.000000   1.003753
      6         21.304549       21.760966  -0.000000  -0.000000
      7         30.327612       30.663314   0.000000   0.000000
      8         39.637906       39.780683   0.000000   0.000000
      9         48.128625       48.186241   0.000000   0.000000
     10         48.910898       49.045241   0.000000   0.000000
     11         60.219939       60.244264   0.000000   0.000000
     12         61.597094       61.670047   0.000000   0.000000
 
 -0.2727273E+00  0.1818182E+00  0.1387779E-16  0.1803156E-01
      1         10.760445       10.984301   1.000000   1.000000
      2         12.978341       13.455491   1.000000   1.000000
      3         13.538475       14.061207   1.000000   1.000000
      4         14.985140       15.561904   1.000000   1.000000
      5         16.168507       16.859517   1.000000   1.000000
      6         19.422909       20.015210  -0.000000  -0.000000
      7         34.783048       35.037070   0.000000   0.000000
      8         39.499519       39.653957   0.000000   0.000000
      9         49.455647       49.504267   0.000000   0.000000
     10         51.903887       52.033721   0.000000   0.000000
     11         57.550819       57.544814   0.000000   0.000000
     12         61.564694       61.647163   0.000000   0.000000
 
 -0.1818182E+00  0.1818182E+00 -0.6938894E-17  0.9015778E-02
      1          9.520580        9.603328   1.000000   1.000000
      2         12.778910       13.350062   1.000000   1.000000
      3         14.110835       14.674970   1.000000   1.000000
      4         15.273254       15.907229   1.000000   1.000000
      5         15.350996       15.972036   1.000000   1.000000
      6         17.927471       18.570030   1.029541  -0.016166
      7         39.662721       39.881076   0.000000   0.000000
      8         40.234985       40.347869   0.000000   0.000000
      9         51.808445       51.864923   0.000000   0.000000
     10         54.600725       54.584273   0.000000   0.000000
     11         54.879316       54.968715   0.000000   0.000000
     12         61.963616       62.042667   0.000000   0.000000
 
  0.2727273E+00  0.2727273E+00 -0.1228105E-16  0.4507889E-02
      1          9.468468        9.588847   1.000000   1.000000
      2         11.811423       12.376556   1.000000   1.000000
      3         15.283856       15.690484   1.000000   1.000000
      4         16.012669       16.720290   1.000000   1.000000
      5         16.012675       16.720297   1.000000   1.000000
      6         17.135682       17.750414   1.000000   1.002280
      7         42.603079       42.693529   0.000000   0.000000
      8         43.806921       43.932509   0.000000   0.000000
      9         43.806956       43.932517   0.000000   0.000000
     10         45.517288       45.673252   0.000000   0.000000
     11         55.729734       56.038319   0.000000   0.000000
     12         66.654004       67.928786   0.000000   0.000000
 
  0.3636364E+00  0.2727273E+00 -0.1040834E-16  0.1803156E-01
      1         10.063945       10.272774   1.000000   1.000000
      2         11.459054       12.002645   1.000000   1.000000
      3         15.123165       15.584300   1.000000   1.000000
      4         16.270614       16.947004   1.000000   1.000000
      5         17.515294       18.181225   1.000004   0.655796
      6         17.712846       18.269967   1.001013   0.291029
      7         38.692811       38.851472   0.000000   0.000000
      8         41.022645       41.177066   0.000000   0.000000
      9         42.403433       42.521005   0.000000   0.000000
     10         47.144953       47.287386   0.000000   0.000000
     11         55.627561       55.900288   0.000000   0.000000
     12         66.381196       67.500542   0.000000   0.000000
 
  0.4545455E+00  0.2727273E+00 -0.1387779E-16  0.1803156E-01
      1         10.544055       10.857523   1.000000   1.000000
      2         11.498819       11.993919   1.000000   1.000000
      3         14.664914       15.158878   1.000000   1.000000
      4         16.097384       16.730110   1.000000   1.000000
      5         17.878865       18.595870   1.018569  -0.011368
      6         20.578663       21.017645  -0.000000  -0.000000
      7         33.847786       34.064921   0.000000   0.000000
      8         38.685999       38.865486   0.000000   0.000000
      9         42.159639       42.273066   0.000000   0.000000
     10         47.738120       47.878338   0.000000   0.000000
     11         58.739282       58.990700   0.000000   0.000000
     12         66.255067       67.277433   0.000000   0.000000
 
 -0.4545455E+00  0.2727273E+00  0.2775558E-16  0.1803156E-01
      1         10.991602       11.400500   1.000000   1.000000
      2         11.806077       12.226318   1.000000   1.000000
      3         14.204862       14.723281   1.000000   1.000000
      4         15.840745       16.441992   1.000000   1.000000
      5         17.749291       18.486658   1.002228  -0.033732
      6         23.934954       24.283249   0.000000   0.000000
      7         29.574575       29.865693   0.000000   0.000000
      8         36.837620       37.036113   0.000000   0.000000
      9         43.198425       43.318046   0.000000   0.000000
     10         47.635917       47.754572   0.000000   0.000000
     11         63.212816       63.567042   0.000000   0.000000
     12         65.555355       66.036162   0.000000   0.000000
 
 -0.3636364E+00  0.2727273E+00 -0.1387779E-16  0.1803156E-01
      1         11.576968       12.051208   1.000000   1.000000
      2         12.139929       12.483480   1.000000   1.000000
      3         13.598942       14.119694   1.000000   1.000000
      4         15.629201       16.202629   1.000000   1.000000
      5         17.156117       17.895270   1.000000   1.022259
      6         24.372279       24.726931   0.000000   0.000000
      7         29.528588       29.850139   0.000000   0.000000
      8         35.640225       35.847513   0.000000   0.000000
      9         45.416337       45.547904   0.000000   0.000000
     10         47.730058       47.817771   0.000000   0.000000
     11         63.767811       63.762419   0.000000   0.000000
     12         64.779895       64.838786   0.000000   0.000000
 
 -0.2727273E+00  0.2727273E+00 -0.1387779E-16  0.9015778E-02
      1         11.807197       12.126739   1.000000   1.000000
      2         12.716009       13.146369   1.000000   1.000000
      3         12.877173       13.408742   1.000000   1.000000
      4         15.429569       15.980763   1.000000   1.000000
      5         16.441197       17.175769   1.000000   1.000000
      6         21.705067       22.191521  -0.000000  -0.000000
      7         33.373018       33.653994   0.000000   0.000000
      8         35.720046       35.910889   0.000000   0.000000
      9         48.348554       48.410831   0.000000   0.000000
     10         48.452679       48.592166   0.000000   0.000000
     11         60.475751       60.453152   0.000000   0.000000
     12         63.899711       63.952381   0.000000   0.000000
 
  0.3636364E+00  0.3636364E+00 -0.1174881E-16  0.4507889E-02
      1          9.837151       10.102590   1.000000   1.000000
      2         10.946562       11.480381   1.000000   1.000000
      3         17.171940       17.746523   1.000000   1.002105
      4         17.171947       17.918628   1.000000   1.027620
      5         17.519056       17.918635   1.000004   1.027622
      6         17.547367       18.143098   1.000011   0.796193
      7         37.702346       37.897898   0.000000   0.000000
      8         40.415574       40.515823   0.000000   0.000000
      9         40.415609       40.515831   0.000000   0.000000
     10         45.541003       45.747834   0.000000   0.000000
     11         53.419850       53.688260   0.000000   0.000000
     12         67.010278       68.290014   0.000000   0.000000
 
  0.4545455E+00  0.3636364E+00 -0.8673617E-17  0.1803156E-01
      1          9.879099       10.182663   1.000000   1.000000
      2         10.794216       11.316185   1.000000   1.000000
      3         16.541993       17.096588   1.000000   1.000000
      4         17.178026       17.836972   1.000000   1.010608
      5         17.903385       18.630799   1.024134  -0.006551
      6         20.495686       20.833477  -0.000000  -0.000000
      7         35.236434       35.463928   0.000000   0.000000
      8         37.280617       37.427421   0.000000   0.000000
      9         39.690243       39.779856   0.000000   0.000000
     10         46.737264       46.916678   0.000000   0.000000
     11         54.481252       54.721848   0.000000   0.000000
     12         67.576897       68.846117   0.000000   0.000000
 
 -0.4545455E+00  0.3636364E+00  0.0000000E+00  0.1803156E-01
      1         10.250916       10.590625   1.000000   1.000000
      2         11.058371       11.559766   1.000000   1.000000
      3         15.533943       16.075152   1.000000   1.000000
      4         16.891832       17.506660   1.000000   1.000003
      5         17.869450       18.630219   1.016566  -0.006615
      6         24.020506       24.329884   0.000000   0.000000
      7         31.878857       32.099586   0.000000   0.000000
      8         34.470978       34.705801   0.000000   0.000000
      9         40.408152       40.505293   0.000000   0.000000
     10         47.442173       47.600428   0.000000   0.000000
     11         58.346941       58.584037   0.000000   0.000000
     12         67.291645       68.525222   0.000000   0.000000
 
 -0.3636364E+00  0.3636364E+00 -0.1387779E-16  0.9015778E-02
      1         10.915724       11.304282   1.000000   1.000000
      2         11.613133       12.067575   1.000000   1.000000
      3         14.392097       14.919965   1.000000   1.000000
      4         16.408974       16.987172   1.000000   1.000000
      5         17.461680       18.228531   1.000001   0.458743
      6         27.469534       27.767408   0.000000   0.000000
      7         27.951729       28.221885   0.000000   0.000000
      8         33.755006       34.005931   0.000000   0.000000
      9         42.456436       42.572359   0.000000   0.000000
     10         47.605962       47.731339   0.000000   0.000000
     11         63.452409       63.861201   0.000000   0.000000
     12         67.504874       67.551648   0.000000   0.000000
 
  0.4545455E+00  0.4545455E+00 -0.2509435E-16  0.4507889E-02
      1          9.521464        9.832966   1.000000   1.000000
      2         10.460879       10.978448   1.000000   1.000000
      3         17.752196       18.382057   1.002365   0.005863
      4         17.996219       18.777443   1.033218  -0.000283
      5         17.996226       18.777449   1.033216  -0.000283
      6         20.661590       20.735006  -0.000000  -0.000000
      7         33.491817       33.782739   0.000000   0.000000
      8         38.429379       38.499400   0.000000   0.000000
      9         38.429414       38.499409   0.000000   0.000000
     10         45.673212       45.898561   0.000000   0.000000
     11         52.921917       53.161708   0.000000   0.000000
     12         68.731517       70.013881   0.000000   0.000000
 
 -0.4545455E+00  0.4545455E+00 -0.2775558E-16  0.9015778E-02
      1          9.661096        9.981055   1.000000   1.000000
      2         10.556219       11.070853   1.000000   1.000000
      3         17.152034       17.778012   1.000000   1.003920
      4         17.582435       18.203873   1.000033   0.562833
      5         18.039371       18.824138   1.010871  -0.000080
      6         22.515871       22.723704  -0.000000  -0.000000
      7         32.633525       32.938771   0.000000   0.000000
      8         36.215007       36.333830   0.000000   0.000000
      9         38.692566       38.766194   0.000000   0.000000
     10         46.713730       46.903382   0.000000   0.000000