       N       E                     dE             d eps       ncg     rms          rms(c)
DAV:   1     0.179855652341E+02    0.17986E+02   -0.28733E+03  3108   0.688E+02
DAV:   2    -0.346792723349E+01   -0.21453E+02   -0.20498E+02  2932   0.125E+02
DAV:   3    -0.378020171604E+01   -0.31227E+00   -0.31205E+00  3104   0.153E+01
DAV:   4    -0.378129423770E+01   -0.10925E-02   -0.10925E-02  3100   0.817E-01
DAV:   5    -0.378130063597E+01   -0.63983E-05   -0.63972E-05  2816   0.559E-02    0.207E+01
DAV:   6    -0.315332087368E+01    0.62798E+00   -0.32913E+00  3532   0.244E+01    0.881E+00
DAV:   7    -0.307405293328E+01    0.79268E-01   -0.80358E-02  3104   0.404E+00    0.509E+00
DAV:   8    -0.304620250021E+01    0.27850E-01   -0.11529E-02  3528   0.772E-01    0.166E+00
DAV:   9    -0.304469050336E+01    0.15120E-02   -0.13817E-03  3772   0.254E-01    0.832E-02
DAV:  10    -0.304473657788E+01   -0.46075E-04   -0.18998E-05  1728   0.562E-02
   1 F= -.30447366E+01 E0= -.30456856E+01  d E =0.284712E-02  mag=     0.5772
