PROCAR lm decomposed
# of k-points:   56         # of bands:   12         # of ions:    1

 k-point     1 :    0.00000000 0.00000000 0.00000000     weight = 0.00075131

band     1 # energy    5.38577821 # occ.  1.00000000
 
ion      s     py     pz     px    dxy    dyz    dz2    dxz  x2-y2    tot
    1  1.300  0.000  0.000  0.000  0.000  0.000  0.000  0.000  0.000  1.300
 
band     2 # energy   14.01276954 # occ.  1.00000000
 
ion      s     py     pz     px    dxy    dyz    dz2    dxz  x2-y2    tot
    1  0.000  0.000  0.000  0.000  0.578  0.421  0.000  0.034  0.000  1.033
 
band     3 # energy   14.01276954 # occ.  1.00000000
 
ion      s     py     pz     px    dxy    dyz    dz2    dxz  x2-y2    tot
    1  0.000  0.000  0.000  0.000  0.111  0.268  0.000  0.655  0.000  1.033
 
band     4 # energy   14.01277883 # occ.  1.00000000
 
ion      s     py     pz     px    dxy    dyz    dz2    dxz  x2-y2    tot
    1  0.000  0.000  0.000  0.000  0.344  0.344  0.000  0.344  0.000  1.033
 
band     5 # energy   16.30572926 # occ.  1.00000000
 
ion      s     py     pz     px    dxy    dyz    dz2    dxz  x2-y2    tot
    1  0.000  0.000  0.000  0.000  0.000  0.000  0.046  0.000  0.955  1.001
 
band     6 # energy   16.30572926 # occ.  1.00000000
 
ion      s     py     pz     px    dxy    dyz    dz2    dxz  x2-y2    tot
    1  0.000  0.000  0.000  0.000  0.000  0.000  0.955  0.000  0.046  1.001
 
band     7 # energy   45.66858713 # occ.  0.00000000
 
ion      s     py     pz     px    dxy    dyz    dz2    dxz  x2-y2    tot
    1  0.000  0.000  0.000  0.000  0.000  0.000  0.000  0.000  0.000  0.000
 
band     8 # energy   53.56963565 # occ.  0.00000000
 
ion      s     py     pz     px    dxy    dyz    dz2    dxz  x2-y2    tot
    1  0.000  0.071  0.071  0.071  0.000  0.000  0.000  0.000  0.000  0.212
 
band     9 # energy   53.56966127 # occ.  0.00000000
 
ion      s     py     pz     px    dxy    dyz    dz2    dxz  x2-y2    tot
    1  0.000  0.044  0.137  0.031  0.000  0.000  0.000  0.000  0.000  0.212
 
band    10 # energy   53.56966145 # occ.  0.00000000
 
ion      s     py     pz     px    dxy    dyz    dz2    dxz  x2-y2    tot
    1  0.000  0.097  0.005  0.110  0.000  0.000  0.000  0.000  0.000  0.212
 
band    11 # energy   60.21459705 # occ.  0.00000000
 
ion      s     py     pz     px    dxy    dyz    dz2    dxz  x2-y2    tot
    1  0.344  0.000  0.000  0.000  0.000  0.000  0.000  0.000  0.000  0.344
 
band    12 # energy   60.80186829 # occ.  0.00000000
 
ion      s     py     pz     px    dxy    dyz    dz2    dxz  x2-y2    tot
    1  0.000  0.000  0.000  0.000  1.351  0.903  0.000  0.070  0.000  2.324
 

 k-point     2 :    0.09090909-0.00000000-0.00000000     weight = 0.00601052

band     1 # energy    5.85255256 # occ.  1.00000000
 
ion      s     py     pz     px    dxy    dyz    dz2    dxz  x2-y2    tot
    1  1.247  0.017  0.017  0.017  0.001  0.001  0.000  0.001  0.000  1.301
 
band     2 # energy   13.83399925 # occ.  1.00000000
 
ion      s     py     pz     px    dxy    dyz    dz2    dxz  x2-y2    tot
    1  0.000  0.003  0.003  0.003  0.342  0.342  0.000  0.342  0.000  1.036
 
band     3 # energy   14.15053019 # occ.  1.00000000
 
ion      s     py     pz     px    dxy    dyz    dz2    dxz  x2-y2    tot
    1  0.000  0.001  0.000  0.001  0.000  0.512  0.000  0.512  0.005  1.030
 
band     4 # energy   14.15053782 # occ.  1.00000000
 
ion      s     py     pz     px    dxy    dyz    dz2    dxz  x2-y2    tot
    1  0.000  0.000  0.001  0.000  0.682  0.171  0.005  0.171  0.000  1.030
 
band     5 # energy   16.24109140 # occ.  1.00000000
 
ion      s     py     pz     px    dxy    dyz    dz2    dxz  x2-y2    tot
    1  0.000  0.000  0.000  0.000  0.000  0.002  0.000  0.002  0.995  1.000
 
band     6 # energy   16.24109288 # occ.  1.00000000
 
ion      s     py     pz     px    dxy    dyz    dz2    dxz  x2-y2    tot
    1  0.000  0.000  0.000  0.000  0.003  0.001  0.995  0.001  0.000  1.000
 
band     7 # energy   45.43158094 # occ.  0.00000000
 
ion      s     py     pz     px    dxy    dyz    dz2    dxz  x2-y2    tot
    1  0.001  0.007  0.007  0.007  0.098  0.098  0.000  0.098  0.000  0.314
 
band     8 # energy   49.95482130 # occ.  0.00000000
 
ion      s     py     pz     px    dxy    dyz    dz2    dxz  x2-y2    tot
    1  0.037  0.058  0.058  0.058  0.047  0.047  0.000  0.047  0.000  0.354
 
band     9 # energy   53.54892953 # occ.  0.00000000
 
ion      s     py     pz     px    dxy    dyz    dz2    dxz  x2-y2    tot
    1  0.000  0.036  0.144  0.036  0.130  0.033  0.072  0.032  0.000  0.483
 
band    10 # energy   53.54896763 # occ.  0.00000000
 
ion      s     py     pz     px    dxy    dyz    dz2    dxz  x2-y2    tot
    1  0.000  0.108  0.000  0.108  0.000  0.097  0.000  0.097  0.072  0.483
 
band    11 # energy   59.84762774 # occ.  0.00000000
 
ion      s     py     pz     px    dxy    dyz    dz2    dxz  x2-y2    tot
    1  0.031  0.042  0.042  0.042  0.304  0.304  0.000  0.304  0.000  1.071
 
band    12 # energy   61.04676208 # occ.  0.00000000
 
ion      s     py     pz     px    dxy    dyz    dz2    dxz  x2-y2    tot
    1  0.000  0.001  0.001  0.005  0.329  1.238  0.006  0.325  0.017  1.923
 

 k-point     3 :    0.18181818 0.00000000 0.00000000     weight = 0.00601052

band     1 # energy    7.13878642 # occ.  1.00000000
 
ion      s     py     pz     px    dxy    dyz    dz2    dxz  x2-y2    tot
    1  1.092  0.059  0.059  0.059  0.010  0.010  0.000  0.010  0.000  1.300
 
band     2 # energy   13.46666388 # occ.  1.00000000
 
ion      s     py     pz     px    dxy    dyz    dz2    dxz  x2-y2    tot
    1  0.008  0.018  0.018  0.018  0.329  0.329  0.000  0.329  0.000  1.049
 
band     3 # energy   14.40052070 # occ.  1.00000000
 
ion      s     py     pz     px    dxy    dyz    dz2    dxz  x2-y2    tot
    1  0.000  0.002  0.000  0.002  0.000  0.460  0.000  0.460  0.099  1.023
 
band     4 # energy   14.40052535 # occ.  1.00000000
 
ion      s     py     pz     px    dxy    dyz    dz2    dxz  x2-y2    tot
    1  0.000  0.001  0.003  0.001  0.613  0.153  0.099  0.153  0.000  1.023
 
band     5 # energy   16.20968823 # occ.  1.00000000
 
ion      s     py     pz     px    dxy    dyz    dz2    dxz  x2-y2    tot
    1  0.000  0.001  0.000  0.001  0.000  0.048  0.000  0.048  0.898  0.996
 
band     6 # energy   16.20969484 # occ.  1.00000000
 
ion      s     py     pz     px    dxy    dyz    dz2    dxz  x2-y2    tot
    1  0.000  0.000  0.001  0.000  0.064  0.016  0.898  0.016  0.000  0.996
 
band     7 # energy   42.33154926 # occ.  0.00000000
 
ion      s     py     pz     px    dxy    dyz    dz2    dxz  x2-y2    tot
    1  0.052  0.072  0.072  0.072  0.260  0.260  0.000  0.260  0.000  1.047
 
band     8 # energy   47.33609056 # occ.  0.00000000
 
ion      s     py     pz     px    dxy    dyz    dz2    dxz  x2-y2    tot
    1  0.029  0.006  0.006  0.006  0.015  0.015  0.000  0.015  0.000  0.093
 
band     9 # energy   53.41998796 # occ.  0.00000000
 
ion      s     py     pz     px    dxy    dyz    dz2    dxz  x2-y2    tot
    1  0.000  0.039  0.158  0.040  0.366  0.092  0.210  0.091  0.000  0.996
 
band    10 # energy   53.42005173 # occ.  0.00000000
 
ion      s     py     pz     px    dxy    dyz    dz2    dxz  x2-y2    tot
    1  0.000  0.119  0.000  0.118  0.000  0.274  0.000  0.275  0.210  0.996
 
band    11 # energy   59.16768146 # occ.  0.00000000
 
ion      s     py     pz     px    dxy    dyz    dz2    dxz  x2-y2    tot
    1  0.019  0.084  0.084  0.084  0.072  0.072  0.000  0.072  0.000  0.489
 
band    12 # energy   60.77377122 # occ.  0.00000000
 
ion      s     py     pz     px    dxy    dyz    dz2    dxz  x2-y2    tot
    1  0.000  0.016  0.015  0.052  0.138  0.467  0.087  0.145  0.229  1.150
 

 k-point     4 :    0.27272727 0.00000000 0.00000000     weight = 0.00601052

band     1 # energy    8.75588819 # occ.  1.00000000
 
ion      s     py     pz     px    dxy    dyz    dz2    dxz  x2-y2    tot
    1  0.813  0.080  0.080  0.080  0.075  0.075  0.000  0.075  0.000  1.277
 
band     2 # energy   13.47115009 # occ.  1.00000000
 
ion      s     py     pz     px    dxy    dyz    dz2    dxz  x2-y2    tot
    1  0.067  0.082  0.082  0.082  0.259  0.259  0.000  0.259  0.000  1.092
 
band     3 # energy   14.38002583 # occ.  1.00000000
 
ion      s     py     pz     px    dxy    dyz    dz2    dxz  x2-y2    tot
    1  0.000  0.001  0.000  0.001  0.000  0.327  0.000  0.327  0.363  1.021
 
band     4 # energy   14.38002733 # occ.  1.00000000
 
ion      s     py     pz     px    dxy    dyz    dz2    dxz  x2-y2    tot
    1  0.000  0.000  0.002  0.000  0.436  0.109  0.363  0.109  0.000  1.021
 
band     5 # energy   16.58663619 # occ.  1.00000000
 
ion      s     py     pz     px    dxy    dyz    dz2    dxz  x2-y2    tot
    1  0.000  0.002  0.000  0.002  0.000  0.176  0.000  0.176  0.636  0.991
 
band     6 # energy   16.58665974 # occ.  1.00000000
 
ion      s     py     pz     px    dxy    dyz    dz2    dxz  x2-y2    tot
    1  0.000  0.001  0.002  0.001  0.235  0.059  0.636  0.059  0.000  0.991
 
band     7 # energy   37.16501619 # occ.  0.00000000
 
ion      s     py     pz     px    dxy    dyz    dz2    dxz  x2-y2    tot
    1  0.141  0.099  0.099  0.099  0.259  0.259  0.000  0.259  0.000  1.214
 
band     8 # energy   46.13894770 # occ.  0.00000000
 
ion      s     py     pz     px    dxy    dyz    dz2    dxz  x2-y2    tot
    1  0.012  0.002  0.002  0.002  0.047  0.047  0.000  0.047  0.000  0.161
 
band     9 # energy   53.20936408 # occ.  0.00000000
 
ion      s     py     pz     px    dxy    dyz    dz2    dxz  x2-y2    tot
    1  0.000  0.051  0.203  0.051  0.485  0.121  0.254  0.121  0.000  1.286
 
band    10 # energy   53.20944056 # occ.  0.00000000
 
ion      s     py     pz     px    dxy    dyz    dz2    dxz  x2-y2    tot
    1  0.000  0.152  0.000  0.152  0.000  0.364  0.000  0.364  0.254  1.286
 
band    11 # energy   58.79298614 # occ.  0.00000000
 
ion      s     py     pz     px    dxy    dyz    dz2    dxz  x2-y2    tot
    1  0.000  0.024  0.104  0.028  0.025  0.007  0.770  0.006  0.002  0.966
 
band    12 # energy   58.79300885 # occ.  0.00000000
 
ion      s     py     pz     px    dxy    dyz    dz2    dxz  x2-y2    tot
    1  0.000  0.081  0.000  0.076  0.000  0.018  0.002  0.019  0.771  0.966
 

 k-point     5 :    0.36363636-0.00000000 0.00000000     weight = 0.00601052

band     1 # energy    9.67373710 # occ.  1.00000000
 
ion      s     py     pz     px    dxy    dyz    dz2    dxz  x2-y2    tot
    1  0.461  0.033  0.033  0.033  0.218  0.218  0.000  0.218  0.000  1.215
 
band     2 # energy   14.13318766 # occ.  1.00000000
 
ion      s     py     pz     px    dxy    dyz    dz2    dxz  x2-y2    tot
    1  0.000  0.001  0.000  0.001  0.000  0.243  0.000  0.243  0.536  1.023
 
band     3 # energy   14.13318827 # occ.  1.00000000
 
ion      s     py     pz     px    dxy    dyz    dz2    dxz  x2-y2    tot
    1  0.000  0.000  0.001  0.000  0.324  0.081  0.536  0.081  0.000  1.023
 
band     4 # energy   14.77249604 # occ.  1.00000000
 
ion      s     py     pz     px    dxy    dyz    dz2    dxz  x2-y2    tot
    1  0.149  0.238  0.238  0.238  0.106  0.106  0.000  0.106  0.000  1.183
 
band     5 # energy   17.22820456 # occ.  1.00000000
 
ion      s     py     pz     px    dxy    dyz    dz2    dxz  x2-y2    tot
    1  0.000  0.001  0.000  0.001  0.000  0.260  0.000  0.260  0.468  0.990
 
band     6 # energy   17.22826352 # occ.  1.00000000
 
ion      s     py     pz     px    dxy    dyz    dz2    dxz  x2-y2    tot
    1  0.000  0.000  0.002  0.000  0.346  0.087  0.468  0.087  0.000  0.990
 
band     7 # energy   32.35966672 # occ.  0.00000000
 
ion      s     py     pz     px    dxy    dyz    dz2    dxz  x2-y2    tot
    1  0.286  0.083  0.083  0.083  0.240  0.240  0.000  0.240  0.000  1.255
 
band     8 # energy   44.84748352 # occ.  0.00000000
 
ion      s     py     pz     px    dxy    dyz    dz2    dxz  x2-y2    tot
    1  0.003  0.010  0.010  0.010  0.023  0.023  0.000  0.023  0.000  0.102
 
band     9 # energy   52.73616888 # occ.  0.00000000
 
ion      s     py     pz     px    dxy    dyz    dz2    dxz  x2-y2    tot
    1  0.000  0.074  0.294  0.074  0.343  0.086  0.128  0.086  0.000  1.084
 
band    10 # energy   52.73626675 # occ.  0.00000000
 
ion      s     py     pz     px    dxy    dyz    dz2    dxz  x2-y2    tot
    1  0.000  0.221  0.000  0.221  0.000  0.257  0.000  0.257  0.128  1.084
 
band    11 # energy   56.74926166 # occ.  0.00000000
 
ion      s     py     pz     px    dxy    dyz    dz2    dxz  x2-y2    tot
    1  0.000  0.015  0.060  0.015  0.096  0.024  1.156  0.024  0.000  1.390
 
band    12 # energy   56.74931032 # occ.  0.00000000
 
ion      s     py     pz     px    dxy    dyz    dz2    dxz  x2-y2    tot
    1  0.000  0.045  0.000  0.045  0.000  0.072  0.000  0.072  1.156  1.390
 

 k-point     6 :    0.45454545 0.00000000-0.00000000     weight = 0.00601052

band     1 # energy    9.81680208 # occ.  1.00000000
 
ion      s     py     pz     px    dxy    dyz    dz2    dxz  x2-y2    tot
    1  0.307  0.003  0.003  0.003  0.290  0.290  0.000  0.290  0.000  1.185
 
band     2 # energy   13.94619247 # occ.  1.00000000
 
ion      s     py     pz     px    dxy    dyz    dz2    dxz  x2-y2    tot
    1  0.000  0.000  0.000  0.000  0.000  0.214  0.000  0.214  0.599  1.026
 
band     3 # energy   13.94619283 # occ.  1.00000000
 
ion      s     py     pz     px    dxy    dyz    dz2    dxz  x2-y2    tot
    1  0.000  0.000  0.000  0.000  0.285  0.071  0.599  0.071  0.000  1.026
 
band     4 # energy   16.70230803 # occ.  1.00000000
 
ion      s     py     pz     px    dxy    dyz    dz2    dxz  x2-y2    tot
    1  0.039  0.386  0.386  0.386  0.014  0.014  0.000  0.014  0.000  1.239
 
band     5 # energy   17.69186171 # occ.  1.00062171
 
ion      s     py     pz     px    dxy    dyz    dz2    dxz  x2-y2    tot
    1  0.000  0.000  0.000  0.000  0.000  0.292  0.000  0.292  0.410  0.994
 
band     6 # energy   17.69193192 # occ.  1.00062276
 
ion      s     py     pz     px    dxy    dyz    dz2    dxz  x2-y2    tot
    1  0.000  0.000  0.000  0.000  0.389  0.097  0.410  0.097  0.000  0.994
 
band     7 # energy   28.96770552 # occ.  0.00000000
 
ion      s     py     pz     px    dxy    dyz    dz2    dxz  x2-y2    tot
    1  0.477  0.019  0.019  0.019  0.238  0.238  0.000  0.238  0.000  1.247
 
band     8 # energy   44.03942842 # occ.  0.00000000
 
ion      s     py     pz     px    dxy    dyz    dz2    dxz  x2-y2    tot
    1  0.000  0.014  0.014  0.014  0.003  0.003  0.000  0.003  0.000  0.049
 
band     9 # energy   52.28837253 # occ.  0.00000000
 
ion      s     py     pz     px    dxy    dyz    dz2    dxz  x2-y2    tot
    1  0.000  0.093  0.374  0.093  0.049  0.012  0.013  0.012  0.000  0.647
 
band    10 # energy   52.28854670 # occ.  0.00000000
 
ion      s     py     pz     px    dxy    dyz    dz2    dxz  x2-y2    tot
    1  0.000  0.280  0.000  0.280  0.000  0.037  0.000  0.037  0.013  0.647
 
band    11 # energy   55.86147736 # occ.  0.00000000
 
ion      s     py     pz     px    dxy    dyz    dz2    dxz  x2-y2    tot
    1  0.000  0.002  0.007  0.002  0.369  0.092  1.331  0.092  0.000  1.895
 
band    12 # energy   55.86153845 # occ.  0.00000000
 
ion      s     py     pz     px    dxy    dyz    dz2    dxz  x2-y2    tot
    1  0.000  0.005  0.000  0.005  0.000  0.276  0.000  0.277  1.331  1.895
 

 k-point     7 :    0.09090909 0.09090909 0.00000000     weight = 0.00450789

band     1 # energy    6.00574636 # occ.  1.00000000
 
ion      s     py     pz     px    dxy    dyz    dz2    dxz  x2-y2    tot
    1  1.230  0.069  0.000  0.000  0.000  0.000  0.001  0.000  0.002  1.301
 
band     2 # energy   13.67954935 # occ.  1.00000000
 
ion      s     py     pz     px    dxy    dyz    dz2    dxz  x2-y2    tot
    1  0.000  0.000  0.000  0.000  0.000  0.000  0.000  1.036  0.000  1.036
 
band     3 # energy   14.25610802 # occ.  1.00000000
 
ion      s     py     pz     px    dxy    dyz    dz2    dxz  x2-y2    tot
    1  0.000  0.000  0.003  0.003  0.511  0.511  0.000  0.000  0.000  1.029
 
band     4 # energy   14.25611424 # occ.  1.00000000
 
ion      s     py     pz     px    dxy    dyz    dz2    dxz  x2-y2    tot
    1  0.000  0.000  0.003  0.003  0.511  0.511  0.000  0.000  0.000  1.029
 
band     5 # energy   15.99605899 # occ.  1.00000000
 
ion      s     py     pz     px    dxy    dyz    dz2    dxz  x2-y2    tot
    1  0.002  0.001  0.000  0.000  0.000  0.000  0.249  0.000  0.748  0.999
 
band     6 # energy   16.41664706 # occ.  1.00000000
 
ion      s     py     pz     px    dxy    dyz    dz2    dxz  x2-y2    tot
    1  0.000  0.000  0.000  0.000  0.000  0.000  0.750  0.000  0.250  0.999
 
band     7 # energy   45.61863273 # occ.  0.00000000
 
ion      s     py     pz     px    dxy    dyz    dz2    dxz  x2-y2    tot
    1  0.000  0.000  0.000  0.000  0.000  0.000  0.000  0.303  0.000  0.303
 
band     8 # energy   50.70244590 # occ.  0.00000000
 
ion      s     py     pz     px    dxy    dyz    dz2    dxz  x2-y2    tot
    1  0.044  0.077  0.000  0.000  0.000  0.000  0.043  0.000  0.130  0.293
 
band     9 # energy   51.78232227 # occ.  0.00000000
 
ion      s     py     pz     px    dxy    dyz    dz2    dxz  x2-y2    tot
    1  0.000  0.000  0.144  0.144  0.239  0.239  0.000  0.000  0.000  0.767
 
band    10 # energy   51.78235141 # occ.  0.00000000
 
ion      s     py     pz     px    dxy    dyz    dz2    dxz  x2-y2    tot
    1  0.000  0.000  0.144  0.144  0.239  0.239  0.000  0.000  0.000  0.767
 
band    11 # energy   61.78608027 # occ.  0.00000000
 
ion      s     py     pz     px    dxy    dyz    dz2    dxz  x2-y2    tot
    1  0.000  0.000  0.005  0.008  0.799  0.525  0.000  0.000  0.000  1.337
 
band    12 # energy   61.78608227 # occ.  0.00000000
 
ion      s     py     pz     px    dxy    dyz    dz2    dxz  x2-y2    tot
    1  0.000  0.000  0.008  0.005  0.525  0.799  0.000  0.000  0.000  1.337
 

 k-point     8 :    0.18181818 0.09090909-0.00000000     weight = 0.01803156

band     1 # energy    7.01748297 # occ.  1.00000000
 
ion      s     py     pz     px    dxy    dyz    dz2    dxz  x2-y2    tot
    1  1.108  0.143  0.015  0.015  0.005  0.005  0.002  0.001  0.007  1.300
 
band     2 # energy   13.29606409 # occ.  1.00000000
 
ion      s     py     pz     px    dxy    dyz    dz2    dxz  x2-y2    tot
    1  0.001  0.001  0.006  0.006  0.057  0.057  0.000  0.914  0.000  1.043
 
band     3 # energy   14.51384192 # occ.  1.00000000
 
ion      s     py     pz     px    dxy    dyz    dz2    dxz  x2-y2    tot
    1  0.000  0.002  0.005  0.005  0.413  0.413  0.018  0.112  0.054  1.022
 
band     4 # energy   14.54435443 # occ.  1.00000000
 
ion      s     py     pz     px    dxy    dyz    dz2    dxz  x2-y2    tot
    1  0.000  0.000  0.006  0.006  0.483  0.484  0.033  0.000  0.011  1.023
 
band     5 # energy   15.77281999 # occ.  1.00000000
 
ion      s     py     pz     px    dxy    dyz    dz2    dxz  x2-y2    tot
    1  0.008  0.005  0.000  0.000  0.030  0.030  0.229  0.007  0.688  1.000
 
band     6 # energy   16.52483226 # occ.  1.00000000
 
ion      s     py     pz     px    dxy    dyz    dz2    dxz  x2-y2    tot
    1  0.000  0.000  0.000  0.000  0.021  0.021  0.716  0.000  0.239  0.997
 
band     7 # energy   44.12650895 # occ.  0.00000000
 
ion      s     py     pz     px    dxy    dyz    dz2    dxz  x2-y2    tot
    1  0.021  0.017  0.065  0.065  0.161  0.161  0.003  0.432  0.009  0.933
 
band     8 # energy   47.16604432 # occ.  0.00000000
 
ion      s     py     pz     px    dxy    dyz    dz2    dxz  x2-y2    tot
    1  0.040  0.023  0.015  0.015  0.021  0.021  0.029  0.127  0.087  0.379
 
band     9 # energy   50.39949188 # occ.  0.00000000
 
ion      s     py     pz     px    dxy    dyz    dz2    dxz  x2-y2    tot
    1  0.000  0.000  0.175  0.175  0.323  0.323  0.029  0.000  0.010  1.034
 
band    10 # energy   52.74138828 # occ.  0.00000000
 
ion      s     py     pz     px    dxy    dyz    dz2    dxz  x2-y2    tot
    1  0.000  0.001  0.089  0.089  0.090  0.090  0.069  0.001  0.208  0.637
 
band    11 # energy   60.00115847 # occ.  0.00000000
 
ion      s     py     pz     px    dxy    dyz    dz2    dxz  x2-y2    tot
    1  0.044  0.189  0.001  0.001  0.261  0.261  0.002  0.336  0.006  1.100
 
band    12 # energy   62.60337365 # occ.  0.00000000
 
ion      s     py     pz     px    dxy    dyz    dz2    dxz  x2-y2    tot
    1  0.000  0.000  0.018  0.018  0.303  0.303  0.083  0.000  0.028  0.753
 

 k-point     9 :    0.27272727 0.09090909-0.00000000     weight = 0.01803156

band     1 # energy    8.57558965 # occ.  1.00000000
 
ion      s     py     pz     px    dxy    dyz    dz2    dxz  x2-y2    tot
    1  0.877  0.197  0.041  0.041  0.041  0.041  0.005  0.027  0.016  1.286
 
band     2 # energy   13.02593275 # occ.  1.00000000
 
ion      s     py     pz     px    dxy    dyz    dz2    dxz  x2-y2    tot
    1  0.021  0.025  0.038  0.038  0.092  0.092  0.002  0.753  0.005  1.067
 
band     3 # energy   14.39863501 # occ.  1.00000000
 
ion      s     py     pz     px    dxy    dyz    dz2    dxz  x2-y2    tot
    1  0.000  0.001  0.003  0.003  0.207  0.207  0.107  0.164  0.322  1.016
 
band     4 # energy   14.66254266 # occ.  1.00000000
 
ion      s     py     pz     px    dxy    dyz    dz2    dxz  x2-y2    tot
    1  0.000  0.000  0.006  0.006  0.378  0.378  0.188  0.000  0.063  1.019
 
band     5 # energy   16.20649500 # occ.  1.00000000
 
ion      s     py     pz     px    dxy    dyz    dz2    dxz  x2-y2    tot
    1  0.025  0.028  0.006  0.006  0.160  0.160  0.136  0.079  0.407  1.006
 
band     6 # energy   16.83922453 # occ.  1.00000000
 
ion      s     py     pz     px    dxy    dyz    dz2    dxz  x2-y2    tot
    1  0.000  0.000  0.001  0.001  0.122  0.122  0.560  0.000  0.187  0.993
 
band     7 # energy   39.15228305 # occ.  0.00000000
 
ion      s     py     pz     px    dxy    dyz    dz2    dxz  x2-y2    tot
    1  0.096  0.043  0.125  0.125  0.229  0.229  0.005  0.309  0.016  1.178
 
band     8 # energy   45.92246804 # occ.  0.00000000
 
ion      s     py     pz     px    dxy    dyz    dz2    dxz  x2-y2    tot
    1  0.016  0.000  0.002  0.002  0.003  0.003  0.037  0.296  0.112  0.471
 
band     9 # energy   49.42314536 # occ.  0.00000000
 
ion      s     py     pz     px    dxy    dyz    dz2    dxz  x2-y2    tot
    1  0.000  0.000  0.204  0.204  0.322  0.322  0.086  0.000  0.029  1.167
 
band    10 # energy   53.81350338 # occ.  0.00000000
 
ion      s     py     pz     px    dxy    dyz    dz2    dxz  x2-y2    tot
    1  0.039  0.113  0.021  0.021  0.012  0.012  0.129  0.082  0.387  0.816
 
band    11 # energy   58.27459952 # occ.  0.00000000
 
ion      s     py     pz     px    dxy    dyz    dz2    dxz  x2-y2    tot
    1  0.059  0.206  0.013  0.013  0.104  0.104  0.036  0.426  0.107  1.068
 
band    12 # energy   62.10019365 # occ.  0.00000000
 
ion      s     py     pz     px    dxy    dyz    dz2    dxz  x2-y2    tot
    1  0.000  0.000  0.042  0.042  0.031  0.031  0.371  0.000  0.124  0.640
 

 k-point    10 :    0.36363636 0.09090909 0.00000000     weight = 0.01803156

band     1 # energy    9.80020002 # occ.  1.00000000
 
ion      s     py     pz     px    dxy    dyz    dz2    dxz  x2-y2    tot
    1  0.525  0.141  0.024  0.024  0.155  0.155  0.006  0.183  0.017  1.229
 
band     2 # energy   13.54201530 # occ.  1.00000000
 
ion      s     py     pz     px    dxy    dyz    dz2    dxz  x2-y2    tot
    1  0.083  0.122  0.128  0.128  0.064  0.064  0.044  0.349  0.132  1.114
 
band     3 # energy   14.03822379 # occ.  1.00000000
 
ion      s     py     pz     px    dxy    dyz    dz2    dxz  x2-y2    tot
    1  0.016  0.011  0.003  0.003  0.093  0.093  0.112  0.362  0.336  1.029
 
band     4 # energy   14.48509838 # occ.  1.00000000
 
ion      s     py     pz     px    dxy    dyz    dz2    dxz  x2-y2    tot
    1  0.000  0.000  0.005  0.005  0.273  0.273  0.347  0.000  0.116  1.019
 
band     5 # energy   17.34456934 # occ.  1.00000001
 
ion      s     py     pz     px    dxy    dyz    dz2    dxz  x2-y2    tot
    1  0.053  0.080  0.027  0.027  0.185  0.185  0.090  0.110  0.271  1.028
 
band     6 # energy   17.37813016 # occ.  1.00000002
 
ion      s     py     pz     px    dxy    dyz    dz2    dxz  x2-y2    tot
    1  0.000  0.000  0.001  0.001  0.226  0.226  0.404  0.000  0.134  0.993
 
band     7 # energy   34.08501538 # occ.  0.00000000
 
ion      s     py     pz     px    dxy    dyz    dz2    dxz  x2-y2    tot
    1  0.213  0.041  0.132  0.132  0.213  0.213  0.003  0.278  0.010  1.237
 
band     8 # energy   44.67164540 # occ.  0.00000000
 
ion      s     py     pz     px    dxy    dyz    dz2    dxz  x2-y2    tot
    1  0.003  0.012  0.008  0.008  0.001  0.001  0.048  0.211  0.144  0.436
 
band     9 # energy   48.88769996 # occ.  0.00000000
 
ion      s     py     pz     px    dxy    dyz    dz2    dxz  x2-y2    tot
    1  0.000  0.000  0.231  0.231  0.250  0.250  0.143  0.000  0.048  1.154
 
band    10 # energy   52.62627712 # occ.  0.00000000
 
ion      s     py     pz     px    dxy    dyz    dz2    dxz  x2-y2    tot
    1  0.084  0.293  0.011  0.011  0.001  0.001  0.101  0.165  0.303  0.969
 
band    11 # energy   58.11225115 # occ.  0.00000000
 
ion      s     py     pz     px    dxy    dyz    dz2    dxz  x2-y2    tot
    1  0.023  0.062  0.007  0.007  0.082  0.082  0.166  0.410  0.499  1.338
 
band    12 # energy   60.58336550 # occ.  0.00000000
 
ion      s     py     pz     px    dxy    dyz    dz2    dxz  x2-y2    tot
    1  0.000  0.000  0.049  0.049  0.022  0.022  0.586  0.000  0.195  0.924
 

 k-point    11 :    0.45454545 0.09090909-0.00000000     weight = 0.01803156

band     1 # energy   10.10110046 # occ.  1.00000000
 
ion      s     py     pz     px    dxy    dyz    dz2    dxz  x2-y2    tot
    1  0.303  0.052  0.001  0.001  0.249  0.249  0.002  0.320  0.005  1.183
 
band     2 # energy   13.65232873 # occ.  1.00000000
 
ion      s     py     pz     px    dxy    dyz    dz2    dxz  x2-y2    tot
    1  0.000  0.006  0.021  0.021  0.087  0.087  0.174  0.110  0.522  1.028
 
band     3 # energy   14.25384934 # occ.  1.00000000
 
ion      s     py     pz     px    dxy    dyz    dz2    dxz  x2-y2    tot
    1  0.000  0.000  0.003  0.003  0.220  0.220  0.431  0.000  0.144  1.021
 
band     4 # energy   14.98267412 # occ.  1.00000000
 
ion      s     py     pz     px    dxy    dyz    dz2    dxz  x2-y2    tot
    1  0.049  0.198  0.180  0.180  0.023  0.023  0.010  0.446  0.030  1.138
 
band     5 # energy   17.74890209 # occ.  1.00221041
 
ion      s     py     pz     px    dxy    dyz    dz2    dxz  x2-y2    tot
    1  0.000  0.000  0.000  0.000  0.283  0.283  0.322  0.000  0.107  0.995
 
band     6 # energy   18.88194975 # occ. -0.00001433
 
ion      s     py     pz     px    dxy    dyz    dz2    dxz  x2-y2    tot
    1  0.048  0.184  0.109  0.109  0.128  0.128  0.069  0.103  0.207  1.085
 
band     7 # energy   29.91088651 # occ.  0.00000000
 
ion      s     py     pz     px    dxy    dyz    dz2    dxz  x2-y2    tot
    1  0.396  0.009  0.076  0.076  0.210  0.210  0.001  0.265  0.004  1.247
 
band     8 # energy   43.65235583 # occ.  0.00000000
 
ion      s     py     pz     px    dxy    dyz    dz2    dxz  x2-y2    tot
    1  0.000  0.039  0.006  0.006  0.005  0.005  0.052  0.123  0.156  0.392
 
band     9 # energy   49.09974345 # occ.  0.00000000
 
ion      s     py     pz     px    dxy    dyz    dz2    dxz  x2-y2    tot
    1  0.000  0.000  0.247  0.247  0.130  0.130  0.216  0.000  0.072  1.041
 
band    10 # energy   50.67003372 # occ.  0.00000000
 
ion      s     py     pz     px    dxy    dyz    dz2    dxz  x2-y2    tot
    1  0.075  0.308  0.056  0.056  0.017  0.017  0.060  0.059  0.180  0.828
 
band    11 # energy   58.27694287 # occ.  0.00000000
 
ion      s     py     pz     px    dxy    dyz    dz2    dxz  x2-y2    tot
    1  0.020  0.028  0.002  0.002  0.054  0.054  0.221  0.488  0.663  1.533
 
band    12 # energy   59.12660900 # occ.  0.00000000
 
ion      s     py     pz     px    dxy    dyz    dz2    dxz  x2-y2    tot
    1  0.000  0.000  0.048  0.048  0.144  0.144  0.663  0.000  0.221  1.269
 

 k-point    12 :   -0.45454545 0.09090909-0.00000000     weight = 0.01803156

band     1 # energy   10.12121573 # occ.  1.00000000
 
ion      s     py     pz     px    dxy    dyz    dz2    dxz  x2-y2    tot
    1  0.264  0.014  0.008  0.008  0.278  0.278  0.000  0.326  0.000  1.176
 
band     2 # energy   13.61135432 # occ.  1.00000000
 
ion      s     py     pz     px    dxy    dyz    dz2    dxz  x2-y2    tot
    1  0.000  0.002  0.016  0.016  0.057  0.057  0.168  0.206  0.505  1.028
 
band     3 # energy   14.15455080 # occ.  1.00000000
 
ion      s     py     pz     px    dxy    dyz    dz2    dxz  x2-y2    tot
    1  0.000  0.000  0.002  0.002  0.199  0.199  0.465  0.000  0.155  1.021
 
band     4 # energy   15.53073425 # occ.  1.00000000
 
ion      s     py     pz     px    dxy    dyz    dz2    dxz  x2-y2    tot
    1  0.001  0.207  0.202  0.202  0.091  0.091  0.023  0.248  0.070  1.134
 
band     5 # energy   17.66456199 # occ.  1.00031714
 
ion      s     py     pz     px    dxy    dyz    dz2    dxz  x2-y2    tot
    1  0.000  0.000  0.000  0.000  0.304  0.304  0.288  0.000  0.096  0.993
 
band     6 # energy   19.69751896 # occ. -0.00000000
 
ion      s     py     pz     px    dxy    dyz    dz2    dxz  x2-y2    tot
    1  0.004  0.191  0.190  0.190  0.035  0.035  0.065  0.208  0.196  1.114
 
band     7 # energy   28.49175543 # occ.  0.00000000
 
ion      s     py     pz     px    dxy    dyz    dz2    dxz  x2-y2    tot
    1  0.502  0.034  0.000  0.000  0.238  0.238  0.000  0.229  0.001  1.243
 
band     8 # energy   43.20312184 # occ.  0.00000000
 
ion      s     py     pz     px    dxy    dyz    dz2    dxz  x2-y2    tot