<?xml version="1.0" encoding="ISO-8859-1"?>
<modeling>
 <generator>
  <i name="program" type="string">vasp </i>
  <i name="version" type="string">6.3.0  </i>
  <i name="subversion" type="string">20Jan22 (build Feb 01 2022 16:52:37) complex                          parallel </i>
  <i name="platform" type="string">TETRA_NSC1 </i>
  <i name="date" type="string">2022 02 23 </i>
  <i name="time" type="string">15:19:09 </i>
 </generator>
 <incar>
  <i type="string" name="SYSTEM">fcc Ni</i>
  <i type="int" name="ISTART">     0</i>
  <i type="int" name="ISPIN">     2</i>
  <i type="int" name="ICHARG">     2</i>
  <i name="ENCUT">    270.00000000</i>
  <v name="MAGMOM">      1.00000000</v>
  <i type="int" name="ISMEAR">     1</i>
  <i name="SIGMA">      0.20000000</i>
  <i type="int" name="LORBIT">    11</i>
 </incar>
 <primitive_cell>
  <structure name="primitive_cell" >
   <crystal>
    <varray name="basis" >
     <v>       1.50000000       1.50000000       0.00000000 </v>
     <v>       0.00000000       1.50000000       1.50000000 </v>
     <v>       1.50000000       0.00000000       1.50000000 </v>
    </varray>
    <i name="volume">      6.75000000 </i>
    <varray name="rec_basis" >
     <v>       0.33333333       0.33333333      -0.33333333 </v>
     <v>      -0.33333333       0.33333333       0.33333333 </v>
     <v>       0.33333333      -0.33333333       0.33333333 </v>
    </varray>
   </crystal>
   <varray name="positions" >
    <v>       0.00000000       0.00000000       0.00000000 </v>
   </varray>
  </structure>
  <varray name="primitive_index" >
   <v type="int" >        1 </v>
  </varray>
 </primitive_cell>
 <kpoints>
  <generation param="Monkhorst-Pack">
   <v type="int" name="divisions">      11       11       11 </v>
   <v name="usershift">      0.00000000       0.00000000       0.00000000 </v>
   <v name="genvec1">      0.09090909      -0.00000000      -0.00000000 </v>
   <v name="genvec2">     -0.00000000       0.09090909       0.00000000 </v>
   <v name="genvec3">      0.00000000       0.00000000       0.09090909 </v>
   <v name="shift">      0.00000000       0.00000000       0.00000000 </v>
  </generation>
  <varray name="kpointlist" >
   <v>       0.00000000       0.00000000       0.00000000 </v>
   <v>       0.09090909      -0.00000000      -0.00000000 </v>
   <v>       0.18181818       0.00000000       0.00000000 </v>
   <v>       0.27272727       0.00000000       0.00000000 </v>
   <v>       0.36363636      -0.00000000       0.00000000 </v>
   <v>       0.45454545       0.00000000      -0.00000000 </v>
   <v>       0.09090909       0.09090909       0.00000000 </v>
   <v>       0.18181818       0.09090909      -0.00000000 </v>
   <v>       0.27272727       0.09090909      -0.00000000 </v>
   <v>       0.36363636       0.09090909       0.00000000 </v>
   <v>       0.45454545       0.09090909      -0.00000000 </v>
   <v>      -0.45454545       0.09090909      -0.00000000 </v>
   <v>      -0.36363636       0.09090909       0.00000000 </v>
   <v>      -0.27272727       0.09090909      -0.00000000 </v>
   <v>      -0.18181818       0.09090909      -0.00000000 </v>
   <v>      -0.09090909       0.09090909       0.00000000 </v>
   <v>       0.18181818       0.18181818      -0.00000000 </v>
   <v>       0.27272727       0.18181818      -0.00000000 </v>
   <v>       0.36363636       0.18181818      -0.00000000 </v>
   <v>       0.45454545       0.18181818      -0.00000000 </v>
   <v>      -0.45454545       0.18181818       0.00000000 </v>
   <v>      -0.36363636       0.18181818      -0.00000000 </v>
   <v>      -0.27272727       0.18181818       0.00000000 </v>
   <v>      -0.18181818       0.18181818      -0.00000000 </v>
   <v>       0.27272727       0.27272727      -0.00000000 </v>
   <v>       0.36363636       0.27272727      -0.00000000 </v>
   <v>       0.45454545       0.27272727      -0.00000000 </v>
   <v>      -0.45454545       0.27272727       0.00000000 </v>
   <v>      -0.36363636       0.27272727      -0.00000000 </v>
   <v>      -0.27272727       0.27272727      -0.00000000 </v>
   <v>       0.36363636       0.36363636      -0.00000000 </v>
   <v>       0.45454545       0.36363636      -0.00000000 </v>
   <v>      -0.45454545       0.36363636       0.00000000 </v>
   <v>      -0.36363636       0.36363636      -0.00000000 </v>
   <v>       0.45454545       0.45454545      -0.00000000 </v>
   <v>      -0.45454545       0.45454545      -0.00000000 </v>
   <v>       0.27272727       0.18181818       0.09090909 </v>
   <v>       0.36363636       0.18181818       0.09090909 </v>
   <v>       0.45454545       0.18181818       0.09090909 </v>
   <v>      -0.45454545       0.18181818       0.09090909 </v>
   <v>       0.36363636       0.27272727       0.09090909 </v>
   <v>       0.45454545       0.27272727       0.09090909 </v>
   <v>      -0.45454545       0.27272727       0.09090909 </v>
   <v>      -0.36363636       0.27272727       0.09090909 </v>
   <v>      -0.27272727       0.27272727       0.09090909 </v>
   <v>      -0.18181818       0.27272727       0.09090909 </v>
   <v>       0.45454545       0.36363636       0.09090909 </v>
   <v>      -0.45454545       0.36363636       0.09090909 </v>
   <v>      -0.36363636       0.36363636       0.09090909 </v>
   <v>      -0.27272727       0.36363636       0.09090909 </v>
   <v>      -0.45454545       0.45454545       0.09090909 </v>
   <v>      -0.36363636       0.45454545       0.09090909 </v>
   <v>      -0.45454545       0.36363636       0.18181818 </v>
   <v>      -0.36363636       0.36363636       0.18181818 </v>
   <v>      -0.36363636       0.45454545       0.18181818 </v>
   <v>      -0.27272727       0.45454545       0.18181818 </v>
  </varray>
  <varray name="weights" >
   <v>       0.00075131 </v>
   <v>       0.00601052 </v>
   <v>       0.00601052 </v>
   <v>       0.00601052 </v>
   <v>       0.00601052 </v>
   <v>       0.00601052 </v>
   <v>       0.00450789 </v>
   <v>       0.01803156 </v>
   <v>       0.01803156 </v>
   <v>       0.01803156 </v>
   <v>       0.01803156 </v>
   <v>       0.01803156 </v>
   <v>       0.01803156 </v>
   <v>       0.01803156 </v>
   <v>       0.01803156 </v>
   <v>       0.00901578 </v>
   <v>       0.00450789 </v>
   <v>       0.01803156 </v>
   <v>       0.01803156 </v>
   <v>       0.01803156 </v>
   <v>       0.01803156 </v>
   <v>       0.01803156 </v>
   <v>       0.01803156 </v>
   <v>       0.00901578 </v>
   <v>       0.00450789 </v>
   <v>       0.01803156 </v>
   <v>       0.01803156 </v>
   <v>       0.01803156 </v>
   <v>       0.01803156 </v>
   <v>       0.00901578 </v>
   <v>       0.00450789 </v>
   <v>       0.01803156 </v>
   <v>       0.01803156 </v>
   <v>       0.00901578 </v>
   <v>       0.00450789 </v>
   <v>       0.00901578 </v>
   <v>       0.01803156 </v>
   <v>       0.03606311 </v>
   <v>       0.03606311 </v>
   <v>       0.03606311 </v>
   <v>       0.01803156 </v>
   <v>       0.03606311 </v>
   <v>       0.03606311 </v>
   <v>       0.03606311 </v>
   <v>       0.03606311 </v>
   <v>       0.01803156 </v>
   <v>       0.01803156 </v>
   <v>       0.03606311 </v>
   <v>       0.03606311 </v>
   <v>       0.01803156 </v>
   <v>       0.01803156 </v>
   <v>       0.01803156 </v>
   <v>       0.01803156 </v>
   <v>       0.03606311 </v>
   <v>       0.01803156 </v>
   <v>       0.01803156 </v>
  </varray>
 </kpoints>
 <parameters>
  <separator name="general" >
   <i type="string" name="SYSTEM">fcc Ni</i>
   <i type="logical" name="LCOMPAT"> F  </i>
  </separator>
  <separator name="electronic" >
   <i type="string" name="PREC">normal</i>
   <i name="ENMAX">    270.00000000</i>
   <i name="ENAUG">    544.56500000</i>
   <i name="EDIFF">      0.00010000</i>
   <i type="int" name="IALGO">    38</i>
   <i type="int" name="IWAVPR">    10</i>
   <i type="int" name="NBANDS">    12</i>
   <i type="int" name="NBANDSLOW">    -1</i>
   <i type="int" name="NBANDSHIGH">    -1</i>
   <i name="NELECT">     10.00000000</i>
   <i type="int" name="TURBO">     0</i>
   <i type="int" name="IRESTART">     0</i>
   <i type="int" name="NREBOOT">     0</i>
   <i type="int" name="NMIN">     0</i>
   <i name="EREF">      0.00000000</i>
   <separator name="electronic smearing" >
    <i type="int" name="ISMEAR">     1</i>
    <i name="SIGMA">      0.20000000</i>
    <i name="KSPACING">      0.50000000</i>
    <i type="logical" name="KGAMMA"> T  </i>
    <i type="logical" name="KBLOWUP"> T  </i>
   </separator>
   <separator name="electronic projectors" >
    <i type="logical" name="LREAL"> F  </i>
    <v name="ROPT">      0.00000000</v>
    <i type="int" name="LMAXPAW">  -100</i>
    <i type="int" name="LMAXMIX">     2</i>
    <i type="logical" name="NLSPLINE"> F  </i>
   </separator>
   <separator name="electronic startup" >
    <i type="int" name="ISTART">     0</i>
    <i type="int" name="ICHARG">     2</i>
    <i type="int" name="INIWAV">     1</i>
   </separator>
   <separator name="electronic spin" >
    <i type="int" name="ISPIN">     2</i>
    <i type="logical" name="LNONCOLLINEAR"> F  </i>
    <v name="MAGMOM">      1.00000000</v>
    <i name="NUPDOWN">     -1.00000000</i>
    <i type="logical" name="LSORBIT"> F  </i>
    <v name="SAXIS">      0.00000000      0.00000000      1.00000000</v>
    <i type="logical" name="LSPIRAL"> F  </i>
    <v name="QSPIRAL">      0.00000000      0.00000000      0.00000000</v>
    <i type="logical" name="LZEROZ"> F  </i>
   </separator>
   <separator name="electronic exchange-correlation" >
    <i type="logical" name="LASPH"> F  </i>
    <i type="logical" name="LMETAGGA"> F  </i>
   </separator>
   <separator name="electronic convergence" >
    <i type="int" name="NELM">    60</i>
    <i type="int" name="NELMDL">    -5</i>
    <i type="int" name="NELMIN">     2</i>
    <i name="ENINI">    270.00000000</i>
    <separator name="electronic convergence detail" >
     <i type="logical" name="LDIAG"> T  </i>
     <i type="logical" name="LSUBROT"> F  </i>
     <i name="WEIMIN">      0.00000000</i>
     <i name="EBREAK">      0.00000208</i>
     <i name="DEPER">      0.30000000</i>
     <i type="int" name="NRMM">     4</i>
     <i name="TIME">      0.40000000</i>
    </separator>
   </separator>
   <separator name="electronic mixer" >
    <i name="AMIX">      0.40000000</i>
    <i name="BMIX">      1.00000000</i>
    <i name="AMIN">      0.10000000</i>
    <i name="AMIX_MAG">      1.60000000</i>
    <i name="BMIX_MAG">      1.00000000</i>
    <separator name="electronic mixer details" >
     <i type="int" name="IMIX">     4</i>
     <i type="logical" name="MIXFIRST"> F  </i>
     <i type="int" name="MAXMIX">   -45</i>
     <i name="WC">    100.00000000</i>
     <i type="int" name="INIMIX">     1</i>
     <i type="int" name="MIXPRE">     1</i>
     <i type="int" name="MREMOVE">     5</i>
    </separator>
   </separator>
   <separator name="electronic dipolcorrection" >
    <i type="logical" name="LDIPOL"> F  </i>
    <i type="logical" name="LMONO"> F  </i>
    <i type="int" name="IDIPOL">     0</i>
    <i name="EPSILON">      1.00000000</i>
    <v name="DIPOL">   -100.00000000   -100.00000000   -100.00000000</v>
    <i name="EFIELD">      0.00000000</i>
   </separator>
  </separator>
  <separator name="grids" >
   <i type="int" name="NGX">    10</i>
   <i type="int" name="NGY">    10</i>
   <i type="int" name="NGZ">    10</i>
   <i type="int" name="NGXF">    20</i>
   <i type="int" name="NGYF">    20</i>
   <i type="int" name="NGZF">    20</i>
   <i type="logical" name="ADDGRID"> F  </i>
  </separator>
  <separator name="ionic" >
   <i type="int" name="NSW">     0</i>
   <i type="int" name="IBRION">    -1</i>
   <i type="int" name="MDALGO">     0</i>
   <i type="int" name="ISIF">     2</i>
   <i name="PSTRESS">      0.00000000</i>
   <i name="EDIFFG">      0.00100000</i>
   <i type="int" name="NFREE">     0</i>
   <i name="POTIM">      0.50000000</i>
   <i name="SMASS">     -3.00000000</i>
   <i name="SCALEE">      1.00000000</i>
  </separator>
  <separator name="ionic md" >
   <i name="TEBEG">      0.00010000</i>
   <i name="TEEND">      0.00010000</i>
   <i type="int" name="NBLOCK">     1</i>
   <i type="int" name="KBLOCK">     1</i>
   <i type="int" name="NPACO">   256</i>
   <i name="APACO">     10.00000000</i>
  </separator>
  <separator name="symmetry" >
   <i type="int" name="ISYM">     2</i>
   <i name="SYMPREC">      0.00001000</i>
  </separator>
  <separator name="dos" >
   <i type="int" name="LORBIT">    11</i>
   <v name="RWIGS">     -1.00000000</v>
   <i type="int" name="NEDOS">   301</i>
   <i name="EMIN">     10.00000000</i>
   <i name="EMAX">    -10.00000000</i>
   <i name="EFERMI">      0.00000000</i>
  </separator>
  <separator name="writing" >
   <i type="int" name="NWRITE">     2</i>
   <i type="logical" name="LWAVE"> T  </i>
   <i type="logical" name="LDOWNSAMPLE"> F  </i>
   <i type="logical" name="LCHARG"> T  </i>
   <i type="logical" name="LPARD"> F  </i>
   <i type="logical" name="LVTOT"> F  </i>
   <i type="logical" name="LVHAR"> F  </i>
   <i type="logical" name="LELF"> F  </i>
   <i type="logical" name="LOPTICS"> F  </i>
   <v name="STM">      0.00000000      0.00000000      0.00000000      0.00000000      0.00000000      0.00000000      0.00000000</v>
  </separator>
  <separator name="performance" >
   <i type="int" name="NPAR">     4</i>
   <i type="int" name="NSIM">     4</i>
   <i type="int" name="NBLK">    -1</i>
   <i type="logical" name="LPLANE"> T  </i>
   <i type="logical" name="LSCALAPACK"> T  </i>
   <i type="logical" name="LSCAAWARE"> F  </i>
   <i type="logical" name="LSCALU"> F  </i>
   <i type="logical" name="LASYNC"> F  </i>
   <i type="logical" name="LORBITALREAL"> F  </i>
  </separator>
  <separator name="miscellaneous" >
   <i type="int" name="IDIOT">     3</i>
   <i type="int" name="PHON_NSTRUCT">    -1</i>
   <i type="logical" name="LMUSIC"> F  </i>
   <v name="POMASS">     58.69000000</v>
   <v name="DARWINR">      0.00000000</v>
   <v name="DARWINV">      1.00000000</v>
   <i type="logical" name="LCORR"> T  </i>
  </separator>
  <i type="logical" name="GGA_COMPAT"> T  </i>
  <i type="logical" name="LBERRY"> F  </i>
  <i type="int" name="ICORELEVEL">     0</i>
  <i type="logical" name="LDAU"> F  </i>
  <i type="int" name="I_CONSTRAINED_M">     0</i>
  <separator name="electronic exchange-correlation" >
   <i type="string" name="GGA">--</i>
   <i type="int" name="VOSKOWN">     0</i>
   <i type="logical" name="LHFCALC"> F  </i>
   <i type="string" name="PRECFOCK"></i>
   <i type="logical" name="LSYMGRAD"> F  </i>
   <i type="logical" name="LHFONE"> F  </i>
   <i type="logical" name="LRHFCALC"> F  </i>
   <i type="logical" name="LTHOMAS"> F  </i>
   <i type="logical" name="LMODELHF"> F  </i>
   <i type="logical" name="LFOCKACE"> F  </i>
   <i name="ENCUT4O">     -1.00000000</i>
   <i type="int" name="EXXOEP">     0</i>
   <i type="int" name="FOURORBIT">     0</i>
   <i name="AEXX">      0.00000000</i>
   <i name="HFALPHA">      0.00000000</i>
   <i name="MCALPHA">      0.00000000</i>
   <i name="ALDAX">      1.00000000</i>
   <i name="AGGAX">      1.00000000</i>
   <i name="ALDAC">      1.00000000</i>
   <i name="AGGAC">      1.00000000</i>
   <i type="int" name="NKREDX">     1</i>
   <i type="int" name="NKREDY">     1</i>
   <i type="int" name="NKREDZ">     1</i>
   <i type="logical" name="SHIFTRED"> F  </i>
   <i type="logical" name="ODDONLY"> F  </i>
   <i type="logical" name="EVENONLY"> F  </i>
   <i type="int" name="LMAXFOCK">     0</i>
   <i type="int" name="NMAXFOCKAE">     0</i>
   <i type="logical" name="LFOCKAEDFT"> F  </i>
   <i name="HFSCREEN">      0.00000000</i>
   <i name="HFSCREENC">      0.00000000</i>
   <i type="int" name="NBANDSGWLOW">     0</i>
  </separator>
  <separator name="vdW DFT" >
   <i type="logical" name="LUSE_VDW"> F  </i>
   <i name="Zab_VDW">     -0.84910000</i>
   <i name="PARAM1">      0.12340000</i>
   <i name="PARAM2">      1.00000000</i>
   <i name="PARAM3">      0.00000000</i>
  </separator>
  <separator name="model GW" >
   <i type="int" name="MODEL_GW">     0</i>
   <i name="MODEL_EPS0">      4.05000000</i>
   <i name="MODEL_ALPHA">      1.00000000</i>
  </separator>
  <separator name="linear response parameters" >
   <i type="logical" name="LEPSILON"> F  </i>
   <i type="logical" name="LRPA"> F  </i>
   <i type="logical" name="LNABLA"> F  </i>
   <i type="logical" name="LVEL"> F  </i>
   <i name="CSHIFT">      0.10000000</i>
   <i name="OMEGAMAX">     -1.00000000</i>
   <i name="DEG_THRESHOLD">      0.00200000</i>
   <i name="RTIME">     -0.10000000</i>
   <i name="WPLASMAI">      0.00000000</i>
   <v name="DFIELD">      0.00000000      0.00000000      0.00000000</v>
   <v name="WPLASMA">      0.00000000      0.00000000      0.00000000      0.00000000      0.00000000      0.00000000      0.00000000      0.00000000      0.00000000</v>
  </separator>
  <separator name="orbital magnetization" >
   <i type="logical" name="NUCIND"> F  </i>
   <v name="MAGPOS">      0.00000000      0.00000000      0.00000000</v>
   <i type="logical" name="LNICSALL"> T  </i>
   <i type="logical" name="ORBITALMAG"> F  </i>
   <i type="logical" name="LMAGBLOCH"> F  </i>
   <i type="logical" name="LCHIMAG"> F  </i>
   <i type="logical" name="LGAUGE"> T  </i>
   <i type="int" name="MAGATOM">     0</i>
   <v name="MAGDIPOL">      0.00000000      0.00000000      0.00000000</v>
   <v name="AVECCONST">      0.00000000      0.00000000      0.00000000</v>
  </separator>
  <separator name="response functions" >
   <i type="logical" name="LFINITE_TEMPERATURE"> F  </i>
   <i type="logical" name="LADDER"> F  </i>
   <i type="logical" name="LRPAFORCE"> F  </i>
   <i type="logical" name="LFXC"> F  </i>
   <i type="logical" name="LHARTREE"> T  </i>
   <i type="int" name="IBSE">     0</i>
   <v type="int" name="KPOINT">    -1     0     0     0</v>
   <i type="logical" name="LTCTC"> F  </i>
   <i type="logical" name="LTCTE"> F  </i>
   <i type="logical" name="LTETE"> F  </i>
   <i type="logical" name="LTRIPLET"> F  </i>
   <i type="logical" name="LFXCEPS"> F  </i>
   <i type="logical" name="LFXHEG"> F  </i>
   <i type="int" name="NATURALO">     2</i>
   <i type="logical" name="LHOLEGF"> F  </i>
   <i type="logical" name="L2ORDER"> F  </i>
   <i type="logical" name="LDMP1"> F  </i>
   <i type="logical" name="LMP2LT"> F  </i>
   <i type="logical" name="LSMP2LT"> F  </i>
   <i type="logical" name="LGWLF"> F  </i>
   <i name="ENCUTGW">     -2.00000000</i>
   <i name="ENCUTGWSOFT">     -2.00000000</i>
   <i name="ENCUTLF">     -1.00000000</i>
   <i type="logical" name="LESF_SPLINES"> F  </i>
   <i type="int" name="LMAXMP2">    -1</i>
   <i name="SCISSOR">      0.00000000</i>
   <i type="int" name="NOMEGA">     0</i>
   <i type="int" name="NOMEGAR">     0</i>
   <i type="int" name="NBANDSGW">    -1</i>
   <i type="int" name="NBANDSO">    -1</i>
   <i type="int" name="NBANDSV">    -1</i>
   <i type="int" name="NELMGW">     1</i>
   <i type="int" name="NELMHF">     1</i>
   <i type="int" name="DIM">     3</i>
   <i type="int" name="IESPILON">     4</i>
   <i type="int" name="ANTIRES">     0</i>
   <i name="OMEGAMAX">    -30.00000000</i>
   <i name="OMEGAMIN">    -30.00000000</i>
   <i name="OMEGATL">   -200.00000000</i>
   <i type="int" name="OMEGAGRID">     0</i>
   <i name="CSHIFT">     -0.10000000</i>
   <i type="logical" name="LSELFENERGY"> F  </i>
   <i type="logical" name="LSPECTRAL"> F  </i>
   <i type="logical" name="LSPECTRALGW"> F  </i>
   <i type="logical" name="LSINGLES"> F  </i>
   <i type="logical" name="LFERMIGW"> F  </i>
   <i type="logical" name="ODDONLYGW"> F  </i>
   <i type="logical" name="EVENONLYGW"> F  </i>
   <i type="int" name="NKREDLFX">     1</i>
   <i type="int" name="NKREDLFY">     1</i>
   <i type="int" name="NKREDLFZ">     1</i>
   <i type="int" name="MAXMEM">  2800</i>
   <i type="int" name="TELESCOPE">     0</i>
   <i type="int" name="NTAUPAR">    -1</i>
   <i type="int" name="NOMEGAPAR">    -1</i>
   <i name="DAMP_NEWTON">      0.80000001</i>
   <i name="LAMBDA">      1.00000000</i>
  </separator>
  <separator name="External order field" >
   <i name="OFIELD_KAPPA">      0.00000000</i>
   <v name="OFIELD_K">      0.00000000      0.00000000      0.00000000</v>
   <i name="OFIELD_Q6_NEAR">      0.00000000</i>
   <i name="OFIELD_Q6_FAR">      0.00000000</i>
   <i name="OFIELD_A">      0.00000000</i>
  </separator>
  <separator name="optional k-points parameters" >
   <i type="int" name="KPOINTS_OPT_MODE">     1</i>
   <i type="logical" name="LKPOINTS_OPT"> F  </i>
  </separator>
 </parameters>
 <atominfo>
  <atoms>       1 </atoms>
  <types>       1 </types>
  <array name="atoms" >
   <dimension dim="1">ion</dimension>
   <field type="string">element</field>
   <field type="int">atomtype</field>
   <set>
    <rc><c>Ni</c><c>   1</c></rc>
   </set>
  </array>
  <array name="atomtypes" >
   <dimension dim="1">type</dimension>
   <field type="int">atomspertype</field>
   <field type="string">element</field>
   <field>mass</field>
   <field>valence</field>
   <field type="string">pseudopotential</field>
   <set>
    <rc><c>   1</c><c>Ni</c><c>     58.69000000</c><c>     10.00000000</c><c>  PAW_PBE Ni 02Aug2007                  </c></rc>
   </set>
  </array>
 </atominfo>
 <structure name="initialpos" >
  <crystal>
   <varray name="basis" >
    <v>       1.50000000       1.50000000       0.00000000 </v>
    <v>       0.00000000       1.50000000       1.50000000 </v>
    <v>       1.50000000       0.00000000       1.50000000 </v>
   </varray>
   <i name="volume">      6.75000000 </i>
   <varray name="rec_basis" >
    <v>       0.33333333       0.33333333      -0.33333333 </v>
    <v>      -0.33333333       0.33333333       0.33333333 </v>
    <v>       0.33333333      -0.33333333       0.33333333 </v>
   </varray>
  </crystal>
  <varray name="positions" >
   <v>       0.00000000       0.00000000       0.00000000 </v>
  </varray>
 </structure>
 <calculation>
  <scstep>
   <time name="dav">    0.18    0.18</time>
   <time name="total">    0.19    0.19</time>
   <energy>
    <i name="alphaZ">     75.55466815 </i>
    <i name="ewald">  -1100.35063412 </i>
    <i name="hartreedc">   -176.13734385 </i>
    <i name="XCdc">     33.63795238 </i>
    <i name="pawpsdc">    962.83317360 </i>
    <i name="pawaedc">  -1029.67071227 </i>
    <i name="eentropy">      0.00155169 </i>
    <i name="bandstr">    174.48083498 </i>
    <i name="atom">   1077.63607467 </i>
    <i name="e_fr_energy">     17.98556523 </i>
    <i name="e_wo_entrp">     17.98401355 </i>
    <i name="e_0_energy">     17.98504800 </i>
   </energy>
  </scstep>
  <scstep>
   <time name="dav">    0.16    0.16</time>
   <time name="total">    0.16    0.16</time>
   <energy>
    <i name="e_fr_energy">     -3.46792723 </i>
    <i name="e_wo_entrp">     -3.47123326 </i>
    <i name="e_0_energy">     -3.46902924 </i>
   </energy>
  </scstep>
  <scstep>
   <time name="dav">    0.17    0.17</time>
   <time name="total">    0.17    0.17</time>
   <energy>
    <i name="e_fr_energy">     -3.78020172 </i>
    <i name="e_wo_entrp">     -3.78355591 </i>
    <i name="e_0_energy">     -3.78131978 </i>
   </energy>
  </scstep>
  <scstep>
   <time name="dav">    0.17    0.17</time>
   <time name="total">    0.17    0.17</time>
   <energy>
    <i name="e_fr_energy">     -3.78129424 </i>
    <i name="e_wo_entrp">     -3.78464645 </i>
    <i name="e_0_energy">     -3.78241164 </i>
   </energy>
  </scstep>
  <scstep>
   <time name="dav">    0.16    0.16</time>
   <time name="total">    0.16    0.16</time>
   <energy>
    <i name="e_fr_energy">     -3.78130064 </i>
    <i name="e_wo_entrp">     -3.78465284 </i>
    <i name="e_0_energy">     -3.78241804 </i>
   </energy>
  </scstep>
  <scstep>
   <time name="dav">    0.20    0.20</time>
   <time name="total">    0.21    0.21</time>
   <energy>
    <i name="e_fr_energy">     -3.15332087 </i>
    <i name="e_wo_entrp">     -3.15581340 </i>
    <i name="e_0_energy">     -3.15415172 </i>
   </energy>
  </scstep>
  <scstep>
   <time name="dav">    0.18    0.18</time>
   <time name="total">    0.19    0.19</time>
   <energy>
    <i name="e_fr_energy">     -3.07405293 </i>
    <i name="e_wo_entrp">     -3.07615659 </i>
    <i name="e_0_energy">     -3.07475415 </i>
   </energy>
  </scstep>
  <scstep>
   <time name="dav">    0.18    0.18</time>
   <time name="total">    0.19    0.19</time>
   <energy>
    <i name="e_fr_energy">     -3.04620250 </i>
    <i name="e_wo_entrp">     -3.04919162 </i>
    <i name="e_0_energy">     -3.04719887 </i>
   </energy>
  </scstep>
  <scstep>
   <time name="dav">    0.22    0.22</time>
   <time name="total">    0.23    0.23</time>
   <energy>
    <i name="e_fr_energy">     -3.04469050 </i>
    <i name="e_wo_entrp">     -3.04761162 </i>
    <i name="e_0_energy">     -3.04566421 </i>
   </energy>
  </scstep>
  <scstep>
   <time name="dav">    0.13    0.13</time>
   <time name="total">    0.13    0.13</time>
   <energy>
    <i name="alphaZ">     75.55466815 </i>
    <i name="ewald">  -1100.35063412 </i>
    <i name="hartreedc">   -155.14026219 </i>
    <i name="XCdc">     32.44226271 </i>
    <i name="pawpsdc">   1640.97271644 </i>
    <i name="pawaedc">  -1715.45669415 </i>
    <i name="eentropy">      0.00284712 </i>
    <i name="bandstr">    141.29428479 </i>
    <i name="atom">   1077.63607467 </i>
    <i name="e_fr_energy">     -3.04473658 </i>
    <i name="e_wo_entrp">     -3.04758369 </i>
    <i name="e_0_energy">     -3.04568562 </i>
   </energy>
  </scstep>
  <structure>
   <crystal>
    <varray name="basis" >
     <v>       1.50000000       1.50000000       0.00000000 </v>
     <v>       0.00000000       1.50000000       1.50000000 </v>
     <v>       1.50000000       0.00000000       1.50000000 </v>
    </varray>
    <i name="volume">      6.75000000 </i>
    <varray name="rec_basis" >
     <v>       0.33333333       0.33333333      -0.33333333 </v>
     <v>      -0.33333333       0.33333333       0.33333333 </v>
     <v>       0.33333333      -0.33333333       0.33333333 </v>
    </varray>
   </crystal>
   <varray name="positions" >
    <v>       0.00000000       0.00000000       0.00000000 </v>
   </varray>
  </structure>
  <varray name="forces" >
   <v>       0.00000000       0.00000000      -0.00000000 </v>
  </varray>
  <varray name="stress" >
   <v>    2941.14844687       0.00000000      -0.00000000 </v>
   <v>      -0.00000000    2941.14844687       0.00000000 </v>
   <v>      -0.00000000       0.00000000    2941.14844687 </v>
  </varray>
  <energy>
   <i name="e_fr_energy">     -3.04473658 </i>
   <i name="e_wo_entrp">     -3.04758369 </i>
   <i name="e_0_energy">     -3.04568562 </i>
  </energy>
  <time name="totalsc">    1.90    1.91</time>
  <eigenvalues>
   <array>
    <dimension dim="1">band</dimension>
    <dimension dim="2">kpoint</dimension>
    <dimension dim="3">spin</dimension>
    <field>eigene</field>
    <field>occ</field>
    <set>
     <set comment="spin 1">
      <set comment="kpoint 1">
       <r>    5.3858    1.0000 </r>
       <r>   14.0128    1.0000 </r>
       <r>   14.0128    1.0000 </r>
       <r>   14.0128    1.0000 </r>
       <r>   16.3057    1.0000 </r>
       <r>   16.3057    1.0000 </r>
       <r>   45.6686    0.0000 </r>
       <r>   53.5696    0.0000 </r>
       <r>   53.5697    0.0000 </r>
       <r>   53.5697    0.0000 </r>
       <r>   60.2146    0.0000 </r>
       <r>   60.8019    0.0000 </r>
      </set>
      <set comment="kpoint 2">
       <r>    5.8526    1.0000 </r>
       <r>   13.8340    1.0000 </r>
       <r>   14.1505    1.0000 </r>
       <r>   14.1505    1.0000 </r>
       <r>   16.2411    1.0000 </r>
       <r>   16.2411    1.0000 </r>
       <r>   45.4316    0.0000 </r>
       <r>   49.9548    0.0000 </r>
       <r>   53.5489    0.0000 </r>
       <r>   53.5490    0.0000 </r>
       <r>   59.8476    0.0000 </r>
       <r>   61.0468    0.0000 </r>
      </set>
      <set comment="kpoint 3">
       <r>    7.1388    1.0000 </r>
       <r>   13.4667    1.0000 </r>
       <r>   14.4005    1.0000 </r>
       <r>   14.4005    1.0000 </r>
       <r>   16.2097    1.0000 </r>
       <r>   16.2097    1.0000 </r>
       <r>   42.3315    0.0000 </r>
       <r>   47.3361    0.0000 </r>
       <r>   53.4200    0.0000 </r>
       <r>   53.4201    0.0000 </r>
       <r>   59.1677    0.0000 </r>
       <r>   60.7738    0.0000 </r>
      </set>
      <set comment="kpoint 4">
       <r>    8.7559    1.0000 </r>
       <r>   13.4712    1.0000 </r>
       <r>   14.3800    1.0000 </r>
       <r>   14.3800    1.0000 </r>
       <r>   16.5866    1.0000 </r>
       <r>   16.5867    1.0000 </r>
       <r>   37.1650    0.0000 </r>
       <r>   46.1389    0.0000 </r>
       <r>   53.2094    0.0000 </r>
       <r>   53.2094    0.0000 </r>
       <r>   58.7930    0.0000 </r>
       <r>   58.7930    0.0000 </r>
      </set>
      <set comment="kpoint 5">
       <r>    9.6737    1.0000 </r>
       <r>   14.1332    1.0000 </r>
       <r>   14.1332    1.0000 </r>
       <r>   14.7725    1.0000 </r>
       <r>   17.2282    1.0000 </r>
       <r>   17.2283    1.0000 </r>
       <r>   32.3597    0.0000 </r>
       <r>   44.8475    0.0000 </r>
       <r>   52.7362    0.0000 </r>
       <r>   52.7363    0.0000 </r>
       <r>   56.7493    0.0000 </r>
       <r>   56.7493    0.0000 </r>
      </set>
      <set comment="kpoint 6">
       <r>    9.8168    1.0000 </r>
       <r>   13.9462    1.0000 </r>
       <r>   13.9462    1.0000 </r>
       <r>   16.7023    1.0000 </r>
       <r>   17.6919    1.0006 </r>
       <r>   17.6919    1.0006 </r>
       <r>   28.9677    0.0000 </r>
       <r>   44.0394    0.0000 </r>
       <r>   52.2884    0.0000 </r>
       <r>   52.2885    0.0000 </r>
       <r>   55.8615    0.0000 </r>
       <r>   55.8615    0.0000 </r>
      </set>
      <set comment="kpoint 7">
       <r>    6.0057    1.0000 </r>
       <r>   13.6795    1.0000 </r>
       <r>   14.2561    1.0000 </r>
       <r>   14.2561    1.0000 </r>
       <r>   15.9961    1.0000 </r>
       <r>   16.4166    1.0000 </r>
       <r>   45.6186    0.0000 </r>
       <r>   50.7024    0.0000 </r>
       <r>   51.7823    0.0000 </r>
       <r>   51.7824    0.0000 </r>
       <r>   61.7861    0.0000 </r>
       <r>   61.7861    0.0000 </r>
      </set>
      <set comment="kpoint 8">
       <r>    7.0175    1.0000 </r>
       <r>   13.2961    1.0000 </r>
       <r>   14.5138    1.0000 </r>
       <r>   14.5444    1.0000 </r>
       <r>   15.7728    1.0000 </r>
       <r>   16.5248    1.0000 </r>
       <r>   44.1265    0.0000 </r>
       <r>   47.1660    0.0000 </r>
       <r>   50.3995    0.0000 </r>
       <r>   52.7414    0.0000 </r>
       <r>   60.0012    0.0000 </r>
       <r>   62.6034    0.0000 </r>
      </set>
      <set comment="kpoint 9">
       <r>    8.5756    1.0000 </r>
       <r>   13.0259    1.0000 </r>
       <r>   14.3986    1.0000 </r>
       <r>   14.6625    1.0000 </r>
       <r>   16.2065    1.0000 </r>
       <r>   16.8392    1.0000 </r>
       <r>   39.1523    0.0000 </r>
       <r>   45.9225    0.0000 </r>
       <r>   49.4231    0.0000 </r>
       <r>   53.8135    0.0000 </r>
       <r>   58.2746    0.0000 </r>
       <r>   62.1002    0.0000 </r>
      </set>
      <set comment="kpoint 10">
       <r>    9.8002    1.0000 </r>
       <r>   13.5420    1.0000 </r>
       <r>   14.0382    1.0000 </r>
       <r>   14.4851    1.0000 </r>
       <r>   17.3446    1.0000 </r>
       <r>   17.3781    1.0000 </r>
       <r>   34.0850    0.0000 </r>
       <r>   44.6716    0.0000 </r>
       <r>   48.8877    0.0000 </r>
       <r>   52.6263    0.0000 </r>
       <r>   58.1123    0.0000 </r>
       <r>   60.5834    0.0000 </r>
      </set>
      <set comment="kpoint 11">
       <r>   10.1011    1.0000 </r>
       <r>   13.6523    1.0000 </r>
       <r>   14.2538    1.0000 </r>
       <r>   14.9827    1.0000 </r>
       <r>   17.7489    1.0022 </r>
       <r>   18.8819   -0.0000 </r>
       <r>   29.9109    0.0000 </r>
       <r>   43.6524    0.0000 </r>
       <r>   49.0997    0.0000 </r>
       <r>   50.6700    0.0000 </r>
       <r>   58.2769    0.0000 </r>
       <r>   59.1266    0.0000 </r>
      </set>
      <set comment="kpoint 12">
       <r>   10.1212    1.0000 </r>
       <r>   13.6114    1.0000 </r>
       <r>   14.1546    1.0000 </r>
       <r>   15.5307    1.0000 </r>
       <r>   17.6646    1.0003 </r>
       <r>   19.6975   -0.0000 </r>
       <r>   28.4918    0.0000 </r>
       <r>   43.2031    0.0000 </r>
       <r>   49.4185    0.0000 </r>
       <r>   50.2769    0.0000 </r>
       <r>   58.0738    0.0000 </r>
       <r>   58.3846    0.0000 </r>
      </set>
      <set comment="kpoint 13">
       <r>   10.0900    1.0000 </r>
       <r>   13.8141    1.0000 </r>
       <r>   14.2567    1.0000 </r>
       <r>   14.6460    1.0000 </r>
       <r>   17.1039    1.0000 </r>
       <r>   18.7470   -0.0006 </r>
       <r>   31.1403    0.0000 </r>
       <r>   43.3873    0.0000 </r>
       <r>   49.3672    0.0000 </r>
       <r>   52.5030    0.0000 </r>
       <r>   57.4508    0.0000 </r>
       <r>   58.2865    0.0000 </r>
      </set>
      <set comment="kpoint 14">
       <r>    9.5338    1.0000 </r>
       <r>   13.3558    1.0000 </r>
       <r>   14.1632    1.0000 </r>
       <r>   14.5162    1.0000 </r>
       <r>   16.3159    1.0000 </r>
       <r>   17.6604    1.0003 </r>
       <r>   35.7155    0.0000 </r>
       <r>   44.0417    0.0000 </r>
       <r>   50.5135    0.0000 </r>
       <r>   55.3332    0.0000 </r>
       <r>   57.0467    0.0000 </r>
       <r>   57.5291    0.0000 </r>
      </set>
      <set comment="kpoint 15">
       <r>    8.0466    1.0000 </r>
       <r>   13.1582    1.0000 </r>
       <r>   14.4325    1.0000 </r>
       <r>   14.6546    1.0000 </r>
       <r>   15.7819    1.0000 </r>
       <r>   16.8402    1.0000 </r>
       <r>   40.9070    0.0000 </r>
       <r>   44.9378    0.0000 </r>
       <r>   51.9820    0.0000 </r>
       <r>   55.7649    0.0000 </r>
       <r>   56.0202    0.0000 </r>
       <r>   60.0154    0.0000 </r>
      </set>
      <set comment="kpoint 16">
       <r>    6.5964    1.0000 </r>
       <r>   13.5307    1.0000 </r>
       <r>   14.3574    1.0000 </r>
       <r>   14.3733    1.0000 </r>
       <r>   15.9321    1.0000 </r>
       <r>   16.4193    1.0000 </r>
       <r>   44.7716    0.0000 </r>
       <r>   47.0172    0.0000 </r>
       <r>   51.9591    0.0000 </r>
       <r>   55.1974    0.0000 </r>
       <r>   57.5392    0.0000 </r>
       <r>   61.0310    0.0000 </r>
      </set>
      <set comment="kpoint 17">
       <r>    7.6725    1.0000 </r>
       <r>   12.8328    1.0000 </r>
       <r>   14.9594    1.0000 </r>
       <r>   14.9594    1.0000 </r>
       <r>   15.3060    1.0000 </r>
       <r>   16.7194    1.0000 </r>
       <r>   45.5456    0.0000 </r>
       <r>   46.7533    0.0000 </r>
       <r>   47.9747    0.0000 </r>
       <r>   47.9747    0.0000 </r>
       <r>   60.5745    0.0000 </r>
       <r>   64.4745    0.0000 </r>
      </set>
      <set comment="kpoint 18">
       <r>    8.8965    1.0000 </r>
       <r>   12.3847    1.0000 </r>
       <r>   14.6003    1.0000 </r>
       <r>   15.2953    1.0000 </r>
       <r>   16.0437    1.0000 </r>
       <r>   16.9999    1.0000 </r>
       <r>   41.6063    0.0000 </r>
       <r>   45.0137    0.0000 </r>
       <r>   46.2454    0.0000 </r>
       <r>   48.9916    0.0000 </r>
       <r>   58.8372    0.0000 </r>
       <r>   64.2447    0.0000 </r>
      </set>
      <set comment="kpoint 19">
       <r>   10.1370    1.0000 </r>
       <r>   12.2893    1.0000 </r>
       <r>   14.0456    1.0000 </r>
       <r>   15.2555    1.0000 </r>
       <r>   17.4856    1.0000 </r>
       <r>   17.6957    1.0007 </r>
       <r>   36.3064    0.0000 </r>
       <r>   43.3664    0.0000 </r>
       <r>   45.3397    0.0000 </r>
       <r>   49.3508    0.0000 </r>
       <r>   60.3433    0.0000 </r>
       <r>   63.2963    0.0000 </r>
      </set>
      <set comment="kpoint 20">
       <r>   10.6687    1.0000 </r>
       <r>   12.6365    1.0000 </r>
       <r>   13.9550    1.0000 </r>
       <r>   15.0246    1.0000 </r>
       <r>   17.8178    1.0079 </r>
       <r>   20.0401   -0.0000 </r>
       <r>   31.5392    0.0000 </r>
       <r>   41.7125    0.0000 </r>
       <r>   45.4319    0.0000 </r>
       <r>   48.5822    0.0000 </r>
       <r>   62.3705    0.0000 </r>
       <r>   63.3137    0.0000 </r>
      </set>
      <set comment="kpoint 21">
       <r>   10.8330    1.0000 </r>
       <r>   12.7515    1.0000 </r>
       <r>   14.2919    1.0000 </r>
       <r>   14.8367    1.0000 </r>
       <r>   17.6857    1.0005 </r>
       <r>   22.1711   -0.0000 </r>
       <r>   28.5539    0.0000 </r>
       <r>   40.4139    0.0000 </r>
       <r>   46.6587    0.0000 </r>
       <r>   47.9417    0.0000 </r>
       <r>   61.7411    0.0000 </r>
       <r>   62.2058    0.0000 </r>
      </set>
      <set comment="kpoint 22">
       <r>   10.9543    1.0000 </r>
       <r>   13.0103    1.0000 </r>
       <r>   13.9516    1.0000 </r>
       <r>   14.8101    1.0000 </r>
       <r>   17.0633    1.0000 </r>
       <r>   21.3045   -0.0000 </r>
       <r>   30.3276    0.0000 </r>
       <r>   39.6379    0.0000 </r>
       <r>   48.1286    0.0000 </r>
       <r>   48.9109    0.0000 </r>
       <r>   60.2199    0.0000 </r>
       <r>   61.5971    0.0000 </r>
      </set>
      <set comment="kpoint 23">
       <r>   10.7604    1.0000 </r>
       <r>   12.9783    1.0000 </r>
       <r>   13.5385    1.0000 </r>
       <r>   14.9851    1.0000 </r>
       <r>   16.1685    1.0000 </r>
       <r>   19.4229   -0.0000 </r>
       <r>   34.7830    0.0000 </r>
       <r>   39.4995    0.0000 </r>
       <r>   49.4556    0.0000 </r>
       <r>   51.9039    0.0000 </r>
       <r>   57.5508    0.0000 </r>
       <r>   61.5647    0.0000 </r>
      </set>
      <set comment="kpoint 24">
       <r>    9.5206    1.0000 </r>
       <r>   12.7789    1.0000 </r>
       <r>   14.1108    1.0000 </r>
       <r>   15.2733    1.0000 </r>
       <r>   15.3510    1.0000 </r>
       <r>   17.9275    1.0295 </r>
       <r>   39.6627    0.0000 </r>
       <r>   40.2350    0.0000 </r>
       <r>   51.8084    0.0000 </r>
       <r>   54.6007    0.0000 </r>
       <r>   54.8793    0.0000 </r>
       <r>   61.9636    0.0000 </r>
      </set>
      <set comment="kpoint 25">
       <r>    9.4685    1.0000 </r>
       <r>   11.8114    1.0000 </r>
       <r>   15.2839    1.0000 </r>
       <r>   16.0127    1.0000 </r>
       <r>   16.0127    1.0000 </r>
       <r>   17.1357    1.0000 </r>
       <r>   42.6031    0.0000 </r>
       <r>   43.8069    0.0000 </r>
       <r>   43.8070    0.0000 </r>
       <r>   45.5173    0.0000 </r>
       <r>   55.7297    0.0000 </r>
       <r>   66.6540    0.0000 </r>
      </set>
      <set comment="kpoint 26">
       <r>   10.0639    1.0000 </r>
       <r>   11.4591    1.0000 </r>
       <r>   15.1232    1.0000 </r>
       <r>   16.2706    1.0000 </r>
       <r>   17.5153    1.0000 </r>
       <r>   17.7128    1.0010 </r>
       <r>   38.6928    0.0000 </r>
       <r>   41.0226    0.0000 </r>
       <r>   42.4034    0.0000 </r>
       <r>   47.1450    0.0000 </r>
       <r>   55.6276    0.0000 </r>
       <r>   66.3812    0.0000 </r>
      </set>
      <set comment="kpoint 27">
       <r>   10.5441    1.0000 </r>
       <r>   11.4988    1.0000 </r>
       <r>   14.6649    1.0000 </r>
       <r>   16.0974    1.0000 </r>
       <r>   17.8789    1.0186 </r>
       <r>   20.5787   -0.0000 </r>
       <r>   33.8478    0.0000 </r>
       <r>   38.6860    0.0000 </r>
       <r>   42.1596    0.0000 </r>
       <r>   47.7381    0.0000 </r>
       <r>   58.7393    0.0000 </r>
       <r>   66.2551    0.0000 </r>
      </set>
      <set comment="kpoint 28">
       <r>   10.9916    1.0000 </r>
       <r>   11.8061    1.0000 </r>
       <r>   14.2049    1.0000 </r>
       <r>   15.8407    1.0000 </r>
       <r>   17.7493    1.0022 </r>
       <r>   23.9350    0.0000 </r>
       <r>   29.5746    0.0000 </r>
       <r>   36.8376    0.0000 </r>
       <r>   43.1984    0.0000 </r>
       <r>   47.6359    0.0000 </r>
       <r>   63.2128    0.0000 </r>
       <r>   65.5554    0.0000 </r>
      </set>
      <set comment="kpoint 29">
       <r>   11.5770    1.0000 </r>
       <r>   12.1399    1.0000 </r>
       <r>   13.5989    1.0000 </r>
       <r>   15.6292    1.0000 </r>
       <r>   17.1561    1.0000 </r>
       <r>   24.3723    0.0000 </r>
       <r>   29.5286    0.0000 </r>
       <r>   35.6402    0.0000 </r>
       <r>   45.4163    0.0000 </r>
       <r>   47.7301    0.0000 </r>
       <r>   63.7678    0.0000 </r>
       <r>   64.7799    0.0000 </r>
      </set>
      <set comment="kpoint 30">
       <r>   11.8072    1.0000 </r>
       <r>   12.7160    1.0000 </r>
       <r>   12.8772    1.0000 </r>
       <r>   15.4296    1.0000 </r>
       <r>   16.4412    1.0000 </r>
       <r>   21.7051   -0.0000 </r>
       <r>   33.3730    0.0000 </r>
       <r>   35.7200    0.0000 </r>
       <r>   48.3486    0.0000 </r>
       <r>   48.4527    0.0000 </r>
       <r>   60.4758    0.0000 </r>
       <r>   63.8997    0.0000 </r>
      </set>
      <set comment="kpoint 31">
       <r>    9.8372    1.0000 </r>
       <r>   10.9466    1.0000 </r>
       <r>   17.1719    1.0000 </r>
       <r>   17.1719    1.0000 </r>
       <r>   17.5191    1.0000 </r>
       <r>   17.5474    1.0000 </r>
       <r>   37.7023    0.0000 </r>
       <r>   40.4156    0.0000 </r>
       <r>   40.4156    0.0000 </r>
       <r>   45.5410    0.0000 </r>
       <r>   53.4198    0.0000 </r>
       <r>   67.0103    0.0000 </r>
      </set>
      <set comment="kpoint 32">
       <r>    9.8791    1.0000 </r>
       <r>   10.7942    1.0000 </r>
       <r>   16.5420    1.0000 </r>
       <r>   17.1780    1.0000 </r>
       <r>   17.9034    1.0241 </r>
       <r>   20.4957   -0.0000 </r>
       <r>   35.2364    0.0000 </r>
       <r>   37.2806    0.0000 </r>
       <r>   39.6902    0.0000 </r>
       <r>   46.7373    0.0000 </r>
       <r>   54.4813    0.0000 </r>
       <r>   67.5769    0.0000 </r>
      </set>
      <set comment="kpoint 33">
       <r>   10.2509    1.0000 </r>
       <r>   11.0584    1.0000 </r>
       <r>   15.5339    1.0000 </r>
       <r>   16.8918    1.0000 </r>
       <r>   17.8694    1.0166 </r>
       <r>   24.0205    0.0000 </r>
       <r>   31.8789    0.0000 </r>
       <r>   34.4710    0.0000 </r>
       <r>   40.4082    0.0000 </r>
       <r>   47.4422    0.0000 </r>
       <r>   58.3469    0.0000 </r>
       <r>   67.2916    0.0000 </r>
      </set>
      <set comment="kpoint 34">
       <r>   10.9157    1.0000 </r>
       <r>   11.6131    1.0000 </r>
       <r>   14.3921    1.0000 </r>
       <r>   16.4090    1.0000 </r>
       <r>   17.4617    1.0000 </r>
       <r>   27.4695    0.0000 </r>
       <r>   27.9517    0.0000 </r>
       <r>   33.7550    0.0000 </r>
       <r>   42.4564    0.0000 </r>
       <r>   47.6060    0.0000 </r>
       <r>   63.4524    0.0000 </r>
       <r>   67.5049    0.0000 </r>
      </set>
      <set comment="kpoint 35">
       <r>    9.5215    1.0000 </r>
       <r>   10.4609    1.0000 </r>
       <r>   17.7522    1.0024 </r>
       <r>   17.9962    1.0332 </r>
       <r>   17.9962    1.0332 </r>
       <r>   20.6616   -0.0000 </r>
       <r>   33.4918    0.0000 </r>
       <r>   38.4294    0.0000 </r>
       <r>   38.4294    0.0000 </r>
       <r>   45.6732    0.0000 </r>
       <r>   52.9219    0.0000 </r>
       <r>   68.7315    0.0000 </r>
      </set>
      <set comment="kpoint 36">
       <r>    9.6611    1.0000 </r>
       <r>   10.5562    1.0000 </r>
       <r>   17.1520    1.0000 </r>
       <r>   17.5824    1.0000 </r>
       <r>   18.0394    1.0109 </r>
       <r>   22.5159   -0.0000 </r>
       <r>   32.6335    0.0000 </r>
       <r>   36.2150    0.0000 </r>
       <r>   38.6926    0.0000 </r>
       <r>   46.7137    0.0000 </r>
       <r>   54.2701    0.0000 </r>
       <r>   68.7328    0.0000 </r>
      </set>
      <set comment="kpoint 37">
       <r>    8.1835    1.0000 </r>
       <r>   12.8651    1.0000 </r>
       <r>   14.4964    1.0000 </r>
       <r>   14.9800    1.0000 </r>
       <r>   15.6403    1.0000 </r>
       <r>   16.9185    1.0000 </r>
       <r>   42.8751    0.0000 </r>
       <r>   43.4820    0.0000 </r>
       <r>   50.8289    0.0000 </r>
       <r>   51.0550    0.0000 </r>
       <r>   60.2264    0.0000 </r>
       <r>   61.8974    0.0000 </r>
      </set>
      <set comment="kpoint 38">
       <r>    9.6847    1.0000 </r>
       <r>   12.6477    1.0000 </r>
       <r>   14.0254    1.0000 </r>
       <r>   15.1122    1.0000 </r>
       <r>   16.1529    1.0000 </r>
       <r>   17.8303    1.0096 </r>
       <r>   37.8909    0.0000 </r>
       <r>   42.2886    0.0000 </r>
       <r>   48.5676    0.0000 </r>
       <r>   52.6436    0.0000 </r>
       <r>   58.5517    0.0000 </r>
       <r>   61.5420    0.0000 </r>
      </set>
      <set comment="kpoint 39">
       <r>   10.5440    1.0000 </r>
       <r>   13.1263    1.0000 </r>
       <r>   13.6697    1.0000 </r>
       <r>   14.8703    1.0000 </r>
       <r>   17.0489    1.0000 </r>
       <r>   19.2860   -0.0000 </r>
       <r>   32.9224    0.0000 </r>
       <r>   41.7600    0.0000 </r>
       <r>   46.6750    0.0000 </r>
       <r>   52.0714    0.0000 </r>
       <r>   58.0563    0.0000 </r>
       <r>   62.4485    0.0000 </r>
      </set>
      <set comment="kpoint 40">
       <r>   10.6576    1.0000 </r>
       <r>   13.0462    1.0000 </r>
       <r>   14.3713    1.0000 </r>
       <r>   14.6769    1.0000 </r>
       <r>   17.5784    1.0000 </r>
       <r>   21.1385   -0.0000 </r>
       <r>   29.1309    0.0000 </r>
       <r>   41.5890    0.0000 </r>
       <r>   45.6383    0.0000 </r>
       <r>   50.8915    0.0000 </r>
       <r>   58.2154    0.0000 </r>
       <r>   62.8626    0.0000 </r>
      </set>
      <set comment="kpoint 41">
       <r>    9.9237    1.0000 </r>
       <r>   11.9787    1.0000 </r>
       <r>   14.2729    1.0000 </r>
       <r>   16.0133    1.0000 </r>
       <r>   16.3361    1.0000 </r>
       <r>   17.8082    1.0067 </r>
       <r>   40.3755    0.0000 </r>
       <r>   40.4089    0.0000 </r>
       <r>   45.0235    0.0000 </r>
       <r>   49.5766    0.0000 </r>
       <r>   57.7207    0.0000 </r>
       <r>   63.8954    0.0000 </r>
      </set>
      <set comment="kpoint 42">
       <r>   10.7743    1.0000 </r>
       <r>   11.9431    1.0000 </r>
       <r>   13.8181    1.0000 </r>
       <r>   15.9243    1.0000 </r>
       <r>   17.1595    1.0000 </r>
       <r>   19.6425   -0.0000 </r>
       <r>   35.2631    0.0000 </r>
       <r>   39.6407    0.0000 </r>
       <r>   42.8422    0.0000 </r>
       <r>   50.8153    0.0000 </r>
       <r>   58.8049    0.0000 </r>
       <r>   63.0373    0.0000 </r>
      </set>
      <set comment="kpoint 43">
       <r>   11.1567    1.0000 </r>
       <r>   12.1506    1.0000 </r>
       <r>   13.7014    1.0000 </r>
       <r>   15.5982    1.0000 </r>
       <r>   17.6317    1.0001 </r>
       <r>   22.3622   -0.0000 </r>
       <r>   30.6650    0.0000 </r>
       <r>   38.9956    0.0000 </r>
       <r>   41.8019    0.0000 </r>
       <r>   50.9099    0.0000 </r>
       <r>   60.0351    0.0000 </r>
       <r>   64.7427    0.0000 </r>
      </set>
      <set comment="kpoint 44">
       <r>   11.4661    1.0000 </r>
       <r>   12.1770    1.0000 </r>
       <r>   13.6951    1.0000 </r>
       <r>   15.3905    1.0000 </r>
       <r>   17.5038    1.0000 </r>
       <r>   24.0011    0.0000 </r>
       <r>   28.7044    0.0000 </r>
       <r>   37.9933    0.0000 </r>
       <r>   42.4910    0.0000 </r>
       <r>   51.2595    0.0000 </r>
       <r>   59.4345    0.0000 </r>
       <r>   65.9541    0.0000 </r>
      </set>
      <set comment="kpoint 45">
       <r>   11.5692    1.0000 </r>
       <r>   12.5358    1.0000 </r>
       <r>   13.0900    1.0000 </r>
       <r>   15.4956    1.0000 </r>
       <r>   16.9049    1.0000 </r>
       <r>   21.7976   -0.0000 </r>
       <r>   32.1653    0.0000 </r>
       <r>   37.3399    0.0000 </r>
       <r>   44.1391    0.0000 </r>
       <r>   52.7052    0.0000 </r>
       <r>   57.7949    0.0000 </r>
       <r>   65.6940    0.0000 </r>
      </set>
      <set comment="kpoint 46">
       <r>   11.0035    1.0000 </r>
       <r>   12.4106    1.0000 </r>
       <r>   13.3600    1.0000 </r>
       <r>   15.7019    1.0000 </r>
       <r>   16.0822    1.0000 </r>
       <r>   19.5375   -0.0000 </r>
       <r>   36.6705    0.0000 </r>
       <r>   37.7105    0.0000 </r>
       <r>   46.3469    0.0000 </r>
       <r>   55.0393    0.0000 </r>
       <r>   55.2672    0.0000 </r>
       <r>   63.9730    0.0000 </r>
      </set>
      <set comment="kpoint 47">
       <r>   10.2679    1.0000 </r>
       <r>   11.2100    1.0000 </r>
       <r>   15.1542    1.0000 </r>
       <r>   17.1699    1.0000 </r>
       <r>   17.1794    1.0000 </r>
       <r>   19.7826   -0.0000 </r>
       <r>   37.2331    0.0000 </r>
       <r>   37.9190    0.0000 </r>
       <r>   39.9064    0.0000 </r>
       <r>   48.6633    0.0000 </r>
       <r>   55.7850    0.0000 </r>
       <r>   66.8346    0.0000 </r>
      </set>
      <set comment="kpoint 48">
       <r>   10.5891    1.0000 </r>
       <r>   11.3632    1.0000 </r>
       <r>   14.6440    1.0000 </r>
       <r>   16.6789    1.0000 </r>
       <r>   17.7569    1.0026 </r>
       <r>   22.8462   -0.0000 </r>
       <r>   33.1174    0.0000 </r>
       <r>   36.1072    0.0000 </r>
       <r>   38.9975    0.0000 </r>
       <r>   50.0139    0.0000 </r>
       <r>   58.6375    0.0000 </r>
       <r>   65.3319    0.0000 </r>
      </set>
      <set comment="kpoint 49">
       <r>   11.0828    1.0000 </r>
       <r>   11.7736    1.0000 </r>
       <r>   13.9554    1.0000 </r>
       <r>   16.2102    1.0000 </r>
       <r>   17.6804    1.0005 </r>
       <r>   26.3592    0.0000 </r>
       <r>   29.0394    0.0000 </r>
       <r>   34.6977    0.0000 </r>
       <r>   39.9778    0.0000 </r>
       <r>   50.6737    0.0000 </r>
       <r>   62.5360    0.0000 </r>
       <r>   64.1871    0.0000 </r>
      </set>
      <set comment="kpoint 50">
       <r>   11.7794    1.0000 </r>
       <r>   12.1270    1.0000 </r>
       <r>   13.1338    1.0000 </r>
       <r>   15.9014    1.0000 </r>
       <r>   17.2163    1.0000 </r>
       <r>   24.8172    0.0000 </r>
       <r>   30.6022    0.0000 </r>
       <r>   34.4212    0.0000 </r>
       <r>   41.8555    0.0000 </r>
       <r>   51.5927    0.0000 </r>
       <r>   60.5232    0.0000 </r>
       <r>   66.3318    0.0000 </r>
      </set>
      <set comment="kpoint 51">
       <r>    9.9135    1.0000 </r>
       <r>   10.7737    1.0000 </r>
       <r>   16.2308    1.0000 </r>
       <r>   17.3870    1.0000 </r>
       <r>   17.9916    1.0341 </r>
       <r>   22.7138   -0.0000 </r>
       <r>   33.4112    0.0000 </r>
       <r>   36.2809    0.0000 </r>
       <r>   37.5003    0.0000 </r>
       <r>   48.2720    0.0000 </r>
       <r>   55.2880    0.0000 </r>
       <r>   67.7356    0.0000 </r>
      </set>
      <set comment="kpoint 52">
       <r>   10.3479    1.0000 </r>
       <r>   11.1712    1.0000 </r>
       <r>   15.1639    1.0000 </r>
       <r>   16.8751    1.0000 </r>
       <r>   17.9885    1.0345 </r>
       <r>   25.3332    0.0000 </r>
       <r>   31.6448    0.0000 </r>
       <r>   33.7548    0.0000 </r>
       <r>   38.0610    0.0000 </r>
       <r>   49.7991    0.0000 </r>
       <r>   58.7052    0.0000 </r>
       <r>   66.8772    0.0000 </r>
      </set>
      <set comment="kpoint 53">
       <r>   11.2935    1.0000 </r>
       <r>   11.9735    1.0000 </r>
       <r>   13.3341    1.0000 </r>
       <r>   16.3535    1.0000 </r>
       <r>   17.1632    1.0000 </r>
       <r>   22.2337   -0.0000 </r>
       <r>   34.1713    0.0000 </r>
       <r>   35.7117    0.0000 </r>
       <r>   40.2380    0.0000 </r>
       <r>   53.9522    0.0000 </r>
       <r>   57.3514    0.0000 </r>
       <r>   63.6483    0.0000 </r>
      </set>
      <set comment="kpoint 54">
       <r>   11.4592    1.0000 </r>
       <r>   12.2161    1.0000 </r>
       <r>   13.1024    1.0000 </r>
       <r>   16.0172    1.0000 </r>
       <r>   17.6455    1.0002 </r>
       <r>   25.3971    0.0000 </r>
       <r>   30.1876    0.0000 </r>
       <r>   35.5885    0.0000 </r>
       <r>   38.5021    0.0000 </r>
       <r>   54.8932    0.0000 </r>
       <r>   57.9273    0.0000 </r>
       <r>   65.2142    0.0000 </r>
      </set>
      <set comment="kpoint 55">
       <r>   10.7957    1.0000 </r>
       <r>   11.6999    1.0000 </r>
       <r>   14.0454    1.0000 </r>
       <r>   16.4802    1.0000 </r>
       <r>   17.9904    1.0343 </r>
       <r>   25.8356    0.0000 </r>
       <r>   32.6103    0.0000 </r>
       <r>   33.2565    0.0000 </r>
       <r>   36.3913    0.0000 </r>
       <r>   53.3333    0.0000 </r>
       <r>   59.8427    0.0000 </r>
       <r>   63.3666    0.0000 </r>
      </set>
      <set comment="kpoint 56">
       <r>   11.1144    1.0000 </r>
       <r>   12.3278    1.0000 </r>
       <r>   13.1988    1.0000 </r>
       <r>   16.1251    1.0000 </r>
       <r>   17.9833    1.0351 </r>
       <r>   28.8591    0.0000 </r>
       <r>   28.9484    0.0000 </r>
       <r>   33.2189    0.0000 </r>
       <r>   36.6230    0.0000 </r>
       <r>   55.3521    0.0000 </r>
       <r>   59.7482    0.0000 </r>
       <r>   63.9214    0.0000 </r>
      </set>
     </set>
     <set comment="spin 2">
      <set comment="kpoint 1">
       <r>    5.4106    1.0000 </r>
       <r>   14.6747    1.0000 </r>
       <r>   14.6747    1.0000 </r>
       <r>   14.6747    1.0000 </r>
       <r>   16.9030    1.0000 </r>
       <r>   16.9030    1.0000 </r>
       <r>   45.6144    0.0000 </r>
       <r>   53.5638    0.0000 </r>
       <r>   53.5638    0.0000 </r>
       <r>   53.5639    0.0000 </r>
       <r>   60.1830    0.0000 </r>
       <r>   60.9244    0.0000 </r>
      </set>
      <set comment="kpoint 2">
       <r>    5.8787    1.0000 </r>
       <r>   14.4819    1.0000 </r>
       <r>   14.8150    1.0000 </r>
       <r>   14.8150    1.0000 </r>
       <r>   16.8352    1.0000 </r>
       <r>   16.8352    1.0000 </r>
       <r>   45.4234    0.0000 </r>
       <r>   49.9552    0.0000 </r>
       <r>   53.5675    0.0000 </r>
       <r>   53.5675    0.0000 </r>
       <r>   59.8981    0.0000 </r>
       <r>   61.1460    0.0000 </r>
      </set>
      <set comment="kpoint 3">
       <r>    7.1759    1.0000 </r>
       <r>   14.0699    1.0000 </r>
       <r>   15.0574    1.0000 </r>
       <r>   15.0574    1.0000 </r>
       <r>   16.8130    1.0000 </r>
       <r>   16.8130    1.0000 </r>
       <r>   42.4629    0.0000 </r>
       <r>   47.2908    0.0000 </r>
       <r>   53.4913    0.0000 </r>
       <r>   53.4914    0.0000 </r>
       <r>   59.2139    0.0000 </r>
       <r>   60.8458    0.0000 </r>
      </set>
      <set comment="kpoint 4">
       <r>    8.8616    1.0000 </r>
       <r>   13.9572    1.0000 </r>
       <r>   14.9983    1.0000 </r>
       <r>   14.9983    1.0000 </r>
       <r>   17.2351    1.0000 </r>
       <r>   17.2352    1.0000 </r>
       <r>   37.3810    0.0000 </r>
       <r>   46.0999    0.0000 </r>
       <r>   53.3261    0.0000 </r>
       <r>   53.3261    0.0000 </r>
       <r>   58.8701    0.0000 </r>
       <r>   58.8702    0.0000 </r>
      </set>
      <set comment="kpoint 5">
       <r>    9.9573    1.0000 </r>
       <r>   14.7205    1.0000 </r>
       <r>   14.7205    1.0000 </r>
       <r>   15.0117    1.0000 </r>
       <r>   17.9201    1.0280 </r>
       <r>   17.9202    1.0280 </r>
       <r>   32.6670    0.0000 </r>
       <r>   44.8001    0.0000 </r>
       <r>   52.8733    0.0000 </r>
       <r>   52.8734    0.0000 </r>
       <r>   56.8326    0.0000 </r>
       <r>   56.8327    0.0000 </r>
      </set>
      <set comment="kpoint 6">
       <r>   10.1981    1.0000 </r>
       <r>   14.5194    1.0000 </r>
       <r>   14.5194    1.0000 </r>
       <r>   16.7532    1.0000 </r>
       <r>   18.4075   -0.0182 </r>
       <r>   18.4076   -0.0183 </r>
       <r>   29.3770    0.0000 </r>
       <r>   43.9827    0.0000 </r>
       <r>   52.4144    0.0000 </r>
       <r>   52.4146    0.0000 </r>
       <r>   55.9577    0.0000 </r>
       <r>   55.9578    0.0000 </r>
      </set>
      <set comment="kpoint 7">
       <r>    6.0322    1.0000 </r>
       <r>   14.3249    1.0000 </r>
       <r>   14.9223    1.0000 </r>
       <r>   14.9223    1.0000 </r>
       <r>   16.5799    1.0000 </r>
       <r>   17.0164    1.0000 </r>
       <r>   45.6077    0.0000 </r>
       <r>   50.6802    0.0000 </r>
       <r>   51.8412    0.0000 </r>
       <r>   51.8412    0.0000 </r>
       <r>   61.8508    0.0000 </r>
       <r>   61.8508    0.0000 </r>
      </set>
      <set comment="kpoint 8">
       <r>    7.0501    1.0000 </r>
       <r>   13.9154    1.0000 </r>
       <r>   15.1731    1.0000 </r>
       <r>   15.2102    1.0000 </r>
       <r>   16.3524    1.0000 </r>
       <r>   17.1313    1.0000 </r>
       <r>   44.2227    0.0000 </r>
       <r>   47.1587    0.0000 </r>
       <r>   50.4974    0.0000 </r>
       <r>   52.7701    0.0000 </r>
       <r>   60.0878    0.0000 </r>
       <r>   62.6370    0.0000 </r>
      </set>
      <set comment="kpoint 9">
       <r>    8.6466    1.0000 </r>
       <r>   13.5829    1.0000 </r>
       <r>   15.0019    1.0000 </r>
       <r>   15.3014    1.0000 </r>
       <r>   16.8263    1.0000 </r>
       <r>   17.4812    1.0000 </r>
       <r>   39.3364    0.0000 </r>
       <r>   45.9253    0.0000 </r>
       <r>   49.5481    0.0000 </r>
       <r>   53.8728    0.0000 </r>
       <r>   58.3696    0.0000 </r>
       <r>   62.1404    0.0000 </r>
      </set>
      <set comment="kpoint 10">
       <r>   10.0262    1.0000 </r>
       <r>   13.9321    1.0000 </r>
       <r>   14.6167    1.0000 </r>
       <r>   15.0894    1.0000 </r>
       <r>   17.9544    1.0342 </r>
       <r>   18.0651    0.9815 </r>
       <r>   34.3510    0.0000 </r>
       <r>   44.6714    0.0000 </r>
       <r>   49.0229    0.0000 </r>
       <r>   52.7505    0.0000 </r>
       <r>   58.1809    0.0000 </r>
       <r>   60.6438    0.0000 </r>
      </set>
      <set comment="kpoint 11">
       <r>   10.4722    1.0000 </r>
       <r>   14.1583    1.0000 </r>
       <r>   14.8364    1.0000 </r>
       <r>   15.3434    1.0000 </r>
       <r>   18.4641   -0.0355 </r>
       <r>   19.3799   -0.0000 </r>
       <r>   30.2757    0.0000 </r>
       <r>   43.6471    0.0000 </r>
       <r>   49.2299    0.0000 </r>
       <r>   50.7947    0.0000 </r>
       <r>   58.3494    0.0000 </r>
       <r>   59.2051    0.0000 </r>
      </set>
      <set comment="kpoint 12">
       <r>   10.5203    1.0000 </r>
       <r>   14.1313    1.0000 </r>
       <r>   14.7288    1.0000 </r>
       <r>   15.8775    1.0000 </r>
       <r>   18.3830    0.0047 </r>
       <r>   20.1295   -0.0000 </r>
       <r>   28.9111    0.0000 </r>
       <r>   43.2065    0.0000 </r>
       <r>   49.5285    0.0000 </r>
       <r>   50.4040    0.0000 </r>
       <r>   58.1656    0.0000 </r>
       <r>   58.4632    0.0000 </r>
      </set>
      <set comment="kpoint 13">
       <r>   10.4278    1.0000 </r>
       <r>   14.3420    1.0000 </r>
       <r>   14.8359    1.0000 </r>
       <r>   14.9768    1.0000 </r>
       <r>   17.8027    1.0061 </r>
       <r>   19.3302   -0.0000 </r>
       <r>   31.4721    0.0000 </r>
       <r>   43.4141    0.0000 </r>
       <r>   49.4620    0.0000 </r>
       <r>   52.6307    0.0000 </r>
       <r>   57.5503    0.0000 </r>
       <r>   58.3492    0.0000 </r>
      </set>
      <set comment="kpoint 14">
       <r>    9.6920    1.0000 </r>
       <r>   13.8137    1.0000 </r>
       <r>   14.7446    1.0000 </r>
       <r>   15.1187    1.0000 </r>
       <r>   16.9750    1.0000 </r>
       <r>   18.3095    0.1564 </r>
       <r>   35.9551    0.0000 </r>
       <r>   44.0929    0.0000 </r>
       <r>   50.5913    0.0000 </r>
       <r>   55.4250    0.0000 </r>
       <r>   57.0838    0.0000 </r>
       <r>   57.6557    0.0000 </r>
      </set>
      <set comment="kpoint 15">
       <r>    8.0964    1.0000 </r>
       <r>   13.7446    1.0000 </r>
       <r>   15.0528    1.0000 </r>
       <r>   15.3137    1.0000 </r>
       <r>   16.3758    1.0000 </r>
       <r>   17.4731    1.0000 </r>
       <r>   41.0657    0.0000 </r>
       <r>   44.9909    0.0000 </r>
       <r>   52.0220    0.0000 </r>
       <r>   55.8138    0.0000 </r>
       <r>   56.0494    0.0000 </r>
       <r>   60.1500    0.0000 </r>
      </set>
      <set comment="kpoint 16">
       <r>    6.6260    1.0000 </r>
       <r>   14.1605    1.0000 </r>
       <r>   15.0292    1.0000 </r>
       <r>   15.0292    1.0000 </r>
       <r>   16.5134    1.0000 </r>
       <r>   17.0240    1.0000 </r>
       <r>   44.8318    0.0000 </r>
       <r>   47.0498    0.0000 </r>
       <r>   51.9813    0.0000 </r>
       <r>   55.1994    0.0000 </r>
       <r>   57.6172    0.0000 </r>
       <r>   61.1416    0.0000 </r>
      </set>
      <set comment="kpoint 17">
       <r>    7.7111    1.0000 </r>
       <r>   13.4393    1.0000 </r>
       <r>   15.6396    1.0000 </r>
       <r>   15.6396    1.0000 </r>
       <r>   15.8440    1.0000 </r>
       <r>   17.3259    1.0000 </r>
       <r>   45.6229    0.0000 </r>
       <r>   46.7596    0.0000 </r>
       <r>   48.0899    0.0000 </r>
       <r>   48.0899    0.0000 </r>
       <r>   60.9561    0.0000 </r>
       <r>   64.4928    0.0000 </r>
      </set>
      <set comment="kpoint 18">
       <r>    8.9657    1.0000 </r>
       <r>   12.9639    1.0000 </r>
       <r>   15.1571    1.0000 </r>
       <r>   15.9661    1.0000 </r>
       <r>   16.6668    1.0000 </r>
       <r>   17.6297    1.0001 </r>
       <r>   41.7508    0.0000 </r>
       <r>   45.0821    0.0000 </r>
       <r>   46.3721    0.0000 </r>
       <r>   49.0774    0.0000 </r>
       <r>   59.1590    0.0000 </r>
       <r>   64.2664    0.0000 </r>
      </set>
      <set comment="kpoint 19">
       <r>   10.3152    1.0000 </r>
       <r>   12.7968    1.0000 </r>
       <r>   14.5803    1.0000 </r>
       <r>   15.8884    1.0000 </r>
       <r>   18.1661    0.7147 </r>
       <r>   18.2674    0.3007 </r>
       <r>   36.5219    0.0000 </r>
       <r>   43.4520    0.0000 </r>
       <r>   45.4693    0.0000 </r>
       <r>   49.4720    0.0000 </r>
       <r>   60.6073    0.0000 </r>
       <r>   63.3797    0.0000 </r>
      </set>
      <set comment="kpoint 20">
       <r>   11.0281    1.0000 </r>
       <r>   13.0376    1.0000 </r>
       <r>   14.4760    1.0000 </r>
       <r>   15.6273    1.0000 </r>
       <r>   18.5336   -0.0243 </r>
       <r>   20.5037   -0.0000 </r>
       <r>   31.8323    0.0000 </r>
       <r>   41.8154    0.0000 </r>
       <r>   45.5591    0.0000 </r>
       <r>   48.6981    0.0000 </r>
       <r>   62.4112    0.0000 </r>
       <r>   63.3705    0.0000 </r>
      </set>
      <set comment="kpoint 21">
       <r>   11.2606    1.0000 </r>
       <r>   13.1545    1.0000 </r>
       <r>   14.7833    1.0000 </r>
       <r>   15.4209    1.0000 </r>
       <r>   18.4103   -0.0201 </r>
       <r>   22.5283   -0.0000 </r>
       <r>   28.9378    0.0000 </r>
       <r>   40.5369    0.0000 </r>
       <r>   46.7870    0.0000 </r>
       <r>   48.0252    0.0000 </r>
       <r>   61.7818    0.0000 </r>
       <r>   62.2712    0.0000 </r>
      </set>
      <set comment="kpoint 22">
       <r>   11.3490    1.0000 </r>
       <r>   13.4388    1.0000 </r>
       <r>   14.4125    1.0000 </r>
       <r>   15.3862    1.0000 </r>
       <r>   17.7757    1.0038 </r>
       <r>   21.7610   -0.0000 </r>
       <r>   30.6633    0.0000 </r>
       <r>   39.7807    0.0000 </r>
       <r>   48.1862    0.0000 </r>
       <r>   49.0452    0.0000 </r>
       <r>   60.2443    0.0000 </r>
       <r>   61.6700    0.0000 </r>
      </set>
      <set comment="kpoint 23">
       <r>   10.9843    1.0000 </r>
       <r>   13.4555    1.0000 </r>
       <r>   14.0612    1.0000 </r>
       <r>   15.5619    1.0000 </r>
       <r>   16.8595    1.0000 </r>
       <r>   20.0152   -0.0000 </r>
       <r>   35.0371    0.0000 </r>
       <r>   39.6540    0.0000 </r>
       <r>   49.5043    0.0000 </r>
       <r>   52.0337    0.0000 </r>
       <r>   57.5448    0.0000 </r>
       <r>   61.6472    0.0000 </r>
      </set>
      <set comment="kpoint 24">
       <r>    9.6033    1.0000 </r>
       <r>   13.3501    1.0000 </r>
       <r>   14.6750    1.0000 </r>
       <r>   15.9072    1.0000 </r>
       <r>   15.9720    1.0000 </r>
       <r>   18.5700   -0.0162 </r>
       <r>   39.8811    0.0000 </r>
       <r>   40.3479    0.0000 </r>
       <r>   51.8649    0.0000 </r>
       <r>   54.5843    0.0000 </r>
       <r>   54.9687    0.0000 </r>
       <r>   62.0427    0.0000 </r>
      </set>
      <set comment="kpoint 25">
       <r>    9.5888    1.0000 </r>
       <r>   12.3766    1.0000 </r>
       <r>   15.6905    1.0000 </r>
       <r>   16.7203    1.0000 </r>
       <r>   16.7203    1.0000 </r>
       <r>   17.7504    1.0023 </r>
       <r>   42.6935    0.0000 </r>
       <r>   43.9325    0.0000 </r>
       <r>   43.9325    0.0000 </r>
       <r>   45.6733    0.0000 </r>
       <r>   56.0383    0.0000 </r>
       <r>   67.9288    0.0000 </r>
      </set>
      <set comment="kpoint 26">
       <r>   10.2728    1.0000 </r>
       <r>   12.0026    1.0000 </r>
       <r>   15.5843    1.0000 </r>
       <r>   16.9470    1.0000 </r>
       <r>   18.1812    0.6558 </r>
       <r>   18.2700    0.2910 </r>
       <r>   38.8515    0.0000 </r>
       <r>   41.1771    0.0000 </r>
       <r>   42.5210    0.0000 </r>
       <r>   47.2874    0.0000 </r>
       <r>   55.9003    0.0000 </r>
       <r>   67.5005    0.0000 </r>
      </set>
      <set comment="kpoint 27">
       <r>   10.8575    1.0000 </r>
       <r>   11.9939    1.0000 </r>
       <r>   15.1589    1.0000 </r>
       <r>   16.7301    1.0000 </r>
       <r>   18.5959   -0.0114 </r>
       <r>   21.0176   -0.0000 </r>
       <r>   34.0649    0.0000 </r>
       <r>   38.8655    0.0000 </r>
       <r>   42.2731    0.0000 </r>
       <r>   47.8783    0.0000 </r>
       <r>   58.9907    0.0000 </r>
       <r>   67.2774    0.0000 </r>
      </set>
      <set comment="kpoint 28">
       <r>   11.4005    1.0000 </r>
       <r>   12.2263    1.0000 </r>
       <r>   14.7233    1.0000 </r>
       <r>   16.4420    1.0000 </r>
       <r>   18.4867   -0.0337 </r>
       <r>   24.2832    0.0000 </r>
       <r>   29.8657    0.0000 </r>
       <r>   37.0361    0.0000 </r>
       <r>   43.3180    0.0000 </r>
       <r>   47.7546    0.0000 </r>
       <r>   63.5670    0.0000 </r>
       <r>   66.0362    0.0000 </r>
      </set>
      <set comment="kpoint 29">
       <r>   12.0512    1.0000 </r>
       <r>   12.4835    1.0000 </r>
       <r>   14.1197    1.0000 </r>
       <r>   16.2026    1.0000 </r>
       <r>   17.8953    1.0223 </r>
       <r>   24.7269    0.0000 </r>
       <r>   29.8501    0.0000 </r>
       <r>   35.8475    0.0000 </r>
       <r>   45.5479    0.0000 </r>
       <r>   47.8178    0.0000 </r>
       <r>   63.7624    0.0000 </r>
       <r>   64.8388    0.0000 </r>
      </set>
      <set comment="kpoint 30">
       <r>   12.1267    1.0000 </r>
       <r>   13.1464    1.0000 </r>
       <r>   13.4087    1.0000 </r>
       <r>   15.9808    1.0000 </r>
       <r>   17.1758    1.0000 </r>
       <r>   22.1915   -0.0000 </r>
       <r>   33.6540    0.0000 </r>
       <r>   35.9109    0.0000 </r>
       <r>   48.4108    0.0000 </r>
       <r>   48.5922    0.0000 </r>
       <r>   60.4532    0.0000 </r>
       <r>   63.9524    0.0000 </r>
      </set>
      <set comment="kpoint 31">
       <r>   10.1026    1.0000 </r>
       <r>   11.4804    1.0000 </r>
       <r>   17.7465    1.0021 </r>
       <r>   17.9186    1.0276 </r>
       <r>   17.9186    1.0276 </r>
       <r>   18.1431    0.7962 </r>
       <r>   37.8979    0.0000 </r>
       <r>   40.5158    0.0000 </r>
       <r>   40.5158    0.0000 </r>
       <r>   45.7478    0.0000 </r>
       <r>   53.6883    0.0000 </r>
       <r>   68.2900    0.0000 </r>
      </set>
      <set comment="kpoint 32">
       <r>   10.1827    1.0000 </r>
       <r>   11.3162    1.0000 </r>
       <r>   17.0966    1.0000 </r>
       <r>   17.8370    1.0106 </r>
       <r>   18.6308   -0.0066 </r>
       <r>   20.8335   -0.0000 </r>
       <r>   35.4639    0.0000 </r>
       <r>   37.4274    0.0000 </r>
       <r>   39.7799    0.0000 </r>
       <r>   46.9167    0.0000 </r>
       <r>   54.7218    0.0000 </r>
       <r>   68.8461    0.0000 </r>
      </set>
      <set comment="kpoint 33">
       <r>   10.5906    1.0000 </r>
       <r>   11.5598    1.0000 </r>
       <r>   16.0752    1.0000 </r>
       <r>   17.5067    1.0000 </r>
       <r>   18.6302   -0.0066 </r>
       <r>   24.3299    0.0000 </r>
       <r>   32.0996    0.0000 </r>
       <r>   34.7058    0.0000 </r>
       <r>   40.5053    0.0000 </r>
       <r>   47.6004    0.0000 </r>
       <r>   58.5840    0.0000 </r>
       <r>   68.5252    0.0000 </r>
      </set>
      <set comment="kpoint 34">
       <r>   11.3043    1.0000 </r>
       <r>   12.0676    1.0000 </r>
       <r>   14.9200    1.0000 </r>
       <r>   16.9872    1.0000 </r>
       <r>   18.2285    0.4587 </r>
       <r>   27.7674    0.0000 </r>
       <r>   28.2219    0.0000 </r>
       <r>   34.0059    0.0000 </r>
       <r>   42.5724    0.0000 </r>
       <r>   47.7313    0.0000 </r>
       <r>   63.8612    0.0000 </r>
       <r>   67.5516    0.0000 </r>
      </set>
      <set comment="kpoint 35">
       <r>    9.8330    1.0000 </r>
       <r>   10.9784    1.0000 </r>
       <r>   18.3821    0.0059 </r>
       <r>   18.7774   -0.0003 </r>
       <r>   18.7774   -0.0003 </r>
       <r>   20.7350   -0.0000 </r>
       <r>   33.7827    0.0000 </r>
       <r>   38.4994    0.0000 </r>
       <r>   38.4994    0.0000 </r>
       <r>   45.8986    0.0000 </r>
       <r>   53.1617    0.0000 </r>
       <r>   70.0139    0.0000 </r>
      </set>
      <set comment="kpoint 36">
       <r>    9.9811    1.0000 </r>
       <r>   11.0709    1.0000 </r>
       <r>   17.7780    1.0039 </r>
       <r>   18.2039    0.5628 </r>
       <r>   18.8241   -0.0001 </r>
       <r>   22.7237   -0.0000 </r>
       <r>   32.9388    0.0000 </r>
       <r>   36.3338    0.0000 </r>
       <r>   38.7662    0.0000 </r>
       <r>   46.9034    0.0000 </r>
       <r>   54.5048    0.0000 </r>
       <r>   70.0062    0.0000 </r>
      </set>
      <set comment="kpoint 37">
       <r>    8.2302    1.0000 </r>
       <r>   13.4615    1.0000 </r>
       <r>   15.1044    1.0000 </r>
       <r>   15.6648    1.0000 </r>
       <r>   16.2147    1.0000 </r>
       <r>   17.5480    1.0000 </r>
       <r>   43.0325    0.0000 </r>
       <r>   43.5530    0.0000 </r>
       <r>   50.9010    0.0000 </r>
       <r>   51.0897    0.0000 </r>
       <r>   60.2523    0.0000 </r>
       <r>   62.2474    0.0000 </r>
      </set>
      <set comment="kpoint 38">
       <r>    9.7939    1.0000 </r>
       <r>   13.1910    1.0000 </r>
       <r>   14.5893    1.0000 </r>
       <r>   15.7390    1.0000 </r>
       <r>   16.7811    1.0000 </r>
       <r>   18.4721   -0.0352 </r>
       <r>   38.0932    0.0000 </r>
       <r>   42.4060    0.0000 </r>
       <r>   48.6559    0.0000 </r>
       <r>   52.6987    0.0000 </r>
       <r>   58.6185    0.0000 </r>
       <r>   61.7138    0.0000 </r>
      </set>
      <set comment="kpoint 39">
       <r>   10.8417    1.0000 </r>
       <r>   13.5219    1.0000 </r>
       <r>   14.2222    1.0000 </r>
       <r>   15.4595    1.0000 </r>
       <r>   17.7270    1.0014 </r>
       <r>   19.8492   -0.0000 </r>
       <r>   33.2026    0.0000 </r>
       <r>   41.8665    0.0000 </r>
       <r>   46.7854    0.0000 </r>
       <r>   52.1592    0.0000 </r>
       <r>   58.1256    0.0000 </r>
       <r>   62.5040    0.0000 </r>
      </set>
      <set comment="kpoint 40">
       <r>   11.0653    1.0000 </r>
       <r>   13.4825    1.0000 </r>
       <r>   14.8385    1.0000 </r>
       <r>   15.2477    1.0000 </r>
       <r>   18.2957    0.1996 </r>
       <r>   21.5470   -0.0000 </r>
       <r>   29.5047    0.0000 </r>
       <r>   41.6765    0.0000 </r>
       <r>   45.7766    0.0000 </r>
       <r>   50.9663    0.0000 </r>
       <r>   58.2992    0.0000 </r>
       <r>   62.9093    0.0000 </r>
      </set>
      <set comment="kpoint 41">
       <r>   10.0525    1.0000 </r>
       <r>   12.5391    1.0000 </r>
       <r>   14.7953    1.0000 </r>
       <r>   16.7231    1.0000 </r>
       <r>   16.8923    1.0000 </r>
       <r>   18.4443   -0.0338 </r>
       <r>   40.5227    0.0000 </r>
       <r>   40.5732    0.0000 </r>
       <r>   45.1432    0.0000 </r>
       <r>   49.6579    0.0000 </r>
       <r>   57.9944    0.0000 </r>
       <r>   64.0683    0.0000 </r>
      </set>
      <set comment="kpoint 42">
       <r>   11.0259    1.0000 </r>
       <r>   12.4514    1.0000 </r>
       <r>   14.3267    1.0000 </r>
       <r>   16.5377    1.0000 </r>
       <r>   17.8336    1.0101 </r>
       <r>   20.1798   -0.0000 </r>
       <r>   35.4845    0.0000 </r>
       <r>   39.7937    0.0000 </r>
       <r>   42.9837    0.0000 </r>
       <r>   50.9037    0.0000 </r>
       <r>   58.9684    0.0000 </r>
       <r>   63.4330    0.0000 </r>
      </set>
      <set comment="kpoint 43">
       <r>   11.5520    1.0000 </r>
       <r>   12.5652    1.0000 </r>
       <r>   14.2178    1.0000 </r>
       <r>   16.1890    1.0000 </r>
       <r>   18.3571    0.0431 </r>
       <r>   22.7660   -0.0000 </r>
       <r>   30.9572    0.0000 </r>
       <r>   39.1539    0.0000 </r>
       <r>   41.9529    0.0000 </r>
       <r>   50.9914    0.0000 </r>
       <r>   60.0929    0.0000 </r>
       <r>   65.4853    0.0000 </r>
      </set>
      <set comment="kpoint 44">
       <r>   11.9215    1.0000 </r>
       <r>   12.5484    1.0000 </r>
       <r>   14.2089    1.0000 </r>
       <r>   15.9692    1.0000 </r>
       <r>   18.2385    0.4169 </r>
       <r>   24.3375    0.0000 </r>
       <r>   29.0598    0.0000 </r>
       <r>   38.1653    0.0000 </r>
       <r>   42.6351    0.0000 </r>
       <r>   51.3281    0.0000 </r>
       <r>   59.4974    0.0000 </r>
       <r>   67.2203    0.0000 </r>
      </set>
      <set comment="kpoint 45">
       <r>   11.9210    1.0000 </r>
       <r>   12.9624    1.0000 </r>
       <r>   13.6113    1.0000 </r>
       <r>   16.0637    1.0000 </r>
       <r>   17.6244    1.0001 </r>
       <r>   22.2622   -0.0000 </r>
       <r>   32.4492    0.0000 </r>
       <r>   37.5190    0.0000 </r>
       <r>   44.2684    0.0000 </r>
       <r>   52.7761    0.0000 </r>
       <r>   57.8349    0.0000 </r>
       <r>   66.2032    0.0000 </r>
      </set>
      <set comment="kpoint 46">
       <r>   11.1763    1.0000 </r>
       <r>   12.9575    1.0000 </r>
       <r>   13.8835    1.0000 </r>
       <r>   16.2442    1.0000 </r>
       <r>   16.8011    1.0000 </r>
       <r>   20.1227   -0.0000 </r>
       <r>   36.9209    0.0000 </r>
       <r>   37.8627    0.0000 </r>
       <r>   46.4541    0.0000 </r>
       <r>   55.0626    0.0000 </r>
       <r>   55.3539    0.0000 </r>
       <r>   64.5998    0.0000 </r>
      </set>
      <set comment="kpoint 47">
       <r>   10.5429    1.0000 </r>
       <r>   11.7423    1.0000 </r>
       <r>   15.6527    1.0000 </r>
       <r>   17.7554    1.0025 </r>
       <r>   17.9170    1.0272 </r>
       <r>   20.2571   -0.0000 </r>
       <r>   37.4032    0.0000 </r>
       <r>   38.0983    0.0000 </r>
       <r>   40.0485    0.0000 </r>
       <r>   48.7862    0.0000 </r>
       <r>   56.0286    0.0000 </r>
       <r>   67.4256    0.0000 </r>
      </set>
      <set comment="kpoint 48">
       <r>   10.9183    1.0000 </r>
       <r>   11.8731    1.0000 </r>
       <r>   15.1598    1.0000 </r>
       <r>   17.2804    1.0000 </r>
       <r>   18.5071   -0.0302 </r>
       <r>   23.2168   -0.0000 </r>
       <r>   33.3322    0.0000 </r>
       <r>   36.3213    0.0000 </r>
       <r>   39.1366    0.0000 </r>
       <r>   50.1250    0.0000 </r>
       <r>   58.8582    0.0000 </r>
       <r>   65.6952    0.0000 </r>
      </set>
      <set comment="kpoint 49">
       <r>   11.4565    1.0000 </r>
       <r>   12.2455    1.0000 </r>
       <r>   14.4803    1.0000 </r>
       <r>   16.7881    1.0000 </r>
       <r>   18.4435   -0.0337 </r>
       <r>   26.6643    0.0000 </r>
       <r>   29.3197    0.0000 </r>
       <r>   34.9280    0.0000 </r>
       <r>   40.1229    0.0000 </r>
       <r>   50.7678    0.0000 </r>
       <r>   62.6077    0.0000 </r>
       <r>   64.6496    0.0000 </r>
      </set>
      <set comment="kpoint 50">
       <r>   12.1597    1.0000 </r>
       <r>   12.5698    1.0000 </r>
       <r>   13.6587    1.0000 </r>
       <r>   16.4615    1.0000 </r>
       <r>   17.9718    1.0354 </r>
       <r>   25.1753    0.0000 </r>
       <r>   30.8881    0.0000 </r>
       <r>   34.6410    0.0000 </r>
       <r>   42.0011    0.0000 </r>
       <r>   51.6717    0.0000 </r>
       <r>   60.5419    0.0000 </r>
       <r>   67.5503    0.0000 </r>
      </set>
      <set comment="kpoint 51">
       <r>   10.2333    1.0000 </r>
       <r>   11.2912    1.0000 </r>
       <r>   16.8045    1.0000 </r>
       <r>   17.9977    1.0329 </r>
       <r>   18.7733   -0.0003 </r>
       <r>   22.9916   -0.0000 </r>
       <r>   33.6866    0.0000 </r>
       <r>   36.4303    0.0000 </r>
       <r>   37.6065    0.0000 </r>
       <r>   48.4189    0.0000 </r>
       <r>   55.5284    0.0000 </r>
       <r>   68.9685    0.0000 </r>
      </set>
      <set comment="kpoint 52">
       <r>   10.6863    1.0000 </r>
       <r>   11.6803    1.0000 </r>
       <r>   15.7104    1.0000 </r>
       <r>   17.4671    1.0000 </r>
       <r>   18.7708   -0.0003 </r>
       <r>   25.6101    0.0000 </r>
       <r>   31.8917    0.0000 </r>
       <r>   33.9874    0.0000 </r>
       <r>   38.1903    0.0000 </r>
       <r>   49.9201    0.0000 </r>
       <r>   58.9516    0.0000 </r>
       <r>   66.9052    0.0000 </r>
      </set>
      <set comment="kpoint 53">
       <r>   11.5957    1.0000 </r>
       <r>   12.5022    1.0000 </r>
       <r>   13.8277    1.0000 </r>
       <r>   16.9136    1.0000 </r>
       <r>   17.9131    1.0264 </r>
       <r>   22.6699   -0.0000 </r>
       <r>   34.4176    0.0000 </r>
       <r>   35.8906    0.0000 </r>
       <r>   40.4000    0.0000 </r>
       <r>   54.0126    0.0000 </r>
       <r>   57.4412    0.0000 </r>
       <r>   64.1911    0.0000 </r>
      </set>
      <set comment="kpoint 54">
       <r>   11.8094    1.0000 </r>
       <r>   12.7140    1.0000 </r>
       <r>   13.6163    1.0000 </r>
       <r>   16.5844    1.0000 </r>
       <r>   18.4073   -0.0181 </r>
       <r>   25.7324    0.0000 </r>
       <r>   30.4691    0.0000 </r>
       <r>   35.7925    0.0000 </r>
       <r>   38.6712    0.0000 </r>
       <r>   54.9510    0.0000 </r>
       <r>   57.9791    0.0000 </r>
       <r>   65.9558    0.0000 </r>
      </set>
      <set comment="kpoint 55">
       <r>   11.1348    1.0000 </r>
       <r>   12.2186    1.0000 </r>
       <r>   14.5700    1.0000 </r>
       <r>   17.0546    1.0000 </r>
       <r>   18.7723   -0.0003 </r>
       <r>   26.1395    0.0000 </r>
       <r>   32.8357    0.0000 </r>
       <r>   33.5007    0.0000 </r>
       <r>   36.5575    0.0000 </r>
       <r>   53.4082    0.0000 </r>
       <r>   60.0231    0.0000 </r>
       <r>   63.5484    0.0000 </r>
      </set>
[...]
       </set>
       <set comment="band 5">
        <r>  0.0000  0.0072  0.0054  0.0003  0.1745  0.6518  0.0525  0.0110  0.0885 </r>
       </set>
       <set comment="band 6">
        <r>  0.1442  0.0182  0.2197  0.1053  0.0034  0.0008  0.1227  0.3744  0.1291 </r>
       </set>
       <set comment="band 7">
        <r>  0.1659  0.3952  0.0029  0.0402  0.3210  0.2011  0.0250  0.0772  0.0330 </r>
       </set>
       <set comment="band 8">
        <r>  0.1315  0.1909  0.0030  0.0943  0.1289  0.0626  0.1564  0.1318  0.2104 </r>
       </set>
       <set comment="band 9">
        <r>  0.1317  0.0137  0.3001  0.0015  0.0000  0.0093  0.4571  0.0451  0.0317 </r>
       </set>
       <set comment="band 10">
        <r>  0.0063  0.0139  0.0372  0.2741  0.0202  0.0003  0.1166  0.0529  0.1161 </r>
       </set>
       <set comment="band 11">
        <r>  0.0341  0.0529  0.0003  0.0020  0.5145  0.0508  0.0241  0.0729  0.1375 </r>
       </set>
       <set comment="band 12">
        <r>  0.5880  0.0169  0.0301  0.0494  0.1577  0.1808  0.1715  0.0001  0.0091 </r>
       </set>
      </set>
      <set comment="kpoint 46">
       <set comment="band 1">
        <r>  0.4630  0.0000  0.2916  0.1440  0.0000  0.0000  0.1460  0.1843  0.0112 </r>
       </set>
       <set comment="band 2">
        <r>  0.0000  0.1076  0.0000  0.0000  0.7993  0.1867  0.0000  0.0000  0.0000 </r>
       </set>
       <set comment="band 3">
        <r>  0.0160  0.0000  0.0014  0.0206  0.0000  0.0000  0.4207  0.4024  0.1695 </r>
       </set>
       <set comment="band 4">
        <r>  0.0093  0.0000  0.0479  0.0065  0.0000  0.0000  0.3313  0.0081  0.6045 </r>
       </set>
       <set comment="band 5">
        <r>  0.0000  0.0108  0.0000  0.0000  0.2062  0.7778  0.0000  0.0000  0.0000 </r>
       </set>
       <set comment="band 6">
        <r>  0.1115  0.0000  0.1121  0.0537  0.0000  0.0000  0.1184  0.4521  0.2167 </r>
       </set>
       <set comment="band 7">
        <r>  0.0000  0.5195  0.0000  0.0000  0.5124  0.3534  0.0000  0.0000  0.0000 </r>
       </set>
       <set comment="band 8">
        <r>  0.2017  0.0000  0.0212  0.1742  0.0000  0.0000  0.1571  0.2762  0.1503 </r>
       </set>
       <set comment="band 9">
        <r>  0.0957  0.0000  0.2588  0.0147  0.0000  0.0000  0.5298  0.0010  0.0176 </r>
       </set>
       <set comment="band 10">
        <r>  0.0000  0.1076  0.0000  0.0000  0.4808  0.0572  0.0000  0.0000  0.0000 </r>
       </set>
       <set comment="band 11">
        <r>  0.0014  0.0000  0.0412  0.2622  0.0000  0.0000  0.2735  0.0037  0.2216 </r>
       </set>
       <set comment="band 12">
        <r>  1.9575  0.0000  0.1380  0.1335  0.0000  0.0000  0.1435  0.1703  0.1530 </r>
       </set>
      </set>
      <set comment="kpoint 47">
       <set comment="band 1">
        <r>  0.1949  0.1258  0.0000  0.0349  0.0065  0.0000  0.2247  0.0000  0.5434 </r>
       </set>
       <set comment="band 2">
        <r>  0.0000  0.0000  0.0326  0.0000  0.0000  0.0115  0.0000  1.0669  0.0000 </r>
       </set>
       <set comment="band 3">
        <r>  0.1033  0.2671  0.0000  0.0040  0.5597  0.0000  0.1290  0.0000  0.0351 </r>
       </set>
       <set comment="band 4">
        <r>  0.0131  0.0665  0.0000  0.0095  0.0003  0.0000  0.5078  0.0000  0.4161 </r>
       </set>
       <set comment="band 5">
        <r>  0.0000  0.0000  0.0225  0.0000  0.0000  0.9579  0.0000  0.0147  0.0000 </r>
       </set>
       <set comment="band 6">
        <r>  0.1234  0.3339  0.0000  0.0279  0.4399  0.0000  0.1494  0.0000  0.0358 </r>
       </set>
       <set comment="band 7">
        <r>  0.0000  0.0833  0.0000  0.2256  0.1157  0.0000  0.3024  0.0000  0.4245 </r>
       </set>
       <set comment="band 8">
        <r>  0.0000  0.0000  0.6207  0.0000  0.0000  0.1644  0.0000  0.4109  0.0000 </r>
       </set>
       <set comment="band 9">
        <r>  0.2253  0.1429  0.0000  0.2844  0.0558  0.0000  0.0028  0.0000  0.2591 </r>
       </set>
       <set comment="band 10">
        <r>  0.0000  0.0000  0.0907  0.0000  0.0000  0.0379  0.0000  1.2702  0.0000 </r>
       </set>
       <set comment="band 11">
        <r>  0.6018  0.1230  0.0000  0.1693  0.0200  0.0000  0.0073  0.0000  0.0565 </r>
       </set>
       <set comment="band 12">
        <r>  1.8706  0.0022  0.0000  0.0400  0.0583  0.0000  0.0219  0.0000  0.2517 </r>
       </set>
      </set>
      <set comment="kpoint 48">
       <set comment="band 1">
        <r>  0.0882  0.0495  0.0014  0.0589  0.0046  0.0014  0.2961  0.0400  0.5547 </r>
       </set>
       <set comment="band 2">
        <r>  0.0007  0.0000  0.0769  0.0170  0.0041  0.0127  0.0134  0.9773  0.0187 </r>
       </set>
       <set comment="band 3">
        <r>  0.0555  0.2768  0.0006  0.0005  0.6462  0.0376  0.0677  0.0129  0.0027 </r>
       </set>
       <set comment="band 4">
        <r>  0.0000  0.0314  0.0048  0.0121  0.0001  0.1424  0.4708  0.0021  0.3364 </r>
       </set>
       <set comment="band 5">
        <r>  0.0004  0.0009  0.0064  0.0005  0.0853  0.7577  0.0816  0.0104  0.0525 </r>
       </set>
       <set comment="band 6">
        <r>  0.1053  0.5300  0.0108  0.0387  0.3245  0.0342  0.0761  0.0022  0.0574 </r>
       </set>
       <set comment="band 7">
        <r>  0.0654  0.0134  0.3494  0.1828  0.0564  0.0570  0.1069  0.2599  0.0822 </r>
       </set>
       <set comment="band 8">
        <r>  0.1297  0.1482  0.1043  0.0315  0.0327  0.0045  0.2265  0.1202  0.4213 </r>
       </set>
       <set comment="band 9">
        <r>  0.2174  0.0465  0.2138  0.2104  0.0166  0.0259  0.0655  0.0736  0.0948 </r>
       </set>
       <set comment="band 10">
        <r>  0.0509  0.0082  0.0571  0.0362  0.0009  0.0137  0.0008  1.0528  0.0166 </r>
       </set>
       <set comment="band 11">
        <r>  0.4939  0.0451  0.0270  0.2361  0.0005  0.0049  0.0146  0.1473  0.0738 </r>
       </set>
       <set comment="band 12">
        <r>  1.1567  0.0058  0.0015  0.0092  0.2428  0.0063  0.0242  0.0035  0.2418 </r>
       </set>
      </set>
      <set comment="kpoint 49">
       <set comment="band 1">
        <r>  0.0334  0.0115  0.0039  0.0716  0.0020  0.0013  0.3590  0.0984  0.4893 </r>
       </set>
       <set comment="band 2">
        <r>  0.0192  0.0018  0.1344  0.0567  0.0158  0.0109  0.0401  0.8298  0.0258 </r>
       </set>
       <set comment="band 3">
        <r>  0.0104  0.2736  0.0039  0.0011  0.6805  0.0968  0.0094  0.0315  0.0000 </r>
       </set>
       <set comment="band 4">
        <r>  0.0055  0.0071  0.0099  0.0087  0.0010  0.0571  0.4983  0.0003  0.4057 </r>
       </set>
       <set comment="band 5">
        <r>  0.0013  0.0023  0.0003  0.0002  0.1543  0.7749  0.0308  0.0054  0.0235 </r>
       </set>
       <set comment="band 6">
        <r>  0.0081  0.5334  0.0949  0.0891  0.2362  0.0590  0.0791  0.0405  0.0789 </r>
       </set>
       <set comment="band 7">
        <r>  0.1778  0.1217  0.2765  0.1104  0.1045  0.0613  0.0530  0.2568  0.0300 </r>
       </set>
       <set comment="band 8">
        <r>  0.2683  0.1075  0.0104  0.0489  0.0309  0.0034  0.2022  0.0878  0.4080 </r>
       </set>
       <set comment="band 9">
        <r>  0.1648  0.0078  0.3076  0.1339  0.0025  0.0077  0.2504  0.1066  0.0426 </r>
       </set>
       <set comment="band 10">
        <r>  0.0682  0.0044  0.0303  0.1252  0.0001  0.0017  0.0070  0.6694  0.0723 </r>
       </set>
       <set comment="band 11">
        <r>  0.0643  0.0370  0.0117  0.1074  0.2884  0.0217  0.0221  0.1797  0.0021 </r>
       </set>
       <set comment="band 12">
        <r>  1.4964  0.0018  0.0309  0.0977  0.1875  0.0015  0.0002  0.1231  0.1760 </r>
       </set>
      </set>
      <set comment="kpoint 50">
       <set comment="band 1">
        <r>  0.0001  0.0000  0.0378  0.1203  0.0000  0.0000  0.4837  0.0247  0.3930 </r>
       </set>
       <set comment="band 2">
        <r>  0.0977  0.0000  0.1667  0.0546  0.0000  0.0000  0.0064  0.8210  0.0041 </r>
       </set>
       <set comment="band 3">
        <r>  0.0000  0.2306  0.0000  0.0000  0.7267  0.1533  0.0000  0.0000  0.0000 </r>
       </set>
       <set comment="band 4">
        <r>  0.0037  0.0000  0.0269  0.0007  0.0000  0.0000  0.4370  0.0065  0.5208 </r>
       </set>
       <set comment="band 5">
        <r>  0.0000  0.0072  0.0000  0.0000  0.1954  0.7882  0.0000  0.0000  0.0000 </r>
       </set>
       <set comment="band 6">
        <r>  0.1546  0.0000  0.3145  0.1507  0.0000  0.0000  0.1122  0.3247  0.0980 </r>
       </set>
       <set comment="band 7">
        <r>  0.0000  0.7167  0.0000  0.0000  0.3984  0.1879  0.0000  0.0000  0.0000 </r>
       </set>
       <set comment="band 8">
        <r>  0.3436  0.0000  0.0004  0.0968  0.0000  0.0000  0.1836  0.1315  0.3379 </r>
       </set>
       <set comment="band 9">
        <r>  0.1469  0.0000  0.3189  0.0521  0.0000  0.0000  0.4064  0.0988  0.0306 </r>
       </set>
       <set comment="band 10">
        <r>  0.0433  0.0000  0.0254  0.2136  0.0000  0.0000  0.0385  0.3248  0.1381 </r>
       </set>
       <set comment="band 11">
        <r>  0.0000  0.0591  0.0000  0.0000  0.5860  0.0321  0.0000  0.0000  0.0000 </r>
       </set>
       <set comment="band 12">
        <r>  5.3265  0.0000  0.0081  0.0009  0.0000  0.0000  0.0158  0.0000  0.0765 </r>
       </set>
      </set>
      <set comment="kpoint 51">
       <set comment="band 1">
        <r>  0.0871  0.0121  0.0000  0.0318  0.0003  0.0000  0.2830  0.0000  0.6795 </r>
       </set>
       <set comment="band 2">
        <r>  0.0000  0.0000  0.0341  0.0000  0.0000  0.0011  0.0000  1.0936  0.0000 </r>
       </set>
       <set comment="band 3">
        <r>  0.0154  0.3033  0.0000  0.0017  0.7208  0.0000  0.0386  0.0000  0.0004 </r>
       </set>
       <set comment="band 4">
        <r>  0.0002  0.0191  0.0000  0.0086  0.0198  0.0000  0.6475  0.0000  0.3032 </r>
       </set>
       <set comment="band 5">
        <r>  0.0000  0.0000  0.0040  0.0000  0.0000  0.9919  0.0000  0.0017  0.0000 </r>
       </set>
       <set comment="band 6">
        <r>  0.0449  0.8143  0.0000  0.0073  0.3065  0.0000  0.0201  0.0000  0.0224 </r>
       </set>
       <set comment="band 7">
        <r>  0.1579  0.0677  0.0000  0.0954  0.0138  0.0000  0.2934  0.0000  0.6265 </r>
       </set>
       <set comment="band 8">
        <r>  0.0000  0.0000  0.7255  0.0000  0.0000  0.0215  0.0000  0.3453  0.0000 </r>
       </set>
       <set comment="band 9">
        <r>  0.2404  0.0094  0.0000  0.5064  0.0144  0.0000  0.0426  0.0000  0.0383 </r>
       </set>
       <set comment="band 10">
        <r>  0.0000  0.0000  0.0703  0.0000  0.0000  0.0042  0.0000  1.5139  0.0000 </r>
       </set>
       <set comment="band 11">
        <r>  0.6680  0.0146  0.0000  0.1524  0.0014  0.0000  0.0275  0.0000  0.1839 </r>
       </set>
       <set comment="band 12">
        <r>  5.1459  0.0050  0.0000  0.0227  0.0103  0.0000  0.0003  0.0000  0.0023 </r>
       </set>
      </set>
      <set comment="kpoint 52">
       <set comment="band 1">
        <r>  0.0521  0.0000  0.0029  0.0602  0.0000  0.0000  0.3312  0.0187  0.6163 </r>
       </set>
       <set comment="band 2">
        <r>  0.0013  0.0000  0.0774  0.0135  0.0000  0.0000  0.0049  1.0259  0.0063 </r>
       </set>
       <set comment="band 3">
        <r>  0.0000  0.3255  0.0000  0.0000  0.7180  0.0528  0.0000  0.0000  0.0000 </r>
       </set>
       <set comment="band 4">
        <r>  0.0064  0.0000  0.0025  0.0136  0.0000  0.0000  0.6225  0.0001  0.3453 </r>
       </set>
       <set comment="band 5">
        <r>  0.0000  0.0021  0.0000  0.0000  0.0793  0.9155  0.0000  0.0000  0.0000 </r>
       </set>
       <set comment="band 6">
        <r>  0.0000  0.8601  0.0000  0.0000  0.3364  0.0462  0.0000  0.0000  0.0000 </r>
       </set>
       <set comment="band 7">
        <r>  0.0032  0.0000  0.2633  0.2355  0.0000  0.0000  0.2402  0.1436  0.3083 </r>
       </set>
       <set comment="band 8">
        <r>  0.3654  0.0000  0.2073  0.0004  0.0000  0.0000  0.0834  0.2064  0.2843 </r>
       </set>
       <set comment="band 9">
        <r>  0.1835  0.0000  0.2559  0.2599  0.0000  0.0000  0.1340  0.0874  0.0332 </r>
       </set>
       <set comment="band 10">
        <r>  0.0545  0.0000  0.0522  0.0312  0.0000  0.0000  0.0001  1.1637  0.0303 </r>
       </set>
       <set comment="band 11">
        <r>  0.6210  0.0000  0.0264  0.2224  0.0000  0.0000  0.0190  0.1369  0.1788 </r>
       </set>
       <set comment="band 12">
        <r>  0.0000  0.0351  0.0000  0.0000  0.4465  0.0074  0.0000  0.0000  0.0000 </r>
       </set>
      </set>
      <set comment="kpoint 53">
       <set comment="band 1">
        <r>  0.1096  0.1231  0.0000  0.1209  0.0272  0.0000  0.3507  0.0000  0.3824 </r>
       </set>
       <set comment="band 2">
        <r>  0.0000  0.0000  0.1194  0.0000  0.0000  0.0524  0.0000  0.9383  0.0000 </r>
       </set>
       <set comment="band 3">
        <r>  0.0926  0.1641  0.0000  0.0003  0.6690  0.0000  0.1605  0.0000  0.0132 </r>
       </set>
       <set comment="band 4">
        <r>  0.0003  0.0588  0.0000  0.0112  0.0095  0.0000  0.3502  0.0000  0.5756 </r>
       </set>
       <set comment="band 5">
        <r>  0.0000  0.0000  0.0167  0.0000  0.0000  0.9094  0.0000  0.0671  0.0000 </r>
       </set>
       <set comment="band 6">
        <r>  0.1500  0.3397  0.0000  0.0662  0.3841  0.0000  0.1652  0.0000  0.0379 </r>
       </set>
       <set comment="band 7">
        <r>  0.0000  0.0000  0.6522  0.0000  0.0000  0.1655  0.0000  0.4963  0.0000 </r>
       </set>
       <set comment="band 8">
        <r>  0.1563  0.0049  0.0000  0.2586  0.1678  0.0000  0.4015  0.0000  0.0754 </r>
       </set>
       <set comment="band 9">
        <r>  0.2587  0.2745  0.0000  0.0049  0.0130  0.0000  0.0255  0.0000  0.4751 </r>
       </set>
       <set comment="band 10">
        <r>  0.0000  0.0000  0.0853  0.0000  0.0000  0.0421  0.0000  0.9143  0.0000 </r>
       </set>
       <set comment="band 11">
        <r>  0.0344  0.0588  0.0000  0.3078  0.0490  0.0000  0.0231  0.0000  0.0464 </r>
       </set>
       <set comment="band 12">
        <r>  1.8508  0.0188  0.0000  0.0592  0.2334  0.0000  0.0279  0.0000  0.4243 </r>
       </set>
      </set>
      <set comment="kpoint 54">
       <set comment="band 1">
        <r>  0.0135  0.0377  0.0012  0.1361  0.0021  0.0009  0.5695  0.0151  0.2983 </r>
       </set>
       <set comment="band 2">
        <r>  0.0389  0.0367  0.1315  0.0040  0.1923  0.0472  0.0302  0.6434  0.0001 </r>
       </set>
       <set comment="band 3">
        <r>  0.0260  0.1616  0.0487  0.0092  0.6150  0.0000  0.0184  0.2329  0.0012 </r>
       </set>
       <set comment="band 4">
        <r>  0.0081  0.0256  0.0039  0.0023  0.0065  0.0475  0.2761  0.0004  0.6256 </r>
       </set>
       <set comment="band 5">
        <r>  0.0019  0.0001  0.0064  0.0001  0.0259  0.8671  0.0130  0.0509  0.0285 </r>
       </set>
       <set comment="band 6">
        <r>  0.0866  0.4394  0.0408  0.1063  0.3019  0.0056  0.1432  0.0112  0.0538 </r>
       </set>
       <set comment="band 7">
        <r>  0.1539  0.0176  0.4815  0.0346  0.0582  0.0852  0.0458  0.3524  0.0034 </r>
       </set>
       <set comment="band 8">
        <r>  0.0377  0.0457  0.1477  0.1690  0.1024  0.0061  0.4763  0.1055  0.1003 </r>
       </set>
       <set comment="band 9">
        <r>  0.3745  0.2120  0.0486  0.0002  0.0271  0.0107  0.0015  0.0044  0.3318 </r>
       </set>
       <set comment="band 10">
        <r>  0.0030  0.0217  0.0387  0.1635  0.0647  0.0044  0.0005  0.3776  0.0000 </r>
       </set>
       <set comment="band 11">
        <r>  0.0145  0.0204  0.0192  0.0505  0.2872  0.0204  0.0405  0.3839  0.0933 </r>
       </set>
       <set comment="band 12">
        <r>  2.4287  0.0015  0.0091  0.1718  0.1540  0.0004  0.0037  0.0542  0.2264 </r>
       </set>
      </set>
      <set comment="kpoint 55">
       <set comment="band 1">
        <r>  0.0296  0.0104  0.0000  0.1077  0.0005  0.0000  0.4465  0.0000  0.4830 </r>
       </set>
       <set comment="band 2">
        <r>  0.0000  0.0000  0.1243  0.0000  0.0000  0.0052  0.0000  0.9921  0.0000 </r>
       </set>
       <set comment="band 3">
        <r>  0.0181  0.2737  0.0000  0.0000  0.7921  0.0000  0.0201  0.0000  0.0006 </r>
       </set>
       <set comment="band 4">
        <r>  0.0138  0.0127  0.0000  0.0103  0.0096  0.0000  0.4693  0.0000  0.4755 </r>
       </set>
       <set comment="band 5">
        <r>  0.0000  0.0000  0.0037  0.0000  0.0000  0.9862  0.0000  0.0077  0.0000 </r>
       </set>
       <set comment="band 6">
        <r>  0.0537  0.6938  0.0000  0.0287  0.3710  0.0000  0.0462  0.0000  0.0323 </r>
       </set>
       <set comment="band 7">
        <r>  0.0000  0.0000  0.7408  0.0000  0.0000  0.0221  0.0000  0.4861  0.0000 </r>
       </set>
       <set comment="band 8">
        <r>  0.0052  0.0750  0.0000  0.2706  0.0560  0.0000  0.4727  0.0000  0.3339 </r>
       </set>
       <set comment="band 9">
        <r>  0.5652  0.0448  0.0000  0.0829  0.0000  0.0000  0.0462  0.0000  0.1857 </r>
       </set>
       <set comment="band 10">
        <r>  0.0000  0.0000  0.0762  0.0000  0.0000  0.0056  0.0000  1.0967  0.0000 </r>
       </set>
       <set comment="band 11">
        <r>  0.3136  0.0256  0.0000  0.3406  0.0620  0.0000  0.0116  0.0000  0.0735 </r>
       </set>
       <set comment="band 12">
        <r>  0.5464  0.0174  0.0000  0.0344  0.4704  0.0000  0.0037  0.0000  0.1665 </r>
       </set>
      </set>
      <set comment="kpoint 56">
       <set comment="band 1">
        <r>  0.0028  0.0000  0.0042  0.1344  0.0000  0.0000  0.5970  0.0031  0.3283 </r>
       </set>
       <set comment="band 2">
        <r>  0.0118  0.0000  0.1792  0.0062  0.0000  0.0000  0.0019  0.9208  0.0014 </r>
       </set>
       <set comment="band 3">
        <r>  0.0000  0.2384  0.0000  0.0000  0.8572  0.0154  0.0000  0.0000  0.0000 </r>
       </set>
       <set comment="band 4">
        <r>  0.0270  0.0000  0.0049  0.0014  0.0000  0.0000  0.3350  0.0029  0.6168 </r>
       </set>
       <set comment="band 5">
        <r>  0.0000  0.0030  0.0000  0.0000  0.0235  0.9707  0.0000  0.0000  0.0000 </r>
       </set>
       <set comment="band 6">
        <r>  0.0000  0.7945  0.0000  0.0000  0.4409  0.0281  0.0000  0.0000  0.0000 </r>
       </set>
       <set comment="band 7">
        <r>  0.0492  0.0000  0.5396  0.1045  0.0000  0.0000  0.1357  0.3421  0.0446 </r>
       </set>
       <set comment="band 8">
        <r>  0.1214  0.0000  0.0910  0.1918  0.0000  0.0000  0.3709  0.1092  0.3132 </r>
       </set>
       <set comment="band 9">
        <r>  0.4977  0.0000  0.1318  0.0351  0.0000  0.0000  0.1683  0.0367  0.1013 </r>
       </set>
       <set comment="band 10">
        <r>  0.0155  0.0000  0.0535  0.0734  0.0000  0.0000  0.0028  0.7488  0.0351 </r>
       </set>
       <set comment="band 11">
        <r>  0.0000  0.0535  0.0000  0.0000  0.7374  0.0055  0.0000  0.0000  0.0000 </r>
       </set>
       <set comment="band 12">
        <r>  0.3398  0.0000  0.0097  0.4546  0.0000  0.0000  0.0239  0.1696  0.0649 </r>
       </set>
      </set>
     </set>
    </set>
   </array>
  </projected>
 </calculation>
 <structure name="finalpos" >
  <crystal>
   <varray name="basis" >
    <v>       1.50000000       1.50000000       0.00000000 </v>
    <v>       0.00000000       1.50000000       1.50000000 </v>
    <v>       1.50000000       0.00000000       1.50000000 </v>
   </varray>
   <i name="volume">      6.75000000 </i>
   <varray name="rec_basis" >
    <v>       0.33333333       0.33333333      -0.33333333 </v>
    <v>      -0.33333333       0.33333333       0.33333333 </v>
    <v>       0.33333333      -0.33333333       0.33333333 </v>
   </varray>
  </crystal>
  <varray name="positions" >
   <v>       0.00000000       0.00000000       0.00000000 </v>
  </varray>
 </structure>
</modeling>
