fcc Ni                                  
           1
     1.500000    1.500000    0.000000
     0.000000    1.500000    1.500000
     1.500000    0.000000    1.500000
   Ni
     1
Direct configuration=     1
   0.00000000  0.00000000  0.00000000
