Ni fcc bulk                             
   3.52284377630020     
     0.500000    0.500000    0.000000
     0.000000    0.500000    0.500000
     0.500000    0.000000    0.500000
   Ni
     1
Direct
  0.000000  0.000000  0.000000
 
   20   20   20
  151.30      141.64      115.97      82.464      50.260      25.891      11.638      5.8055      4.2703      3.5907    
  3.3694      3.5907      4.2703      5.8055      11.638      25.891      50.260      82.464      115.97      141.64    
  141.64      124.01      94.630      62.295      34.850      16.575      7.5704      4.7186      3.8265      3.3878    
  3.3889      3.8280      4.7183      7.5688      16.575      34.852      62.297      94.627      124.01      141.64    
  115.97      94.630      66.858      40.368      20.661      9.5249      5.2447      4.0600      3.4414      3.2430    
  3.4415      4.0600      5.2446      9.5249      20.661      40.368      66.857      94.630      115.97      124.01    
  82.464      62.295      40.368      22.249      10.821      5.7413      4.2426      3.5111      3.1596      3.1590    
  3.5102      4.2426      5.7420      10.821      22.247      40.367      62.297      82.468      94.630      94.627    
  50.260      34.850      20.661      10.821      5.9506      4.3429      3.5687      3.1222      2.9845      3.1224    
  3.5686      4.3425      5.9504      10.821      20.661      34.850      50.261      62.297      66.857      62.297    
  25.891      16.575      9.5249      5.7413      4.3429      3.5919      3.1112      2.8950      2.8953      3.1117    
  3.5917      4.3427      5.7419      9.5259      16.575      25.889      34.850      40.367      40.368      34.852    
  11.638      7.5704      5.2447      4.2426      3.5687      3.1112      2.8686      2.7955      2.8688      3.1114    
  3.5688      4.2427      5.2446      7.5699      11.637      16.575      20.661      22.247      20.661      16.575    
  5.8055      4.7186      4.0600      3.5111      3.1222      2.8950      2.7955      2.7958      2.8953      3.1219    
  3.5104      4.0593      4.7185      5.8062      7.5699      9.5259      10.821      10.821      9.5249      7.5688    
  4.2703      3.8265      3.4414      3.1596      2.9845      2.8953      2.8688      2.8953      2.9844      3.1595    
  3.4415      3.8269      4.2708      4.7185      5.2446      5.7419      5.9504      5.7420      5.2446      4.7183    
  3.5907      3.3878      3.2430      3.1590      3.1224      3.1117      3.1114      3.1219      3.1595      3.2441    
  3.3886      3.5902      3.8269      4.0593      4.2427      4.3427      4.3425      4.2426      4.0600      3.8280    
  3.3694      3.3889      3.4415      3.5102      3.5686      3.5917      3.5688      3.5104      3.4415      3.3886    
  3.3690      3.3886      3.4415      3.5104      3.5688      3.5917      3.5686      3.5102      3.4415      3.3889    
  3.5907      3.8280      4.0600      4.2426      4.3425      4.3427      4.2427      4.0593      3.8269      3.5902    
  3.3886      3.2441      3.1595      3.1219      3.1114      3.1117      3.1224      3.1590      3.2430      3.3878    
  4.2703      4.7183      5.2446      5.7420      5.9504      5.7419      5.2446      4.7185      4.2708      3.8269    
  3.4415      3.1595      2.9844      2.8953      2.8688      2.8953      2.9845      3.1596      3.4414      3.8265    
  5.8055      7.5688      9.5249      10.821      10.821      9.5259      7.5699      5.8062      4.7185      4.0593    
  3.5104      3.1219      2.8953      2.7958      2.7955      2.8950      3.1222      3.5111      4.0600      4.7186    
  11.638      16.575      20.661      22.247      20.661      16.575      11.637      7.5699      5.2446      4.2427    
  3.5688      3.1114      2.8688      2.7955      2.8686      3.1112      3.5687      4.2426      5.2447      7.5704    
  25.891      34.852      40.368      40.367      34.850      25.889      16.575      9.5259      5.7419      4.3427    
  3.5917      3.1117      2.8953      2.8950      3.1112      3.5919      4.3429      5.7413      9.5249      16.575    
  50.260      62.297      66.857      62.297      50.261      34.850      20.661      10.821      5.9504      4.3425    
  3.5686      3.1224      2.9845      3.1222      3.5687      4.3429      5.9506      10.821      20.661      34.850    
  82.464      94.627      94.630      82.468      62.297      40.367      22.247      10.821      5.7420      4.2426    
  3.5102      3.1590      3.1596      3.5111      4.2426      5.7413      10.821      22.249      40.368      62.295    
  115.97      124.01      115.97      94.630      66.857      40.368      20.661      9.5249      5.2446      4.0600    
  3.4415      3.2430      3.4414      4.0600      5.2447      9.5249      20.661      40.368      66.858      94.630    
  141.64      141.64      124.01      94.627      62.297      34.852      16.575      7.5688      4.7183      3.8280    
  3.3889      3.3878      3.8265      4.7186      7.5704      16.575      34.850      62.295      94.630      124.01    
  141.64      124.01      94.629      62.295      34.850      16.575      7.5705      4.7187      3.8265      3.3877    
  3.3889      3.8282      4.7182      7.5688      16.575      34.853      62.297      94.628      124.01      141.64    
  124.01      101.13      71.445      43.181      22.121      10.115      5.4061      4.1328      3.4962      3.2909    
  3.4966      4.1323      5.4052      10.116      22.124      43.183      71.443      101.13      124.01      132.64    
  94.629      71.445      46.332      25.558      12.290      6.1962      4.3882      3.6194      3.2430      3.2425    
  3.6183      4.3877      6.1972      12.292      25.558      46.331      71.444      94.629      108.66      108.66    
  62.295      43.181      25.558      13.147      6.7436      4.5649      3.7251      3.2315      3.0778      3.2321    
  3.7254      4.5645      6.7429      13.146      25.558      43.182      62.297      77.283      82.978      77.281    
  34.850      22.121      12.290      6.7436      4.6350      3.7889      3.2382      2.9865      2.9874      3.2394    
  3.7884      4.6333      6.7429      12.291      22.123      34.850      47.044      54.560      54.560      47.044    
  16.575      10.115      6.1962      4.5649      3.7889      3.2447      2.9501      2.8608      2.9499      3.2442    
  3.7885      4.5653      6.1972      10.115      16.575      24.183      30.411      32.822      30.412      24.185    
  7.5705      5.4061      4.3882      3.7251      3.2382      2.9501      2.8237      2.8235      2.9498      3.2384    
  3.7255      4.3882      5.4052      7.5696      10.922      14.481      16.789      16.789      14.480      10.922    
  4.7187      4.1328      3.6194      3.2315      2.9865      2.8608      2.8235      2.8616      2.9872      3.2313    
  3.6183      4.1315      4.7184      5.6023      6.8537      8.0159      8.4919      8.0144      6.8518      5.6011    
  3.8265      3.4962      3.2430      3.0778      2.9874      2.9499      2.9498      2.9872      3.0777      3.2430    
  3.4964      3.8268      4.1917      4.5317      4.8458      5.0636      5.0636      4.8457      4.5314      4.1913    
  3.3877      3.2909      3.2425      3.2321      3.2394      3.2442      3.2384      3.2313      3.2430      3.2922    
  3.3886      3.5288      3.6942      3.8524      3.9665      4.0080      3.9668      3.8532      3.6952      3.5291    
  3.3889      3.4966      3.6183      3.7254      3.7884      3.7885      3.7255      3.6183      3.4964      3.3886    
  3.3148      3.2828      3.2879      3.3132      3.3347      3.3346      3.3131      3.2879      3.2830      3.3151    
  3.8282      4.1323      4.3877      4.5645      4.6333      4.5653      4.3882      4.1315      3.8268      3.5288    
  3.2828      3.1103      3.0090      2.9618      2.9490      2.9618      3.0086      3.1093      3.2822      3.5294    
  4.7182      5.4052      6.1972      6.7429      6.7429      6.1972      5.4052      4.7184      4.1917      3.6942    
  3.2879      3.0090      2.8482      2.7779      2.7780      2.8484      3.0092      3.2878      3.6938      4.1913    
  7.5688      10.116      12.292      13.146      12.291      10.115      7.5696      5.6023      4.5317      3.8524    
  3.3132      2.9618      2.7779      2.7221      2.7775      2.9619      3.3141      3.8531      4.5311      5.6009    
  16.575      22.124      25.558      25.558      22.123      16.575      10.922      6.8537      4.8458      3.9665    
  3.3347      2.9490      2.7780      2.7775      2.9482      3.3346      3.9670      4.8458      6.8531      10.922    
  34.853      43.183      46.331      43.182      34.850      24.183      14.481      8.0159      5.0636      4.0080    
  3.3346      2.9618      2.8484      2.9619      3.3346      4.0076      5.0626      8.0150      14.482      24.185    
  62.297      71.443      71.444      62.297      47.044      30.411      16.789      8.4919      5.0636      3.9668    
  3.3131      3.0086      3.0092      3.3141      3.9670      5.0626      8.4908      16.789      30.411      47.044    
  94.628      101.13      94.629      77.283      54.560      32.822      16.789      8.0144      4.8457      3.8532    
  3.2879      3.1093      3.2878      3.8531      4.8458      8.0150      16.789      32.822      54.559      77.281    
  124.01      124.01      108.66      82.978      54.560      30.412      14.480      6.8518      4.5314      3.6952    
  3.2830      3.2822      3.6938      4.5311      6.8531      14.482      30.411      54.559      82.977      108.66    
  141.64      132.64      108.66      77.281      47.044      24.185      10.922      5.6011      4.1913      3.5291    
  3.3151      3.5294      4.1913      5.6009      10.922      24.185      47.044      77.281      108.66      132.64    
  115.97      94.629      66.858      40.368      20.661      9.5248      5.2450      4.0603      3.4413      3.2428    
  3.4417      4.0603      5.2446      9.5248      20.661      40.368      66.857      94.630      115.97      124.01    
  94.629      71.445      46.332      25.558      12.290      6.1962      4.3884      3.6195      3.2430      3.2424    
  3.6184      4.3878      6.1971      12.292      25.559      46.331      71.443      94.629      108.66      108.66    
  66.858      46.332      27.416      14.044      7.0609      4.6472      3.7804      3.2707      3.1110      3.2710    
  3.7804      4.6470      7.0611      14.045      27.416      46.331      66.857      82.977      89.111      82.976    
  40.368      25.558      14.044      7.4115      4.8129      3.8936      3.3081      3.0372      3.0381      3.3095    
  3.8939      4.8120      7.4106      14.044      25.558      40.369      54.560      63.324      63.323      54.559    
  20.661      12.290      7.0609      4.8129      3.9350      3.3359      3.0062      2.9061      3.0064      3.3358    
  3.9346      4.8128      7.0612      12.291      20.661      30.411      38.373      41.455      38.372      30.411    
  9.5248      6.1962      4.6472      3.8936      3.3359      2.9993      2.8509      2.8504      2.9983      3.3352    
  3.8939      4.6485      6.1973      9.5247      14.480      19.636      22.955      22.956      19.637      14.481    
  5.2450      4.3884      3.7804      3.3081      3.0062      2.8509      2.8045      2.8509      3.0063      3.3081    
  3.7803      4.3882      5.2447      6.8530      9.0775      11.082      11.893      11.082      9.0777      6.8533    
  4.0603      3.6195      3.2707      3.0372      2.9061      2.8504      2.8509      2.9073      3.0380      3.2703    
  3.6183      4.0592      4.5316      5.0975      5.7668      6.2456      6.2450      5.7655      5.0963      4.5315    
  3.4413      3.2430      3.1110      3.0381      3.0064      2.9983      3.0063      3.0380      3.1110      3.2430    
  3.4415      3.6941      3.9653      4.2055      4.3700      4.4309      4.3700      4.2055      3.9650      3.6938    
  3.2428      3.2424      3.2710      3.3095      3.3358      3.3352      3.3081      3.2703      3.2430      3.2441    
  3.2828      3.3573      3.4525      3.5422      3.5971      3.5975      3.5433      3.4535      3.3574      3.2819    
  3.4417      3.6184      3.7804      3.8939      3.9346      3.8939      3.7803      3.6183      3.4415      3.2828    
  3.1643      3.0939      3.0651      3.0609      3.0622      3.0608      3.0650      3.0940      3.1646      3.2831    
  4.0603      4.3878      4.6470      4.8120      4.8128      4.6485      4.3882      4.0592      3.6941      3.3573    
  3.0939      2.9179      2.8191      2.7773      2.7771      2.8187      2.9172      3.0933      3.3578      3.6956    
  5.2446      6.1971      7.0611      7.4106      7.0612      6.1973      5.2447      4.5316      3.9653      3.4525    
  3.0651      2.8191      2.6912      2.6526      2.6914      2.8193      3.0652      3.4524      3.9650      4.5313    
  9.5248      12.292      14.045      14.044      12.291      9.5247      6.8530      5.0975      4.2055      3.5422    
  3.0609      2.7773      2.6526      2.6523      2.7771      3.0616      3.5433      4.2055      5.0959      6.8515    
  20.661      25.559      27.416      25.558      20.661      14.480      9.0775      5.7668      4.3700      3.5971    
  3.0622      2.7771      2.6914      2.7771      3.0621      3.5970      4.3699      5.7669      9.0777      14.480    
  40.368      46.331      46.331      40.369      30.411      19.636      11.082      6.2456      4.4309      3.5975    
  3.0608      2.8187      2.8193      3.0616      3.5970      4.4294      6.2451      11.083      19.638      30.412    
  66.857      71.443      66.857      54.560      38.373      22.955      11.893      6.2450      4.3700      3.5433    
  3.0650      2.9172      3.0652      3.5433      4.3699      6.2451      11.893      22.955      38.372      54.560    
  94.630      94.629      82.977      63.324      41.455      22.956      11.082      5.7655      4.2055      3.4535    
  3.0940      3.0933      3.4524      4.2055      5.7669      11.083      22.955      41.453      63.323      82.977    
  115.97      108.66      89.111      63.323      38.372      19.637      9.0777      5.0963      3.9650      3.3574    
  3.1646      3.3578      3.9650      5.0959      9.0777      19.638      38.372      63.323      89.111      108.66    
  124.01      108.66      82.976      54.559      30.411      14.481      6.8533      4.5315      3.6938      3.2819    
  3.2831      3.6956      4.5313      6.8515      14.480      30.412      54.560      82.977      108.66      124.01    
  82.464      62.295      40.369      22.249      10.821      5.7412      4.2429      3.5113      3.1594      3.1589    
  3.5105      4.2429      5.7418      10.821      22.247      40.367      62.297      82.468      94.630      94.627    
  62.295      43.181      25.558      13.147      6.7436      4.5650      3.7253      3.2316      3.0776      3.2320    
  3.7256      4.5646      6.7427      13.146      25.558      43.182      62.297      77.282      82.977      77.281    
  40.369      25.558      14.045      7.4117      4.8128      3.8936      3.3081      3.0372      3.0380      3.3095    
  3.8940      4.8120      7.4105      14.044      25.559      40.369      54.560      63.324      63.323      54.559    
  22.249      13.147      7.4117      4.9111      3.9844      3.3678      3.0266      2.9225      3.0266      3.3685    
  3.9856      4.9116      7.4105      13.145      22.249      32.824      41.456      44.798      41.454      32.822    
  10.821      6.7436      4.8128      3.9844      3.3898      3.0275      2.8676      2.8671      3.0268      3.3901    
  3.9856      4.8134      6.7429      10.820      16.789      22.956      26.916      26.915      22.955      16.789    
  5.7412      4.5650      3.8936      3.3678      3.0275      2.8518      2.7993      2.8514      3.0269      3.3675    
  3.8939      4.5659      5.7422      8.0145      11.081      13.806      14.902      13.807      11.083      8.0147    
  4.2429      3.7253      3.3081      3.0266      2.8676      2.7993      2.7992      2.8676      3.0267      3.3083    
  3.7254      4.2430      4.8459      5.7663      6.8778      7.6618      7.6623      6.8788      5.7670      4.8460    
  3.5113      3.2316      3.0372      2.9225      2.8671      2.8514      2.8676      2.9235      3.0380      3.2315    
  3.5103      3.8524      4.2056      4.5175      4.7756      4.8832      4.7749      4.5169      4.2058      3.8534    
  3.1594      3.0776      3.0380      3.0266      3.0268      3.0269      3.0267      3.0380      3.0776      3.1595    
  3.2880      3.4526      3.6262      3.7716      3.8544      3.8546      3.7719      3.6262      3.4522      3.2876    
  3.1589      3.2320      3.3095      3.3685      3.3901      3.3675      3.3083      3.2315      3.1595      3.1103    
  3.0938      3.1094      3.1451      3.1804      3.1953      3.1812      3.1460      3.1096      3.0929      3.1090    
  3.5105      3.7256      3.8940      3.9856      3.9856      3.8939      3.7254      3.5103      3.2880      3.0938    
  2.9492      2.8583      2.8120      2.7948      2.7947      2.8119      2.8583      2.9494      3.0941      3.2881    
  4.2429      4.5646      4.8120      4.9116      4.8134      4.5659      4.2430      3.8524      3.4526      3.1094    
  2.8583      2.7007      2.6189      2.5941      2.6184      2.7000      2.8580      3.1099      3.4538      3.8535    
  5.7418      6.7427      7.4105      7.4105      6.7429      5.7422      4.8459      4.2056      3.6262      3.1451    
  2.8120      2.6189      2.5339      2.5339      2.6189      2.8121      3.1453      3.6262      4.2053      4.8454    
  10.821      13.146      14.044      13.145      10.820      8.0145      5.7663      4.5175      3.7716      3.1804    
  2.7948      2.5941      2.5339      2.5943      2.7953      3.1809      3.7715      4.5166      5.7650      8.0141    
  22.247      25.558      25.559      22.249      16.789      11.081      6.8778      4.7756      3.8544      3.1953    
  2.7947      2.6184      2.6189      2.7953      3.1952      3.8538      4.7756      6.8788      11.082      16.789    
  40.367      43.182      40.369      32.824      22.956      13.806      7.6618      4.8832      3.8546      3.1812    
  2.8119      2.7000      2.8121      3.1809      3.8538      4.8833      7.6635      13.808      22.956      32.822    
  62.297      62.297      54.560      41.456      26.916      14.902      7.6623      4.7749      3.7719      3.1460    
  2.8583      2.8580      3.1453      3.7715      4.7756      7.6635      14.902      26.915      41.455      54.560    
  82.468      77.282      63.324      44.798      26.915      13.807      6.8788      4.5169      3.6262      3.1096    
  2.9494      3.1099      3.6262      4.5166      6.8788      13.808      26.915      44.797      63.323      77.282    
  94.630      82.977      63.323      41.454      22.955      11.083      5.7670      4.2058      3.4522      3.0929    
  3.0941      3.4538      4.2053      5.7650      11.082      22.956      41.455      63.323      82.977      94.629    
  94.627      77.281      54.559      32.822      16.789      8.0147      4.8460      3.8534      3.2876      3.1090    
  3.2881      3.8535      4.8454      8.0141      16.789      32.822      54.560      77.282      94.629      101.13    
  50.260      34.850      20.661      10.821      5.9503      4.3428      3.5690      3.1223      2.9842      3.1222    
  3.5689      4.3427      5.9501      10.821      20.661      34.850      50.260      62.297      66.858      62.297    
  34.850      22.122      12.291      6.7438      4.6348      3.7888      3.2384      2.9865      2.9871      3.2394    
  3.7886      4.6333      6.7426      12.291      22.123      34.850      47.043      54.560      54.560      47.044    
  20.661      12.291      7.0612      4.8128      3.9347      3.3358      3.0063      2.9060      3.0062      3.3359    
  3.9348      4.8127      7.0610      12.290      20.661      30.411      38.372      41.455      38.373      30.412    
  10.821      6.7438      4.8128      3.9842      3.3896      3.0274      2.8676      2.8670      3.0267      3.3902    
  3.9856      4.8133      6.7428      10.820      16.789      22.956      26.916      26.916      22.955      16.789    
  5.9503      4.6348      3.9347      3.3896      3.0354      2.8532      2.7990      2.8530      3.0354      3.3898    
  3.9346      4.6346      5.9504      8.4909      11.893      14.902      16.111      14.902      11.892      8.4904    
  4.3428      3.7888      3.3358      3.0274      2.8532      2.7787      2.7787      2.8531      3.0269      3.3349    
  3.7884      4.3436      5.0636      6.2449      7.6622      8.6537      8.6543      7.6631      6.2445      5.0622    
  3.5690      3.2384      3.0063      2.8676      2.7990      2.7787      2.7987      2.8675      3.0064      3.2384    
  3.5687      3.9669      4.3699      4.7756      5.1538      5.3155      5.1539      4.7756      4.3700      3.9671    
  3.1223      2.9865      2.9060      2.8670      2.8530      2.8531      2.8675      2.9069      2.9872      3.1220    
  3.3132      3.5426      3.7718      3.9550      4.0555      4.0551      3.9543      3.7718      3.5435      3.3143    
  2.9842      2.9871      3.0062      3.0267      3.0354      3.0269      3.0064      2.9872      2.9843      3.0090    
  3.0651      3.1453      3.2305      3.2960      3.3205      3.2960      3.2305      3.1451      3.0649      3.0089    
  3.1222      3.2394      3.3359      3.3902      3.3898      3.3349      3.2384      3.1220      3.0090      2.9179    
  2.8583      2.8298      2.8233      2.8254      2.8257      2.8239      2.8300      2.8577      2.9168      3.0083    
  3.5689      3.7886      3.9348      3.9856      3.9346      3.7884      3.5687      3.3132      3.0651      2.8583    
  2.7083      2.6142      2.5656      2.5509      2.5654      2.6142      2.7084      2.8584      3.0652      3.3133    
  4.3427      4.6333      4.8127      4.8133      4.6346      4.3436      3.9669      3.5426      3.1453      2.8298    
  2.6142      2.4881      2.4317      2.4314      2.4875      2.6139      2.8302      3.1463      3.5435      3.9670    
  5.9501      6.7426      7.0610      6.7428      5.9504      5.0636      4.3699      3.7718      3.2305      2.8233    
  2.5656      2.4317      2.3912      2.4317      2.5656      2.8233      3.2306      3.7718      4.3698      5.0633    
  10.821      12.291      12.290      10.820      8.4909      6.2449      4.7756      3.9550      3.2960      2.8254    
  2.5509      2.4314      2.4317      2.5516      2.8257      3.2956      3.9541      4.7746      6.2446      8.4915    
  20.661      22.123      20.661      16.789      11.893      7.6622      5.1538      4.0555      3.3205      2.8257    
  2.5654      2.4875      2.5656      2.8257      3.3204      4.0555      5.1539      7.6623      11.893      16.790    
  34.850      34.850      30.411      22.956      14.902      8.6537      5.3155      4.0551      3.2960      2.8239    
  2.6142      2.6139      2.8233      3.2956      4.0555      5.3166      8.6546      14.902      22.955      30.411    
  50.260      47.043      38.372      26.916      16.111      8.6543      5.1539      3.9543      3.2305      2.8300    
  2.7084      2.8302      3.2306      3.9541      5.1539      8.6546      16.111      26.916      38.372      47.043    
  62.297      54.560      41.455      26.916      14.902      7.6631      4.7756      3.7718      3.1451      2.8577    
  2.8584      3.1463      3.7718      4.7746      7.6623      14.902      26.916      41.455      54.560      62.297    
  66.858      54.560      38.373      22.955      11.892      6.2445      4.3700      3.5435      3.0649      2.9168    
  3.0652      3.5435      4.3698      6.2446      11.893      22.955      38.372      54.560      66.857      71.444    
  62.297      47.044      30.412      16.789      8.4904      5.0622      3.9671      3.3143      3.0089      3.0083    
  3.3133      3.9670      5.0633      8.4915      16.790      30.411      47.043      62.297      71.444      71.444    
  25.890      16.575      9.5249      5.7412      4.3425      3.5918      3.1116      2.8951      2.8950      3.1117    
  3.5920      4.3428      5.7416      9.5259      16.576      25.889      34.850      40.367      40.369      34.852    
  16.575      10.115      6.1964      4.5649      3.7886      3.2447      2.9503      2.8607      2.9496      3.2442    
  3.7887      4.5653      6.1969      10.115      16.575      24.183      30.410      32.822      30.412      24.185    
  9.5249      6.1964      4.6473      3.8933      3.3355      2.9993      2.8510      2.8503      2.9981      3.3353    
  3.8940      4.6483      6.1971      9.5248      14.480      19.636      22.955      22.956      19.638      14.482    
  5.7412      4.5649      3.8933      3.3674      3.0272      2.8518      2.7993      2.8513      3.0268      3.3676    
  3.8939      4.5658      5.7421      8.0146      11.081      13.806      14.902      13.808      11.083      8.0148    
  4.3425      3.7886      3.3355      3.0272      2.8531      2.7788      2.7788      2.8530      3.0269      3.3350    
  3.7884      4.3435      5.0636      6.2450      7.6623      8.6538      8.6545      7.6634      6.2447      5.0621    
  3.5918      3.2447      2.9993      2.8518      2.7788      2.7574      2.7788      2.8515      2.9983      3.2436    
  3.5917      4.0086      4.4306      4.8836      5.3162      5.5019      5.3165      4.8831      4.4290      4.0073    
  3.1116      2.9503      2.8510      2.7993      2.7788      2.7788      2.7993      2.8508      2.9499      3.1110    
  3.3347      3.5974      3.8544      4.0558      4.1653      4.1653      4.0556      3.8539      3.5971      3.3349    
  2.8951      2.8607      2.8503      2.8513      2.8530      2.8515      2.8508      2.8614      2.8953      2.9615    
  3.0609      3.1807      3.2961      3.3789      3.4087      3.3784      3.2958      3.1811      3.0618      2.9621    
  2.8950      2.9496      2.9981      3.0268      3.0269      2.9983      2.9499      2.8953      2.8482      2.8190    
  2.8120      2.8234      2.8426      2.8565      2.8564      2.8424      2.8233      2.8121      2.8191      2.8482    
  3.1117      3.2442      3.3353      3.3676      3.3350      3.2436      3.1110      2.9615      2.8190      2.7006    
  2.6142      2.5597      2.5316      2.5234      2.5319      2.5598      2.6138      2.6998      2.8184      2.9617    
  3.5920      3.7887      3.8940      3.8939      3.7884      3.5917      3.3347      3.0609      2.8120      2.6142    
  2.4753      2.3906      2.3513      2.3513      2.3906      2.4753      2.6142      2.8120      3.0609      3.3349    
  4.3428      4.5653      4.6483      4.5658      4.3435      4.0086      3.5974      3.1807      2.8234      2.5597    
  2.3906      2.3000      2.2718      2.2997      2.3903      2.5599      2.8241      3.1815      3.5977      4.0082    
  5.7416      6.1969      6.1971      5.7421      5.0636      4.4306      3.8544      3.2961      2.8426      2.5316    
  2.3513      2.2718      2.2720      2.3515      2.5315      2.8423      3.2960      3.8546      4.4307      5.0633    
  9.5259      10.115      9.5248      8.0146      6.2450      4.8836      4.0558      3.3789      2.8565      2.5234    
  2.3513      2.2997      2.3515      2.5236      2.8564      3.3783      4.0550      4.8830      6.2453      8.0157    
  16.576      16.575      14.480      11.081      7.6623      5.3162      4.1653      3.4087      2.8564      2.5319    
  2.3906      2.3903      2.5315      2.8564      3.4089      4.1653      5.3156      7.6619      11.082      14.482    
  25.889      24.183      19.636      13.806      8.6538      5.5019      4.1653      3.3784      2.8424      2.5598    
  2.4753      2.5599      2.8423      3.3783      4.1653      5.5020      8.6540      13.806      19.636      24.184    
  34.850      30.410      22.955      14.902      8.6545      5.3165      4.0556      3.2958      2.8233      2.6138    
  2.6142      2.8241      3.2960      4.0550      5.3156      8.6540      14.902      22.956      30.411      34.850    
  40.367      32.822      22.956      13.808      7.6634      4.8831      3.8539      3.1811      2.8121      2.6998    
  2.8120      3.1815      3.8546      4.8830      7.6619      13.806      22.956      32.824      40.369      43.182    
  40.369      30.412      19.638      11.083      6.2447      4.4290      3.5971      3.0618      2.8191      2.8184    
  3.0609      3.5977      4.4307      6.2453      11.082      19.636      30.411      40.369      46.332      46.331    
  34.852      24.185      14.482      8.0148      5.0621      4.0073      3.3349      2.9621      2.8482      2.9617    
  3.3349      4.0082      5.0633      8.0157      14.482      24.184      34.850      43.182      46.331      43.184    
  11.637      7.5700      5.2448      4.2427      3.5686      3.1114      2.8691      2.7956      2.8685      3.1114    
  3.5691      4.2428      5.2444      7.5700      11.638      16.575      20.661      22.247      20.661      16.575    
  7.5700      5.4061      4.3886      3.7252      3.2382      2.9503      2.8241      2.8235      2.9496      3.2385    
  3.7258      4.3881      5.4050      7.5698      10.923      14.481      16.789      16.789      14.480      10.922    
  5.2448      4.3886      3.7805      3.3079      3.0061      2.8510      2.8047      2.8508      3.0062      3.3083    