Ni fcc bulk                             
   3.52284377630020     
     0.500000    0.500000    0.000000
     0.000000    0.500000    0.500000
     0.500000    0.000000    0.500000
   Ni
     1
Direct
  0.000000  0.000000  0.000000
 
   20   20   20
 0.15129779396E+03 0.14164004380E+03 0.11596975272E+03 0.82464198817E+02 0.50260352743E+02
 0.25890805813E+02 0.11637747679E+02 0.58055050816E+01 0.42703127321E+01 0.35906600964E+01
 0.33694401763E+01 0.35906600964E+01 0.42703127321E+01 0.58055050816E+01 0.11637747679E+02
 0.25890805813E+02 0.50260352743E+02 0.82464198817E+02 0.11596975272E+03 0.14164004380E+03
 0.14164004380E+03 0.12400999521E+03 0.94629569913E+02 0.62295249875E+02 0.34850044516E+02
 0.16575323142E+02 0.75703605310E+01 0.47185564599E+01 0.38265095342E+01 0.33878382015E+01
 0.33888763555E+01 0.38280338554E+01 0.47182517853E+01 0.75688352760E+01 0.16575356522E+02
 0.34852323735E+02 0.62296793278E+02 0.94627436771E+02 0.12400549217E+03 0.14163770588E+03
 0.11596975272E+03 0.94629569913E+02 0.66857608412E+02 0.40368269249E+02 0.20660846332E+02
 0.95248558477E+01 0.52446916507E+01 0.40599695779E+01 0.34414145882E+01 0.32429551345E+01
 0.34415399529E+01 0.40599969633E+01 0.52446231899E+01 0.95248683515E+01 0.20660850531E+02
 0.40368063433E+02 0.66857390927E+02 0.94629700977E+02 0.11597006851E+03 0.12400549217E+03
 0.82464198817E+02 0.62295249875E+02 0.40368269249E+02 0.22248701276E+02 0.10820893315E+02
 0.57412803536E+01 0.42426172539E+01 0.35110815067E+01 0.31595800221E+01 0.31590300770E+01
 0.35101961873E+01 0.42426354103E+01 0.57420276267E+01 0.10820713226E+02 0.22246942876E+02
 0.40367080740E+02 0.62297267642E+02 0.82468484729E+02 0.94629700977E+02 0.94627436771E+02
 0.50260352743E+02 0.34850044516E+02 0.20660846332E+02 0.10820893315E+02 0.59505834155E+01
 0.43429163808E+01 0.35687110645E+01 0.31221516906E+01 0.29845457892E+01 0.31223855983E+01
 0.35686371144E+01 0.43425244182E+01 0.59504462660E+01 0.10821128343E+02 0.20661022258E+02
 0.34850122779E+02 0.50260704322E+02 0.62297267642E+02 0.66857390927E+02 0.62296793278E+02
 0.25890805813E+02 0.16575323142E+02 0.95248558477E+01 0.57412803536E+01 0.43429163808E+01
 0.35918520099E+01 0.31112468112E+01 0.28949782266E+01 0.28953417037E+01 0.31117098249E+01
 0.35916951117E+01 0.43427087924E+01 0.57419325461E+01 0.95258826613E+01 0.16575235688E+02
 0.25889076629E+02 0.34850122779E+02 0.40367080740E+02 0.40368063433E+02 0.34852323735E+02
 0.11637747679E+02 0.75703605310E+01 0.52446916507E+01 0.42426172539E+01 0.35687110645E+01
 0.31112468112E+01 0.28686451426E+01 0.27955413953E+01 0.28687800338E+01 0.31113524959E+01
 0.35687850583E+01 0.42427243784E+01 0.52446319205E+01 0.75699324618E+01 0.11637242051E+02
 0.16575235688E+02 0.20661022258E+02 0.22246942876E+02 0.20660850531E+02 0.16575356522E+02
 0.58055050816E+01 0.47185564599E+01 0.40599695779E+01 0.35110815067E+01 0.31221516906E+01
 0.28949782266E+01 0.27955413953E+01 0.27957632732E+01 0.28952737522E+01 0.31219353374E+01
 0.35103565918E+01 0.40593271123E+01 0.47185326350E+01 0.58061868010E+01 0.75699324618E+01
 0.95258826613E+01 0.10821128343E+02 0.10820713226E+02 0.95248683515E+01 0.75688352760E+01
 0.42703127321E+01 0.38265095342E+01 0.34414145882E+01 0.31595800221E+01 0.29845457892E+01
 0.28953417037E+01 0.28687800338E+01 0.28952737522E+01 0.29843954762E+01 0.31594510939E+01
 0.34415079702E+01 0.38268912899E+01 0.42707848137E+01 0.47185326350E+01 0.52446319205E+01
 0.57419325461E+01 0.59504462660E+01 0.57420276267E+01 0.52446231899E+01 0.47182517853E+01
 0.35906600964E+01 0.33878382015E+01 0.32429551345E+01 0.31590300770E+01 0.31223855983E+01
 0.31117098249E+01 0.31113524959E+01 0.31219353374E+01 0.31594510939E+01 0.32441169045E+01
 0.33885535073E+01 0.35901594603E+01 0.38268912899E+01 0.40593271123E+01 0.42427243784E+01
 0.43427087924E+01 0.43425244182E+01 0.42426354103E+01 0.40599969633E+01 0.38280338554E+01
 0.33694401763E+01 0.33888763555E+01 0.34415399529E+01 0.35101961873E+01 0.35686371144E+01
 0.35916951117E+01 0.35687850583E+01 0.35103565918E+01 0.34415079702E+01 0.33885535073E+01
 0.33689751392E+01 0.33885535073E+01 0.34415079702E+01 0.35103565918E+01 0.35687850583E+01
 0.35916951117E+01 0.35686371144E+01 0.35101961873E+01 0.34415399529E+01 0.33888763555E+01
 0.35906600964E+01 0.38280338554E+01 0.40599969633E+01 0.42426354103E+01 0.43425244182E+01
 0.43427087924E+01 0.42427243784E+01 0.40593271123E+01 0.38268912899E+01 0.35901594603E+01
 0.33885535073E+01 0.32441169045E+01 0.31594510939E+01 0.31219353374E+01 0.31113524959E+01
 0.31117098249E+01 0.31223855983E+01 0.31590300770E+01 0.32429551345E+01 0.33878382015E+01
 0.42703127321E+01 0.47182517853E+01 0.52446231899E+01 0.57420276267E+01 0.59504462660E+01
 0.57419325461E+01 0.52446319205E+01 0.47185326350E+01 0.42707848137E+01 0.38268912899E+01
 0.34415079702E+01 0.31594510939E+01 0.29843954762E+01 0.28952737522E+01 0.28687800338E+01
 0.28953417037E+01 0.29845457892E+01 0.31595800221E+01 0.34414145882E+01 0.38265095342E+01
 0.58055050816E+01 0.75688352760E+01 0.95248683515E+01 0.10820713226E+02 0.10821128343E+02
 0.95258826613E+01 0.75699324618E+01 0.58061868010E+01 0.47185326350E+01 0.40593271123E+01
 0.35103565918E+01 0.31219353374E+01 0.28952737522E+01 0.27957632732E+01 0.27955413953E+01
 0.28949782266E+01 0.31221516906E+01 0.35110815067E+01 0.40599695779E+01 0.47185564599E+01
 0.11637747679E+02 0.16575356522E+02 0.20660850531E+02 0.22246942876E+02 0.20661022258E+02
 0.16575235688E+02 0.11637242051E+02 0.75699324618E+01 0.52446319205E+01 0.42427243784E+01
 0.35687850583E+01 0.31113524959E+01 0.28687800338E+01 0.27955413953E+01 0.28686451426E+01
 0.31112468112E+01 0.35687110645E+01 0.42426172539E+01 0.52446916507E+01 0.75703605310E+01
 0.25890805813E+02 0.34852323735E+02 0.40368063433E+02 0.40367080740E+02 0.34850122779E+02
 0.25889076629E+02 0.16575235688E+02 0.95258826613E+01 0.57419325461E+01 0.43427087924E+01
 0.35916951117E+01 0.31117098249E+01 0.28953417037E+01 0.28949782266E+01 0.31112468112E+01
 0.35918520099E+01 0.43429163808E+01 0.57412803536E+01 0.95248558477E+01 0.16575323142E+02
 0.50260352743E+02 0.62296793278E+02 0.66857390927E+02 0.62297267642E+02 0.50260704322E+02
 0.34850122779E+02 0.20661022258E+02 0.10821128343E+02 0.59504462660E+01 0.43425244182E+01
 0.35686371144E+01 0.31223855983E+01 0.29845457892E+01 0.31221516906E+01 0.35687110645E+01
 0.43429163808E+01 0.59505834155E+01 0.10820893315E+02 0.20660846332E+02 0.34850044516E+02
 0.82464198817E+02 0.94627436771E+02 0.94629700977E+02 0.82468484729E+02 0.62297267642E+02
 0.40367080740E+02 0.22246942876E+02 0.10820713226E+02 0.57420276267E+01 0.42426354103E+01
 0.35101961873E+01 0.31590300770E+01 0.31595800221E+01 0.35110815067E+01 0.42426172539E+01
 0.57412803536E+01 0.10820893315E+02 0.22248701276E+02 0.40368269249E+02 0.62295249875E+02
 0.11596975272E+03 0.12400549217E+03 0.11597006851E+03 0.94629700977E+02 0.66857390927E+02
 0.40368063433E+02 0.20660850531E+02 0.95248683515E+01 0.52446231899E+01 0.40599969633E+01
 0.34415399529E+01 0.32429551345E+01 0.34414145882E+01 0.40599695779E+01 0.52446916507E+01
 0.95248558477E+01 0.20660846332E+02 0.40368269249E+02 0.66857608412E+02 0.94629569913E+02
 0.14164004380E+03 0.14163770588E+03 0.12400549217E+03 0.94627436771E+02 0.62296793278E+02
 0.34852323735E+02 0.16575356522E+02 0.75688352760E+01 0.47182517853E+01 0.38280338554E+01
 0.33888763555E+01 0.33878382015E+01 0.38265095342E+01 0.47185564599E+01 0.75703605310E+01
 0.16575323142E+02 0.34850044516E+02 0.62295249875E+02 0.94629569913E+02 0.12400999521E+03
 0.14163976419E+03 0.12400954302E+03 0.94629320062E+02 0.62295204060E+02 0.34849957718E+02
 0.16575233253E+02 0.75704672647E+01 0.47187404840E+01 0.38265053344E+01 0.33877377125E+01
 0.33889468584E+01 0.38281936603E+01 0.47182426240E+01 0.75687535120E+01 0.16575490403E+02
 0.34852614854E+02 0.62296969000E+02 0.94627513504E+02 0.12400563495E+03 0.14163776434E+03
 0.12400954302E+03 0.10113486226E+03 0.71444997595E+02 0.43180987485E+02 0.22121215731E+02
 0.10114908811E+02 0.54061208506E+01 0.41327703201E+01 0.34962015541E+01 0.32908654662E+01
 0.34965698189E+01 0.41323099159E+01 0.54052266118E+01 0.10115728042E+02 0.22124157000E+02
 0.43183106748E+02 0.71443230701E+02 0.10112985084E+03 0.12400525920E+03 0.13263627198E+03
 0.94629320062E+02 0.71444997595E+02 0.46332026015E+02 0.25557913769E+02 0.12290091991E+02
 0.61961753195E+01 0.43882360197E+01 0.36194148009E+01 0.32430277282E+01 0.32424883768E+01
 0.36182653671E+01 0.43877092459E+01 0.61971963417E+01 0.12291827407E+02 0.25558388125E+02
 0.46330709835E+02 0.71443510234E+02 0.94628953705E+02 0.10866464590E+03 0.10866451773E+03
 0.62295204060E+02 0.43180987485E+02 0.25557913769E+02 0.13146982493E+02 0.67435979063E+01
 0.45649263544E+01 0.37251018000E+01 0.32315014755E+01 0.30778467617E+01 0.32321038914E+01
 0.37253584274E+01 0.45644606059E+01 0.67429111519E+01 0.13146414834E+02 0.25557625606E+02
 0.43181677163E+02 0.62297246694E+02 0.77282758823E+02 0.82977604791E+02 0.77280737281E+02
 0.34849957718E+02 0.22121215731E+02 0.12290091991E+02 0.67435979063E+01 0.46350196008E+01
 0.37888741868E+01 0.32382335744E+01 0.29865321935E+01 0.29873965270E+01 0.32394176679E+01
 0.37883810147E+01 0.46333467353E+01 0.67428968260E+01 0.12291085934E+02 0.22122601504E+02
 0.34850487841E+02 0.47043705710E+02 0.54560123638E+02 0.54560321989E+02 0.47043924620E+02
 0.16575233253E+02 0.10114908811E+02 0.61961753195E+01 0.45649263544E+01 0.37888741868E+01
 0.32446996272E+01 0.29500729038E+01 0.28607980306E+01 0.29498732984E+01 0.32441705362E+01
 0.37884541213E+01 0.45653127705E+01 0.61971543567E+01 0.10115368696E+02 0.16574556976E+02
 0.24183389454E+02 0.30410624244E+02 0.32821573895E+02 0.30411500391E+02 0.24184638263E+02
 0.75704672647E+01 0.54061208506E+01 0.43882360197E+01 0.37251018000E+01 0.32382335744E+01
 0.29500729038E+01 0.28237358991E+01 0.28235459904E+01 0.29498030389E+01 0.32383562691E+01
 0.37254961066E+01 0.43881579726E+01 0.54052247575E+01 0.75695852700E+01 0.10922478456E+02
 0.14481416453E+02 0.16789387572E+02 0.16788665606E+02 0.14480164043E+02 0.10922203616E+02
 0.47187404840E+01 0.41327703201E+01 0.36194148009E+01 0.32315014755E+01 0.29865321935E+01
 0.28607980306E+01 0.28235459904E+01 0.28615565846E+01 0.29872456383E+01 0.32313307228E+01
 0.36182864499E+01 0.41315040261E+01 0.47184245086E+01 0.56022517327E+01 0.68537341340E+01
 0.80159108326E+01 0.84918700021E+01 0.80143869319E+01 0.68517588440E+01 0.56011319987E+01
 0.38265053344E+01 0.34962015541E+01 0.32430277282E+01 0.30778467617E+01 0.29873965270E+01
 0.29498732984E+01 0.29498030389E+01 0.29872456383E+01 0.30777297789E+01 0.32430242989E+01
 0.34963502694E+01 0.38268078051E+01 0.41916741735E+01 0.45317087229E+01 0.48458143459E+01
 0.50636158909E+01 0.50635816723E+01 0.48456670271E+01 0.45314075023E+01 0.41912993733E+01
 0.33877377125E+01 0.32908654662E+01 0.32424883768E+01 0.32321038914E+01 0.32394176679E+01
 0.32441705362E+01 0.32383562691E+01 0.32313307228E+01 0.32430242989E+01 0.32922064926E+01
 0.33885506596E+01 0.35287838901E+01 0.36942188006E+01 0.38524163156E+01 0.39664609822E+01
 0.40080226852E+01 0.39667869333E+01 0.38532139470E+01 0.36952080268E+01 0.35291357806E+01
 0.33889468584E+01 0.34965698189E+01 0.36182653671E+01 0.37253584274E+01 0.37883810147E+01
 0.37884541213E+01 0.37254961066E+01 0.36182864499E+01 0.34963502694E+01 0.33885506596E+01
 0.33147500521E+01 0.32827979822E+01 0.32879334462E+01 0.33131538986E+01 0.33346716243E+01
 0.33346280759E+01 0.33130616603E+01 0.32879050833E+01 0.32829605098E+01 0.33151123917E+01
 0.38281936603E+01 0.41323099159E+01 0.43877092459E+01 0.45644606059E+01 0.46333467353E+01
 0.45653127705E+01 0.43881579726E+01 0.41315040261E+01 0.38268078051E+01 0.35287838901E+01
 0.32827979822E+01 0.31103044409E+01 0.30090260932E+01 0.29617901950E+01 0.29490187185E+01
 0.29618326037E+01 0.30085891887E+01 0.31093477081E+01 0.32822069715E+01 0.35293916114E+01
 0.47182426240E+01 0.54052266118E+01 0.61971963417E+01 0.67429111519E+01 0.67428968260E+01
 0.61971543567E+01 0.54052247575E+01 0.47184245086E+01 0.41916741735E+01 0.36942188006E+01
 0.32879334462E+01 0.30090260932E+01 0.28482041490E+01 0.27779285175E+01 0.27780224846E+01
 0.28484228425E+01 0.30091821615E+01 0.32878245650E+01 0.36938490651E+01 0.41912885814E+01
 0.75687535120E+01 0.10115728042E+02 0.12291827407E+02 0.13146414834E+02 0.12291085934E+02
 0.10115368696E+02 0.75695852700E+01 0.56022517327E+01 0.45317087229E+01 0.38524163156E+01
 0.33131538986E+01 0.29617901950E+01 0.27779285175E+01 0.27221463299E+01 0.27775323521E+01
 0.29619294801E+01 0.33141052454E+01 0.38531272978E+01 0.45311498126E+01 0.56008591991E+01
 0.16575490403E+02 0.22124157000E+02 0.25558388125E+02 0.25557625606E+02 0.22122601504E+02
 0.16574556976E+02 0.10922478456E+02 0.68537341340E+01 0.48458143459E+01 0.39664609822E+01
 0.33346716243E+01 0.29490187185E+01 0.27780224846E+01 0.27775323521E+01 0.29482482105E+01
 0.33346376010E+01 0.39669630809E+01 0.48458386067E+01 0.68531037178E+01 0.10922219976E+02
 0.34852614854E+02 0.43183106748E+02 0.46330709835E+02 0.43181677163E+02 0.34850487841E+02
 0.24183389454E+02 0.14481416453E+02 0.80159108326E+01 0.50636158909E+01 0.40080226852E+01
 0.33346280759E+01 0.29618326037E+01 0.28484228425E+01 0.29619294801E+01 0.33346376010E+01
 0.40075691923E+01 0.50626011872E+01 0.80150178256E+01 0.14481656614E+02 0.24185005524E+02
 0.62296969000E+02 0.71443230701E+02 0.71443510234E+02 0.62297246694E+02 0.47043705710E+02
 0.30410624244E+02 0.16789387572E+02 0.84918700021E+01 0.50635816723E+01 0.39667869333E+01
 0.33130616603E+01 0.30085891887E+01 0.30091821615E+01 0.33141052454E+01 0.39669630809E+01
 0.50626011872E+01 0.84908359330E+01 0.16789407027E+02 0.30411438875E+02 0.47044174677E+02
 0.94627513504E+02 0.10112985084E+03 0.94628953705E+02 0.77282758823E+02 0.54560123638E+02
 0.32821573895E+02 0.16788665606E+02 0.80143869319E+01 0.48456670271E+01 0.38532139470E+01
 0.32879050833E+01 0.31093477081E+01 0.32878245650E+01 0.38531272978E+01 0.48458386067E+01
 0.80150178256E+01 0.16789407027E+02 0.32821600671E+02 0.54558939922E+02 0.77280850107E+02
 0.12400563495E+03 0.12400525920E+03 0.10866464590E+03 0.82977604791E+02 0.54560321989E+02
 0.30411500391E+02 0.14480164043E+02 0.68517588440E+01 0.45314075023E+01 0.36952080268E+01
 0.32829605098E+01 0.32822069715E+01 0.36938490651E+01 0.45311498126E+01 0.68531037178E+01
 0.14481656614E+02 0.30411438875E+02 0.54558939922E+02 0.82976659844E+02 0.10866490183E+03
 0.14163776434E+03 0.13263627198E+03 0.10866451773E+03 0.77280737281E+02 0.47043924620E+02
 0.24184638263E+02 0.10922203616E+02 0.56011319987E+01 0.41912993733E+01 0.35291357806E+01
 0.33151123917E+01 0.35293916114E+01 0.41912885814E+01 0.56008591991E+01 0.10922219976E+02
 0.24185005524E+02 0.47044174677E+02 0.77280850107E+02 0.10866490183E+03 0.13263677650E+03
 0.11596913702E+03 0.94628971765E+02 0.66857555166E+02 0.40368495809E+02 0.20660867874E+02
 0.95248449605E+01 0.52449822549E+01 0.40602674354E+01 0.34413369582E+01 0.32428077277E+01
 0.34417378078E+01 0.40602596291E+01 0.52445538991E+01 0.95247726303E+01 0.20661156852E+02
 0.40368476411E+02 0.66857430936E+02 0.94629538407E+02 0.11597002805E+03 0.12400530684E+03
 0.94628971765E+02 0.71444836824E+02 0.46332209848E+02 0.25558177024E+02 0.12290192946E+02
 0.61962490286E+01 0.43884196366E+01 0.36195331849E+01 0.32429601575E+01 0.32424479285E+01
 0.36184022151E+01 0.43878242100E+01 0.61971473106E+01 0.12291822570E+02 0.25558569626E+02
 0.46330839695E+02 0.71443377484E+02 0.94628711526E+02 0.10866445679E+03 0.10866426579E+03
 0.66857555166E+02 0.46332209848E+02 0.27415983508E+02 0.14044143601E+02 0.70608856150E+01
 0.46472462983E+01 0.37803601081E+01 0.32706663537E+01 0.31109778410E+01 0.32710315982E+01
 0.37804014791E+01 0.46470057172E+01 0.70610697128E+01 0.14044630076E+02 0.27415888014E+02
 0.46331484238E+02 0.66857070533E+02 0.82976506052E+02 0.89111028684E+02 0.82976486128E+02
 0.40368495809E+02 0.25558177024E+02 0.14044143601E+02 0.74115484157E+01 0.48128622353E+01
 0.38935987043E+01 0.33080654148E+01 0.30372343405E+01 0.30380865614E+01 0.33095161594E+01
 0.38939331530E+01 0.48119903942E+01 0.74106191267E+01 0.14043842062E+02 0.25558493645E+02
 0.40369389247E+02 0.54560277369E+02 0.63323844741E+02 0.63323274838E+02 0.54559110666E+02
 0.20660867874E+02 0.12290192946E+02 0.70608856150E+01 0.48128622353E+01 0.39349746695E+01
 0.33359071039E+01 0.30062190728E+01 0.29061106445E+01 0.30064159858E+01 0.33358425309E+01
 0.39346461734E+01 0.48127902047E+01 0.70612113140E+01 0.12290505726E+02 0.20660989792E+02
 0.30411483161E+02 0.38372624328E+02 0.41455156784E+02 0.38372386528E+02 0.30411309661E+02
 0.95248449605E+01 0.61962490286E+01 0.46472462983E+01 0.38935987043E+01 0.33359071039E+01
 0.29993078349E+01 0.28508641862E+01 0.28504078176E+01 0.29982783098E+01 0.33351566872E+01
 0.38938881906E+01 0.46484570770E+01 0.61973171691E+01 0.95247406965E+01 0.14480102434E+02
 0.19635795887E+02 0.22954976787E+02 0.22955617033E+02 0.19637286379E+02 0.14481381054E+02
 0.52449822549E+01 0.43884196366E+01 0.37803601081E+01 0.33080654148E+01 0.30062190728E+01
 0.28508641862E+01 0.28044902782E+01 0.28509294138E+01 0.30063318062E+01 0.33081492130E+01
 0.37803183564E+01 0.43882339923E+01 0.52447182550E+01 0.68530028510E+01 0.90774867731E+01
 0.11082055973E+02 0.11892817148E+02 0.11082211300E+02 0.90777317391E+01 0.68532778982E+01
 0.40602674354E+01 0.36195331849E+01 0.32706663537E+01 0.30372343405E+01 0.29061106445E+01
 0.28504078176E+01 0.28509294138E+01 0.29072509080E+01 0.30380129412E+01 0.32703253443E+01
 0.36182749996E+01 0.40591658921E+01 0.45315558649E+01 0.50974607450E+01 0.57667959368E+01
 0.62456118513E+01 0.62450334233E+01 0.57654568591E+01 0.50963367000E+01 0.45315367704E+01
 0.34413369582E+01 0.32429601575E+01 0.31109778410E+01 0.30380865614E+01 0.30064159858E+01
 0.29982783098E+01 0.30063318062E+01 0.30380129412E+01 0.31109740483E+01 0.32430381536E+01
 0.34415353925E+01 0.36940987388E+01 0.39653112407E+01 0.42055217215E+01 0.43699511679E+01
 0.44308956354E+01 0.43700119768E+01 0.42054518473E+01 0.39650408537E+01 0.36937860921E+01
 0.32428077277E+01 0.32424479285E+01 0.32710315982E+01 0.33095161594E+01 0.33358425309E+01
 0.33351566872E+01 0.33081492130E+01 0.32703253443E+01 0.32430381536E+01 0.32441047135E+01
 0.32827935130E+01 0.33572552718E+01 0.34525403827E+01 0.35422466757E+01 0.35970613049E+01
 0.35974888466E+01 0.35432703121E+01 0.34534878071E+01 0.33573983523E+01 0.32819036541E+01
 0.34417378078E+01 0.36184022151E+01 0.37804014791E+01 0.38939331530E+01 0.39346461734E+01
 0.38938881906E+01 0.37803183564E+01 0.36182749996E+01 0.34415353925E+01 0.32827935130E+01
 0.31642875236E+01 0.30938505469E+01 0.30651121820E+01 0.30608931154E+01 0.30622097654E+01
 0.30607638403E+01 0.30650433872E+01 0.30939869669E+01 0.31645763238E+01 0.32830818503E+01
 0.40602596291E+01 0.43878242100E+01 0.46470057172E+01 0.48119903942E+01 0.48127902047E+01
 0.46484570770E+01 0.43882339923E+01 0.40591658921E+01 0.36940987388E+01 0.33572552718E+01
 0.30938505469E+01 0.29179482244E+01 0.28191388103E+01 0.27772512204E+01 0.27771435876E+01
 0.28186923178E+01 0.29171661194E+01 0.30933367037E+01 0.33577894252E+01 0.36955554602E+01
 0.52445538991E+01 0.61971473106E+01 0.70610697128E+01 0.74106191267E+01 0.70612113140E+01
 0.61973171691E+01 0.52447182550E+01 0.45315558649E+01 0.39653112407E+01 0.34525403827E+01
 0.30651121820E+01 0.28191388103E+01 0.26912153944E+01 0.26525642197E+01 0.26913601385E+01
 0.28193192447E+01 0.30651581031E+01 0.34523708463E+01 0.39650325145E+01 0.45313259897E+01
 0.95247726303E+01 0.12291822570E+02 0.14044630076E+02 0.14043842062E+02 0.12290505726E+02
 0.95247406965E+01 0.68530028510E+01 0.50974607450E+01 0.42055217215E+01 0.35422466757E+01
 0.30608931154E+01 0.27772512204E+01 0.26525642197E+01 0.26523003972E+01 0.27770727871E+01
 0.30615942267E+01 0.35432846382E+01 0.42054554450E+01 0.50959291332E+01 0.68514628603E+01
 0.20661156852E+02 0.25558569626E+02 0.27415888014E+02 0.25558493645E+02 0.20660989792E+02
 0.14480102434E+02 0.90774867731E+01 0.57667959368E+01 0.43699511679E+01 0.35970613049E+01
 0.30622097654E+01 0.27771435876E+01 0.26913601385E+01 0.27770727871E+01 0.30620953129E+01
 0.35969634040E+01 0.43699456734E+01 0.57669250604E+01 0.90777160219E+01 0.14480340339E+02
 0.40368476411E+02 0.46330839695E+02 0.46331484238E+02 0.40369389247E+02 0.30411483161E+02
 0.19635795887E+02 0.11082055973E+02 0.62456118513E+01 0.44308956354E+01 0.35974888466E+01
 0.30607638403E+01 0.28186923178E+01 0.28193192447E+01 0.30615942267E+01 0.35969634040E+01
 0.44293744422E+01 0.62450618785E+01 0.11083406091E+02 0.19637663660E+02 0.30411974842E+02
 0.66857430936E+02 0.71443377484E+02 0.66857070533E+02 0.54560277369E+02 0.38372624328E+02
 0.22954976787E+02 0.11892817148E+02 0.62450334233E+01 0.43700119768E+01 0.35432703121E+01
 0.30650433872E+01 0.29171661194E+01 0.30651581031E+01 0.35432846382E+01 0.43699456734E+01
 0.62450618785E+01 0.11892815340E+02 0.22954725631E+02 0.38372368061E+02 0.54560426480E+02
 0.94629538407E+02 0.94628711526E+02 0.82976506052E+02 0.63323844741E+02 0.41455156784E+02
 0.22955617033E+02 0.11082211300E+02 0.57654568591E+01 0.42054518473E+01 0.34534878071E+01
 0.30939869669E+01 0.30933367037E+01 0.34523708463E+01 0.42054554450E+01 0.57669250604E+01
 0.11083406091E+02 0.22954725631E+02 0.41452944708E+02 0.63322862823E+02 0.82977474805E+02
 0.11597002805E+03 0.10866445679E+03 0.89111028684E+02 0.63323274838E+02 0.38372386528E+02
 0.19637286379E+02 0.90777317391E+01 0.50963367000E+01 0.39650408537E+01 0.33573983523E+01
 0.31645763238E+01 0.33577894252E+01 0.39650325145E+01 0.50959291332E+01 0.90777160219E+01
 0.19637663660E+02 0.38372368061E+02 0.63322862823E+02 0.89111015896E+02 0.10866484512E+03
 0.12400530684E+03 0.10866426579E+03 0.82976486128E+02 0.54559110666E+02 0.30411309661E+02
 0.14481381054E+02 0.68532778982E+01 0.45315367704E+01 0.36937860921E+01 0.32819036541E+01
 0.32830818503E+01 0.36955554602E+01 0.45313259897E+01 0.68514628603E+01 0.14480340339E+02
 0.30411974842E+02 0.54560426480E+02 0.82977474805E+02 0.10866484512E+03 0.12400552049E+03
 0.82463722322E+02 0.62294980992E+02 0.40368611328E+02 0.22249095315E+02 0.10820849097E+02
 0.57412260147E+01 0.42429390408E+01 0.35113127538E+01 0.31593529381E+01 0.31588513530E+01
 0.35104650167E+01 0.42428608245E+01 0.57418203487E+01 0.10820575267E+02 0.22247265765E+02
 0.40367334864E+02 0.62296994384E+02 0.82468129687E+02 0.94629673726E+02 0.94627326895E+02
 0.62294980992E+02 0.43181141030E+02 0.25558483719E+02 0.13147410990E+02 0.67436328087E+01
 0.45649575123E+01 0.37253231179E+01 0.32315647957E+01 0.30776402163E+01 0.32320404633E+01
 0.37255770473E+01 0.45645512991E+01 0.67427333414E+01 0.13146371964E+02 0.25557827151E+02
 0.43181650453E+02 0.62296796126E+02 0.77282312626E+02 0.82977416446E+02 0.77280549273E+02
 0.40368611328E+02 0.25558483719E+02 0.14044527497E+02 0.74117170531E+01 0.48128019143E+01
 0.38935630352E+01 0.33081128028E+01 0.30371910589E+01 0.30379579827E+01 0.33095013184E+01
 0.38940229602E+01 0.48119737448E+01 0.74104942433E+01 0.14043803342E+02 0.25558510668E+02
 0.40369227469E+02 0.54559949864E+02 0.63323627266E+02 0.63323262492E+02 0.54559163746E+02
 0.22249095315E+02 0.13147410990E+02 0.74117170531E+01 0.49110538110E+01 0.39844042332E+01
 0.33678348566E+01 0.30265772438E+01 0.29225407617E+01 0.30265795390E+01 0.33684637725E+01
 0.39856235447E+01 0.49116025055E+01 0.74105273625E+01 0.13145392743E+02 0.22248550000E+02
 0.32823754438E+02 0.41455720763E+02 0.44798085209E+02 0.41453507224E+02 0.32821936808E+02
 0.10820849097E+02 0.67436328087E+01 0.48128019143E+01 0.39844042332E+01 0.33898199208E+01
 0.30275139589E+01 0.28676061620E+01 0.28671039948E+01 0.30268110869E+01 0.33901404544E+01
 0.39855571587E+01 0.48133589979E+01 0.67428951729E+01 0.10819839916E+02 0.16789315343E+02
 0.22955775435E+02 0.26916076890E+02 0.26915418904E+02 0.22954668461E+02 0.16789212504E+02
 0.57412260147E+01 0.45649575123E+01 0.38935630352E+01 0.33678348566E+01 0.30275139589E+01
 0.28518196110E+01 0.27992731613E+01 0.28513528411E+01 0.30268793638E+01 0.33674689349E+01
 0.38938611519E+01 0.45659447357E+01 0.57421770804E+01 0.80145054384E+01 0.11081421465E+02
 0.13805679535E+02 0.14901911661E+02 0.13807268328E+02 0.11082984045E+02 0.80147021220E+01
 0.42429390408E+01 0.37253231179E+01 0.33081128028E+01 0.30265772438E+01 0.28676061620E+01
 0.27992731613E+01 0.27992365939E+01 0.28676053085E+01 0.30267103202E+01 0.33082671517E+01
 0.37254094262E+01 0.42429882124E+01 0.48458855303E+01 0.57662838023E+01 0.68777810143E+01
 0.76617907166E+01 0.76622933769E+01 0.68787877419E+01 0.57669655140E+01 0.48460433250E+01
 0.35113127538E+01 0.32315647957E+01 0.30371910589E+01 0.29225407617E+01 0.28671039948E+01
 0.28513528411E+01 0.28676053085E+01 0.29234773163E+01 0.30380204813E+01 0.32315261300E+01
 0.35103454989E+01 0.38524218745E+01 0.42055882670E+01 0.45175187814E+01 0.47755901335E+01
 0.48832216925E+01 0.47749449724E+01 0.45169123532E+01 0.42057849152E+01 0.38534429850E+01
 0.31593529381E+01 0.30776402163E+01 0.30379579827E+01 0.30265795390E+01 0.30268110869E+01
 0.30268793638E+01 0.30267103202E+01 0.30380204813E+01 0.30776390331E+01 0.31594748479E+01
 0.32879640863E+01 0.34525827822E+01 0.36261795593E+01 0.37715812740E+01 0.38544427668E+01
 0.38546427113E+01 0.37719029584E+01 0.36261768146E+01 0.34522279400E+01 0.32876106415E+01
 0.31588513530E+01 0.32320404633E+01 0.33095013184E+01 0.33684637725E+01 0.33901404544E+01
 0.33674689349E+01 0.33082671517E+01 0.32315261300E+01 0.31594748479E+01 0.31102912662E+01
 0.30938418375E+01 0.31094469934E+01 0.31450806754E+01 0.31803687071E+01 0.31953223857E+01
 0.31812430458E+01 0.31460322679E+01 0.31095704436E+01 0.30929226249E+01 0.31090151599E+01
 0.35104650167E+01 0.37255770473E+01 0.38940229602E+01 0.39856235447E+01 0.39855571587E+01
 0.38938611519E+01 0.37254094262E+01 0.35103454989E+01 0.32879640863E+01 0.30938418375E+01
 0.29491963378E+01 0.28583229004E+01 0.28120457131E+01 0.27947892863E+01 0.27946704832E+01
 0.28118590278E+01 0.28583324706E+01 0.29494088700E+01 0.30940616525E+01 0.32880961405E+01
 0.42428608245E+01 0.45645512991E+01 0.48119737448E+01 0.49116025055E+01 0.48133589979E+01
 0.45659447357E+01 0.42429882124E+01 0.38524218745E+01 0.34525827822E+01 0.31094469934E+01
 0.28583229004E+01 0.27006893334E+01 0.26189201030E+01 0.25940699947E+01 0.26184241836E+01
 0.26999908727E+01 0.28579707550E+01 0.31099451919E+01 0.34538399959E+01 0.38535192300E+01
 0.57418203487E+01 0.67427333414E+01 0.74104942433E+01 0.74105273625E+01 0.67428951729E+01
 0.57421770804E+01 0.48458855303E+01 0.42055882670E+01 0.36261795593E+01 0.31450806754E+01
 0.28120457131E+01 0.26189201030E+01 0.25339126670E+01 0.25338686590E+01 0.26188805944E+01
 0.28121414698E+01 0.31452512033E+01 0.36261947577E+01 0.42053126362E+01 0.48454459524E+01
 0.10820575267E+02 0.13146371964E+02 0.14043803342E+02 0.13145392743E+02 0.10819839916E+02
 0.80145054384E+01 0.57662838023E+01 0.45175187814E+01 0.37715812740E+01 0.31803687071E+01
 0.27947892863E+01 0.25940699947E+01 0.25338686590E+01 0.25943256706E+01 0.27953223994E+01
 0.31809090665E+01 0.37715336624E+01 0.45165685666E+01 0.57650228151E+01 0.80140507951E+01
 0.22247265765E+02 0.25557827151E+02 0.25558510668E+02 0.22248550000E+02 0.16789315343E+02
 0.11081421465E+02 0.68777810143E+01 0.47755901335E+01 0.38544427668E+01 0.31953223857E+01
 0.27946704832E+01 0.26184241836E+01 0.26188805944E+01 0.27953223994E+01 0.31951613675E+01
 0.38537869996E+01 0.47756370352E+01 0.68787843282E+01 0.11082221388E+02 0.16788857379E+02
 0.40367334864E+02 0.43181650453E+02 0.40369227469E+02 0.32823754438E+02 0.22955775435E+02
 0.13805679535E+02 0.76617907166E+01 0.48832216925E+01 0.38546427113E+01 0.31812430458E+01
 0.28118590278E+01 0.26999908727E+01 0.28121414698E+01 0.31809090665E+01 0.38537869996E+01
 0.48832917756E+01 0.76634742950E+01 0.13807542518E+02 0.22955836955E+02 0.32821885151E+02
 0.62296994384E+02 0.62296796126E+02 0.54559949864E+02 0.41455720763E+02 0.26916076890E+02
 0.14901911661E+02 0.76622933769E+01 0.47749449724E+01 0.37719029584E+01 0.31460322679E+01
 0.28583324706E+01 0.28579707550E+01 0.31452512033E+01 0.37715336624E+01 0.47756370352E+01
 0.76634742950E+01 0.14902211853E+02 0.26915183491E+02 0.41454832430E+02 0.54559914472E+02
 0.82468129687E+02 0.77282312626E+02 0.63323627266E+02 0.44798085209E+02 0.26915418904E+02
 0.13807268328E+02 0.68787877419E+01 0.45169123532E+01 0.36261768146E+01 0.31095704436E+01
 0.29494088700E+01 0.31099451919E+01 0.36261947577E+01 0.45165685666E+01 0.68787843282E+01
 0.13807542518E+02 0.26915183491E+02 0.44797358546E+02 0.63323253069E+02 0.77282440386E+02
 0.94629673726E+02 0.82977416446E+02 0.63323262492E+02 0.41453507224E+02 0.22954668461E+02
 0.11082984045E+02 0.57669655140E+01 0.42057849152E+01 0.34522279400E+01 0.30929226249E+01
 0.30940616525E+01 0.34538399959E+01 0.42053126362E+01 0.57650228151E+01 0.11082221388E+02
 0.22955836955E+02 0.41454832430E+02 0.63323253069E+02 0.82976509480E+02 0.94629167628E+02
 0.94627326895E+02 0.77280549273E+02 0.54559163746E+02 0.32821936808E+02 0.16789212504E+02
 0.80147021220E+01 0.48460433250E+01 0.38534429850E+01 0.32876106415E+01 0.31090151599E+01
 0.32880961405E+01 0.38535192300E+01 0.48454459524E+01 0.80140507951E+01 0.16788857379E+02
 0.32821885151E+02 0.54559914472E+02 0.77282440386E+02 0.94629167628E+02 0.10113018614E+03
 0.50260056031E+02 0.34849913595E+02 0.20661159403E+02 0.10821028826E+02 0.59502633464E+01
 0.43427639922E+01 0.35690070506E+01 0.31222757798E+01 0.29842200576E+01 0.31222325973E+01
 0.35689365756E+01 0.43426553394E+01 0.59501304451E+01 0.10820988383E+02 0.20661337879E+02
 0.34850272419E+02 0.50260408336E+02 0.62297146302E+02 0.66857721107E+02 0.62296950728E+02
 0.34849913595E+02 0.22121503888E+02 0.12290633496E+02 0.67437727224E+01 0.46347810657E+01
 0.37888063742E+01 0.32384309313E+01 0.29864932949E+01 0.29870928834E+01 0.32393775993E+01