   1   1   1   0
  0.1093000E+02  0.2491027E-09  0.2491027E-09  0.2491027E-09  0.5000000E-15
  1.000000000000000E-004
  CAR 
 Ni fcc bulk                             
     56.40563767     -2.37866886  301      9.29906510      1.00000000
     -2.379  0.0000E+00  0.0000E+00  0.0000E+00  0.0000E+00
     -2.183  0.0000E+00  0.0000E+00  0.0000E+00  0.0000E+00
     -1.987  0.0000E+00  0.0000E+00  0.0000E+00  0.0000E+00
     -1.791  0.0000E+00  0.0000E+00  0.0000E+00  0.0000E+00
     -1.595  0.0000E+00  0.0000E+00  0.0000E+00  0.0000E+00
     -1.399  0.0000E+00  0.0000E+00  0.0000E+00  0.0000E+00
     -1.203  0.0000E+00  0.0000E+00  0.0000E+00  0.0000E+00
     -1.007  0.0000E+00  0.0000E+00  0.0000E+00  0.0000E+00
     -0.811  0.0000E+00  0.0000E+00  0.0000E+00  0.0000E+00
     -0.615  0.0000E+00  0.0000E+00  0.0000E+00  0.0000E+00
     -0.419  0.0000E+00  0.0000E+00  0.0000E+00  0.0000E+00
     -0.223  0.0000E+00  0.0000E+00  0.0000E+00  0.0000E+00
     -0.027  0.0000E+00  0.0000E+00  0.0000E+00  0.0000E+00
      0.169  0.0000E+00  0.0000E+00  0.0000E+00  0.0000E+00
      0.365  0.1683E-03  0.1038E-02  0.1606E-05  0.2466E-04
      0.561  0.1035E-01  0.1460E-01  0.7750E-03  0.1300E-02
      0.756  0.1857E-01  0.1962E-01  0.4160E-02  0.4959E-02
      0.952  0.2413E-01  0.2527E-01  0.8332E-02  0.9347E-02
      1.148  0.3031E-01  0.3149E-01  0.1366E-01  0.1490E-01
      1.344  0.3568E-01  0.3612E-01  0.2017E-01  0.2158E-01
      1.540  0.3842E-01  0.3878E-01  0.2744E-01  0.2889E-01
      1.736  0.4276E-01  0.4304E-01  0.3538E-01  0.3690E-01
      1.932  0.4741E-01  0.4751E-01  0.4421E-01  0.4577E-01
      2.128  0.5228E-01  0.5218E-01  0.5398E-01  0.5553E-01
      2.324  0.5689E-01  0.5629E-01  0.6470E-01  0.6619E-01
      2.520  0.6188E-01  0.6073E-01  0.7633E-01  0.7765E-01
      2.716  0.6726E-01  0.6538E-01  0.8897E-01  0.9000E-01
      2.912  0.7338E-01  0.7058E-01  0.1027E+00  0.1033E+00
      3.108  0.8035E-01  0.7637E-01  0.1178E+00  0.1177E+00
      3.304  0.8795E-01  0.8257E-01  0.1343E+00  0.1333E+00
      3.500  0.9690E-01  0.8951E-01  0.1523E+00  0.1501E+00
      3.696  0.1107E+00  0.9884E-01  0.1726E+00  0.1685E+00
      3.892  0.1291E+00  0.1104E+00  0.1960E+00  0.1890E+00
      4.088  0.1535E+00  0.1241E+00  0.2235E+00  0.2119E+00
      4.284  0.1881E+00  0.1414E+00  0.2569E+00  0.2378E+00
      4.480  0.2352E+00  0.1630E+00  0.2979E+00  0.2676E+00
      4.675  0.3947E+00  0.1920E+00  0.3646E+00  0.3022E+00
      4.871  0.5864E+00  0.2790E+00  0.4628E+00  0.3458E+00
      5.067  0.6167E+00  0.4201E+00  0.5792E+00  0.4152E+00
      5.263  0.7709E+00  0.5229E+00  0.7063E+00  0.5133E+00
      5.459  0.1027E+01  0.5196E+00  0.8800E+00  0.6143E+00
      5.655  0.1044E+01  0.5258E+00  0.1094E+01  0.7144E+00
      5.851  0.6969E+00  0.7879E+00  0.1247E+01  0.8368E+00
      6.047  0.8981E+00  0.1033E+01  0.1428E+01  0.1021E+01
      6.243  0.8323E+00  0.5997E+00  0.1582E+01  0.1158E+01
      6.439  0.1365E+01  0.9552E+00  0.1761E+01  0.1307E+01
      6.635  0.1235E+01  0.7494E+00  0.2030E+01  0.1502E+01
      6.831  0.1555E+01  0.8127E+00  0.2279E+01  0.1640E+01
      7.027  0.2079E+01  0.1516E+01  0.2582E+01  0.1819E+01
      7.223  0.1680E+01  0.1246E+01  0.2913E+01  0.2065E+01
      7.419  0.1298E+01  0.1521E+01  0.3153E+01  0.2321E+01
      7.615  0.8994E+00  0.2028E+01  0.3355E+01  0.2612E+01
      7.811  0.1339E+01  0.2021E+01  0.3559E+01  0.2878E+01
      8.007  0.1680E+01  0.1198E+01  0.3861E+01  0.3143E+01
      8.203  0.1360E+01  0.9279E+00  0.4120E+01  0.3352E+01
      8.398  0.1304E+01  0.1318E+01  0.4368E+01  0.3556E+01
      8.594  0.1983E+01  0.1509E+01  0.4694E+01  0.3838E+01
      8.790  0.2098E+01  0.1207E+01  0.5158E+01  0.4076E+01
      8.986  0.2926E+00  0.1056E+01  0.5238E+01  0.4289E+01
      9.182  0.1804E+00  0.1416E+01  0.5273E+01  0.4520E+01
      9.378  0.1836E+00  0.2667E+01  0.5308E+01  0.4864E+01
      9.574  0.1766E+00  0.1347E+01  0.5344E+01  0.5190E+01
      9.770  0.1516E+00  0.3247E+00  0.5376E+01  0.5273E+01
      9.966  0.1466E+00  0.2099E+00  0.5405E+01  0.5314E+01
     10.162  0.1465E+00  0.2021E+00  0.5433E+01  0.5354E+01
     10.358  0.1470E+00  0.1706E+00  0.5462E+01  0.5391E+01
     10.554  0.1477E+00  0.1647E+00  0.5491E+01  0.5423E+01
     10.750  0.1483E+00  0.1637E+00  0.5520E+01  0.5455E+01
     10.946  0.1483E+00  0.1634E+00  0.5549E+01  0.5487E+01
     11.142  0.1396E+00  0.1638E+00  0.5578E+01  0.5520E+01
     11.338  0.1345E+00  0.1640E+00  0.5604E+01  0.5552E+01
     11.534  0.1318E+00  0.1554E+00  0.5630E+01  0.5583E+01
     11.730  0.1299E+00  0.1460E+00  0.5656E+01  0.5613E+01
     11.926  0.1280E+00  0.1410E+00  0.5681E+01  0.5641E+01
     12.121  0.1259E+00  0.1371E+00  0.5706E+01  0.5668E+01
     12.317  0.1469E+00  0.1335E+00  0.5731E+01  0.5694E+01
     12.513  0.1205E+00  0.1365E+00  0.5756E+01  0.5722E+01
     12.709  0.1191E+00  0.1275E+00  0.5780E+01  0.5747E+01
     12.905  0.1171E+00  0.1253E+00  0.5803E+01  0.5772E+01
     13.101  0.1096E+00  0.1224E+00  0.5825E+01  0.5796E+01
     13.297  0.1063E+00  0.1164E+00  0.5846E+01  0.5819E+01
     13.493  0.1010E+00  0.1099E+00  0.5867E+01  0.5841E+01
     13.689  0.9411E-01  0.1049E+00  0.5886E+01  0.5862E+01
     13.885  0.8550E-01  0.9814E-01  0.5903E+01  0.5882E+01
     14.081  0.7634E-01  0.8988E-01  0.5919E+01  0.5901E+01
     14.277  0.7646E-01  0.8223E-01  0.5935E+01  0.5917E+01
     14.473  0.6437E-01  0.7179E-01  0.5948E+01  0.5933E+01
     14.669  0.6143E-01  0.6657E-01  0.5960E+01  0.5947E+01
     14.865  0.4728E-01  0.6280E-01  0.5971E+01  0.5960E+01
     15.061  0.3421E-01  0.4834E-01  0.5979E+01  0.5971E+01
     15.257  0.6369E-01  0.3474E-01  0.5988E+01  0.5979E+01
     15.453  0.8804E-01  0.2630E-01  0.6003E+01  0.5985E+01
     15.649  0.1413E+00  0.7238E-01  0.6024E+01  0.5994E+01
     15.844  0.1051E+00  0.1076E+00  0.6050E+01  0.6012E+01
     16.040  0.1158E+00  0.1513E+00  0.6072E+01  0.6040E+01
     16.236  0.1412E+00  0.1208E+00  0.6097E+01  0.6064E+01
     16.432  0.1829E+00  0.1470E+00  0.6128E+01  0.6090E+01
     16.628  0.1815E+00  0.1905E+00  0.6166E+01  0.6122E+01
     16.824  0.1790E+00  0.1911E+00  0.6200E+01  0.6162E+01
     17.020  0.1673E+00  0.1853E+00  0.6235E+01  0.6198E+01
     17.216  0.1382E+00  0.1710E+00  0.6265E+01  0.6233E+01
     17.412  0.1230E+00  0.1409E+00  0.6290E+01  0.6264E+01
     17.608  0.1153E+00  0.1255E+00  0.6313E+01  0.6290E+01
     17.804  0.1124E+00  0.1180E+00  0.6336E+01  0.6313E+01
     18.000  0.1104E+00  0.1150E+00  0.6357E+01  0.6336E+01
     18.196  0.1090E+00  0.1128E+00  0.6379E+01  0.6358E+01
     18.392  0.1080E+00  0.1112E+00  0.6400E+01  0.6380E+01
     18.588  0.1109E+00  0.1101E+00  0.6421E+01  0.6402E+01
     18.784  0.1513E+00  0.1089E+00  0.6447E+01  0.6424E+01
     18.980  0.1508E+00  0.1580E+00  0.6478E+01  0.6450E+01
     19.176  0.1412E+00  0.1522E+00  0.6506E+01  0.6481E+01
     19.372  0.1240E+00  0.1424E+00  0.6532E+01  0.6510E+01
     19.567  0.1495E+00  0.1269E+00  0.6558E+01  0.6536E+01
     19.763  0.1953E+00  0.1911E+00  0.6595E+01  0.6566E+01
     19.959  0.1690E+00  0.1904E+00  0.6631E+01  0.6603E+01
     20.155  0.1754E+00  0.1725E+00  0.6664E+01  0.6638E+01
     20.351  0.1735E+00  0.1807E+00  0.6699E+01  0.6673E+01
     20.547  0.1617E+00  0.1695E+00  0.6731E+01  0.6708E+01
     20.743  0.1636E+00  0.1655E+00  0.6763E+01  0.6740E+01
     20.939  0.1669E+00  0.1678E+00  0.6796E+01  0.6773E+01
     21.135  0.1720E+00  0.1718E+00  0.6829E+01  0.6806E+01
     21.331  0.1884E+00  0.1801E+00  0.6864E+01  0.6840E+01
     21.527  0.2080E+00  0.1966E+00  0.6902E+01  0.6877E+01
     21.723  0.1913E+00  0.1931E+00  0.6939E+01  0.6917E+01
     21.919  0.1748E+00  0.1769E+00  0.6974E+01  0.6953E+01
     22.115  0.1783E+00  0.1796E+00  0.7008E+01  0.6988E+01
     22.311  0.1928E+00  0.2074E+00  0.7045E+01  0.7025E+01
     22.507  0.1930E+00  0.1925E+00  0.7082E+01  0.7062E+01
     22.703  0.2027E+00  0.2016E+00  0.7121E+01  0.7101E+01
     22.899  0.2067E+00  0.2093E+00  0.7161E+01  0.7141E+01
     23.095  0.2051E+00  0.2086E+00  0.7201E+01  0.7182E+01
     23.290  0.2042E+00  0.2085E+00  0.7242E+01  0.7223E+01
     23.486  0.2023E+00  0.2041E+00  0.7281E+01  0.7264E+01
     23.682  0.2078E+00  0.2092E+00  0.7321E+01  0.7304E+01
     23.878  0.2148E+00  0.2157E+00  0.7363E+01  0.7346E+01
     24.074  0.2226E+00  0.2238E+00  0.7406E+01  0.7389E+01
     24.270  0.2282E+00  0.2299E+00  0.7450E+01  0.7433E+01
     24.466  0.2192E+00  0.2216E+00  0.7495E+01  0.7479E+01
     24.662  0.2195E+00  0.2206E+00  0.7538E+01  0.7522E+01
     24.858  0.2211E+00  0.2227E+00  0.7581E+01  0.7566E+01
     25.054  0.2240E+00  0.2250E+00  0.7625E+01  0.7609E+01
     25.250  0.2131E+00  0.2163E+00  0.7668E+01  0.7653E+01
     25.446  0.2056E+00  0.2079E+00  0.7709E+01  0.7694E+01
     25.642  0.2026E+00  0.2043E+00  0.7748E+01  0.7735E+01
     25.838  0.2014E+00  0.2026E+00  0.7788E+01  0.7775E+01
     26.034  0.2010E+00  0.2023E+00  0.7827E+01  0.7814E+01
     26.230  0.1987E+00  0.2007E+00  0.7867E+01  0.7854E+01
     26.426  0.1964E+00  0.1986E+00  0.7905E+01  0.7893E+01
     26.622  0.1913E+00  0.1943E+00  0.7943E+01  0.7931E+01
     26.818  0.1881E+00  0.1899E+00  0.7980E+01  0.7969E+01
     27.013  0.1853E+00  0.1876E+00  0.8017E+01  0.8006E+01
     27.209  0.1816E+00  0.1842E+00  0.8053E+01  0.8042E+01
     27.405  0.1767E+00  0.1795E+00  0.8088E+01  0.8078E+01
     27.601  0.1728E+00  0.1755E+00  0.8122E+01  0.8113E+01
     27.797  0.1694E+00  0.1719E+00  0.8156E+01  0.8147E+01
     27.993  0.1663E+00  0.1688E+00  0.8189E+01  0.8180E+01
     28.189  0.1635E+00  0.1659E+00  0.8221E+01  0.8213E+01
     28.385  0.1609E+00  0.1632E+00  0.8253E+01  0.8245E+01
     28.581  0.1585E+00  0.1608E+00  0.8284E+01  0.8277E+01
     28.777  0.1564E+00  0.1587E+00  0.8315E+01  0.8308E+01
     28.973  0.1550E+00  0.1570E+00  0.8345E+01  0.8339E+01
     29.169  0.1545E+00  0.1552E+00  0.8376E+01  0.8370E+01
     29.365  0.1583E+00  0.1572E+00  0.8406E+01  0.8400E+01
     29.561  0.1635E+00  0.1634E+00  0.8438E+01  0.8432E+01
     29.757  0.1685E+00  0.1696E+00  0.8470E+01  0.8464E+01
     29.953  0.1718E+00  0.1735E+00  0.8504E+01  0.8498E+01
     30.149  0.1763E+00  0.1769E+00  0.8538E+01  0.8532E+01
     30.345  0.1810E+00  0.1814E+00  0.8573E+01  0.8567E+01
     30.541  0.1848E+00  0.1855E+00  0.8609E+01  0.8603E+01
     30.736  0.1900E+00  0.1895E+00  0.8645E+01  0.8640E+01
     30.932  0.1969E+00  0.1968E+00  0.8683E+01  0.8678E+01
     31.128  0.2026E+00  0.2031E+00  0.8722E+01  0.8717E+01
     31.324  0.2088E+00  0.2090E+00  0.8763E+01  0.8757E+01
     31.520  0.2165E+00  0.2171E+00  0.8804E+01  0.8799E+01
     31.716  0.2251E+00  0.2269E+00  0.8847E+01  0.8843E+01
     31.912  0.2338E+00  0.2360E+00  0.8892E+01  0.8888E+01
     32.108  0.2435E+00  0.2453E+00  0.8939E+01  0.8935E+01
     32.304  0.2531E+00  0.2544E+00  0.8988E+01  0.8984E+01
     32.500  0.2641E+00  0.2617E+00  0.9038E+01  0.9035E+01
     32.696  0.2890E+00  0.2857E+00  0.9093E+01  0.9088E+01
     32.892  0.2917E+00  0.2912E+00  0.9150E+01  0.9145E+01
     33.088  0.2925E+00  0.2909E+00  0.9207E+01  0.9202E+01
     33.284  0.2934E+00  0.2910E+00  0.9265E+01  0.9259E+01
     33.480  0.2933E+00  0.2903E+00  0.9322E+01  0.9316E+01
     33.676  0.2921E+00  0.2888E+00  0.9379E+01  0.9373E+01
     33.872  0.2910E+00  0.2874E+00  0.9437E+01  0.9429E+01
     34.068  0.3034E+00  0.3062E+00  0.9495E+01  0.9487E+01
     34.264  0.3077E+00  0.3070E+00  0.9556E+01  0.9549E+01
     34.459  0.2603E+00  0.2610E+00  0.9610E+01  0.9603E+01
     34.655  0.2476E+00  0.2489E+00  0.9659E+01  0.9653E+01
     34.851  0.2358E+00  0.2374E+00  0.9707E+01  0.9701E+01
     35.047  0.2268E+00  0.2278E+00  0.9752E+01  0.9746E+01
     35.243  0.2193E+00  0.2206E+00  0.9796E+01  0.9790E+01
     35.439  0.2115E+00  0.2125E+00  0.9838E+01  0.9833E+01
     35.635  0.1999E+00  0.1984E+00  0.9878E+01  0.9873E+01
     35.831  0.1845E+00  0.1860E+00  0.9916E+01  0.9910E+01
     36.027  0.1801E+00  0.1824E+00  0.9951E+01  0.9946E+01
     36.223  0.1714E+00  0.1729E+00  0.9986E+01  0.9981E+01
     36.419  0.1510E+00  0.1521E+00  0.1002E+02  0.1001E+02
     36.615  0.1344E+00  0.1344E+00  0.1005E+02  0.1004E+02
     36.811  0.1227E+00  0.1219E+00  0.1007E+02  0.1007E+02
     37.007  0.1147E+00  0.1135E+00  0.1009E+02  0.1009E+02
     37.203  0.1116E+00  0.1103E+00  0.1012E+02  0.1011E+02
     37.399  0.1082E+00  0.1060E+00  0.1014E+02  0.1013E+02
     37.595  0.8998E-01  0.8820E-01  0.1016E+02  0.1015E+02
     37.791  0.9204E-01  0.9081E-01  0.1017E+02  0.1017E+02
     37.987  0.1016E+00  0.1013E+00  0.1019E+02  0.1019E+02
     38.183  0.1402E+00  0.1373E+00  0.1022E+02  0.1021E+02
     38.378  0.1960E+00  0.2077E+00  0.1025E+02  0.1024E+02
     38.574  0.2670E+00  0.2628E+00  0.1030E+02  0.1029E+02
     38.770  0.3433E+00  0.3216E+00  0.1035E+02  0.1034E+02
     38.966  0.3627E+00  0.3646E+00  0.1042E+02  0.1042E+02
     39.162  0.3479E+00  0.3602E+00  0.1049E+02  0.1049E+02
     39.358  0.3919E+00  0.3857E+00  0.1057E+02  0.1056E+02
     39.554  0.2616E+00  0.2660E+00  0.1062E+02  0.1062E+02
     39.750  0.2598E+00  0.2631E+00  0.1067E+02  0.1067E+02
     39.946  0.2634E+00  0.2643E+00  0.1073E+02  0.1072E+02
     40.142  0.2638E+00  0.2645E+00  0.1078E+02  0.1078E+02
     40.338  0.2611E+00  0.2618E+00  0.1083E+02  0.1083E+02
     40.534  0.2475E+00  0.2473E+00  0.1088E+02  0.1088E+02
     40.730  0.2337E+00  0.2336E+00  0.1093E+02  0.1092E+02
     40.926  0.2312E+00  0.2325E+00  0.1097E+02  0.1097E+02
     41.122  0.2225E+00  0.2236E+00  0.1102E+02  0.1101E+02
     41.318  0.2273E+00  0.2264E+00  0.1106E+02  0.1106E+02
     41.514  0.2136E+00  0.2154E+00  0.1110E+02  0.1110E+02
     41.710  0.1910E+00  0.1918E+00  0.1114E+02  0.1114E+02
     41.906  0.1701E+00  0.1722E+00  0.1118E+02  0.1118E+02
     42.101  0.1572E+00  0.1592E+00  0.1121E+02  0.1121E+02
     42.297  0.1613E+00  0.1560E+00  0.1124E+02  0.1124E+02
     42.493  0.1289E+00  0.1313E+00  0.1127E+02  0.1127E+02
     42.689  0.1353E+00  0.1360E+00  0.1129E+02  0.1129E+02
     42.885  0.1414E+00  0.1405E+00  0.1132E+02  0.1132E+02
     43.081  0.1593E+00  0.1596E+00  0.1135E+02  0.1135E+02
     43.277  0.1855E+00  0.1847E+00  0.1138E+02  0.1138E+02
     43.473  0.1988E+00  0.1951E+00  0.1142E+02  0.1142E+02
     43.669  0.1858E+00  0.1834E+00  0.1146E+02  0.1146E+02
     43.865  0.1793E+00  0.1776E+00  0.1150E+02  0.1149E+02
     44.061  0.1722E+00  0.1719E+00  0.1153E+02  0.1153E+02
     44.257  0.1717E+00  0.1746E+00  0.1156E+02  0.1156E+02
     44.453  0.1608E+00  0.1636E+00  0.1160E+02  0.1160E+02
     44.649  0.1529E+00  0.1556E+00  0.1163E+02  0.1163E+02
     44.845  0.1481E+00  0.1509E+00  0.1166E+02  0.1166E+02
     45.041  0.1447E+00  0.1462E+00  0.1169E+02  0.1169E+02
     45.237  0.1389E+00  0.1405E+00  0.1171E+02  0.1171E+02
     45.433  0.1307E+00  0.1320E+00  0.1174E+02  0.1174E+02
     45.629  0.1210E+00  0.1221E+00  0.1176E+02  0.1177E+02
     45.824  0.1098E+00  0.1106E+00  0.1179E+02  0.1179E+02
     46.020  0.9667E-01  0.9724E-01  0.1181E+02  0.1181E+02
     46.216  0.8323E-01  0.8369E-01  0.1183E+02  0.1183E+02
     46.412  0.6987E-01  0.7016E-01  0.1184E+02  0.1184E+02
     46.608  0.5830E-01  0.5790E-01  0.1185E+02  0.1185E+02
     46.804  0.4909E-01  0.4833E-01  0.1186E+02  0.1186E+02
     47.000  0.4222E-01  0.4145E-01  0.1187E+02  0.1187E+02
     47.196  0.3837E-01  0.3817E-01  0.1188E+02  0.1188E+02
     47.392  0.3655E-01  0.3639E-01  0.1189E+02  0.1189E+02
     47.588  0.3513E-01  0.3499E-01  0.1189E+02  0.1190E+02
     47.784  0.3380E-01  0.3363E-01  0.1190E+02  0.1190E+02
     47.980  0.3247E-01  0.3227E-01  0.1191E+02  0.1191E+02
     48.176  0.3114E-01  0.3092E-01  0.1191E+02  0.1191E+02
     48.372  0.2981E-01  0.2958E-01  0.1192E+02  0.1192E+02
     48.568  0.2848E-01  0.2823E-01  0.1193E+02  0.1193E+02
     48.764  0.2715E-01  0.2689E-01  0.1193E+02  0.1193E+02
     48.960  0.2583E-01  0.2555E-01  0.1194E+02  0.1194E+02
     49.156  0.2452E-01  0.2422E-01  0.1194E+02  0.1194E+02
     49.352  0.2323E-01  0.2291E-01  0.1195E+02  0.1195E+02
     49.547  0.2199E-01  0.2172E-01  0.1195E+02  0.1195E+02
     49.743  0.2100E-01  0.2075E-01  0.1195E+02  0.1196E+02
     49.939  0.2007E-01  0.1983E-01  0.1196E+02  0.1196E+02
     50.135  0.1917E-01  0.1894E-01  0.1196E+02  0.1196E+02
     50.331  0.1829E-01  0.1806E-01  0.1197E+02  0.1197E+02
     50.527  0.1742E-01  0.1720E-01  0.1197E+02  0.1197E+02
     50.723  0.1658E-01  0.1637E-01  0.1197E+02  0.1197E+02
     50.919  0.1575E-01  0.1555E-01  0.1198E+02  0.1198E+02
     51.115  0.1494E-01  0.1475E-01  0.1198E+02  0.1198E+02
     51.311  0.1416E-01  0.1397E-01  0.1198E+02  0.1198E+02
     51.507  0.1332E-01  0.1312E-01  0.1198E+02  0.1198E+02
     51.703  0.1239E-01  0.1219E-01  0.1199E+02  0.1199E+02
     51.899  0.1139E-01  0.1118E-01  0.1199E+02  0.1199E+02
     52.095  0.1031E-01  0.1011E-01  0.1199E+02  0.1199E+02
     52.291  0.9167E-02  0.8965E-02  0.1199E+02  0.1199E+02
     52.487  0.8068E-02  0.7900E-02  0.1199E+02  0.1200E+02
     52.683  0.6958E-02  0.6785E-02  0.1200E+02  0.1200E+02
     52.879  0.5744E-02  0.5570E-02  0.1200E+02  0.1200E+02
     53.075  0.4426E-02  0.4256E-02  0.1200E+02  0.1200E+02
     53.270  0.3005E-02  0.2843E-02  0.1200E+02  0.1200E+02
     53.466  0.1559E-02  0.1403E-02  0.1200E+02  0.1200E+02
     53.662  0.3654E-03  0.2384E-03  0.1200E+02  0.1200E+02
     53.858  0.0000E+00  0.0000E+00  0.1200E+02  0.1200E+02
     54.054  0.0000E+00  0.0000E+00  0.1200E+02  0.1200E+02
     54.250  0.0000E+00  0.0000E+00  0.1200E+02  0.1200E+02
     54.446  0.0000E+00  0.0000E+00  0.1200E+02  0.1200E+02
     54.642  0.0000E+00  0.0000E+00  0.1200E+02  0.1200E+02
     54.838  0.0000E+00  0.0000E+00  0.1200E+02  0.1200E+02
     55.034  0.0000E+00  0.0000E+00  0.1200E+02  0.1200E+02
     55.230  0.0000E+00  0.0000E+00  0.1200E+02  0.1200E+02
     55.426  0.0000E+00  0.0000E+00  0.1200E+02  0.1200E+02
     55.622  0.0000E+00  0.0000E+00  0.1200E+02  0.1200E+02
     55.818  0.0000E+00  0.0000E+00  0.1200E+02  0.1200E+02
     56.014  0.0000E+00  0.0000E+00  0.1200E+02  0.1200E+02
     56.210  0.0000E+00  0.0000E+00  0.1200E+02  0.1200E+02
     56.406  0.0000E+00  0.0000E+00  0.1200E+02  0.1200E+02
     56.40563767     -2.37866886  301      9.29906510      1.00000000
     -2.379  0.0000E+00  0.0000E+00  0.0000E+00  0.0000E+00  0.0000E+00  0.0000E+00  0.0000E+00  0.0000E+00  0.0000E+00  0.0000E+00  0.0000E+00  0.0000E+00  0.0000E+00  0.0000E+00  0.0000E+00  0.0000E+00  0.0000E+00  0.0000E+00
     -2.183  0.0000E+00  0.0000E+00  0.0000E+00  0.0000E+00  0.0000E+00  0.0000E+00  0.0000E+00  0.0000E+00  0.0000E+00  0.0000E+00  0.0000E+00  0.0000E+00  0.0000E+00  0.0000E+00  0.0000E+00  0.0000E+00  0.0000E+00  0.0000E+00
     -1.987  0.0000E+00  0.0000E+00  0.0000E+00  0.0000E+00  0.0000E+00  0.0000E+00  0.0000E+00  0.0000E+00  0.0000E+00  0.0000E+00  0.0000E+00  0.0000E+00  0.0000E+00  0.0000E+00  0.0000E+00  0.0000E+00  0.0000E+00  0.0000E+00
     -1.791  0.0000E+00  0.0000E+00  0.0000E+00  0.0000E+00  0.0000E+00  0.0000E+00  0.0000E+00  0.0000E+00  0.0000E+00  0.0000E+00  0.0000E+00  0.0000E+00  0.0000E+00  0.0000E+00  0.0000E+00  0.0000E+00  0.0000E+00  0.0000E+00
     -1.595  0.0000E+00  0.0000E+00  0.0000E+00  0.0000E+00  0.0000E+00  0.0000E+00  0.0000E+00  0.0000E+00  0.0000E+00  0.0000E+00  0.0000E+00  0.0000E+00  0.0000E+00  0.0000E+00  0.0000E+00  0.0000E+00  0.0000E+00  0.0000E+00
     -1.399  0.0000E+00  0.0000E+00  0.0000E+00  0.0000E+00  0.0000E+00  0.0000E+00  0.0000E+00  0.0000E+00  0.0000E+00  0.0000E+00  0.0000E+00  0.0000E+00  0.0000E+00  0.0000E+00  0.0000E+00  0.0000E+00  0.0000E+00  0.0000E+00
     -1.203  0.0000E+00  0.0000E+00  0.0000E+00  0.0000E+00  0.0000E+00  0.0000E+00  0.0000E+00  0.0000E+00  0.0000E+00  0.0000E+00  0.0000E+00  0.0000E+00  0.0000E+00  0.0000E+00  0.0000E+00  0.0000E+00  0.0000E+00  0.0000E+00
     -1.007  0.0000E+00  0.0000E+00  0.0000E+00  0.0000E+00  0.0000E+00  0.0000E+00  0.0000E+00  0.0000E+00  0.0000E+00  0.0000E+00  0.0000E+00  0.0000E+00  0.0000E+00  0.0000E+00  0.0000E+00  0.0000E+00  0.0000E+00  0.0000E+00
     -0.811  0.0000E+00  0.0000E+00  0.0000E+00  0.0000E+00  0.0000E+00  0.0000E+00  0.0000E+00  0.0000E+00  0.0000E+00  0.0000E+00  0.0000E+00  0.0000E+00  0.0000E+00  0.0000E+00  0.0000E+00  0.0000E+00  0.0000E+00  0.0000E+00
     -0.615  0.0000E+00  0.0000E+00  0.0000E+00  0.0000E+00  0.0000E+00  0.0000E+00  0.0000E+00  0.0000E+00  0.0000E+00  0.0000E+00  0.0000E+00  0.0000E+00  0.0000E+00  0.0000E+00  0.0000E+00  0.0000E+00  0.0000E+00  0.0000E+00
     -0.419  0.0000E+00  0.0000E+00  0.0000E+00  0.0000E+00  0.0000E+00  0.0000E+00  0.0000E+00  0.0000E+00  0.0000E+00  0.0000E+00  0.0000E+00  0.0000E+00  0.0000E+00  0.0000E+00  0.0000E+00  0.0000E+00  0.0000E+00  0.0000E+00
     -0.223  0.0000E+00  0.0000E+00  0.0000E+00  0.0000E+00  0.0000E+00  0.0000E+00  0.0000E+00  0.0000E+00  0.0000E+00  0.0000E+00  0.0000E+00  0.0000E+00  0.0000E+00  0.0000E+00  0.0000E+00  0.0000E+00  0.0000E+00  0.0000E+00
     -0.027  0.0000E+00  0.0000E+00  0.0000E+00  0.0000E+00  0.0000E+00  0.0000E+00  0.0000E+00  0.0000E+00  0.0000E+00  0.0000E+00  0.0000E+00  0.0000E+00  0.0000E+00  0.0000E+00  0.0000E+00  0.0000E+00  0.0000E+00  0.0000E+00
      0.169  0.0000E+00  0.0000E+00  0.0000E+00  0.0000E+00  0.0000E+00  0.0000E+00  0.0000E+00  0.0000E+00  0.0000E+00  0.0000E+00  0.0000E+00  0.0000E+00  0.0000E+00  0.0000E+00  0.0000E+00  0.0000E+00  0.0000E+00  0.0000E+00
      0.365  0.1190E-03  0.7344E-03  0.1008E-05  0.6243E-05  0.1008E-05  0.6243E-05  0.1008E-05  0.6243E-05  0.1769E-07  0.9403E-07  0.1769E-07  0.9403E-07  0.1821E-07  0.1023E-06  0.1769E-07  0.9403E-07  0.1821E-07  0.1023E-06
      0.561  0.7321E-02  0.1033E-01  0.6197E-04  0.8779E-04  0.6197E-04  0.8779E-04  0.6197E-04  0.8779E-04  0.1088E-05  0.1322E-05  0.1088E-05  0.1322E-05  0.1120E-05  0.1439E-05  0.1088E-05  0.1322E-05  0.1120E-05  0.1439E-05
      0.756  0.1279E-01  0.1346E-01  0.2176E-03  0.2494E-03  0.2176E-03  0.2494E-03  0.2176E-03  0.2494E-03  0.9041E-05  0.9481E-05  0.9041E-05  0.9481E-05  0.6014E-05  0.7347E-05  0.9041E-05  0.9481E-05  0.6014E-05  0.7347E-05
      0.952  0.1633E-01  0.1705E-01  0.3717E-03  0.4074E-03  0.3717E-03  0.4074E-03  0.3717E-03  0.4074E-03  0.2037E-04  0.1945E-04  0.2037E-04  0.1945E-04  0.1664E-04  0.1709E-04  0.2037E-04  0.1945E-04  0.1664E-04  0.1709E-04
      1.148  0.2024E-01  0.2099E-01  0.5457E-03  0.5852E-03  0.5457E-03  0.5852E-03  0.5457E-03  0.5852E-03  0.3490E-04  0.3207E-04  0.3490E-04  0.3207E-04  0.2887E-04  0.2821E-04  0.3490E-04  0.3207E-04  0.2887E-04  0.2821E-04
      1.344  0.2338E-01  0.2354E-01  0.7661E-03  0.8223E-03  0.7661E-03  0.8223E-03  0.7661E-03  0.8223E-03  0.6345E-04  0.6033E-04  0.6345E-04  0.6033E-04  0.5007E-04  0.5046E-04  0.6345E-04  0.6033E-04  0.5007E-04  0.5046E-04
      1.540  0.2427E-01  0.2442E-01  0.1063E-02  0.1115E-02  0.1063E-02  0.1115E-02  0.1063E-02  0.1115E-02  0.1218E-03  0.1087E-03  0.1218E-03  0.1087E-03  0.8982E-04  0.8669E-04  0.1218E-03  0.1087E-03  0.8982E-04  0.8669E-04
      1.736  0.2640E-01  0.2653E-01  0.1329E-02  0.1378E-02  0.1329E-02  0.1378E-02  0.1329E-02  0.1378E-02  0.1858E-03  0.1595E-03  0.1858E-03  0.1595E-03  0.1410E-03  0.1324E-03  0.1858E-03  0.1595E-03  0.1410E-03  0.1324E-03
      1.932  0.2866E-01  0.2872E-01  0.1605E-02  0.1653E-02  0.1605E-02  0.1653E-02  0.1605E-02  0.1653E-02  0.2603E-03  0.2180E-03  0.2603E-03  0.2180E-03  0.2060E-03  0.1891E-03  0.2603E-03  0.2180E-03  0.2060E-03  0.1891E-03
      2.128  0.3101E-01  0.3098E-01  0.1894E-02  0.1939E-02  0.1894E-02  0.1939E-02  0.1894E-02  0.1939E-02  0.3459E-03  0.2844E-03  0.3459E-03  0.2844E-03  0.2829E-03  0.2542E-03  0.3459E-03  0.2844E-03  0.2829E-03  0.2542E-03
      2.324  0.3272E-01  0.3236E-01  0.2264E-02  0.2320E-02  0.2264E-02  0.2320E-02  0.2264E-02  0.2320E-02  0.4973E-03  0.4127E-03  0.4973E-03  0.4127E-03  0.3877E-03  0.3503E-03  0.4973E-03  0.4127E-03  0.3877E-03  0.3503E-03
      2.520  0.3422E-01  0.3370E-01  0.2683E-02  0.2725E-02  0.2683E-02  0.2725E-02  0.2683E-02  0.2725E-02  0.7445E-03  0.5922E-03  0.7445E-03  0.5922E-03  0.5629E-03  0.4967E-03  0.7445E-03  0.5922E-03  0.5629E-03  0.4967E-03
      2.716  0.3572E-01  0.3499E-01  0.3126E-02  0.3152E-02  0.3126E-02  0.3152E-02  0.3126E-02  0.3152E-02  0.1048E-02  0.8091E-03  0.1048E-02  0.8091E-03  0.7802E-03  0.6741E-03  0.1048E-02  0.8091E-03  0.7802E-03  0.6741E-03
      2.912  0.3748E-01  0.3649E-01  0.3569E-02  0.3575E-02  0.3569E-02  0.3575E-02  0.3569E-02  0.3575E-02  0.1426E-02  0.1067E-02  0.1426E-02  0.1067E-02  0.1068E-02  0.9056E-03  0.1426E-02  0.1067E-02  0.1068E-02  0.9056E-03
      3.108  0.3955E-01  0.3827E-01  0.4008E-02  0.3990E-02  0.4008E-02  0.3990E-02  0.4008E-02  0.3990E-02  0.1881E-02  0.1367E-02  0.1881E-02  0.1367E-02  0.1439E-02  0.1193E-02  0.1881E-02  0.1367E-02  0.1439E-02  0.1193E-02
      3.304  0.4174E-01  0.4011E-01  0.4461E-02  0.4416E-02  0.4461E-02  0.4416E-02  0.4461E-02  0.4416E-02  0.2405E-02  0.1706E-02  0.2405E-02  0.1706E-02  0.1897E-02  0.1536E-02  0.2405E-02  0.1706E-02  0.1897E-02  0.1536E-02
      3.500  0.4394E-01  0.4190E-01  0.4999E-02  0.4905E-02  0.4999E-02  0.4905E-02  0.4999E-02  0.4905E-02  0.3138E-02  0.2160E-02  0.3138E-02  0.2160E-02  0.2483E-02  0.1967E-02  0.3138E-02  0.2160E-02  0.2483E-02  0.1967E-02
      3.696  0.4627E-01  0.4332E-01  0.5823E-02  0.5625E-02  0.5823E-02  0.5625E-02  0.5823E-02  0.5625E-02  0.4744E-02  0.3053E-02  0.4744E-02  0.3053E-02  0.3407E-02  0.2624E-02  0.4744E-02  0.3053E-02  0.3407E-02  0.2624E-02
      3.892  0.4950E-01  0.4532E-01  0.6657E-02  0.6315E-02  0.6657E-02  0.6315E-02  0.6657E-02  0.6315E-02  0.7045E-02  0.4226E-02  0.7045E-02  0.4226E-02  0.4806E-02  0.3559E-02  0.7045E-02  0.4226E-02  0.4806E-02  0.3559E-02
      4.088  0.5357E-01  0.4760E-01  0.7564E-02  0.7047E-02  0.7564E-02  0.7047E-02  0.7564E-02  0.7047E-02  0.1031E-01  0.5679E-02  0.1031E-01  0.5679E-02  0.6857E-02  0.4822E-02  0.1031E-01  0.5679E-02  0.6857E-02  0.4822E-02
      4.284  0.5905E-01  0.5040E-01  0.8520E-02  0.7801E-02  0.8520E-02  0.7801E-02  0.8520E-02  0.7801E-02  0.1541E-01  0.7670E-02  0.1541E-01  0.7670E-02  0.9925E-02  0.6578E-02  0.1541E-01  0.7670E-02  0.9925E-02  0.6578E-02
      4.480  0.6607E-01  0.5388E-01  0.9603E-02  0.8566E-02  0.9603E-02  0.8566E-02  0.9603E-02  0.8566E-02  0.2195E-01  0.1029E-01  0.2195E-01  0.1029E-01  0.1532E-01  0.8899E-02  0.2195E-01  0.1029E-01  0.1532E-01  0.8899E-02
      4.675  0.8343E-01  0.5815E-01  0.1189E-01  0.9428E-02  0.1189E-01  0.9428E-02  0.1189E-01  0.9428E-02  0.5103E-01  0.1345E-01  0.5103E-01  0.1345E-01  0.3046E-01  0.1305E-01  0.5103E-01  0.1345E-01  0.3046E-01  0.1305E-01
      4.871  0.8588E-01  0.6970E-01  0.1380E-01  0.1140E-01  0.1380E-01  0.1140E-01  0.1380E-01  0.1140E-01  0.5626E-01  0.2796E-01  0.5626E-01  0.2796E-01  0.1033E+00  0.2041E-01  0.5626E-01  0.2796E-01  0.1033E+00  0.2041E-01
      5.067  0.7347E-01  0.8148E-01  0.1425E-01  0.1334E-01  0.1425E-01  0.1334E-01  0.1425E-01  0.1334E-01  0.6439E-01  0.4263E-01  0.6439E-01  0.4263E-01  0.1126E+00  0.5139E-01  0.6439E-01  0.4263E-01  0.1126E+00  0.5139E-01
      5.263  0.5868E-01  0.7735E-01  0.1339E-01  0.1466E-01  0.1339E-01  0.1466E-01  0.1339E-01  0.1466E-01  0.1242E+00  0.4465E-01  0.1242E+00  0.4465E-01  0.1078E+00  0.9417E-01  0.1242E+00  0.4465E-01  0.1078E+00  0.9417E-01
      5.459  0.4563E-01  0.6550E-01  0.1618E-01  0.1388E-01  0.1618E-01  0.1388E-01  0.1618E-01  0.1388E-01  0.1885E+00  0.4759E-01  0.1885E+00  0.4759E-01  0.1352E+00  0.9755E-01  0.1885E+00  0.4759E-01  0.1352E+00  0.9755E-01
      5.655  0.2401E-01  0.5301E-01  0.1928E-01  0.1361E-01  0.1928E-01  0.1361E-01  0.1928E-01  0.1361E-01  0.1917E+00  0.5354E-01  0.1917E+00  0.5354E-01  0.1466E+00  0.1006E+00  0.1917E+00  0.5354E-01  0.1466E+00  0.1006E+00
      5.851  0.1951E-02  0.4324E-01  0.1286E-01  0.1605E-01  0.1286E-01  0.1605E-01  0.1286E-01  0.1605E-01  0.1543E+00  0.1158E+00  0.1543E+00  0.1158E+00  0.6953E-01  0.1308E+00  0.1543E+00  0.1158E+00  0.6953E-01  0.1308E+00
      6.047  0.3237E-02  0.2901E-01  0.1832E-01  0.2260E-01  0.1832E-01  0.2260E-01  0.1832E-01  0.2260E-01  0.1577E+00  0.1645E+00  0.1577E+00  0.1645E+00  0.1460E+00  0.1682E+00  0.1577E+00  0.1645E+00  0.1460E+00  0.1682E+00
      6.243  0.3370E-02  0.2041E-02  0.1668E-01  0.1023E-01  0.1668E-01  0.1023E-01  0.1668E-01  0.1023E-01  0.1596E+00  0.1567E+00  0.1596E+00  0.1567E+00  0.1178E+00  0.2575E-01  0.1596E+00  0.1567E+00  0.1178E+00  0.2575E-01
      6.439  0.9479E-02  0.6522E-02  0.2709E-01  0.1998E-01  0.2709E-01  0.1998E-01  0.2709E-01  0.1998E-01  0.2966E+00  0.2022E+00  0.2966E+00  0.2022E+00  0.1446E+00  0.1011E+00  0.2966E+00  0.2022E+00  0.1446E+00  0.1011E+00
      6.635  0.9916E-02  0.2192E-02  0.2401E-01  0.1686E-01  0.2401E-01  0.1686E-01  0.2401E-01  0.1686E-01  0.2666E+00  0.1300E+00  0.2666E+00  0.1300E+00  0.1375E+00  0.1206E+00  0.2666E+00  0.1300E+00  0.1375E+00  0.1206E+00
      6.831  0.1457E-01  0.1991E-02  0.2800E-01  0.1865E-01  0.2800E-01  0.1865E-01  0.2800E-01  0.1865E-01  0.3154E+00  0.1539E+00  0.3154E+00  0.1539E+00  0.2107E+00  0.1128E+00  0.3154E+00  0.1539E+00  0.2107E+00  0.1128E+00
      7.027  0.1240E-01  0.1164E-01  0.2207E-01  0.3545E-01  0.2207E-01  0.3545E-01  0.2207E-01  0.3545E-01  0.4048E+00  0.3554E+00  0.4048E+00  0.3554E+00  0.3476E+00  0.1116E+00  0.4048E+00  0.3554E+00  0.3476E+00  0.1116E+00
      7.223  0.1677E-01  0.1038E-01  0.2446E-01  0.2982E-01  0.2446E-01  0.2982E-01  0.2446E-01  0.2982E-01  0.3760E+00  0.2791E+00  0.3760E+00  0.2791E+00  0.1919E+00  0.1112E+00  0.3760E+00  0.2791E+00  0.1919E+00  0.1112E+00
      7.419  0.9257E-02  0.1804E-01  0.1816E-01  0.3618E-01  0.1816E-01  0.3618E-01  0.1816E-01  0.3618E-01  0.2352E+00  0.3046E+00  0.2352E+00  0.3046E+00  0.2362E+00  0.1908E+00  0.2352E+00  0.3046E+00  0.2362E+00  0.1908E+00