    1    1    1    2
  0.1093000E+02  0.2491027E-09  0.2491027E-09  0.2491027E-09  0.5000000E-15
  1.000000000000000E-004
  CAR 
 Ni fcc bulk                             
     10     56     12
 
  0.0000000E+00  0.0000000E+00  0.0000000E+00  0.7513148E-03
      1          0.335964        0.293345   1.000000   1.000000
      2          6.908420        7.605491   1.000000   1.000000
      3          6.908421        7.605494   1.000000   1.000000
      4          6.908424        7.605501   1.000000   1.000000
      5          8.066950        8.645988   1.000000   1.000000
      6          8.066950        8.645988   1.000000   1.000000
      7         33.032716       32.866686   0.000000   0.000000
      8         36.840410       36.812609   0.000000   0.000000
      9         36.840638       36.812807   0.000000   0.000000
     10         36.840638       36.812810   0.000000   0.000000
     11         39.922732       39.987729   0.000000   0.000000
     12         39.922843       39.987835   0.000000   0.000000
 
  0.9090909E-01  0.2009694E-17  0.2009694E-17  0.6010518E-02
      1          0.656695        0.614521   1.000000   1.000000
      2          6.830354        7.516915   1.000000   1.000000
      3          6.977197        7.676305   1.000000   1.000000
      4          6.977210        7.676308   1.000000   1.000000
      5          8.040288        8.617980   1.000000   1.000000
      6          8.040299        8.617989   1.000000   1.000000
      7         31.641784       31.595409   0.000000   0.000000
      8         34.408374       34.327680   0.000000   0.000000
      9         36.199457       36.210652   0.000000   0.000000
     10         36.199688       36.210855   0.000000   0.000000
     11         40.905317       40.920127   0.000000   0.000000
     12         40.905452       40.920165   0.000000   0.000000
 
  0.1818182E+00 -0.2566139E-17 -0.2566139E-17  0.6010518E-02
      1          1.577226        1.540524   1.000000   1.000000
      2          6.656828        7.309592   1.000000   1.000000
      3          7.109045        7.796684   1.000000   1.000000
      4          7.109094        7.796718   1.000000   1.000000
      5          8.034168        8.625953   1.000000   1.000000
      6          8.034212        8.625990   1.000000   1.000000
      7         27.189640       27.256696   0.000000   0.000000
      8         33.669377       33.540262   0.000000   0.000000
      9         35.267682       35.317856   0.000000   0.000000
     10         35.267899       35.318053   0.000000   0.000000
     11         40.953246       40.893441   0.000000   0.000000
     12         41.677658       41.647950   0.000000   0.000000
 
  0.2727273E+00 -0.2211913E-17 -0.2211913E-17  0.6010518E-02
      1          2.911284        2.914421   1.000000   1.000000
      2          6.617191        7.183972   1.000000   1.000000
      3          7.119651        7.761816   1.000000   1.000000
      4          7.119739        7.761880   1.000000   1.000000
      5          8.197852        8.842393   1.000000   1.000000
      6          8.197935        8.842462   1.000000   1.037475
      7         22.611386       22.743055   0.000000   0.000000
      8         32.909588       32.774610   0.000000   0.000000
      9         34.549035       34.622420   0.000000   0.000000
     10         34.549180       34.622570   0.000000   0.000000
     11         39.827105       39.838836   0.000000   0.000000
     12         39.827271       39.838988   0.000000   0.000000
 
  0.3636364E+00 -0.2022194E-18 -0.2022194E-18  0.6010518E-02
      1          4.071613        4.253624   1.000000   1.000000
      2          7.018986        7.567178   1.000000   1.000000
      3          7.019083        7.625813   1.000000   1.000000
      4          7.253042        7.625883   1.000000   1.000000
      5          8.489740        9.178612   1.000000   0.992930
      6          8.489822        9.178679   1.084238   0.482555
      7         18.503863       18.717113   0.000000   0.000000
      8         32.084040       31.940455   0.000000   0.000000
      9         34.126039       34.205530   0.000000   0.000000
     10         34.126069       34.205557   0.000000   0.000000
     11         38.030564       38.052107   0.000000   0.000000
     12         38.031060       38.052505   0.000000   0.000000
 
  0.4545455E+00 -0.6433520E-17  0.2132206E-16  0.6010518E-02
      1          4.480786        4.855639   1.000000   1.000000
      2          6.937415        7.528784   1.000000   1.000000
      3          6.937505        7.528851   1.000000   1.000000
      4          8.690418        8.684792   1.000000   1.000000
      5          8.696419        9.407543   1.000000   0.039695
      6          8.696497        9.407606   0.807345   0.008469
      7         15.480285       15.823322   0.000000   0.000000
      8         31.585562       31.435395   0.000000   0.000000
      9         33.940077       34.016054   0.000000   0.000000
     10         33.940295       34.016162   0.000000   0.000000
     11         37.081703       37.106120   0.000000   0.000000
     12         37.082412       37.106679   0.000000   0.000000
 
  0.9090909E-01  0.9090909E-01 -0.5571336E-18  0.4507889E-02
      1          0.762936        0.720816   1.000000   1.000000
      2          6.759368        7.444175   1.000000   1.000000
      3          7.028299        7.729097   1.000000   1.000000
      4          7.028302        7.729105   1.000000   1.000000
      5          7.931517        8.501552   1.000000   1.000000
      6          8.121487        8.702473   1.000000   1.000000
      7         32.237370       32.136555   0.000000   0.000000
      8         34.275355       34.315054   0.000000   0.000000
      9         34.275477       34.315168   0.000000   0.000000
     10         35.148777       35.085509   0.000000   0.000000
     11         41.653687       41.666715   0.000000   0.000000
     12         42.433062       42.405360   0.000000   0.000000
 
  0.1818182E+00  0.9090909E-01  0.8474221E-17  0.1803156E-01
      1          1.482799        1.443767   1.000000   1.000000
      2          6.581341        7.245802   1.000000   1.000000
      3          7.161545        7.854121   1.000000   1.000000
      4          7.171232        7.869698   1.000000   1.000000
      5          7.829813        8.402158   1.000000   1.000000
      6          8.174037        8.764160   1.000000   1.000000
      7         28.959836       29.003204   0.000000   0.000000
      8         32.706167       32.637307   0.000000   0.000000
      9         32.780127       32.838822   0.000000   0.000000
     10         36.178899       36.125175   0.000000   0.000000
     11         39.724486       39.831368   0.000000   0.000000
     12         42.081173       42.148194   0.000000   0.000000
 
  0.2727273E+00  0.9090909E-01  0.9656181E-17  0.1803156E-01
      1          2.694428        2.677751   1.000000   1.000000
      2          6.436014        7.052731   1.000000   1.000000
      3          7.147257        7.773461   1.000000   1.000000
      4          7.245979        7.910777   1.000000   1.000000
      5          8.012439        8.641352   1.000000   1.000000
      6          8.318070        8.949737   1.000000   1.116051
      7         24.312735       24.418635   0.000000   0.000000
      8         31.796637       31.864900   0.000000   0.000000
      9         31.976034       31.901690   0.000000   0.000000
     10         35.927313       35.976695   0.000000   0.000000
     11         39.143726       39.134936   0.000000   0.000000
     12         41.828601       41.871870   0.000000   0.000000
 
  0.3636364E+00  0.9090909E-01  0.2223273E-16  0.1803156E-01
      1          3.979664        4.086114   1.000000   1.000000
      2          6.633260        7.107398   1.000000   1.000000
      3          6.976760        7.574430   1.000000   1.000000
      4          7.181832        7.806129   1.000000   1.000000
      5          8.558597        9.196268   1.000000   0.978125
      6          8.568458        9.239175   1.054939   0.377678
      7         19.991364       20.164617   0.000000   0.000000
      8         31.177396       31.094392   0.000000   0.000000
      9         31.360901       31.430014   0.000000   0.000000
     10         34.028691       34.117262   0.000000   0.000000
     11         39.466895       39.435149   0.000000   0.000000
     12         41.309447       41.317601   0.000000   0.000000
 
  0.4545455E+00  0.9090909E-01  0.1931236E-16  0.1803156E-01
      1          4.598710        4.941013   1.000000   1.000000
      2          6.822939        7.343325   1.000000   1.000000
      3          7.081997        7.682288   1.000000   1.000000
      4          7.414507        7.810968   1.000000   1.000000
      5          8.721661        9.431232   1.000000   0.107662
      6          9.561577       10.017798   0.142596  -0.015418
      7         16.421706       16.701122   0.000000   0.000000
      8         30.325179       30.261712   0.000000   0.000000
      9         31.552405       31.619042   0.000000   0.000000
     10         32.774253       32.829218   0.000000   0.000000
     11         39.320573       39.304344   0.000000   0.000000
     12         39.773715       39.797106   0.000000   0.000000
 
 -0.4545455E+00  0.9090909E-01  0.4423826E-17  0.1803156E-01
      1          4.691457        5.098312   1.000000   1.000000
      2          6.799524        7.341485   1.000000   1.000000
      3          7.039818        7.630842   1.000000   1.000000
      4          7.756849        8.141732   1.000000   1.000000
      5          8.682033        9.397392   1.000000   0.036997
      6         10.261729       10.567593  -0.047978   0.000000
      7         15.082979       15.447568   0.000000   0.000000
      8         29.555779       29.536707   0.000000   0.000000
      9         32.459902       32.475567   0.000000   0.000000
     10         32.480176       32.527236   0.000000   0.000000
     11         38.719039       38.750803   0.000000   0.000000
     12         39.423990       39.415892   0.000000   0.000000
 
 -0.3636364E+00  0.9090909E-01 -0.1174028E-16  0.1803156E-01
      1          4.486293        4.759476   1.000000   1.000000
      2          6.889145        7.425772   1.000000   1.000000
      3          7.092080        7.600493   1.000000   1.000000
      4          7.214086        7.687522   1.000000   1.000000
      5          8.429034        9.128901   1.000000   1.017441
      6          9.342029        9.910312   0.362580  -0.063609
      7         17.494282       17.732471   0.000000   0.000000
      8         29.147272       29.160914   0.000000   0.000000
      9         33.030870       32.988366   0.000000   0.000000
     10         34.114858       34.189433   0.000000   0.000000
     11         38.185217       38.215006   0.000000   0.000000
     12         39.581081       39.569686   0.000000   0.000000
 
 -0.2727273E+00  0.9090909E-01  0.2022194E-18  0.1803156E-01
      1          3.599121        3.643102   1.000000   1.000000
      2          6.545318        7.087175   1.000000   1.000000
      3          7.039938        7.644555   1.000000   1.000000
      4          7.204791        7.826642   1.000000   1.000000
      5          8.067715        8.729497   1.000000   1.000000
      6          8.700984        9.353047   1.044521   0.376009
      7         21.381991       21.531377   0.000000   0.000000
      8         29.216295       29.246256   0.000000   0.000000
      9         34.246976       34.188795   0.000000   0.000000
     10         36.440220       36.526182   0.000000   0.000000
     11         38.022935       38.042760   0.000000   0.000000
     12         39.233681       39.199321   0.000000   0.000000
 
 -0.1818182E+00  0.9090909E-01  0.2211913E-17  0.1803156E-01
      1          2.252921        2.224116   1.000000   1.000000
      2          6.508588        7.146713   1.000000   1.000000
      3          7.142882        7.792293   1.000000   1.000000
      4          7.236767        7.925115   1.000000   1.000000
      5          7.837876        8.425549   1.000000   1.000000
      6          8.314979        8.941381   1.000000   1.055459
      7         25.836967       25.924343   0.000000   0.000000
      8         29.777499       29.806273   0.000000   0.000000
      9         35.714859       35.643984   0.000000   0.000000
     10         38.173851       38.177607   0.000000   0.000000
     11         38.439804       38.386179   0.000000   0.000000
     12         39.273100       39.348514   0.000000   0.000000
 
 -0.9090909E-01  0.9090909E-01 -0.4019387E-17  0.9015778E-02
      1          1.178354        1.137813   1.000000   1.000000
      2          6.690480        7.362968   1.000000   1.000000
      3          7.079741        7.779797   1.000000   1.000000
      4          7.090189        7.785568   1.000000   1.000000
      5          7.905176        8.473608   1.000000   1.000000
      6          8.125303        8.714882   1.000000   1.000000
      7         30.112627       30.126615   0.000000   0.000000
      8         31.224805       31.244021   0.000000   0.000000
      9         35.791337       35.715763   0.000000   0.000000
     10         38.033468       38.002151   0.000000   0.000000
     11         39.216546       39.173648   0.000000   0.000000
     12         40.279555       40.333886   0.000000   0.000000
 
  0.1818182E+00  0.1818182E+00  0.1536772E-16  0.4507889E-02
      1          1.975616        1.939532   1.000000   1.000000
      2          6.368045        7.022077   1.000000   1.000000
      3          7.370179        8.083471   1.000000   1.000000
      4          7.370180        8.083476   1.000000   1.000000
      5          7.615949        8.154753   1.000000   1.000000
      6          8.269304        8.855629   1.000000   1.000000
      7         30.855275       30.917846   0.000000   0.000000
      8         30.855382       30.917949   0.000000   0.000000
      9         30.963382       30.950987   0.000000   0.000000
     10         32.324171       32.250256   0.000000   0.000000
     11         37.524376       37.721570   0.000000   0.000000
     12         45.645811       45.604733   0.000000   0.000000
 
  0.2727273E+00  0.1818182E+00  0.7293119E-17  0.1803156E-01
      1          2.966226        2.949293   1.000000   1.000000
      2          6.148057        6.778799   1.000000   1.000000
      3          7.249652        7.825714   1.000000   1.000000
      4          7.543293        8.241330   1.000000   1.000000
      5          7.910674        8.561657   1.000000   1.000000
      6          8.398771        9.012368   1.000000   1.103880
      7         26.404724       26.482062   0.000000   0.000000
      8         29.524193       29.586481   0.000000   0.000000
      9         30.566723       30.536661   0.000000   0.000000
     10         32.437142       32.471188   0.000000   0.000000
     11         36.705986       36.850694   0.000000   0.000000
     12         45.083057       45.012312   0.000000   0.000000
 
  0.3636364E+00  0.1818182E+00  0.1624171E-16  0.1803156E-01
      1          4.166473        4.234633   1.000000   1.000000
      2          6.070749        6.644748   1.000000   1.000000
      3          6.962683        7.523862   1.000000   1.000000
      4          7.545563        8.197499   1.000000   1.000000
      5          8.610867        9.281253   1.000000   0.876186
      6          8.738589        9.340470   0.902542   0.158367
      7         21.956721       22.084394   0.000000   0.000000
      8         28.844266       28.904030   0.000000   0.000000
      9         28.899654       28.907998   0.000000   0.000000
     10         31.979925       32.044004   0.000000   0.000000
     11         39.331482       39.402900   0.000000   0.000000
     12         44.124384       44.059242   0.000000   0.000000
 
  0.4545455E+00  0.1818182E+00  0.2554366E-16  0.1803156E-01
      1          4.936621        5.239175   1.000000   1.000000
      2          6.285836        6.714861   1.000000   1.000000
      3          6.850595        7.421285   1.000000   1.000000
      4          7.454700        8.071975   1.000000   1.000000
      5          8.755692        9.464644   1.000000   0.011666
      6         10.174507       10.621939  -0.036450  -0.002362
      7         17.996450       18.194938   0.000000   0.000000
      8         27.173315       27.215226   0.000000   0.000000
      9         28.914130       28.971308   0.000000   0.000000
     10         31.623452       31.660941   0.000000   0.000000
     11         42.661479       42.658632   0.000000   0.000000
     12         43.432461       43.436343   0.000000   0.000000
 
 -0.4545455E+00  0.1818182E+00 -0.1378951E-16  0.1803156E-01
      1          5.137980        5.581160   1.000000   1.000000
      2          6.407479        6.815449   1.000000   1.000000
      3          7.032506        7.568727   1.000000   1.000000
      4          7.374640        7.971620   1.000000   1.000000
      5          8.689322        9.412457   1.000000   0.009539
      6         11.875249       12.131575   0.000000   0.000000
      7         15.309658       15.629082   0.000000   0.000000
      8         25.808120       25.869979   0.000000   0.000000
      9         29.762872       29.823044   0.000000   0.000000
     10         31.705513       31.710657   0.000000   0.000000
     11         42.204338       42.219539   0.000000   0.000000
     12         42.506243       42.461618   0.000000   0.000000
 
 -0.3636364E+00  0.1818182E+00  0.4423826E-17  0.1803156E-01
      1          5.109625        5.480922   1.000000   1.000000
      2          6.537706        6.972813   1.000000   1.000000
      3          6.847266        7.365985   1.000000   1.000000
      4          7.368668        7.955716   1.000000   1.000000
      5          8.400218        9.118909   1.000000   1.057989
      6         10.974370       11.380221   0.000000   0.000000
      7         16.904050       17.145632   0.000000   0.000000
      8         24.973174       25.048201   0.000000   0.000000
      9         31.372055       31.439504   0.000000   0.000000
     10         32.323220       32.302957   0.000000   0.000000
     11         41.469062       41.491946   0.000000   0.000000
     12         41.723921       41.668534   0.000000   0.000000
 
 -0.2727273E+00  0.1818182E+00  0.6433520E-17  0.1803156E-01
      1          4.595046        4.716766   1.000000   1.000000
      2          6.369261        6.920389   1.000000   1.000000
      3          6.779650        7.327226   1.000000   1.000000
      4          7.454918        8.041236   1.000000   1.000000
      5          7.981422        8.685096   1.000000   1.000000
      6          9.625461       10.219649   0.102340   0.000000
      7         20.614333       20.771610   0.000000   0.000000
      8         24.753815       24.835913   0.000000   0.000000
      9         33.551153       33.515782   0.000000   0.000000
     10         33.625929       33.697557   0.000000   0.000000
     11         40.311376       40.229318   0.000000   0.000000
     12         41.264814       41.294123   0.000000   0.000000
 
 -0.1818182E+00  0.1818182E+00  0.5132277E-17  0.9015778E-02
      1          3.393987        3.393015   1.000000   1.000000
      2          6.323950        6.944689   1.000000   1.000000
      3          7.024083        7.616860   1.000000   1.000000
      4          7.528768        8.202591   1.000000   1.000000
      5          7.652317        8.257589   1.000000   1.000000
      6          8.820271        9.467281   0.993979   0.138437
      7         24.608049       24.728008   0.000000   0.000000
      8         25.418631       25.482432   0.000000   0.000000
      9         35.303344       35.263451   0.000000   0.000000
     10         36.332404       36.389508   0.000000   0.000000
     11         38.392686       38.295950   0.000000   0.000000
     12         41.501467       41.526130   0.000000   0.000000
 
  0.2727273E+00  0.2727273E+00  0.1481059E-16  0.4507889E-02
      1          3.624180        3.642046   1.000000   1.000000
      2          5.872917        6.491207   1.000000   1.000000
      3          7.524257        7.970302   1.000000   1.000000
      4          7.883903        8.619422   1.000000   1.000000
      5          7.883911        8.619437   1.000000   1.000000
      6          8.466284        9.060023   1.000000   1.185938
      7         27.840991       27.894598   0.000000   0.000000
      8         27.841080       27.894687   0.000000   0.000000
      9         28.231530       28.246062   0.000000   0.000000
     10         29.968653       30.026213   0.000000   0.000000
     11         34.113964       34.266691   0.000000   0.000000
     12         49.376120       49.287573   0.000000   0.000000
 
  0.3636364E+00  0.2727273E+00  0.1588748E-16  0.1803156E-01
      1          4.421124        4.536488   1.000000   1.000000
      2          5.691587        6.289208   1.000000   1.000000
      3          7.419669        7.904938   1.000000   1.000000
      4          8.027339        8.720208   1.000000   1.000000
      5          8.631085        9.283048   1.000000   0.852601
      6          8.749018        9.340190   0.843469   0.157211
      7         24.218011       24.295491   0.000000   0.000000
      8         26.012450       26.083590   0.000000   0.000000
      9         26.855229       26.899641   0.000000   0.000000
     10         30.716497       30.780785   0.000000   0.000000
     11         34.887484       34.993884   0.000000   0.000000
     12         49.094405       49.040234   0.000000   0.000000
 
  0.4545455E+00  0.2727273E+00  0.1131165E-16  0.1803156E-01
      1          5.042365        5.315051   1.000000   1.000000
      2          5.691308        6.237450   1.000000   1.000000
      3          7.186379        7.711719   1.000000   1.000000
      4          7.966174        8.607173   1.000000   1.000000
      5          8.780964        9.491370   1.000000  -0.075658
      6         10.491507       10.902829  -0.040969   0.000000
      7         20.182573       20.307803   0.000000   0.000000
      8         23.944686       24.041345   0.000000   0.000000
      9         26.679834       26.720223   0.000000   0.000000
     10         30.912586       30.976476   0.000000   0.000000
     11         38.225725       38.296225   0.000000   0.000000
     12         47.378470       47.362488   0.000000   0.000000
 
 -0.4545455E+00  0.2727273E+00 -0.2242108E-16  0.1803156E-01
      1          5.394400        5.834953   1.000000   1.000000
      2          5.855913        6.287177   1.000000   1.000000
      3          6.971905        7.530436   1.000000   1.000000
      4          7.861784        8.467711   1.000000   1.000000
      5          8.714513        9.452190   1.000000  -0.022877
      6         12.901815       13.167717   0.000000   0.000000
      7         16.654525       16.854490   0.000000   0.000000
      8         22.341869       22.456083   0.000000   0.000000
      9         27.367703       27.413336   0.000000   0.000000
     10         31.068869       31.114144   0.000000   0.000000
     11         42.515408       42.565505   0.000000   0.000000
     12         45.926278       45.916155   0.000000   0.000000
 
 -0.3636364E+00  0.2727273E+00  0.2414132E-17  0.1803156E-01
      1          5.613037        6.092902   1.000000   1.000000
      2          6.068661        6.442336   1.000000   1.000000
      3          6.683852        7.248702   1.000000   1.000000
      4          7.776007        8.350308   1.000000   1.000000
      5          8.431604        9.182448   1.000000   0.926337
      6         13.146191       13.421462   0.000000   0.000000
      7         16.559713       16.779425   0.000000   0.000000
      8         21.326913       21.450802   0.000000   0.000000
      9         28.853042       28.910833   0.000000   0.000000
     10         31.527811       31.546777   0.000000   0.000000
     11         44.849161       44.809818   0.000000   0.000000
     12         44.891419       44.839717   0.000000   0.000000
 
 -0.2727273E+00  0.2727273E+00  0.4423826E-17  0.9015778E-02
      1          5.460897        5.729888   1.000000   1.000000
      2          6.339323        6.875192   1.000000   1.000000
      3          6.403112        6.916223   1.000000   1.000000
      4          7.693266        8.240454   1.000000   1.000000
      5          8.086521        8.844243   1.000000   1.000000
      6         11.073341       11.525667   0.000000   0.000000
      7         19.647189       19.816525   0.000000   0.000000
      8         21.387438       21.502083   0.000000   0.000000
      9         30.997118       31.065704   0.000000   0.000000
     10         32.388422       32.380192   0.000000   0.000000
     11         42.735915       42.636642   0.000000   0.000000
     12         43.831534       43.821317   0.000000   0.000000
 
  0.3636364E+00  0.3636364E+00  0.1425345E-16  0.4507889E-02
      1          4.613280        4.831470   1.000000   1.000000
      2          5.439615        6.028291   1.000000   1.000000
      3          8.429313        8.980527   1.000000   0.999845
      4          8.429322        9.196430   1.000000   0.976050
      5          8.646149        9.196446   1.000000   0.786984
      6          8.790522        9.246998   0.614901   0.182734
      7         23.298410       23.406599   0.000000   0.000000
      8         25.536410       25.564333   0.000000   0.000000
      9         25.536506       25.564432   0.000000   0.000000
     10         29.356264       29.459991   0.000000   0.000000
     11         32.904690       33.027820   0.000000   0.000000
     12         53.340284       53.348774   0.000000   0.000000
 
  0.4545455E+00  0.3636364E+00  0.1955179E-16  0.1803156E-01
      1          4.824219        5.123267   1.000000   1.000000
      2          5.352617        5.928210   1.000000   1.000000
      3          8.151100        8.747871   1.000000   1.001464
      4          8.470572        9.126823   1.000000   0.997637
      5          8.790110        9.513534   1.000000  -0.053277
      6         10.644672       10.904126  -0.032535  -0.001450
      7         21.147021       21.292586   0.000000   0.000000
      8         22.790287       22.854205   0.000000   0.000000
      9         25.063273       25.082021   0.000000   0.000000
     10         30.114996       30.204812   0.000000   0.000000
     11         34.111409       34.214718   0.000000   0.000000
     12         51.373469       51.346364   0.000000   0.000000
 
 -0.4545455E+00  0.3636364E+00 -0.7332005E-16  0.1803156E-01
      1          5.111450        5.469827   1.000000   1.000000
      2          5.457741        6.006550   1.000000   1.000000
      3          7.654090        8.237275   1.000000   1.000000
      4          8.362424        8.968648   1.000000   1.000000
      5          8.758201        9.524311   1.000000   0.000000
      6         13.069839       13.270463   0.000000   0.000000
      7         18.992837       19.118167   0.000000   0.000000
      8         19.863379       20.026274   0.000000   0.000000
      9         25.517716       25.542133   0.000000   0.000000
     10         30.569284       30.647534   0.000000   0.000000
     11         37.718395       37.793958   0.000000   0.000000
     12         49.496848       49.464203   0.000000   0.000000
 
 -0.3636364E+00  0.3636364E+00  0.4044387E-18  0.9015778E-02
      1          5.471217        5.902864   1.000000   1.000000
      2          5.704625        6.178648   1.000000   1.000000
      3          7.079913        7.648494   1.000000   1.000000
      4          8.157508        8.724962   1.000000   1.000000
      5          8.560249        9.342729   1.000000   0.143515
      6         15.480516       15.659552   0.000000   0.000000
      7         15.859615       16.038720   0.000000   0.000000
      8         19.360759       19.540165   0.000000   0.000000
      9         26.839566       26.880426   0.000000   0.000000
     10         30.943255       30.996895   0.000000   0.000000
     11         42.361561       42.421410   0.000000   0.000000
     12         47.524005       47.489654   0.000000   0.000000
 
  0.4545455E+00  0.4545455E+00  0.3017831E-16  0.4507889E-02
      1          4.707418        5.033113   1.000000   1.000000
      2          5.190722        5.763120   1.000000   1.000000
      3          8.754861        9.360043   1.000000   0.890465
      4          8.803741        9.597259   1.000000  -0.196416
      5          8.803749        9.597276   1.000000  -0.006281
      6         11.197940       11.191358  -0.004931  -0.000064
      7         19.256590       19.461274   0.000000   0.000000
      8         24.265013       24.268258   0.000000   0.000000
      9         24.265114       24.268364   0.000000   0.000000
     10         29.079537       29.206002   0.000000   0.000000
     11         32.533282       32.656950   0.000000   0.000000
     12         53.733624       53.710307   0.000000   0.000000
 
 -0.4545455E+00  0.4545455E+00  0.1286704E-16  0.9015778E-02
      1          4.809495        5.149858   1.000000   1.000000
      2          5.227779        5.796103   1.000000   1.000000
      3          8.450581        9.130982   1.000000   1.011615
      4          8.680154        9.279806   1.000000   0.784240
      5          8.820902        9.617006   1.000000   0.000000
      6         12.381761       12.450471   0.000000   0.000000
      7         18.553862       18.784407   0.000000   0.000000
      8         22.205115       22.254376   0.000000   0.000000
      9         24.424456       24.430265   0.000000   0.000000
     10         29.918420       30.019191   0.000000   0.000000