       N       E                     dE             d eps       ncg     rms          rms(c)
DAV:   1     0.183931127903E+02    0.18393E+02   -0.30275E+03  2868   0.625E+02
DAV:   2    -0.600196703705E+01   -0.24395E+02   -0.23037E+02  2940   0.121E+02
DAV:   3    -0.648402409506E+01   -0.48206E+00   -0.48082E+00  3088   0.189E+01
DAV:   4    -0.648661718088E+01   -0.25931E-02   -0.25884E-02  3060   0.124E+00
DAV:   5    -0.648665013304E+01   -0.32952E-04   -0.32893E-04  3084   0.131E-01    0.978E+00
DAV:   6    -0.579510102282E+01    0.69155E+00   -0.14344E+01  3312   0.446E+01    0.578E+00
DAV:   7    -0.547610745892E+01    0.31899E+00   -0.25310E+00  3272   0.170E+01    0.178E+00
DAV:   8    -0.546163036189E+01    0.14477E-01   -0.17488E-02  3412   0.109E+00    0.879E-01
DAV:   9    -0.545925473324E+01    0.23756E-02   -0.16066E-03  3008   0.279E-01    0.250E-01
DAV:  10    -0.545865705988E+01    0.59767E-03   -0.57805E-04  2004   0.147E-01    0.261E-02
DAV:  11    -0.545865295251E+01    0.41074E-05   -0.33171E-05  1412   0.519E-02
   1 F= -.54586530E+01 E0= -.54586530E+01  d E =0.000000E+00  mag=     0.5874
