PROCAR lm decomposed
# of k-points:   56         # of bands:   12         # of ions:    1

 k-point     1 :    0.00000000 0.00000000 0.00000000     weight = 0.00075131

band     1 # energy    0.33596410 # occ.  1.00000000
 
ion      s     py     pz     px    dxy    dyz    dz2    dxz  x2-y2    tot
    1  0.725  0.000  0.000  0.000  0.000  0.000  0.000  0.000  0.000  0.725
 
band     2 # energy    6.90842041 # occ.  1.00000000
 
ion      s     py     pz     px    dxy    dyz    dz2    dxz  x2-y2    tot
    1  0.000  0.000  0.000  0.000  0.488  0.489  0.000  0.000  0.000  0.976
 
band     3 # energy    6.90842120 # occ.  1.00000000
 
ion      s     py     pz     px    dxy    dyz    dz2    dxz  x2-y2    tot
    1  0.000  0.000  0.000  0.000  0.205  0.205  0.000  0.567  0.000  0.976
 
band     4 # energy    6.90842415 # occ.  1.00000000
 
ion      s     py     pz     px    dxy    dyz    dz2    dxz  x2-y2    tot
    1  0.000  0.000  0.000  0.000  0.284  0.283  0.000  0.410  0.000  0.976
 
band     5 # energy    8.06694975 # occ.  1.00000000
 
ion      s     py     pz     px    dxy    dyz    dz2    dxz  x2-y2    tot
    1  0.000  0.000  0.000  0.000  0.000  0.000  0.247  0.000  0.741  0.988
 
band     6 # energy    8.06695047 # occ.  1.00000000
 
ion      s     py     pz     px    dxy    dyz    dz2    dxz  x2-y2    tot
    1  0.000  0.000  0.000  0.000  0.000  0.000  0.741  0.000  0.247  0.988
 
band     7 # energy   33.03271646 # occ.  0.00000000
 
ion      s     py     pz     px    dxy    dyz    dz2    dxz  x2-y2    tot
    1  0.000  0.000  0.000  0.000  0.000  0.000  0.000  0.000  0.000  0.000
 
band     8 # energy   36.84041037 # occ.  0.00000000
 
ion      s     py     pz     px    dxy    dyz    dz2    dxz  x2-y2    tot
    1  0.000  0.124  0.125  0.125  0.000  0.000  0.000  0.000  0.000  0.375
 
band     9 # energy   36.84063842 # occ.  0.00000000
 
ion      s     py     pz     px    dxy    dyz    dz2    dxz  x2-y2    tot
    1  0.000  0.000  0.187  0.188  0.000  0.000  0.000  0.000  0.000  0.375
 
band    10 # energy   36.84063848 # occ.  0.00000000
 
ion      s     py     pz     px    dxy    dyz    dz2    dxz  x2-y2    tot
    1  0.000  0.251  0.062  0.062  0.000  0.000  0.000  0.000  0.000  0.375
 
band    11 # energy   39.92273172 # occ.  0.00000000
 
ion      s     py     pz     px    dxy    dyz    dz2    dxz  x2-y2    tot
    1  0.000  0.000  0.000  0.000  0.115  0.205  0.000  0.909  0.000  1.229
 
band    12 # energy   39.92284334 # occ.  0.00000000
 
ion      s     py     pz     px    dxy    dyz    dz2    dxz  x2-y2    tot
    1  0.000  0.000  0.000  0.000  0.430  0.748  0.000  0.051  0.000  1.229
 

 k-point     2 :    0.09090909 0.00000000 0.00000000     weight = 0.00601052

band     1 # energy    0.65669481 # occ.  1.00000000
 
ion      s     py     pz     px    dxy    dyz    dz2    dxz  x2-y2    tot
    1  0.704  0.007  0.007  0.007  0.000  0.000  0.000  0.000  0.000  0.726
 
band     2 # energy    6.83035443 # occ.  1.00000000
 
ion      s     py     pz     px    dxy    dyz    dz2    dxz  x2-y2    tot
    1  0.000  0.001  0.001  0.001  0.323  0.323  0.000  0.323  0.000  0.973
 
band     3 # energy    6.97719728 # occ.  1.00000000
 
ion      s     py     pz     px    dxy    dyz    dz2    dxz  x2-y2    tot
    1  0.000  0.000  0.000  0.000  0.642  0.113  0.004  0.217  0.000  0.976
 
band     4 # energy    6.97720977 # occ.  1.00000000
 
ion      s     py     pz     px    dxy    dyz    dz2    dxz  x2-y2    tot
    1  0.000  0.000  0.000  0.000  0.006  0.535  0.000  0.431  0.004  0.976
 
band     5 # energy    8.04028818 # occ.  1.00000000
 
ion      s     py     pz     px    dxy    dyz    dz2    dxz  x2-y2    tot
    1  0.000  0.000  0.000  0.000  0.000  0.002  0.001  0.002  0.982  0.987
 
band     6 # energy    8.04029894 # occ.  1.00000000
 
ion      s     py     pz     px    dxy    dyz    dz2    dxz  x2-y2    tot
    1  0.000  0.000  0.000  0.000  0.003  0.001  0.982  0.001  0.001  0.987
 
band     7 # energy   31.64178420 # occ.  0.00000000
 
ion      s     py     pz     px    dxy    dyz    dz2    dxz  x2-y2    tot
    1  0.009  0.041  0.041  0.041  0.104  0.104  0.000  0.104  0.000  0.444
 
band     8 # energy   34.40837363 # occ.  0.00000000
 
ion      s     py     pz     px    dxy    dyz    dz2    dxz  x2-y2    tot
    1  0.027  0.064  0.064  0.064  0.006  0.006  0.000  0.006  0.000  0.236
 
band     9 # energy   36.19945705 # occ.  0.00000000
 
ion      s     py     pz     px    dxy    dyz    dz2    dxz  x2-y2    tot
    1  0.000  0.057  0.228  0.057  0.158  0.040  0.022  0.039  0.000  0.602
 
band    10 # energy   36.19968794 # occ.  0.00000000
 
ion      s     py     pz     px    dxy    dyz    dz2    dxz  x2-y2    tot
    1  0.000  0.171  0.000  0.171  0.000  0.118  0.000  0.118  0.022  0.602
 
band    11 # energy   40.90531732 # occ.  0.00000000
 
ion      s     py     pz     px    dxy    dyz    dz2    dxz  x2-y2    tot
    1  0.000  0.003  0.010  0.003  0.546  0.165  0.020  0.183  0.002  0.933
 
band    12 # energy   40.90545190 # occ.  0.00000000
 
ion      s     py     pz     px    dxy    dyz    dz2    dxz  x2-y2    tot
    1  0.000  0.007  0.001  0.008  0.049  0.445  0.002  0.400  0.020  0.932
 

 k-point     3 :    0.18181818-0.00000000-0.00000000     weight = 0.00601052

band     1 # energy    1.57722608 # occ.  1.00000000
 
ion      s     py     pz     px    dxy    dyz    dz2    dxz  x2-y2    tot
    1  0.638  0.026  0.026  0.026  0.004  0.004  0.000  0.004  0.000  0.729
 
band     2 # energy    6.65682793 # occ.  1.00000000
 
ion      s     py     pz     px    dxy    dyz    dz2    dxz  x2-y2    tot
    1  0.003  0.006  0.006  0.006  0.313  0.313  0.000  0.313  0.000  0.959
 
band     3 # energy    7.10904453 # occ.  1.00000000
 
ion      s     py     pz     px    dxy    dyz    dz2    dxz  x2-y2    tot
    1  0.000  0.000  0.001  0.000  0.595  0.136  0.082  0.162  0.000  0.977
 
band     4 # energy    7.10909442 # occ.  1.00000000
 
ion      s     py     pz     px    dxy    dyz    dz2    dxz  x2-y2    tot
    1  0.000  0.001  0.000  0.001  0.000  0.460  0.000  0.433  0.082  0.977
 
band     5 # energy    8.03416845 # occ.  1.00000000
 
ion      s     py     pz     px    dxy    dyz    dz2    dxz  x2-y2    tot
    1  0.000  0.000  0.000  0.000  0.000  0.041  0.000  0.042  0.901  0.985
 
band     6 # energy    8.03421230 # occ.  1.00000000
 
ion      s     py     pz     px    dxy    dyz    dz2    dxz  x2-y2    tot
    1  0.000  0.000  0.000  0.000  0.055  0.014  0.901  0.014  0.000  0.985
 
band     7 # energy   27.18963974 # occ.  0.00000000
 
ion      s     py     pz     px    dxy    dyz    dz2    dxz  x2-y2    tot
    1  0.059  0.093  0.093  0.093  0.128  0.128  0.000  0.128  0.000  0.720
 
band     8 # energy   33.66937712 # occ.  0.00000000
 
ion      s     py     pz     px    dxy    dyz    dz2    dxz  x2-y2    tot
    1  0.031  0.008  0.008  0.008  0.019  0.019  0.000  0.019  0.000  0.112
 
band     9 # energy   35.26768183 # occ.  0.00000000
 
ion      s     py     pz     px    dxy    dyz    dz2    dxz  x2-y2    tot
    1  0.000  0.059  0.236  0.059  0.245  0.061  0.051  0.061  0.000  0.773
 
band    10 # energy   35.26789940 # occ.  0.00000000
 
ion      s     py     pz     px    dxy    dyz    dz2    dxz  x2-y2    tot
    1  0.000  0.177  0.000  0.177  0.000  0.184  0.000  0.184  0.051  0.773
 
band    11 # energy   40.95324621 # occ.  0.00000000
 
ion      s     py     pz     px    dxy    dyz    dz2    dxz  x2-y2    tot
    1  0.003  0.069  0.069  0.069  0.010  0.010  0.000  0.010  0.000  0.239
 
band    12 # energy   41.67765758 # occ.  0.00000000
 
ion      s     py     pz     px    dxy    dyz    dz2    dxz  x2-y2    tot
    1  0.000  0.005  0.013  0.024  0.055  0.101  0.169  0.020  0.194  0.581
 

 k-point     4 :    0.27272727-0.00000000-0.00000000     weight = 0.00601052

band     1 # energy    2.91128414 # occ.  1.00000000
 
ion      s     py     pz     px    dxy    dyz    dz2    dxz  x2-y2    tot
    1  0.519  0.044  0.044  0.044  0.032  0.032  0.000  0.032  0.000  0.749
 
band     2 # energy    6.61719133 # occ.  1.00000000
 
ion      s     py     pz     px    dxy    dyz    dz2    dxz  x2-y2    tot
    1  0.021  0.026  0.026  0.026  0.275  0.275  0.000  0.275  0.000  0.924
 
band     3 # energy    7.11965074 # occ.  1.00000000
 
ion      s     py     pz     px    dxy    dyz    dz2    dxz  x2-y2    tot
    1  0.000  0.000  0.001  0.000  0.440  0.104  0.312  0.116  0.000  0.974
 
band     4 # energy    7.11973949 # occ.  1.00000000
 
ion      s     py     pz     px    dxy    dyz    dz2    dxz  x2-y2    tot
    1  0.000  0.001  0.000  0.001  0.000  0.336  0.000  0.324  0.312  0.974
 
band     5 # energy    8.19785202 # occ.  1.00000000
 
ion      s     py     pz     px    dxy    dyz    dz2    dxz  x2-y2    tot
    1  0.000  0.001  0.000  0.001  0.000  0.158  0.000  0.158  0.667  0.985
 
band     6 # energy    8.19793534 # occ.  1.00000000
 
ion      s     py     pz     px    dxy    dyz    dz2    dxz  x2-y2    tot
    1  0.000  0.000  0.001  0.000  0.211  0.053  0.667  0.053  0.000  0.985
 
band     7 # energy   22.61138624 # occ.  0.00000000
 
ion      s     py     pz     px    dxy    dyz    dz2    dxz  x2-y2    tot
    1  0.133  0.101  0.101  0.101  0.115  0.115  0.000  0.115  0.000  0.780
 
band     8 # energy   32.90958849 # occ.  0.00000000
 
ion      s     py     pz     px    dxy    dyz    dz2    dxz  x2-y2    tot
    1  0.020  0.000  0.000  0.000  0.025  0.025  0.000  0.025  0.000  0.095
 
band     9 # energy   34.54903541 # occ.  0.00000000
 
ion      s     py     pz     px    dxy    dyz    dz2    dxz  x2-y2    tot
    1  0.000  0.069  0.276  0.069  0.233  0.059  0.061  0.058  0.000  0.826
 
band    10 # energy   34.54918039 # occ.  0.00000000
 
ion      s     py     pz     px    dxy    dyz    dz2    dxz  x2-y2    tot
    1  0.000  0.208  0.000  0.207  0.000  0.175  0.000  0.175  0.061  0.826
 
band    11 # energy   39.82710535 # occ.  0.00000000
 
ion      s     py     pz     px    dxy    dyz    dz2    dxz  x2-y2    tot
    1  0.000  0.024  0.093  0.023  0.007  0.002  0.584  0.002  0.000  0.734
 
band    12 # energy   39.82727123 # occ.  0.00000000
 
ion      s     py     pz     px    dxy    dyz    dz2    dxz  x2-y2    tot
    1  0.000  0.070  0.000  0.070  0.000  0.005  0.000  0.005  0.584  0.734
 

 k-point     5 :    0.36363636-0.00000000-0.00000000     weight = 0.00601052

band     1 # energy    4.07161330 # occ.  1.00000000
 
ion      s     py     pz     px    dxy    dyz    dz2    dxz  x2-y2    tot
    1  0.322  0.028  0.028  0.028  0.139  0.139  0.000  0.139  0.000  0.823
 
band     2 # energy    7.01898597 # occ.  1.00000000
 
ion      s     py     pz     px    dxy    dyz    dz2    dxz  x2-y2    tot
    1  0.000  0.000  0.000  0.000  0.328  0.079  0.479  0.086  0.000  0.971
 
band     3 # energy    7.01908313 # occ.  1.00000000
 
ion      s     py     pz     px    dxy    dyz    dz2    dxz  x2-y2    tot
    1  0.000  0.000  0.000  0.000  0.000  0.250  0.000  0.243  0.479  0.971
 
band     4 # energy    7.25304154 # occ.  1.00000000
 
ion      s     py     pz     px    dxy    dyz    dz2    dxz  x2-y2    tot
    1  0.080  0.098  0.098  0.098  0.149  0.150  0.000  0.150  0.000  0.822
 
band     5 # energy    8.48974034 # occ.  1.00000000
 
ion      s     py     pz     px    dxy    dyz    dz2    dxz  x2-y2    tot
    1  0.000  0.000  0.000  0.000  0.000  0.244  0.000  0.245  0.499  0.989
 
band     6 # energy    8.48982223 # occ.  1.08423755
 
ion      s     py     pz     px    dxy    dyz    dz2    dxz  x2-y2    tot
    1  0.000  0.000  0.001  0.000  0.326  0.082  0.499  0.081  0.000  0.989
 
band     7 # energy   18.50386287 # occ.  0.00000000
 
ion      s     py     pz     px    dxy    dyz    dz2    dxz  x2-y2    tot
    1  0.246  0.080  0.080  0.080  0.114  0.114  0.000  0.114  0.000  0.827
 
band     8 # energy   32.08404020 # occ.  0.00000000
 
ion      s     py     pz     px    dxy    dyz    dz2    dxz  x2-y2    tot
    1  0.007  0.005  0.005  0.005  0.012  0.012  0.000  0.012  0.000  0.058
 
band     9 # energy   34.12603920 # occ.  0.00000000
 
ion      s     py     pz     px    dxy    dyz    dz2    dxz  x2-y2    tot
    1  0.000  0.254  0.000  0.265  0.000  0.104  0.000  0.099  0.042  0.764
 
band    10 # energy   34.12606950 # occ.  0.00000000
 
ion      s     py     pz     px    dxy    dyz    dz2    dxz  x2-y2    tot
    1  0.000  0.092  0.346  0.081  0.135  0.032  0.042  0.036  0.000  0.764
 
band    11 # energy   38.03056422 # occ.  0.00000000
 
ion      s     py     pz     px    dxy    dyz    dz2    dxz  x2-y2    tot
    1  0.000  0.016  0.063  0.016  0.098  0.024  0.637  0.025  0.000  0.878
 
band    12 # energy   38.03106014 # occ.  0.00000000
 
ion      s     py     pz     px    dxy    dyz    dz2    dxz  x2-y2    tot
    1  0.000  0.047  0.000  0.047  0.000  0.074  0.000  0.073  0.637  0.878
 

 k-point     6 :    0.45454545-0.00000000 0.00000000     weight = 0.00601052

band     1 # energy    4.48078550 # occ.  1.00000000
 
ion      s     py     pz     px    dxy    dyz    dz2    dxz  x2-y2    tot
    1  0.187  0.003  0.003  0.003  0.231  0.231  0.000  0.231  0.000  0.888
 
band     2 # energy    6.93741523 # occ.  1.00000000
 
ion      s     py     pz     px    dxy    dyz    dz2    dxz  x2-y2    tot
    1  0.000  0.000  0.000  0.000  0.286  0.068  0.541  0.075  0.000  0.971
 
band     3 # energy    6.93750496 # occ.  1.00000000
 
ion      s     py     pz     px    dxy    dyz    dz2    dxz  x2-y2    tot
    1  0.000  0.000  0.000  0.000  0.000  0.218  0.000  0.212  0.541  0.971
 
band     4 # energy    8.69041839 # occ.  1.00000000
 
ion      s     py     pz     px    dxy    dyz    dz2    dxz  x2-y2    tot
    1  0.036  0.200  0.200  0.200  0.022  0.023  0.000  0.023  0.000  0.704
 
band     5 # energy    8.69641899 # occ.  1.00000000
 
ion      s     py     pz     px    dxy    dyz    dz2    dxz  x2-y2    tot
    1  0.000  0.000  0.000  0.000  0.000  0.277  0.000  0.279  0.436  0.992
 
band     6 # energy    8.69649733 # occ.  0.80734452
 
ion      s     py     pz     px    dxy    dyz    dz2    dxz  x2-y2    tot
    1  0.000  0.000  0.000  0.000  0.371  0.093  0.436  0.092  0.000  0.992
 
band     7 # energy   15.48028547 # occ.  0.00000000
 
ion      s     py     pz     px    dxy    dyz    dz2    dxz  x2-y2    tot
    1  0.411  0.021  0.021  0.021  0.138  0.138  0.000  0.138  0.000  0.887
 
band     8 # energy   31.58556180 # occ.  0.00000000
 
ion      s     py     pz     px    dxy    dyz    dz2    dxz  x2-y2    tot
    1  0.001  0.009  0.009  0.009  0.001  0.001  0.000  0.001  0.000  0.032
 
band     9 # energy   33.94007725 # occ.  0.00000000
 
ion      s     py     pz     px    dxy    dyz    dz2    dxz  x2-y2    tot
    1  0.000  0.311  0.000  0.314  0.000  0.015  0.000  0.015  0.007  0.662
 
band    10 # energy   33.94029537 # occ.  0.00000000
 
ion      s     py     pz     px    dxy    dyz    dz2    dxz  x2-y2    tot
    1  0.000  0.106  0.417  0.103  0.020  0.005  0.007  0.005  0.000  0.662
 
band    11 # energy   37.08170276 # occ.  0.00000000
 
ion      s     py     pz     px    dxy    dyz    dz2    dxz  x2-y2    tot
    1  0.000  0.003  0.010  0.003  0.205  0.051  0.669  0.052  0.000  0.991
 
band    12 # energy   37.08241210 # occ.  0.00000000
 
ion      s     py     pz     px    dxy    dyz    dz2    dxz  x2-y2    tot
    1  0.000  0.008  0.000  0.008  0.000  0.154  0.000  0.153  0.669  0.991
 

 k-point     7 :    0.09090909 0.09090909-0.00000000     weight = 0.00450789

band     1 # energy    0.76293564 # occ.  1.00000000
 
ion      s     py     pz     px    dxy    dyz    dz2    dxz  x2-y2    tot
    1  0.696  0.029  0.000  0.000  0.000  0.000  0.000  0.000  0.001  0.726
 
band     2 # energy    6.75936819 # occ.  1.00000000
 
ion      s     py     pz     px    dxy    dyz    dz2    dxz  x2-y2    tot
    1  0.000  0.000  0.000  0.000  0.000  0.000  0.000  0.972  0.000  0.972
 
band     3 # energy    7.02829938 # occ.  1.00000000
 
ion      s     py     pz     px    dxy    dyz    dz2    dxz  x2-y2    tot
    1  0.000  0.000  0.001  0.001  0.487  0.487  0.000  0.000  0.000  0.976
 
band     4 # energy    7.02830199 # occ.  1.00000000
 
ion      s     py     pz     px    dxy    dyz    dz2    dxz  x2-y2    tot
    1  0.000  0.000  0.001  0.001  0.487  0.487  0.000  0.000  0.000  0.976
 
band     5 # energy    7.93151683 # occ.  1.00000000
 
ion      s     py     pz     px    dxy    dyz    dz2    dxz  x2-y2    tot
    1  0.001  0.000  0.000  0.000  0.000  0.000  0.246  0.000  0.737  0.984
 
band     6 # energy    8.12148674 # occ.  1.00000000
 
ion      s     py     pz     px    dxy    dyz    dz2    dxz  x2-y2    tot
    1  0.000  0.000  0.000  0.000  0.000  0.000  0.741  0.000  0.247  0.988
 
band     7 # energy   32.23736989 # occ.  0.00000000
 
ion      s     py     pz     px    dxy    dyz    dz2    dxz  x2-y2    tot
    1  0.000  0.000  0.000  0.000  0.000  0.000  0.000  0.272  0.000  0.272
 
band     8 # energy   34.27535495 # occ.  0.00000000
 
ion      s     py     pz     px    dxy    dyz    dz2    dxz  x2-y2    tot
    1  0.000  0.000  0.187  0.187  0.170  0.170  0.000  0.000  0.000  0.714
 
band     9 # energy   34.27547658 # occ.  0.00000000
 
ion      s     py     pz     px    dxy    dyz    dz2    dxz  x2-y2    tot
    1  0.000  0.000  0.187  0.187  0.170  0.170  0.000  0.000  0.000  0.714
 
band    10 # energy   35.14877731 # occ.  0.00000000
 
ion      s     py     pz     px    dxy    dyz    dz2    dxz  x2-y2    tot
    1  0.050  0.178  0.000  0.000  0.000  0.000  0.020  0.000  0.061  0.310
 
band    11 # energy   41.65368730 # occ.  0.00000000
 
ion      s     py     pz     px    dxy    dyz    dz2    dxz  x2-y2    tot
    1  0.000  0.000  0.000  0.000  0.000  0.000  0.000  0.956  0.000  0.956
 
band    12 # energy   42.43306179 # occ.  0.00000000
 
ion      s     py     pz     px    dxy    dyz    dz2    dxz  x2-y2    tot
    1  0.000  0.000  0.007  0.006  0.300  0.366  0.000  0.000  0.000  0.679
 

 k-point     8 :    0.18181818 0.09090909 0.00000000     weight = 0.01803156

band     1 # energy    1.48279857 # occ.  1.00000000
 
ion      s     py     pz     px    dxy    dyz    dz2    dxz  x2-y2    tot
    1  0.645  0.061  0.007  0.007  0.002  0.002  0.001  0.000  0.003  0.728
 
band     2 # energy    6.58134062 # occ.  1.00000000
 
ion      s     py     pz     px    dxy    dyz    dz2    dxz  x2-y2    tot
    1  0.000  0.000  0.002  0.002  0.055  0.055  0.000  0.849  0.000  0.964
 
band     3 # energy    7.16154502 # occ.  1.00000000
 
ion      s     py     pz     px    dxy    dyz    dz2    dxz  x2-y2    tot
    1  0.000  0.001  0.002  0.002  0.405  0.402  0.013  0.110  0.039  0.975
 
band     4 # energy    7.17123222 # occ.  1.00000000
 
ion      s     py     pz     px    dxy    dyz    dz2    dxz  x2-y2    tot
    1  0.000  0.000  0.002  0.002  0.466  0.469  0.027  0.000  0.009  0.976
 
band     5 # energy    7.82981253 # occ.  1.00000000
 
ion      s     py     pz     px    dxy    dyz    dz2    dxz  x2-y2    tot
    1  0.003  0.002  0.000  0.000  0.023  0.023  0.231  0.006  0.692  0.979
 
band     6 # energy    8.17403719 # occ.  1.00000000
 
ion      s     py     pz     px    dxy    dyz    dz2    dxz  x2-y2    tot
    1  0.000  0.000  0.000  0.000  0.018  0.018  0.713  0.000  0.238  0.987
 
band     7 # energy   28.95983633 # occ.  0.00000000
 
ion      s     py     pz     px    dxy    dyz    dz2    dxz  x2-y2    tot
    1  0.032  0.036  0.108  0.108  0.107  0.107  0.001  0.187  0.004  0.691
 
band     8 # energy   32.70616652 # occ.  0.00000000
 
ion      s     py     pz     px    dxy    dyz    dz2    dxz  x2-y2    tot
    1  0.037  0.044  0.008  0.008  0.007  0.006  0.012  0.196  0.035  0.353
 
band     9 # energy   32.78012726 # occ.  0.00000000
 
ion      s     py     pz     px    dxy    dyz    dz2    dxz  x2-y2    tot
    1  0.000  0.000  0.205  0.205  0.176  0.176  0.009  0.000  0.003  0.774
 
band    10 # energy   36.17889901 # occ.  0.00000000
 
ion      s     py     pz     px    dxy    dyz    dz2    dxz  x2-y2    tot
    1  0.002  0.001  0.076  0.076  0.030  0.030  0.044  0.023  0.133  0.416
 
band    11 # energy   39.72448584 # occ.  0.00000000
 
ion      s     py     pz     px    dxy    dyz    dz2    dxz  x2-y2    tot
    1  0.039  0.473  0.024  0.024  0.026  0.026  0.015  0.084  0.045  0.756
 
band    12 # energy   42.08117299 # occ.  0.00000000
 
ion      s     py     pz     px    dxy    dyz    dz2    dxz  x2-y2    tot
    1  0.046  0.125  0.006  0.006  0.153  0.153  0.043  0.302  0.128  0.962
 

 k-point     9 :    0.27272727 0.09090909 0.00000000     weight = 0.01803156

band     1 # energy    2.69442765 # occ.  1.00000000
 
ion      s     py     pz     px    dxy    dyz    dz2    dxz  x2-y2    tot
    1  0.545  0.094  0.021  0.021  0.019  0.019  0.003  0.009  0.008  0.739
 
band     2 # energy    6.43601391 # occ.  1.00000000
 
ion      s     py     pz     px    dxy    dyz    dz2    dxz  x2-y2    tot
    1  0.006  0.007  0.012  0.012  0.094  0.094  0.001  0.718  0.002  0.946
 
band     3 # energy    7.14725698 # occ.  1.00000000
 
ion      s     py     pz     px    dxy    dyz    dz2    dxz  x2-y2    tot
    1  0.000  0.001  0.001  0.001  0.220  0.219  0.093  0.157  0.278  0.971
 
band     4 # energy    7.24597944 # occ.  1.00000000
 
ion      s     py     pz     px    dxy    dyz    dz2    dxz  x2-y2    tot
    1  0.000  0.000  0.002  0.002  0.377  0.378  0.161  0.000  0.054  0.975
 
band     5 # energy    8.01243859 # occ.  1.00000000
 
ion      s     py     pz     px    dxy    dyz    dz2    dxz  x2-y2    tot
    1  0.011  0.009  0.002  0.002  0.146  0.146  0.148  0.070  0.443  0.976
 
band     6 # energy    8.31806980 # occ.  1.00000000
 
ion      s     py     pz     px    dxy    dyz    dz2    dxz  x2-y2    tot
    1  0.000  0.000  0.000  0.000  0.109  0.109  0.577  0.000  0.192  0.988
 
band     7 # energy   24.31273531 # occ.  0.00000000
 
ion      s     py     pz     px    dxy    dyz    dz2    dxz  x2-y2    tot
    1  0.096  0.054  0.129  0.129  0.102  0.102  0.001  0.146  0.004  0.764
 
band     8 # energy   31.79663683 # occ.  0.00000000
 
ion      s     py     pz     px    dxy    dyz    dz2    dxz  x2-y2    tot
    1  0.000  0.000  0.225  0.225  0.151  0.151  0.029  0.000  0.010  0.792
 
band     9 # energy   31.97603391 # occ.  0.00000000
 
ion      s     py     pz     px    dxy    dyz    dz2    dxz  x2-y2    tot
    1  0.027  0.008  0.001  0.001  0.000  0.000  0.025  0.213  0.074  0.348
 
band    10 # energy   35.92731264 # occ.  0.00000000
 
ion      s     py     pz     px    dxy    dyz    dz2    dxz  x2-y2    tot
    1  0.049  0.304  0.000  0.000  0.003  0.003  0.060  0.099  0.180  0.698
 
band    11 # energy   39.14372551 # occ.  0.00000000
 
ion      s     py     pz     px    dxy    dyz    dz2    dxz  x2-y2    tot
    1  0.005  0.151  0.071  0.071  0.022  0.022  0.029  0.036  0.086  0.493
 
band    12 # energy   41.82860052 # occ.  0.00000000
 
ion      s     py     pz     px    dxy    dyz    dz2    dxz  x2-y2    tot
    1  0.015  0.063  0.090  0.090  0.075  0.075  0.036  0.207  0.109  0.759
 

 k-point    10 :    0.36363636 0.09090909 0.00000000     weight = 0.01803156

band     1 # energy    3.97966447 # occ.  1.00000000
 
ion      s     py     pz     px    dxy    dyz    dz2    dxz  x2-y2    tot
    1  0.370  0.087  0.021  0.021  0.097  0.097  0.004  0.083  0.013  0.793
 
band     2 # energy    6.63326011 # occ.  1.00000000
 
ion      s     py     pz     px    dxy    dyz    dz2    dxz  x2-y2    tot
    1  0.036  0.045  0.048  0.048  0.062  0.062  0.016  0.525  0.049  0.891
 
band     3 # energy    6.97676034 # occ.  1.00000000
 
ion      s     py     pz     px    dxy    dyz    dz2    dxz  x2-y2    tot
    1  0.001  0.000  0.000  0.000  0.114  0.114  0.126  0.234  0.378  0.968
 
band     4 # energy    7.18183207 # occ.  1.00000000
 
ion      s     py     pz     px    dxy    dyz    dz2    dxz  x2-y2    tot
    1  0.000  0.000  0.002  0.002  0.277  0.277  0.311  0.000  0.104  0.973
 
band     5 # energy    8.55859702 # occ.  1.00000000
 
ion      s     py     pz     px    dxy    dyz    dz2    dxz  x2-y2    tot
    1  0.000  0.000  0.000  0.000  0.210  0.214  0.423  0.000  0.144  0.991
 
band     6 # energy    8.56845772 # occ.  1.05493853
 
ion      s     py     pz     px    dxy    dyz    dz2    dxz  x2-y2    tot
    1  0.033  0.031  0.011  0.011  0.199  0.194  0.098  0.096  0.287  0.959
 
band     7 # energy   19.99136364 # occ.  0.00000000
 
ion      s     py     pz     px    dxy    dyz    dz2    dxz  x2-y2    tot
    1  0.192  0.048  0.119  0.119  0.094  0.094  0.001  0.137  0.004  0.807
 
band     8 # energy   31.17739602 # occ.  0.00000000
 
ion      s     py     pz     px    dxy    dyz    dz2    dxz  x2-y2    tot
    1  0.006  0.008  0.003  0.003  0.000  0.000  0.041  0.134  0.121  0.318
 
band     9 # energy   31.36090066 # occ.  0.00000000
 
ion      s     py     pz     px    dxy    dyz    dz2    dxz  x2-y2    tot
    1  0.000  0.000  0.244  0.244  0.107  0.107  0.057  0.000  0.019  0.779
 
band    10 # energy   34.02869111 # occ.  0.00000000
 
ion      s     py     pz     px    dxy    dyz    dz2    dxz  x2-y2    tot
    1  0.082  0.384  0.030  0.030  0.002  0.002  0.029  0.104  0.086  0.748
 
band    11 # energy   39.46689513 # occ.  0.00000000
 
ion      s     py     pz     px    dxy    dyz    dz2    dxz  x2-y2    tot
    1  0.000  0.033  0.005  0.005  0.053  0.053  0.095  0.141  0.284  0.669
 
band    12 # energy   41.30944736 # occ.  0.00000000
 
ion      s     py     pz     px    dxy    dyz    dz2    dxz  x2-y2    tot
    1  0.000  0.000  0.062  0.062  0.037  0.037  0.401  0.000  0.134  0.731
 

 k-point    11 :    0.45454545 0.09090909 0.00000000     weight = 0.01803156

band     1 # energy    4.59870966 # occ.  1.00000000
 
ion      s     py     pz     px    dxy    dyz    dz2    dxz  x2-y2    tot
    1  0.195  0.032  0.002  0.002  0.203  0.203  0.002  0.233  0.005  0.877
 
band     2 # energy    6.82293865 # occ.  1.00000000
 
ion      s     py     pz     px    dxy    dyz    dz2    dxz  x2-y2    tot
    1  0.000  0.002  0.006  0.006  0.088  0.088  0.159  0.127  0.478  0.954
 
band     3 # energy    7.08199682 # occ.  1.00000000
 
ion      s     py     pz     px    dxy    dyz    dz2    dxz  x2-y2    tot
    1  0.000  0.000  0.001  0.001  0.223  0.223  0.391  0.000  0.131  0.970
 
band     4 # energy    7.41450659 # occ.  1.00000000
 
ion      s     py     pz     px    dxy    dyz    dz2    dxz  x2-y2    tot
    1  0.028  0.081  0.076  0.076  0.015  0.015  0.021  0.490  0.063  0.865
 
band     5 # energy    8.72166142 # occ.  1.00000000
 
ion      s     py     pz     px    dxy    dyz    dz2    dxz  x2-y2    tot
    1  0.000  0.000  0.000  0.000  0.269  0.269  0.341  0.000  0.114  0.993
 
band     6 # energy    9.56157659 # occ.  0.14259592
 
ion      s     py     pz     px    dxy    dyz    dz2    dxz  x2-y2    tot
    1  0.053  0.108  0.067  0.067  0.140  0.140  0.061  0.056  0.183  0.876
 
band     7 # energy   16.42170608 # occ.  0.00000000
 
ion      s     py     pz     px    dxy    dyz    dz2    dxz  x2-y2    tot
    1  0.337  0.016  0.070  0.070  0.105  0.105  0.001  0.150  0.003  0.857
 
band     8 # energy   30.32517934 # occ.  0.00000000
 
ion      s     py     pz     px    dxy    dyz    dz2    dxz  x2-y2    tot
    1  0.002  0.090  0.000  0.000  0.009  0.009  0.051  0.059  0.154  0.375
 
band     9 # energy   31.55240485 # occ.  0.00000000
 
ion      s     py     pz     px    dxy    dyz    dz2    dxz  x2-y2    tot
    1  0.000  0.000  0.257  0.257  0.059  0.059  0.093  0.000  0.031  0.756
 
band    10 # energy   32.77425254 # occ.  0.00000000
 
ion      s     py     pz     px    dxy    dyz    dz2    dxz  x2-y2    tot
    1  0.077  0.289  0.071  0.071  0.007  0.007  0.006  0.074  0.018  0.621
 
band    11 # energy   39.32057284 # occ.  0.00000000
 
ion      s     py     pz     px    dxy    dyz    dz2    dxz  x2-y2    tot
    1  0.010  0.022  0.000  0.000  0.024  0.024  0.113  0.233  0.338  0.765
 
band    12 # energy   39.77371450 # occ.  0.00000000
 
ion      s     py     pz     px    dxy    dyz    dz2    dxz  x2-y2    tot
    1  0.000  0.000  0.062  0.062  0.099  0.099  0.393  0.000  0.131  0.847
 

 k-point    12 :   -0.45454545 0.09090909 0.00000000     weight = 0.01803156

band     1 # energy    4.69145724 # occ.  1.00000000
 
ion      s     py     pz     px    dxy    dyz    dz2    dxz  x2-y2    tot
    1  0.157  0.005  0.004  0.004  0.229  0.229  0.000  0.269  0.000  0.896
 
band     2 # energy    6.79952351 # occ.  1.00000000
 
ion      s     py     pz     px    dxy    dyz    dz2    dxz  x2-y2    tot
    1  0.000  0.000  0.004  0.004  0.060  0.060  0.153  0.218  0.457  0.957
 
band     3 # energy    7.03981820 # occ.  1.00000000
 
ion      s     py     pz     px    dxy    dyz    dz2    dxz  x2-y2    tot
    1  0.000  0.000  0.001  0.001  0.202  0.203  0.422  0.000  0.141  0.970
 
band     4 # energy    7.75684949 # occ.  1.00000000
 
ion      s     py     pz     px    dxy    dyz    dz2    dxz  x2-y2    tot
    1  0.001  0.078  0.078  0.078  0.099  0.099  0.043  0.267  0.130  0.874
 
band     5 # energy    8.68203347 # occ.  1.00000000
 
ion      s     py     pz     px    dxy    dyz    dz2    dxz  x2-y2    tot
    1  0.000  0.000  0.000  0.000  0.290  0.290  0.308  0.000  0.103  0.992
 
band     6 # energy   10.26172945 # occ. -0.04797814
 
ion      s     py     pz     px    dxy    dyz    dz2    dxz  x2-y2    tot
    1  0.006  0.137  0.140  0.140  0.018  0.018  0.048  0.157  0.145  0.809
 
band     7 # energy   15.08297948 # occ.  0.00000000
 
ion      s     py     pz     px    dxy    dyz    dz2    dxz  x2-y2    tot
    1  0.445  0.026  0.000  0.000  0.145  0.145  0.000  0.136  0.000  0.897
 
band     8 # energy   29.55577857 # occ.  0.00000000
 
ion      s     py     pz     px    dxy    dyz    dz2    dxz  x2-y2    tot