<?xml version="1.0" encoding="ISO-8859-1"?>
<modeling>
 <generator>
  <i name="program" type="string">vasp </i>
  <i name="version" type="string">6.3.0  </i>
  <i name="subversion" type="string">20Jan22 (build Feb 01 2022 16:52:37) complex                          parallel </i>
  <i name="platform" type="string">TETRA_NSC1 </i>
  <i name="date" type="string">2022 02 23 </i>
  <i name="time" type="string">14:09:15 </i>
 </generator>
 <incar>
  <i type="string" name="SYSTEM">Ni fcc bulk</i>
  <i type="int" name="ISTART">     0</i>
  <i type="int" name="ISPIN">     2</i>
  <v name="MAGMOM">      1.00000000</v>
  <i type="int" name="ISMEAR">    -5</i>
  <i type="int" name="LORBIT">    11</i>
  <i type="int" name="VOSKOWN">     1</i>
 </incar>
 <primitive_cell>
  <structure name="primitive_cell" >
   <crystal>
    <varray name="basis" >
     <v>       1.76142189       1.76142189       0.00000000 </v>
     <v>       0.00000000       1.76142189       1.76142189 </v>
     <v>       1.76142189       0.00000000       1.76142189 </v>
    </varray>
    <i name="volume">     10.93000000 </i>
    <varray name="rec_basis" >
     <v>       0.28386158       0.28386158      -0.28386158 </v>
     <v>      -0.28386158       0.28386158       0.28386158 </v>
     <v>       0.28386158      -0.28386158       0.28386158 </v>
    </varray>
   </crystal>
   <varray name="positions" >
    <v>       0.00000000       0.00000000       0.00000000 </v>
   </varray>
  </structure>
  <varray name="primitive_index" >
   <v type="int" >        1 </v>
  </varray>
 </primitive_cell>
 <kpoints>
  <generation param="Gamma">
   <v type="int" name="divisions">      11       11       11 </v>
   <v name="usershift">      0.00000000       0.00000000       0.00000000 </v>
   <v name="genvec1">      0.09090909       0.00000000       0.00000000 </v>
   <v name="genvec2">      0.00000000       0.09090909      -0.00000000 </v>
   <v name="genvec3">     -0.00000000      -0.00000000       0.09090909 </v>
   <v name="shift">      0.00000000       0.00000000       0.00000000 </v>
  </generation>
  <varray name="kpointlist" >
   <v>       0.00000000       0.00000000       0.00000000 </v>
   <v>       0.09090909       0.00000000       0.00000000 </v>
   <v>       0.18181818      -0.00000000      -0.00000000 </v>
   <v>       0.27272727      -0.00000000      -0.00000000 </v>
   <v>       0.36363636      -0.00000000      -0.00000000 </v>
   <v>       0.45454545      -0.00000000       0.00000000 </v>
   <v>       0.09090909       0.09090909      -0.00000000 </v>
   <v>       0.18181818       0.09090909       0.00000000 </v>
   <v>       0.27272727       0.09090909       0.00000000 </v>
   <v>       0.36363636       0.09090909       0.00000000 </v>
   <v>       0.45454545       0.09090909       0.00000000 </v>
   <v>      -0.45454545       0.09090909       0.00000000 </v>
   <v>      -0.36363636       0.09090909      -0.00000000 </v>
   <v>      -0.27272727       0.09090909       0.00000000 </v>
   <v>      -0.18181818       0.09090909       0.00000000 </v>
   <v>      -0.09090909       0.09090909      -0.00000000 </v>
   <v>       0.18181818       0.18181818       0.00000000 </v>
   <v>       0.27272727       0.18181818       0.00000000 </v>
   <v>       0.36363636       0.18181818       0.00000000 </v>
   <v>       0.45454545       0.18181818       0.00000000 </v>
   <v>      -0.45454545       0.18181818      -0.00000000 </v>
   <v>      -0.36363636       0.18181818       0.00000000 </v>
   <v>      -0.27272727       0.18181818       0.00000000 </v>
   <v>      -0.18181818       0.18181818       0.00000000 </v>
   <v>       0.27272727       0.27272727       0.00000000 </v>
   <v>       0.36363636       0.27272727       0.00000000 </v>
   <v>       0.45454545       0.27272727       0.00000000 </v>
   <v>      -0.45454545       0.27272727      -0.00000000 </v>
   <v>      -0.36363636       0.27272727       0.00000000 </v>
   <v>      -0.27272727       0.27272727       0.00000000 </v>
   <v>       0.36363636       0.36363636       0.00000000 </v>
   <v>       0.45454545       0.36363636       0.00000000 </v>
   <v>      -0.45454545       0.36363636      -0.00000000 </v>
   <v>      -0.36363636       0.36363636       0.00000000 </v>
   <v>       0.45454545       0.45454545       0.00000000 </v>
   <v>      -0.45454545       0.45454545       0.00000000 </v>
   <v>       0.27272727       0.18181818       0.09090909 </v>
   <v>       0.36363636       0.18181818       0.09090909 </v>
   <v>       0.45454545       0.18181818       0.09090909 </v>
   <v>      -0.45454545       0.18181818       0.09090909 </v>
   <v>       0.36363636       0.27272727       0.09090909 </v>
   <v>       0.45454545       0.27272727       0.09090909 </v>
   <v>      -0.45454545       0.27272727       0.09090909 </v>
   <v>      -0.36363636       0.27272727       0.09090909 </v>
   <v>      -0.27272727       0.27272727       0.09090909 </v>
   <v>      -0.18181818       0.27272727       0.09090909 </v>
   <v>       0.45454545       0.36363636       0.09090909 </v>
   <v>      -0.45454545       0.36363636       0.09090909 </v>
   <v>      -0.36363636       0.36363636       0.09090909 </v>
   <v>      -0.27272727       0.36363636       0.09090909 </v>
   <v>      -0.45454545       0.45454545       0.09090909 </v>
   <v>      -0.36363636       0.45454545       0.09090909 </v>
   <v>      -0.45454545       0.36363636       0.18181818 </v>
   <v>      -0.36363636       0.36363636       0.18181818 </v>
   <v>      -0.36363636       0.45454545       0.18181818 </v>
   <v>      -0.27272727       0.45454545       0.18181818 </v>
  </varray>
  <varray name="weights" >
   <v>       0.00075131 </v>
   <v>       0.00601052 </v>
   <v>       0.00601052 </v>
   <v>       0.00601052 </v>
   <v>       0.00601052 </v>
   <v>       0.00601052 </v>
   <v>       0.00450789 </v>
   <v>       0.01803156 </v>
   <v>       0.01803156 </v>
   <v>       0.01803156 </v>
   <v>       0.01803156 </v>
   <v>       0.01803156 </v>
   <v>       0.01803156 </v>
   <v>       0.01803156 </v>
   <v>       0.01803156 </v>
   <v>       0.00901578 </v>
   <v>       0.00450789 </v>
   <v>       0.01803156 </v>
   <v>       0.01803156 </v>
   <v>       0.01803156 </v>
   <v>       0.01803156 </v>
   <v>       0.01803156 </v>
   <v>       0.01803156 </v>
   <v>       0.00901578 </v>
   <v>       0.00450789 </v>
   <v>       0.01803156 </v>
   <v>       0.01803156 </v>
   <v>       0.01803156 </v>
   <v>       0.01803156 </v>
   <v>       0.00901578 </v>
   <v>       0.00450789 </v>
   <v>       0.01803156 </v>
   <v>       0.01803156 </v>
   <v>       0.00901578 </v>
   <v>       0.00450789 </v>
   <v>       0.00901578 </v>
   <v>       0.01803156 </v>
   <v>       0.03606311 </v>
   <v>       0.03606311 </v>
   <v>       0.03606311 </v>
   <v>       0.01803156 </v>
   <v>       0.03606311 </v>
   <v>       0.03606311 </v>
   <v>       0.03606311 </v>
   <v>       0.03606311 </v>
   <v>       0.01803156 </v>
   <v>       0.01803156 </v>
   <v>       0.03606311 </v>
   <v>       0.03606311 </v>
   <v>       0.01803156 </v>
   <v>       0.01803156 </v>
   <v>       0.01803156 </v>
   <v>       0.01803156 </v>
   <v>       0.03606311 </v>
   <v>       0.01803156 </v>
   <v>       0.01803156 </v>
  </varray>
  <varray name="tetrahedronlist"  type="int" >
   <v type="int" >       24        1        2        2        7 </v>
   <v type="int" >       48        2        7        8       16 </v>
   <v type="int" >       48        2        3        8       16 </v>
   <v type="int" >       24        2        2        7       16 </v>
   <v type="int" >       48        3        8        9       15 </v>
   <v type="int" >       48        3        4        9       15 </v>
   <v type="int" >       48        3        8       15       16 </v>
   <v type="int" >       48        4        9       10       14 </v>
   <v type="int" >       48        4        5       10       14 </v>
   <v type="int" >       48        4        9       14       15 </v>
   <v type="int" >       48        5       10       11       13 </v>
   <v type="int" >       48        5        6       11       13 </v>
   <v type="int" >       48        5       10       13       14 </v>
   <v type="int" >       48        6       11       12       12 </v>
   <v type="int" >       24        6        6       12       12 </v>
   <v type="int" >       48        6       11       12       13 </v>
   <v type="int" >       24        7        8        8       17 </v>
   <v type="int" >       24        7        8        8       16 </v>
   <v type="int" >       48        8       17       18       37 </v>
   <v type="int" >       48        8        9       18       37 </v>
   <v type="int" >       48        8        9       15       37 </v>
   <v type="int" >       24        8        8       17       37 </v>
   <v type="int" >       24        8        8       16       37 </v>
   <v type="int" >       48        8       15       16       37 </v>
   <v type="int" >       48        9       18       19       38 </v>
   <v type="int" >       48        9       10       19       38 </v>
   <v type="int" >       48        9       10       14       38 </v>
   <v type="int" >       48        9       18       37       38 </v>
   <v type="int" >       48        9       15       37       38 </v>
   <v type="int" >       48        9       14       15       38 </v>
   <v type="int" >       48       10       19       20       39 </v>
   <v type="int" >       48       10       11       20       39 </v>
   <v type="int" >       48       10       11       13       39 </v>
   <v type="int" >       48       10       19       38       39 </v>
   <v type="int" >       48       10       14       38       39 </v>
   <v type="int" >       48       10       13       14       39 </v>
   <v type="int" >       48       11       20       21       40 </v>
   <v type="int" >       48       11       12       21       40 </v>
   <v type="int" >       48       11       12       12       40 </v>
   <v type="int" >       48       11       20       39       40 </v>
   <v type="int" >       48       11       13       39       40 </v>
   <v type="int" >       48       11       12       13       40 </v>
   <v type="int" >       48       12       21       22       40 </v>
   <v type="int" >       48       12       13       22       40 </v>
   <v type="int" >       48       12       21       40       40 </v>
   <v type="int" >       24       12       12       40       40 </v>
   <v type="int" >       48       13       22       23       39 </v>
   <v type="int" >       48       13       14       23       39 </v>
   <v type="int" >       48       13       22       39       40 </v>
   <v type="int" >       48       14       23       24       38 </v>
   <v type="int" >       48       14       15       24       38 </v>
   <v type="int" >       48       14       23       38       39 </v>
   <v type="int" >       24       15       15       24       37 </v>
   <v type="int" >       24       15       15       16       37 </v>
   <v type="int" >       48       15       24       37       38 </v>
   <v type="int" >       24       17       18       18       25 </v>
   <v type="int" >       24       17       18       18       37 </v>
   <v type="int" >       48       18       25       26       41 </v>
   <v type="int" >       48       18       19       26       41 </v>
   <v type="int" >       48       18       19       38       41 </v>
   <v type="int" >       24       18       18       25       41 </v>
   <v type="int" >       24       18       18       37       41 </v>
   <v type="int" >       48       18       37       38       41 </v>
   <v type="int" >       48       19       26       27       42 </v>
   <v type="int" >       48       19       20       27       42 </v>
   <v type="int" >       48       19       20       39       42 </v>
   <v type="int" >       48       19       26       41       42 </v>
   <v type="int" >       48       19       38       41       42 </v>
   <v type="int" >       48       19       38       39       42 </v>
   <v type="int" >       48       20       27       28       43 </v>
   <v type="int" >       48       20       21       28       43 </v>
   <v type="int" >       48       20       21       40       43 </v>
   <v type="int" >       48       20       27       42       43 </v>
   <v type="int" >       48       20       39       42       43 </v>
   <v type="int" >       48       20       39       40       43 </v>
   <v type="int" >       48       21       28       29       44 </v>
   <v type="int" >       48       21       22       29       44 </v>
   <v type="int" >       48       21       22       40       44 </v>
   <v type="int" >       48       21       28       43       44 </v>
   <v type="int" >       48       21       40       43       44 </v>
   <v type="int" >       48       21       40       40       44 </v>
   <v type="int" >       48       22       29       30       45 </v>
   <v type="int" >       48       22       23       30       45 </v>
   <v type="int" >       48       22       23       39       45 </v>
   <v type="int" >       48       22       29       44       45 </v>
   <v type="int" >       48       22       40       44       45 </v>
   <v type="int" >       48       22       39       40       45 </v>
   <v type="int" >       24       23       23       30       46 </v>
   <v type="int" >       24       23       23       24       46 </v>
   <v type="int" >       48       23       24       38       46 </v>
   <v type="int" >       48       23       30       45       46 </v>
   <v type="int" >       48       23       39       45       46 </v>
   <v type="int" >       48       23       38       39       46 </v>
   <v type="int" >       24       24       38       38       46 </v>
   <v type="int" >       24       24       37       38       38 </v>
   <v type="int" >       24       25       26       26       31 </v>
   <v type="int" >       24       25       26       26       41 </v>
   <v type="int" >       48       26       31       32       47 </v>
   <v type="int" >       48       26       27       32       47 </v>
   <v type="int" >       48       26       27       42       47 </v>
   <v type="int" >       24       26       26       31       47 </v>
   <v type="int" >       24       26       26       41       47 </v>
   <v type="int" >       48       26       41       42       47 </v>
   <v type="int" >       48       27       32       33       48 </v>
   <v type="int" >       48       27       28       33       48 </v>
   <v type="int" >       48       27       28       43       48 </v>
   <v type="int" >       48       27       32       47       48 </v>
   <v type="int" >       48       27       42       47       48 </v>
   <v type="int" >       48       27       42       43       48 </v>
   <v type="int" >       48       28       33       34       49 </v>
   <v type="int" >       48       28       29       34       49 </v>
   <v type="int" >       48       28       29       44       49 </v>
   <v type="int" >       48       28       33       48       49 </v>
   <v type="int" >       48       28       43       48       49 </v>
   <v type="int" >       48       28       43       44       49 </v>
   <v type="int" >       24       29       29       34       50 </v>
   <v type="int" >       24       29       29       30       50 </v>
   <v type="int" >       48       29       30       45       50 </v>
   <v type="int" >       48       29       34       49       50 </v>
   <v type="int" >       48       29       44       49       50 </v>
   <v type="int" >       48       29       44       45       50 </v>
   <v type="int" >       24       30       45       45       50 </v>
   <v type="int" >       24       30       45       45       46 </v>
   <v type="int" >       24       31       32       32       35 </v>
   <v type="int" >       24       31       32       32       47 </v>
   <v type="int" >       48       32       35       36       51 </v>
   <v type="int" >       48       32       33       36       51 </v>
   <v type="int" >       48       32       33       48       51 </v>
   <v type="int" >       24       32       32       35       51 </v>
   <v type="int" >       24       32       32       47       51 </v>
   <v type="int" >       48       32       47       48       51 </v>
   <v type="int" >       24       33       33       36       52 </v>
   <v type="int" >       24       33       33       34       52 </v>
   <v type="int" >       48       33       34       49       52 </v>
   <v type="int" >       48       33       36       51       52 </v>
   <v type="int" >       48       33       48       51       52 </v>
   <v type="int" >       48       33       48       49       52 </v>
   <v type="int" >       24       34       49       49       52 </v>
   <v type="int" >       24       34       49       49       50 </v>
   <v type="int" >       12       35       35       36       36 </v>
   <v type="int" >       24       35       36       36       51 </v>
   <v type="int" >       12       36       36       51       51 </v>
   <v type="int" >       24       36       51       51       52 </v>
   <v type="int" >       24       37       38       38       41 </v>
   <v type="int" >       48       38       41       42       46 </v>
   <v type="int" >       48       38       39       42       46 </v>
   <v type="int" >       24       38       38       41       46 </v>
   <v type="int" >       48       39       42       43       45 </v>
   <v type="int" >       48       39       40       43       45 </v>
   <v type="int" >       48       39       42       45       46 </v>
   <v type="int" >       48       40       43       44       44 </v>
   <v type="int" >       24       40       40       44       44 </v>
   <v type="int" >       48       40       43       44       45 </v>
   <v type="int" >       24       41       42       42       47 </v>
   <v type="int" >       24       41       42       42       46 </v>
   <v type="int" >       48       42       47       48       53 </v>
   <v type="int" >       48       42       43       48       53 </v>
   <v type="int" >       48       42       43       45       53 </v>
   <v type="int" >       24       42       42       47       53 </v>
   <v type="int" >       24       42       42       46       53 </v>
   <v type="int" >       48       42       45       46       53 </v>
   <v type="int" >       48       43       48       49       54 </v>
   <v type="int" >       48       43       44       49       54 </v>
   <v type="int" >       48       43       44       44       54 </v>
   <v type="int" >       48       43       48       53       54 </v>
   <v type="int" >       48       43       45       53       54 </v>
   <v type="int" >       48       43       44       45       54 </v>
   <v type="int" >       48       44       49       50       54 </v>
   <v type="int" >       48       44       45       50       54 </v>
   <v type="int" >       48       44       49       54       54 </v>
   <v type="int" >       24       44       44       54       54 </v>
   <v type="int" >       24       45       45       50       53 </v>
   <v type="int" >       24       45       45       46       53 </v>
   <v type="int" >       48       45       50       53       54 </v>
   <v type="int" >       24       47       48       48       51 </v>
   <v type="int" >       24       47       48       48       53 </v>
   <v type="int" >       48       48       51       52       55 </v>
   <v type="int" >       48       48       49       52       55 </v>
   <v type="int" >       48       48       49       54       55 </v>
   <v type="int" >       24       48       48       51       55 </v>
   <v type="int" >       24       48       48       53       55 </v>
   <v type="int" >       48       48       53       54       55 </v>
   <v type="int" >       24       49       49       52       56 </v>
   <v type="int" >       24       49       49       50       56 </v>
   <v type="int" >       48       49       50       54       56 </v>
   <v type="int" >       48       49       52       55       56 </v>
   <v type="int" >       48       49       54       55       56 </v>
   <v type="int" >       48       49       54       54       56 </v>
   <v type="int" >       24       50       54       54       56 </v>
   <v type="int" >       24       50       53       54       54 </v>
   <v type="int" >       12       51       51       52       52 </v>
   <v type="int" >       24       51       52       52       55 </v>
   <v type="int" >       12       52       52       55       55 </v>
   <v type="int" >       24       52       55       55       56 </v>
   <v type="int" >       24       53       54       54       55 </v>
   <v type="int" >       48       54       55       56       56 </v>
   <v type="int" >       24       54       54       56       56 </v>
   <v type="int" >       24       54       54       55       56 </v>
   <v type="int" >       12       55       55       56       56 </v>
   <v type="int" >       24       55       56       56       56 </v>
   <v type="int" >        6       56       56       56       56 </v>
  </varray>
  <i name="volumeweight">      0.00012522 </i>
 </kpoints>
 <parameters>
  <separator name="general" >
   <i type="string" name="SYSTEM">Ni fcc bulk</i>
   <i type="logical" name="LCOMPAT"> F  </i>
  </separator>
  <separator name="electronic" >
   <i type="string" name="PREC">normal</i>
   <i name="ENMAX">    269.53200000</i>
   <i name="ENAUG">    544.56500000</i>
   <i name="EDIFF">      0.00010000</i>
   <i type="int" name="IALGO">    38</i>
   <i type="int" name="IWAVPR">    10</i>
   <i type="int" name="NBANDS">    12</i>
   <i type="int" name="NBANDSLOW">    -1</i>
   <i type="int" name="NBANDSHIGH">    -1</i>
   <i name="NELECT">     10.00000000</i>
   <i type="int" name="TURBO">     0</i>
   <i type="int" name="IRESTART">     0</i>
   <i type="int" name="NREBOOT">     0</i>
   <i type="int" name="NMIN">     0</i>
   <i name="EREF">      0.00000000</i>
   <separator name="electronic smearing" >
    <i type="int" name="ISMEAR">    -5</i>
    <i name="SIGMA">      0.20000000</i>
    <i name="KSPACING">      0.50000000</i>
    <i type="logical" name="KGAMMA"> T  </i>
    <i type="logical" name="KBLOWUP"> T  </i>
   </separator>
   <separator name="electronic projectors" >
    <i type="logical" name="LREAL"> F  </i>
    <v name="ROPT">      0.00000000</v>
    <i type="int" name="LMAXPAW">  -100</i>
    <i type="int" name="LMAXMIX">     2</i>
    <i type="logical" name="NLSPLINE"> F  </i>
   </separator>
   <separator name="electronic startup" >
    <i type="int" name="ISTART">     0</i>
    <i type="int" name="ICHARG">     2</i>
    <i type="int" name="INIWAV">     1</i>
   </separator>
   <separator name="electronic spin" >
    <i type="int" name="ISPIN">     2</i>
    <i type="logical" name="LNONCOLLINEAR"> F  </i>
    <v name="MAGMOM">      1.00000000</v>
    <i name="NUPDOWN">     -1.00000000</i>
    <i type="logical" name="LSORBIT"> F  </i>
    <v name="SAXIS">      0.00000000      0.00000000      1.00000000</v>
    <i type="logical" name="LSPIRAL"> F  </i>
    <v name="QSPIRAL">      0.00000000      0.00000000      0.00000000</v>
    <i type="logical" name="LZEROZ"> F  </i>
   </separator>
   <separator name="electronic exchange-correlation" >
    <i type="logical" name="LASPH"> F  </i>
    <i type="logical" name="LMETAGGA"> F  </i>
   </separator>
   <separator name="electronic convergence" >
    <i type="int" name="NELM">    60</i>
    <i type="int" name="NELMDL">    -5</i>
    <i type="int" name="NELMIN">     2</i>
    <i name="ENINI">    269.53200000</i>
    <separator name="electronic convergence detail" >
     <i type="logical" name="LDIAG"> T  </i>
     <i type="logical" name="LSUBROT"> F  </i>
     <i name="WEIMIN">      0.00000000</i>
     <i name="EBREAK">      0.00000208</i>
     <i name="DEPER">      0.30000000</i>
     <i type="int" name="NRMM">     4</i>
     <i name="TIME">      0.40000000</i>
    </separator>
   </separator>
   <separator name="electronic mixer" >
    <i name="AMIX">      0.40000000</i>
    <i name="BMIX">      1.00000000</i>
    <i name="AMIN">      0.10000000</i>
    <i name="AMIX_MAG">      1.60000000</i>
    <i name="BMIX_MAG">      1.00000000</i>
    <separator name="electronic mixer details" >
     <i type="int" name="IMIX">     4</i>
     <i type="logical" name="MIXFIRST"> F  </i>
     <i type="int" name="MAXMIX">   -45</i>
     <i name="WC">    100.00000000</i>
     <i type="int" name="INIMIX">     1</i>
     <i type="int" name="MIXPRE">     1</i>
     <i type="int" name="MREMOVE">     5</i>
    </separator>
   </separator>
   <separator name="electronic dipolcorrection" >
    <i type="logical" name="LDIPOL"> F  </i>
    <i type="logical" name="LMONO"> F  </i>
    <i type="int" name="IDIPOL">     0</i>
    <i name="EPSILON">      1.00000000</i>
    <v name="DIPOL">   -100.00000000   -100.00000000   -100.00000000</v>
    <i name="EFIELD">      0.00000000</i>
   </separator>
  </separator>
  <separator name="grids" >
   <i type="int" name="NGX">    10</i>
   <i type="int" name="NGY">    10</i>
   <i type="int" name="NGZ">    10</i>
   <i type="int" name="NGXF">    20</i>
   <i type="int" name="NGYF">    20</i>
   <i type="int" name="NGZF">    20</i>
   <i type="logical" name="ADDGRID"> F  </i>
  </separator>
  <separator name="ionic" >
   <i type="int" name="NSW">     0</i>
   <i type="int" name="IBRION">    -1</i>
   <i type="int" name="MDALGO">     0</i>
   <i type="int" name="ISIF">     2</i>
   <i name="PSTRESS">      0.00000000</i>
   <i name="EDIFFG">      0.00100000</i>
   <i type="int" name="NFREE">     0</i>
   <i name="POTIM">      0.50000000</i>
   <i name="SMASS">     -3.00000000</i>
   <i name="SCALEE">      1.00000000</i>
  </separator>
  <separator name="ionic md" >
   <i name="TEBEG">      0.00010000</i>
   <i name="TEEND">      0.00010000</i>
   <i type="int" name="NBLOCK">     1</i>
   <i type="int" name="KBLOCK">     1</i>
   <i type="int" name="NPACO">   256</i>
   <i name="APACO">     10.00000000</i>
  </separator>
  <separator name="symmetry" >
   <i type="int" name="ISYM">     2</i>
   <i name="SYMPREC">      0.00001000</i>
  </separator>
  <separator name="dos" >
   <i type="int" name="LORBIT">    11</i>
   <v name="RWIGS">     -1.00000000</v>
   <i type="int" name="NEDOS">   301</i>
   <i name="EMIN">     10.00000000</i>
   <i name="EMAX">    -10.00000000</i>
   <i name="EFERMI">      0.00000000</i>
  </separator>
  <separator name="writing" >
   <i type="int" name="NWRITE">     2</i>
   <i type="logical" name="LWAVE"> T  </i>
   <i type="logical" name="LDOWNSAMPLE"> F  </i>
   <i type="logical" name="LCHARG"> T  </i>
   <i type="logical" name="LPARD"> F  </i>
   <i type="logical" name="LVTOT"> F  </i>
   <i type="logical" name="LVHAR"> F  </i>
   <i type="logical" name="LELF"> F  </i>
   <i type="logical" name="LOPTICS"> F  </i>
   <v name="STM">      0.00000000      0.00000000      0.00000000      0.00000000      0.00000000      0.00000000      0.00000000</v>
  </separator>
  <separator name="performance" >
   <i type="int" name="NPAR">     4</i>
   <i type="int" name="NSIM">     4</i>
   <i type="int" name="NBLK">    -1</i>
   <i type="logical" name="LPLANE"> T  </i>
   <i type="logical" name="LSCALAPACK"> T  </i>
   <i type="logical" name="LSCAAWARE"> F  </i>
   <i type="logical" name="LSCALU"> F  </i>
   <i type="logical" name="LASYNC"> F  </i>
   <i type="logical" name="LORBITALREAL"> F  </i>
  </separator>
  <separator name="miscellaneous" >
   <i type="int" name="IDIOT">     3</i>
   <i type="int" name="PHON_NSTRUCT">    -1</i>
   <i type="logical" name="LMUSIC"> F  </i>
   <v name="POMASS">     58.69000000</v>
   <v name="DARWINR">      0.00000000</v>
   <v name="DARWINV">      1.00000000</v>
   <i type="logical" name="LCORR"> T  </i>
  </separator>
  <i type="logical" name="GGA_COMPAT"> T  </i>
  <i type="logical" name="LBERRY"> F  </i>
  <i type="int" name="ICORELEVEL">     0</i>
  <i type="logical" name="LDAU"> F  </i>
  <i type="int" name="I_CONSTRAINED_M">     0</i>
  <separator name="electronic exchange-correlation" >
   <i type="string" name="GGA">--</i>
   <i type="int" name="VOSKOWN">     1</i>
   <i type="logical" name="LHFCALC"> F  </i>
   <i type="string" name="PRECFOCK"></i>
   <i type="logical" name="LSYMGRAD"> F  </i>
   <i type="logical" name="LHFONE"> F  </i>
   <i type="logical" name="LRHFCALC"> F  </i>
   <i type="logical" name="LTHOMAS"> F  </i>
   <i type="logical" name="LMODELHF"> F  </i>
   <i type="logical" name="LFOCKACE"> F  </i>
   <i name="ENCUT4O">     -1.00000000</i>
   <i type="int" name="EXXOEP">     0</i>
   <i type="int" name="FOURORBIT">     0</i>
   <i name="AEXX">      0.00000000</i>
   <i name="HFALPHA">      0.00000000</i>
   <i name="MCALPHA">      0.00000000</i>
   <i name="ALDAX">      1.00000000</i>
   <i name="AGGAX">      1.00000000</i>
   <i name="ALDAC">      1.00000000</i>
   <i name="AGGAC">      1.00000000</i>
   <i type="int" name="NKREDX">     1</i>
   <i type="int" name="NKREDY">     1</i>
   <i type="int" name="NKREDZ">     1</i>
   <i type="logical" name="SHIFTRED"> F  </i>
   <i type="logical" name="ODDONLY"> F  </i>
   <i type="logical" name="EVENONLY"> F  </i>
   <i type="int" name="LMAXFOCK">     0</i>
   <i type="int" name="NMAXFOCKAE">     0</i>
   <i type="logical" name="LFOCKAEDFT"> F  </i>
   <i name="HFSCREEN">      0.00000000</i>
   <i name="HFSCREENC">      0.00000000</i>
   <i type="int" name="NBANDSGWLOW">     0</i>
  </separator>
  <separator name="vdW DFT" >
   <i type="logical" name="LUSE_VDW"> F  </i>
   <i name="Zab_VDW">     -0.84910000</i>
   <i name="PARAM1">      0.12340000</i>
   <i name="PARAM2">      1.00000000</i>
   <i name="PARAM3">      0.00000000</i>
  </separator>
  <separator name="model GW" >
   <i type="int" name="MODEL_GW">     0</i>
   <i name="MODEL_EPS0">      6.55800000</i>
   <i name="MODEL_ALPHA">      1.00000000</i>
  </separator>
  <separator name="linear response parameters" >
   <i type="logical" name="LEPSILON"> F  </i>
   <i type="logical" name="LRPA"> F  </i>
   <i type="logical" name="LNABLA"> F  </i>
   <i type="logical" name="LVEL"> F  </i>
   <i name="CSHIFT">      0.10000000</i>
   <i name="OMEGAMAX">     -1.00000000</i>
   <i name="DEG_THRESHOLD">      0.00200000</i>
   <i name="RTIME">     -0.10000000</i>
   <i name="WPLASMAI">      0.00000000</i>
   <v name="DFIELD">      0.00000000      0.00000000      0.00000000</v>
   <v name="WPLASMA">      0.00000000      0.00000000      0.00000000      0.00000000      0.00000000      0.00000000      0.00000000      0.00000000      0.00000000</v>
  </separator>
  <separator name="orbital magnetization" >
   <i type="logical" name="NUCIND"> F  </i>
   <v name="MAGPOS">      0.00000000      0.00000000      0.00000000</v>
   <i type="logical" name="LNICSALL"> T  </i>
   <i type="logical" name="ORBITALMAG"> F  </i>
   <i type="logical" name="LMAGBLOCH"> F  </i>
   <i type="logical" name="LCHIMAG"> F  </i>
   <i type="logical" name="LGAUGE"> T  </i>
   <i type="int" name="MAGATOM">     0</i>
   <v name="MAGDIPOL">      0.00000000      0.00000000      0.00000000</v>
   <v name="AVECCONST">      0.00000000      0.00000000      0.00000000</v>
  </separator>
  <separator name="response functions" >
   <i type="logical" name="LFINITE_TEMPERATURE"> F  </i>
   <i type="logical" name="LADDER"> F  </i>
   <i type="logical" name="LRPAFORCE"> F  </i>
   <i type="logical" name="LFXC"> F  </i>
   <i type="logical" name="LHARTREE"> T  </i>
   <i type="int" name="IBSE">     0</i>
   <v type="int" name="KPOINT">    -1     0     0     0</v>
   <i type="logical" name="LTCTC"> F  </i>
   <i type="logical" name="LTCTE"> F  </i>
   <i type="logical" name="LTETE"> F  </i>
   <i type="logical" name="LTRIPLET"> F  </i>
   <i type="logical" name="LFXCEPS"> F  </i>
   <i type="logical" name="LFXHEG"> F  </i>
   <i type="int" name="NATURALO">     2</i>
   <i type="logical" name="LHOLEGF"> F  </i>
   <i type="logical" name="L2ORDER"> F  </i>
   <i type="logical" name="LDMP1"> F  </i>
   <i type="logical" name="LMP2LT"> F  </i>
   <i type="logical" name="LSMP2LT"> F  </i>
   <i type="logical" name="LGWLF"> F  </i>
   <i name="ENCUTGW">     -2.00000000</i>
   <i name="ENCUTGWSOFT">     -2.00000000</i>
   <i name="ENCUTLF">     -1.00000000</i>
   <i type="logical" name="LESF_SPLINES"> F  </i>
   <i type="int" name="LMAXMP2">    -1</i>
   <i name="SCISSOR">      0.00000000</i>
   <i type="int" name="NOMEGA">     0</i>
   <i type="int" name="NOMEGAR">     0</i>
   <i type="int" name="NBANDSGW">    -1</i>
   <i type="int" name="NBANDSO">    -1</i>
   <i type="int" name="NBANDSV">    -1</i>
   <i type="int" name="NELMGW">     1</i>
   <i type="int" name="NELMHF">     1</i>
   <i type="int" name="DIM">     3</i>
   <i type="int" name="IESPILON">     4</i>
   <i type="int" name="ANTIRES">     0</i>
   <i name="OMEGAMAX">    -30.00000000</i>
   <i name="OMEGAMIN">    -30.00000000</i>
   <i name="OMEGATL">   -200.00000000</i>
   <i type="int" name="OMEGAGRID">     0</i>
   <i name="CSHIFT">     -0.10000000</i>
   <i type="logical" name="LSELFENERGY"> F  </i>
   <i type="logical" name="LSPECTRAL"> F  </i>
   <i type="logical" name="LSPECTRALGW"> F  </i>
   <i type="logical" name="LSINGLES"> F  </i>
   <i type="logical" name="LFERMIGW"> F  </i>
   <i type="logical" name="ODDONLYGW"> F  </i>
   <i type="logical" name="EVENONLYGW"> F  </i>
   <i type="int" name="NKREDLFX">     1</i>
   <i type="int" name="NKREDLFY">     1</i>
   <i type="int" name="NKREDLFZ">     1</i>
   <i type="int" name="MAXMEM">  2800</i>
   <i type="int" name="TELESCOPE">     0</i>
   <i type="int" name="NTAUPAR">    -1</i>
   <i type="int" name="NOMEGAPAR">    -1</i>
   <i name="DAMP_NEWTON">      0.80000001</i>
   <i name="LAMBDA">      1.00000000</i>
  </separator>
  <separator name="External order field" >
   <i name="OFIELD_KAPPA">      0.00000000</i>
   <v name="OFIELD_K">      0.00000000      0.00000000      0.00000000</v>
   <i name="OFIELD_Q6_NEAR">      0.00000000</i>
   <i name="OFIELD_Q6_FAR">      0.00000000</i>
   <i name="OFIELD_A">      0.00000000</i>
  </separator>
  <separator name="optional k-points parameters" >
   <i type="int" name="KPOINTS_OPT_MODE">     1</i>
   <i type="logical" name="LKPOINTS_OPT"> F  </i>
  </separator>
 </parameters>
 <atominfo>
  <atoms>       1 </atoms>
  <types>       1 </types>
  <array name="atoms" >
   <dimension dim="1">ion</dimension>
   <field type="string">element</field>
   <field type="int">atomtype</field>
   <set>
    <rc><c>Ni</c><c>   1</c></rc>
   </set>
  </array>
  <array name="atomtypes" >
   <dimension dim="1">type</dimension>
   <field type="int">atomspertype</field>
   <field type="string">element</field>
   <field>mass</field>
   <field>valence</field>
   <field type="string">pseudopotential</field>
   <set>
    <rc><c>   1</c><c>Ni</c><c>     58.69000000</c><c>     10.00000000</c><c>  PAW_PBE Ni 02Aug2007                  </c></rc>
   </set>
  </array>
 </atominfo>
 <structure name="initialpos" >
  <crystal>
   <varray name="basis" >
    <v>       1.76142189       1.76142189       0.00000000 </v>
    <v>       0.00000000       1.76142189       1.76142189 </v>
    <v>       1.76142189       0.00000000       1.76142189 </v>
   </varray>
   <i name="volume">     10.93000000 </i>
   <varray name="rec_basis" >
    <v>       0.28386158       0.28386158      -0.28386158 </v>
    <v>      -0.28386158       0.28386158       0.28386158 </v>
    <v>       0.28386158      -0.28386158       0.28386158 </v>
   </varray>
  </crystal>
  <varray name="positions" >
   <v>       0.00000000       0.00000000       0.00000000 </v>
  </varray>
 </structure>
 <calculation>
  <scstep>
   <time name="dav">    0.23    0.23</time>
   <time name="total">    0.25    0.25</time>
   <energy>
    <i name="alphaZ">     46.66001921 </i>
    <i name="ewald">   -937.04180826 </i>
    <i name="hartreedc">   -245.68884612 </i>
    <i name="XCdc">     31.76484532 </i>
    <i name="pawpsdc">    962.83317360 </i>
    <i name="pawaedc">  -1029.67071227 </i>
    <i name="eentropy">      0.00000000 </i>
    <i name="bandstr">    111.90079008 </i>
    <i name="atom">   1077.63565123 </i>
    <i name="e_fr_energy">     18.39311279 </i>
    <i name="e_wo_entrp">     18.39311279 </i>
    <i name="e_0_energy">     18.39311279 </i>
   </energy>
  </scstep>
  <scstep>
   <time name="dav">    0.22    0.22</time>
   <time name="total">    0.23    0.23</time>
   <energy>
    <i name="e_fr_energy">     -6.00196704 </i>
    <i name="e_wo_entrp">     -6.00196704 </i>
    <i name="e_0_energy">     -6.00196704 </i>
   </energy>
  </scstep>
  <scstep>
   <time name="dav">    0.22    0.22</time>
   <time name="total">    0.22    0.22</time>
   <energy>
    <i name="e_fr_energy">     -6.48402410 </i>
    <i name="e_wo_entrp">     -6.48402410 </i>
    <i name="e_0_energy">     -6.48402410 </i>
   </energy>
  </scstep>
  <scstep>
   <time name="dav">    0.23    0.23</time>
   <time name="total">    0.23    0.23</time>
   <energy>
    <i name="e_fr_energy">     -6.48661718 </i>
    <i name="e_wo_entrp">     -6.48661718 </i>
    <i name="e_0_energy">     -6.48661718 </i>
   </energy>
  </scstep>
  <scstep>
   <time name="dav">    0.23    0.23</time>
   <time name="total">    0.24    0.24</time>
   <energy>
    <i name="e_fr_energy">     -6.48665013 </i>
    <i name="e_wo_entrp">     -6.48665013 </i>
    <i name="e_0_energy">     -6.48665013 </i>
   </energy>
  </scstep>
  <scstep>
   <time name="dav">    0.25    0.25</time>
   <time name="total">    0.27    0.27</time>
   <energy>
    <i name="e_fr_energy">     -5.79510102 </i>
    <i name="e_wo_entrp">     -5.79510102 </i>
    <i name="e_0_energy">     -5.79510102 </i>
   </energy>
  </scstep>
  <scstep>
   <time name="dav">    0.24    0.24</time>
   <time name="total">    0.26    0.26</time>
   <energy>
    <i name="e_fr_energy">     -5.47610746 </i>
    <i name="e_wo_entrp">     -5.47610746 </i>
    <i name="e_0_energy">     -5.47610746 </i>
   </energy>
  </scstep>
  <scstep>
   <time name="dav">    0.24    0.25</time>
   <time name="total">    0.26    0.26</time>
   <energy>
    <i name="e_fr_energy">     -5.46163036 </i>
    <i name="e_wo_entrp">     -5.46163036 </i>
    <i name="e_0_energy">     -5.46163036 </i>
   </energy>
  </scstep>
  <scstep>
   <time name="dav">    0.22    0.22</time>
   <time name="total">    0.24    0.24</time>
   <energy>
    <i name="e_fr_energy">     -5.45925473 </i>
    <i name="e_wo_entrp">     -5.45925473 </i>
    <i name="e_0_energy">     -5.45925473 </i>
   </energy>
  </scstep>
  <scstep>
   <time name="dav">    0.17    0.17</time>
   <time name="total">    0.19    0.19</time>
   <energy>
    <i name="e_fr_energy">     -5.45865706 </i>
    <i name="e_wo_entrp">     -5.45865706 </i>
    <i name="e_0_energy">     -5.45865706 </i>
   </energy>
  </scstep>
  <scstep>
   <time name="dav">    0.14    0.14</time>
   <time name="total">    0.15    0.15</time>
   <energy>
    <i name="alphaZ">     46.66001921 </i>
    <i name="ewald">   -937.04180826 </i>
    <i name="hartreedc">   -225.02105622 </i>
    <i name="XCdc">     30.69333961 </i>
    <i name="pawpsdc">   1136.08238567 </i>
    <i name="pawaedc">  -1204.56802558 </i>
    <i name="eentropy">      0.00000000 </i>
    <i name="bandstr">     70.10084137 </i>
    <i name="atom">   1077.63565123 </i>
    <i name="e_fr_energy">     -5.45865295 </i>
    <i name="e_wo_entrp">     -5.45865295 </i>
    <i name="e_0_energy">     -5.45865295 </i>
   </energy>
  </scstep>
  <structure>
   <crystal>
    <varray name="basis" >
     <v>       1.76142189       1.76142189       0.00000000 </v>
     <v>       0.00000000       1.76142189       1.76142189 </v>
     <v>       1.76142189       0.00000000       1.76142189 </v>
    </varray>
    <i name="volume">     10.93000000 </i>
    <varray name="rec_basis" >
     <v>       0.28386158       0.28386158      -0.28386158 </v>
     <v>      -0.28386158       0.28386158       0.28386158 </v>
     <v>       0.28386158      -0.28386158       0.28386158 </v>
    </varray>
   </crystal>
   <varray name="positions" >
    <v>       0.00000000       0.00000000       0.00000000 </v>
   </varray>
  </structure>
  <varray name="forces" >
   <v>       0.00000000       0.00000000       0.00000000 </v>
  </varray>
  <varray name="stress" >
   <v>     -64.72832654      -0.00000000       0.00000000 </v>
   <v>       0.00000000     -64.72832654      -0.00000000 </v>
   <v>       0.00000000      -0.00000000     -64.72832654 </v>
  </varray>
  <energy>
   <i name="e_fr_energy">     -5.45865295 </i>
   <i name="e_wo_entrp">     -5.45865295 </i>
   <i name="e_0_energy">     -5.45865295 </i>
  </energy>
  <time name="totalsc">    2.66    2.67</time>
  <eigenvalues>
   <array>
    <dimension dim="1">band</dimension>
    <dimension dim="2">kpoint</dimension>
    <dimension dim="3">spin</dimension>
    <field>eigene</field>
    <field>occ</field>
    <set>
     <set comment="spin 1">
      <set comment="kpoint 1">
       <r>    0.3360    1.0000 </r>
       <r>    6.9084    1.0000 </r>
       <r>    6.9084    1.0000 </r>
       <r>    6.9084    1.0000 </r>
       <r>    8.0669    1.0000 </r>
       <r>    8.0670    1.0000 </r>
       <r>   33.0327    0.0000 </r>
       <r>   36.8404    0.0000 </r>
       <r>   36.8406    0.0000 </r>
       <r>   36.8406    0.0000 </r>
       <r>   39.9227    0.0000 </r>
       <r>   39.9228    0.0000 </r>
      </set>
      <set comment="kpoint 2">
       <r>    0.6567    1.0000 </r>
       <r>    6.8304    1.0000 </r>
       <r>    6.9772    1.0000 </r>
       <r>    6.9772    1.0000 </r>
       <r>    8.0403    1.0000 </r>
       <r>    8.0403    1.0000 </r>
       <r>   31.6418    0.0000 </r>
       <r>   34.4084    0.0000 </r>
       <r>   36.1995    0.0000 </r>
       <r>   36.1997    0.0000 </r>
       <r>   40.9053    0.0000 </r>
       <r>   40.9055    0.0000 </r>
      </set>
      <set comment="kpoint 3">
       <r>    1.5772    1.0000 </r>
       <r>    6.6568    1.0000 </r>
       <r>    7.1090    1.0000 </r>
       <r>    7.1091    1.0000 </r>
       <r>    8.0342    1.0000 </r>
       <r>    8.0342    1.0000 </r>
       <r>   27.1896    0.0000 </r>
       <r>   33.6694    0.0000 </r>
       <r>   35.2677    0.0000 </r>
       <r>   35.2679    0.0000 </r>
       <r>   40.9532    0.0000 </r>
       <r>   41.6777    0.0000 </r>
      </set>
      <set comment="kpoint 4">
       <r>    2.9113    1.0000 </r>
       <r>    6.6172    1.0000 </r>
       <r>    7.1197    1.0000 </r>
       <r>    7.1197    1.0000 </r>
       <r>    8.1979    1.0000 </r>
       <r>    8.1979    1.0000 </r>
       <r>   22.6114    0.0000 </r>
       <r>   32.9096    0.0000 </r>
       <r>   34.5490    0.0000 </r>
       <r>   34.5492    0.0000 </r>
       <r>   39.8271    0.0000 </r>
       <r>   39.8273    0.0000 </r>
      </set>
      <set comment="kpoint 5">
       <r>    4.0716    1.0000 </r>
       <r>    7.0190    1.0000 </r>
       <r>    7.0191    1.0000 </r>
       <r>    7.2530    1.0000 </r>
       <r>    8.4897    1.0000 </r>
       <r>    8.4898    1.0842 </r>
       <r>   18.5039    0.0000 </r>
       <r>   32.0840    0.0000 </r>
       <r>   34.1260    0.0000 </r>
       <r>   34.1261    0.0000 </r>
       <r>   38.0306    0.0000 </r>
       <r>   38.0311    0.0000 </r>
      </set>
      <set comment="kpoint 6">
       <r>    4.4808    1.0000 </r>
       <r>    6.9374    1.0000 </r>
       <r>    6.9375    1.0000 </r>
       <r>    8.6904    1.0000 </r>
       <r>    8.6964    1.0000 </r>
       <r>    8.6965    0.8073 </r>
       <r>   15.4803    0.0000 </r>
       <r>   31.5856    0.0000 </r>
       <r>   33.9401    0.0000 </r>
       <r>   33.9403    0.0000 </r>
       <r>   37.0817    0.0000 </r>
       <r>   37.0824    0.0000 </r>
      </set>
      <set comment="kpoint 7">
       <r>    0.7629    1.0000 </r>
       <r>    6.7594    1.0000 </r>
       <r>    7.0283    1.0000 </r>
       <r>    7.0283    1.0000 </r>
       <r>    7.9315    1.0000 </r>
       <r>    8.1215    1.0000 </r>
       <r>   32.2374    0.0000 </r>
       <r>   34.2754    0.0000 </r>
       <r>   34.2755    0.0000 </r>
       <r>   35.1488    0.0000 </r>
       <r>   41.6537    0.0000 </r>
       <r>   42.4331    0.0000 </r>
      </set>
      <set comment="kpoint 8">
       <r>    1.4828    1.0000 </r>
       <r>    6.5813    1.0000 </r>
       <r>    7.1615    1.0000 </r>
       <r>    7.1712    1.0000 </r>
       <r>    7.8298    1.0000 </r>
       <r>    8.1740    1.0000 </r>
       <r>   28.9598    0.0000 </r>
       <r>   32.7062    0.0000 </r>
       <r>   32.7801    0.0000 </r>
       <r>   36.1789    0.0000 </r>
       <r>   39.7245    0.0000 </r>
       <r>   42.0812    0.0000 </r>
      </set>
      <set comment="kpoint 9">
       <r>    2.6944    1.0000 </r>
       <r>    6.4360    1.0000 </r>
       <r>    7.1473    1.0000 </r>
       <r>    7.2460    1.0000 </r>
       <r>    8.0124    1.0000 </r>
       <r>    8.3181    1.0000 </r>
       <r>   24.3127    0.0000 </r>
       <r>   31.7966    0.0000 </r>
       <r>   31.9760    0.0000 </r>
       <r>   35.9273    0.0000 </r>
       <r>   39.1437    0.0000 </r>
       <r>   41.8286    0.0000 </r>
      </set>
      <set comment="kpoint 10">
       <r>    3.9797    1.0000 </r>
       <r>    6.6333    1.0000 </r>
       <r>    6.9768    1.0000 </r>
       <r>    7.1818    1.0000 </r>
       <r>    8.5586    1.0000 </r>
       <r>    8.5685    1.0549 </r>
       <r>   19.9914    0.0000 </r>
       <r>   31.1774    0.0000 </r>
       <r>   31.3609    0.0000 </r>
       <r>   34.0287    0.0000 </r>
       <r>   39.4669    0.0000 </r>
       <r>   41.3094    0.0000 </r>
      </set>
      <set comment="kpoint 11">
       <r>    4.5987    1.0000 </r>
       <r>    6.8229    1.0000 </r>
       <r>    7.0820    1.0000 </r>
       <r>    7.4145    1.0000 </r>
       <r>    8.7217    1.0000 </r>
       <r>    9.5616    0.1426 </r>
       <r>   16.4217    0.0000 </r>
       <r>   30.3252    0.0000 </r>
       <r>   31.5524    0.0000 </r>
       <r>   32.7743    0.0000 </r>
       <r>   39.3206    0.0000 </r>
       <r>   39.7737    0.0000 </r>
      </set>
      <set comment="kpoint 12">
       <r>    4.6915    1.0000 </r>
       <r>    6.7995    1.0000 </r>
       <r>    7.0398    1.0000 </r>
       <r>    7.7568    1.0000 </r>
       <r>    8.6820    1.0000 </r>
       <r>   10.2617   -0.0480 </r>
       <r>   15.0830    0.0000 </r>
       <r>   29.5558    0.0000 </r>
       <r>   32.4599    0.0000 </r>
       <r>   32.4802    0.0000 </r>
       <r>   38.7190    0.0000 </r>
       <r>   39.4240    0.0000 </r>
      </set>
      <set comment="kpoint 13">
       <r>    4.4863    1.0000 </r>
       <r>    6.8891    1.0000 </r>
       <r>    7.0921    1.0000 </r>
       <r>    7.2141    1.0000 </r>
       <r>    8.4290    1.0000 </r>
       <r>    9.3420    0.3626 </r>
       <r>   17.4943    0.0000 </r>
       <r>   29.1473    0.0000 </r>
       <r>   33.0309    0.0000 </r>
       <r>   34.1149    0.0000 </r>
       <r>   38.1852    0.0000 </r>
       <r>   39.5811    0.0000 </r>
      </set>
      <set comment="kpoint 14">
       <r>    3.5991    1.0000 </r>
       <r>    6.5453    1.0000 </r>
       <r>    7.0399    1.0000 </r>
       <r>    7.2048    1.0000 </r>
       <r>    8.0677    1.0000 </r>
       <r>    8.7010    1.0445 </r>
       <r>   21.3820    0.0000 </r>
       <r>   29.2163    0.0000 </r>
       <r>   34.2470    0.0000 </r>
       <r>   36.4402    0.0000 </r>
       <r>   38.0229    0.0000 </r>
       <r>   39.2337    0.0000 </r>
      </set>
      <set comment="kpoint 15">
       <r>    2.2529    1.0000 </r>
       <r>    6.5086    1.0000 </r>
       <r>    7.1429    1.0000 </r>
       <r>    7.2368    1.0000 </r>
       <r>    7.8379    1.0000 </r>
       <r>    8.3150    1.0000 </r>
       <r>   25.8370    0.0000 </r>
       <r>   29.7775    0.0000 </r>
       <r>   35.7149    0.0000 </r>
       <r>   38.1739    0.0000 </r>
       <r>   38.4398    0.0000 </r>
       <r>   39.2731    0.0000 </r>
      </set>
      <set comment="kpoint 16">
       <r>    1.1784    1.0000 </r>
       <r>    6.6905    1.0000 </r>
       <r>    7.0797    1.0000 </r>
       <r>    7.0902    1.0000 </r>
       <r>    7.9052    1.0000 </r>
       <r>    8.1253    1.0000 </r>
       <r>   30.1126    0.0000 </r>
       <r>   31.2248    0.0000 </r>
       <r>   35.7913    0.0000 </r>
       <r>   38.0335    0.0000 </r>
       <r>   39.2165    0.0000 </r>
       <r>   40.2796    0.0000 </r>
      </set>
      <set comment="kpoint 17">
       <r>    1.9756    1.0000 </r>
       <r>    6.3680    1.0000 </r>
       <r>    7.3702    1.0000 </r>
       <r>    7.3702    1.0000 </r>
       <r>    7.6159    1.0000 </r>
       <r>    8.2693    1.0000 </r>
       <r>   30.8553    0.0000 </r>
       <r>   30.8554    0.0000 </r>
       <r>   30.9634    0.0000 </r>
       <r>   32.3242    0.0000 </r>
       <r>   37.5244    0.0000 </r>
       <r>   45.6458    0.0000 </r>
      </set>
      <set comment="kpoint 18">
       <r>    2.9662    1.0000 </r>
       <r>    6.1481    1.0000 </r>
       <r>    7.2497    1.0000 </r>
       <r>    7.5433    1.0000 </r>
       <r>    7.9107    1.0000 </r>
       <r>    8.3988    1.0000 </r>
       <r>   26.4047    0.0000 </r>
       <r>   29.5242    0.0000 </r>
       <r>   30.5667    0.0000 </r>
       <r>   32.4371    0.0000 </r>
       <r>   36.7060    0.0000 </r>
       <r>   45.0831    0.0000 </r>
      </set>
      <set comment="kpoint 19">
       <r>    4.1665    1.0000 </r>
       <r>    6.0707    1.0000 </r>
       <r>    6.9627    1.0000 </r>
       <r>    7.5456    1.0000 </r>
       <r>    8.6109    1.0000 </r>
       <r>    8.7386    0.9025 </r>
       <r>   21.9567    0.0000 </r>
       <r>   28.8443    0.0000 </r>
       <r>   28.8997    0.0000 </r>
       <r>   31.9799    0.0000 </r>
       <r>   39.3315    0.0000 </r>
       <r>   44.1244    0.0000 </r>
      </set>
      <set comment="kpoint 20">
       <r>    4.9366    1.0000 </r>
       <r>    6.2858    1.0000 </r>
       <r>    6.8506    1.0000 </r>
       <r>    7.4547    1.0000 </r>
       <r>    8.7557    1.0000 </r>
       <r>   10.1745   -0.0364 </r>
       <r>   17.9965    0.0000 </r>
       <r>   27.1733    0.0000 </r>
       <r>   28.9141    0.0000 </r>
       <r>   31.6235    0.0000 </r>
       <r>   42.6615    0.0000 </r>
       <r>   43.4325    0.0000 </r>
      </set>
      <set comment="kpoint 21">
       <r>    5.1380    1.0000 </r>
       <r>    6.4075    1.0000 </r>
       <r>    7.0325    1.0000 </r>
       <r>    7.3746    1.0000 </r>
       <r>    8.6893    1.0000 </r>
       <r>   11.8752    0.0000 </r>
       <r>   15.3097    0.0000 </r>
       <r>   25.8081    0.0000 </r>
       <r>   29.7629    0.0000 </r>
       <r>   31.7055    0.0000 </r>
       <r>   42.2043    0.0000 </r>
       <r>   42.5062    0.0000 </r>
      </set>
      <set comment="kpoint 22">
       <r>    5.1096    1.0000 </r>
       <r>    6.5377    1.0000 </r>
       <r>    6.8473    1.0000 </r>
       <r>    7.3687    1.0000 </r>
       <r>    8.4002    1.0000 </r>
       <r>   10.9744    0.0000 </r>
       <r>   16.9040    0.0000 </r>
       <r>   24.9732    0.0000 </r>
       <r>   31.3721    0.0000 </r>
       <r>   32.3232    0.0000 </r>
       <r>   41.4691    0.0000 </r>
       <r>   41.7239    0.0000 </r>
      </set>
      <set comment="kpoint 23">
       <r>    4.5950    1.0000 </r>
       <r>    6.3693    1.0000 </r>
       <r>    6.7797    1.0000 </r>
       <r>    7.4549    1.0000 </r>
       <r>    7.9814    1.0000 </r>
       <r>    9.6255    0.1023 </r>
       <r>   20.6143    0.0000 </r>
       <r>   24.7538    0.0000 </r>
       <r>   33.5512    0.0000 </r>
       <r>   33.6259    0.0000 </r>
       <r>   40.3114    0.0000 </r>
       <r>   41.2648    0.0000 </r>
      </set>
      <set comment="kpoint 24">
       <r>    3.3940    1.0000 </r>
       <r>    6.3239    1.0000 </r>
       <r>    7.0241    1.0000 </r>
       <r>    7.5288    1.0000 </r>
       <r>    7.6523    1.0000 </r>
       <r>    8.8203    0.9940 </r>
       <r>   24.6080    0.0000 </r>
       <r>   25.4186    0.0000 </r>
       <r>   35.3033    0.0000 </r>
       <r>   36.3324    0.0000 </r>
       <r>   38.3927    0.0000 </r>
       <r>   41.5015    0.0000 </r>
      </set>
      <set comment="kpoint 25">
       <r>    3.6242    1.0000 </r>
       <r>    5.8729    1.0000 </r>
       <r>    7.5243    1.0000 </r>
       <r>    7.8839    1.0000 </r>
       <r>    7.8839    1.0000 </r>
       <r>    8.4663    1.0000 </r>
       <r>   27.8410    0.0000 </r>
       <r>   27.8411    0.0000 </r>
       <r>   28.2315    0.0000 </r>
       <r>   29.9687    0.0000 </r>
       <r>   34.1140    0.0000 </r>
       <r>   49.3761    0.0000 </r>
      </set>
      <set comment="kpoint 26">
       <r>    4.4211    1.0000 </r>
       <r>    5.6916    1.0000 </r>
       <r>    7.4197    1.0000 </r>
       <r>    8.0273    1.0000 </r>
       <r>    8.6311    1.0000 </r>
       <r>    8.7490    0.8435 </r>
       <r>   24.2180    0.0000 </r>
       <r>   26.0125    0.0000 </r>
       <r>   26.8552    0.0000 </r>
       <r>   30.7165    0.0000 </r>
       <r>   34.8875    0.0000 </r>
       <r>   49.0944    0.0000 </r>
      </set>
      <set comment="kpoint 27">
       <r>    5.0424    1.0000 </r>
       <r>    5.6913    1.0000 </r>
       <r>    7.1864    1.0000 </r>
       <r>    7.9662    1.0000 </r>
       <r>    8.7810    1.0000 </r>
       <r>   10.4915   -0.0410 </r>
       <r>   20.1826    0.0000 </r>
       <r>   23.9447    0.0000 </r>
       <r>   26.6798    0.0000 </r>
       <r>   30.9126    0.0000 </r>
       <r>   38.2257    0.0000 </r>
       <r>   47.3785    0.0000 </r>
      </set>
      <set comment="kpoint 28">
       <r>    5.3944    1.0000 </r>
       <r>    5.8559    1.0000 </r>
       <r>    6.9719    1.0000 </r>
       <r>    7.8618    1.0000 </r>
       <r>    8.7145    1.0000 </r>
       <r>   12.9018    0.0000 </r>
       <r>   16.6545    0.0000 </r>
       <r>   22.3419    0.0000 </r>
       <r>   27.3677    0.0000 </r>
       <r>   31.0689    0.0000 </r>
       <r>   42.5154    0.0000 </r>
       <r>   45.9263    0.0000 </r>
      </set>
      <set comment="kpoint 29">
       <r>    5.6130    1.0000 </r>
       <r>    6.0687    1.0000 </r>
       <r>    6.6839    1.0000 </r>
       <r>    7.7760    1.0000 </r>
       <r>    8.4316    1.0000 </r>
       <r>   13.1462    0.0000 </r>
       <r>   16.5597    0.0000 </r>
       <r>   21.3269    0.0000 </r>
       <r>   28.8530    0.0000 </r>
       <r>   31.5278    0.0000 </r>
       <r>   44.8492    0.0000 </r>
       <r>   44.8914    0.0000 </r>
      </set>
      <set comment="kpoint 30">
       <r>    5.4609    1.0000 </r>
       <r>    6.3393    1.0000 </r>
       <r>    6.4031    1.0000 </r>
       <r>    7.6933    1.0000 </r>
       <r>    8.0865    1.0000 </r>
       <r>   11.0733    0.0000 </r>
       <r>   19.6472    0.0000 </r>
       <r>   21.3874    0.0000 </r>
       <r>   30.9971    0.0000 </r>
       <r>   32.3884    0.0000 </r>
       <r>   42.7359    0.0000 </r>
       <r>   43.8315    0.0000 </r>
      </set>
      <set comment="kpoint 31">
       <r>    4.6133    1.0000 </r>
       <r>    5.4396    1.0000 </r>
       <r>    8.4293    1.0000 </r>
       <r>    8.4293    1.0000 </r>
       <r>    8.6461    1.0000 </r>
       <r>    8.7905    0.6149 </r>
       <r>   23.2984    0.0000 </r>
       <r>   25.5364    0.0000 </r>
       <r>   25.5365    0.0000 </r>
       <r>   29.3563    0.0000 </r>
       <r>   32.9047    0.0000 </r>
       <r>   53.3403    0.0000 </r>
      </set>
      <set comment="kpoint 32">
       <r>    4.8242    1.0000 </r>
       <r>    5.3526    1.0000 </r>
       <r>    8.1511    1.0000 </r>
       <r>    8.4706    1.0000 </r>
       <r>    8.7901    1.0000 </r>
       <r>   10.6447   -0.0325 </r>
       <r>   21.1470    0.0000 </r>
       <r>   22.7903    0.0000 </r>
       <r>   25.0633    0.0000 </r>
       <r>   30.1150    0.0000 </r>
       <r>   34.1114    0.0000 </r>
       <r>   51.3735    0.0000 </r>
      </set>
      <set comment="kpoint 33">
       <r>    5.1114    1.0000 </r>
       <r>    5.4577    1.0000 </r>
       <r>    7.6541    1.0000 </r>
       <r>    8.3624    1.0000 </r>
       <r>    8.7582    1.0000 </r>
       <r>   13.0698    0.0000 </r>
       <r>   18.9928    0.0000 </r>
       <r>   19.8634    0.0000 </r>
       <r>   25.5177    0.0000 </r>
       <r>   30.5693    0.0000 </r>
       <r>   37.7184    0.0000 </r>
       <r>   49.4968    0.0000 </r>
      </set>
      <set comment="kpoint 34">
       <r>    5.4712    1.0000 </r>
       <r>    5.7046    1.0000 </r>
       <r>    7.0799    1.0000 </r>
       <r>    8.1575    1.0000 </r>
       <r>    8.5602    1.0000 </r>
       <r>   15.4805    0.0000 </r>
       <r>   15.8596    0.0000 </r>
       <r>   19.3608    0.0000 </r>
       <r>   26.8396    0.0000 </r>
       <r>   30.9433    0.0000 </r>
       <r>   42.3616    0.0000 </r>
       <r>   47.5240    0.0000 </r>
      </set>
      <set comment="kpoint 35">
       <r>    4.7074    1.0000 </r>
       <r>    5.1907    1.0000 </r>
       <r>    8.7549    1.0000 </r>
       <r>    8.8037    1.0000 </r>
       <r>    8.8037    1.0000 </r>
       <r>   11.1979   -0.0049 </r>
       <r>   19.2566    0.0000 </r>
       <r>   24.2650    0.0000 </r>
       <r>   24.2651    0.0000 </r>
       <r>   29.0795    0.0000 </r>
       <r>   32.5333    0.0000 </r>
       <r>   53.7336    0.0000 </r>
      </set>
      <set comment="kpoint 36">
       <r>    4.8095    1.0000 </r>
       <r>    5.2278    1.0000 </r>
       <r>    8.4506    1.0000 </r>
       <r>    8.6802    1.0000 </r>
       <r>    8.8209    1.0000 </r>
       <r>   12.3818    0.0000 </r>
       <r>   18.5539    0.0000 </r>
       <r>   22.2051    0.0000 </r>
       <r>   24.4245    0.0000 </r>
       <r>   29.9184    0.0000 </r>
       <r>   33.9004    0.0000 </r>
       <r>   52.3733    0.0000 </r>
      </set>
      <set comment="kpoint 37">
       <r>    2.3533    1.0000 </r>
       <r>    6.3767    1.0000 </r>
       <r>    7.1868    1.0000 </r>
       <r>    7.3822    1.0000 </r>
       <r>    7.7604    1.0000 </r>
       <r>    8.3510    1.0000 </r>
       <r>   27.5062    0.0000 </r>
       <r>   28.2327    0.0000 </r>
       <r>   34.3203    0.0000 </r>
       <r>   34.7944    0.0000 </r>
       <r>   38.8414    0.0000 </r>
       <r>   41.9817    0.0000 </r>
      </set>
      <set comment="kpoint 38">
       <r>    3.6030    1.0000 </r>
       <r>    6.2507    1.0000 </r>
       <r>    6.9896    1.0000 </r>
       <r>    7.4748    1.0000 </r>
       <r>    7.9885    1.0000 </r>
       <r>    8.7767    0.9977 </r>
       <r>   23.2299    0.0000 </r>
       <r>   27.1997    0.0000 </r>
       <r>   32.2307    0.0000 </r>
       <r>   35.3229    0.0000 </r>
       <r>   39.3910    0.0000 </r>
       <r>   41.1580    0.0000 </r>
      </set>
      <set comment="kpoint 39">
       <r>    4.6607    1.0000 </r>
       <r>    6.4771    1.0000 </r>
       <r>    6.7749    1.0000 </r>
       <r>    7.3806    1.0000 </r>
       <r>    8.4098    1.0000 </r>
       <r>    9.6076    0.1350 </r>
       <r>   19.0769    0.0000 </r>
       <r>   27.0067    0.0000 </r>
       <r>   30.2722    0.0000 </r>
       <r>   34.6461    0.0000 </r>
       <r>   39.2243    0.0000 </r>
       <r>   42.8285    0.0000 </r>
      </set>
      <set comment="kpoint 40">
       <r>    4.9941    1.0000 </r>
       <r>    6.5545    1.0000 </r>
       <r>    7.0825    1.0000 </r>
       <r>    7.2928    1.0000 </r>
       <r>    8.6422    1.0000 </r>
       <r>   11.0613    0.0000 </r>
       <r>   15.8075    0.0000 </r>
       <r>   27.3082    0.0000 </r>
       <r>   28.8191    0.0000 </r>
       <r>   34.0988    0.0000 </r>
       <r>   38.9089    0.0000 </r>
       <r>   43.3011    0.0000 </r>
      </set>
      <set comment="kpoint 41">
       <r>    3.9377    1.0000 </r>
       <r>    5.9454    1.0000 </r>
       <r>    7.0699    1.0000 </r>
       <r>    7.8851    1.0000 </r>
       <r>    8.0836    1.0000 </r>
       <r>    8.7657    0.9669 </r>
       <r>   25.1950    0.0000 </r>
       <r>   25.7438    0.0000 </r>
       <r>   29.0049    0.0000 </r>
       <r>   33.1689    0.0000 </r>
       <r>   36.3793    0.0000 </r>
       <r>   44.7459    0.0000 </r>
      </set>
      <set comment="kpoint 42">
       <r>    4.8915    1.0000 </r>
       <r>    5.9060    1.0000 </r>
       <r>    6.8113    1.0000 </r>
       <r>    7.8795    1.0000 </r>
       <r>    8.4618    1.0000 </r>
       <r>    9.8050    0.0503 </r>
       <r>   21.1638    0.0000 </r>
       <r>   25.1005    0.0000 </r>
       <r>   26.8286    0.0000 </r>
       <r>   33.7873    0.0000 </r>
       <r>   38.6603    0.0000 </r>
       <r>   43.4166    0.0000 </r>
      </set>
      <set comment="kpoint 43">
       <r>    5.3627    1.0000 </r>
       <r>    6.0569    1.0000 </r>
       <r>    6.7205    1.0000 </r>
       <r>    7.7426    1.0000 </r>
       <r>    8.6642    1.0000 </r>
       <r>   11.7018    0.0000 </r>
       <r>   17.3972    0.0000 </r>
       <r>   24.7179    0.0000 </r>
       <r>   25.7073    0.0000 </r>
       <r>   33.8885    0.0000 </r>
       <r>   40.8801    0.0000 </r>
       <r>   44.0329    0.0000 </r>
      </set>
      <set comment="kpoint 44">
       <r>    5.5134    1.0000 </r>
       <r>    6.1239    1.0000 </r>
       <r>    6.7309    1.0000 </r>
       <r>    7.6517    1.0000 </r>
       <r>    8.5981    1.0000 </r>
       <r>   13.0850    0.0000 </r>
       <r>   15.6134    0.0000 </r>
       <r>   23.5709    0.0000 </r>
       <r>   26.5208    0.0000 </r>
       <r>   34.3484    0.0000 </r>
       <r>   40.4393    0.0000 </r>
       <r>   47.1177    0.0000 </r>
      </set>
      <set comment="kpoint 45">
       <r>    5.4256    1.0000 </r>
       <r>    6.2749    1.0000 </r>
       <r>    6.4419    1.0000 </r>
       <r>    7.7052    1.0000 </r>
       <r>    8.3181    1.0000 </r>
       <r>   11.1845    0.0000 </r>
       <r>   18.5788    0.0000 </r>
       <r>   22.9149    0.0000 </r>
       <r>   28.0291    0.0000 </r>
       <r>   35.4005    0.0000 </r>
       <r>   39.4895    0.0000 </r>
       <r>   45.1584    0.0000 </r>
      </set>
      <set comment="kpoint 46">
       <r>    4.7201    1.0000 </r>
       <r>    6.1323    1.0000 </r>
       <r>    6.6866    1.0000 </r>
       <r>    7.8157    1.0000 </r>
       <r>    7.9150    1.0000 </r>
       <r>    9.6847    0.0754 </r>
       <r>   22.2014    0.0000 </r>
       <r>   23.2462    0.0000 </r>
       <r>   30.0194    0.0000 </r>
       <r>   37.0614    0.0000 </r>
       <r>   37.8040    0.0000 </r>
       <r>   42.6457    0.0000 </r>
      </set>
      <set comment="kpoint 47">
       <r>    4.8715    1.0000 </r>
       <r>    5.5570    1.0000 </r>
       <r>    7.4378    1.0000 </r>
       <r>    8.4269    1.0000 </r>
       <r>    8.5034    1.0000 </r>
       <r>    9.9686    0.0212 </r>
       <r>   23.3416    0.0000 </r>
       <r>   23.3686    0.0000 </r>
       <r>   24.2811    0.0000 </r>
       <r>   32.0689    0.0000 </r>
       <r>   35.1988    0.0000 </r>
       <r>   47.4421    0.0000 </r>
      </set>
      <set comment="kpoint 48">
       <r>    5.2284    1.0000 </r>
       <r>    5.6127    1.0000 </r>
       <r>    7.1912    1.0000 </r>
       <r>    8.2630    1.0000 </r>
       <r>    8.7097    1.0000 </r>
       <r>   12.0613    0.0000 </r>
       <r>   19.7354    0.0000 </r>
       <r>   21.7414    0.0000 </r>
       <r>   23.8906    0.0000 </r>
       <r>   33.0041    0.0000 </r>
       <r>   38.0989    0.0000 </r>
       <r>   45.7390    0.0000 </r>
      </set>
      <set comment="kpoint 49">
       <r>    5.5521    1.0000 </r>
       <r>    5.7814    1.0000 </r>
       <r>    6.8581    1.0000 </r>
       <r>    8.0540    1.0000 </r>
       <r>    8.6665    1.0000 </r>
       <r>   14.6980    0.0000 </r>
       <r>   16.4046    0.0000 </r>
       <r>   20.4319    0.0000 </r>
       <r>   24.6903    0.0000 </r>
       <r>   33.5429    0.0000 </r>
       <r>   42.3003    0.0000 </r>
       <r>   44.2324    0.0000 </r>
      </set>
      <set comment="kpoint 50">
       <r>    5.8481    1.0000 </r>
       <r>    5.9456    1.0000 </r>
       <r>    6.4564    1.0000 </r>
       <r>    7.9160    1.0000 </r>
       <r>    8.4464    1.0000 </r>
       <r>   13.3640    0.0000 </r>
       <r>   17.6673    0.0000 </r>
       <r>   20.2106    0.0000 </r>
       <r>   26.1284    0.0000 </r>
       <r>   34.3962    0.0000 </r>
       <r>   41.9598    0.0000 </r>
       <r>   46.3508    0.0000 </r>
      </set>
      <set comment="kpoint 51">
       <r>    4.9260    1.0000 </r>
       <r>    5.3327    1.0000 </r>
       <r>    8.0070    1.0000 </r>
       <r>    8.5996    1.0000 </r>
       <r>    8.8024    1.0000 </r>
       <r>   12.2811    0.0000 </r>
       <r>   19.4307    0.0000 </r>
       <r>   22.2909    0.0000 </r>
       <r>   22.9918    0.0000 </r>
       <r>   31.5534    0.0000 </r>
       <r>   34.7605    0.0000 </r>
       <r>   49.7892    0.0000 </r>
      </set>
      <set comment="kpoint 52">
       <r>    5.1866    1.0000 </r>
       <r>    5.5083    1.0000 </r>
       <r>    7.4740    1.0000 </r>
       <r>    8.3687    1.0000 </r>
       <r>    8.7997    1.0000 </r>
       <r>   14.1075    0.0000 </r>
       <r>   18.6265    0.0000 </r>
       <r>   19.4696    0.0000 </r>
       <r>   23.3723    0.0000 </r>
       <r>   32.7604    0.0000 </r>
       <r>   37.9274    0.0000 </r>
       <r>   47.2510    0.0000 </r>
      </set>
      <set comment="kpoint 53">
       <r>    5.4842    1.0000 </r>
       <r>    5.9056    1.0000 </r>
       <r>    6.5398    1.0000 </r>
       <r>    8.1300    1.0000 </r>
       <r>    8.4238    1.0000 </r>
       <r>   11.4934    0.0000 </r>
       <r>   20.3523    0.0000 </r>
       <r>   21.7241    0.0000 </r>
       <r>   24.6562    0.0000 </r>
       <r>   36.6226    0.0000 </r>
       <r>   38.3748    0.0000 </r>
       <r>   42.7931    0.0000 </r>
      </set>
      <set comment="kpoint 54">
       <r>    5.7364    1.0000 </r>
       <r>    5.9884    1.0000 </r>
       <r>    6.4260    1.0000 </r>
       <r>    7.9637    1.0000 </r>
       <r>    8.6490    1.0000 </r>
       <r>   13.8597    0.0000 </r>
       <r>   17.1986    0.0000 </r>
       <r>   21.7322    0.0000 </r>
       <r>   23.0326    0.0000 </r>
       <r>   37.1924    0.0000 </r>
       <r>   39.4399    0.0000 </r>
       <r>   44.1803    0.0000 </r>
      </set>
      <set comment="kpoint 55">
       <r>    5.4174    1.0000 </r>
       <r>    5.7630    1.0000 </r>
       <r>    6.9024    1.0000 </r>
       <r>    8.1880    1.0000 </r>
       <r>    8.8014    1.0000 </r>
       <r>   14.2672    0.0000 </r>
       <r>   19.3107    0.0000 </r>
       <r>   19.9436    0.0000 </r>
       <r>   21.1980    0.0000 </r>
       <r>   36.0183    0.0000 </r>
       <r>   39.1617    0.0000 </r>
       <r>   43.8104    0.0000 </r>
      </set>
      <set comment="kpoint 56">
       <r>    5.6043    1.0000 </r>
       <r>    6.0494    1.0000 </r>
       <r>    6.4871    1.0000 </r>
       <r>    8.0171    1.0000 </r>
       <r>    8.7995    1.0000 </r>
       <r>   16.5154    0.0000 </r>
       <r>   16.5461    0.0000 </r>
       <r>   19.5754    0.0000 </r>
       <r>   21.5430    0.0000 </r>
       <r>   37.4873    0.0000 </r>
       <r>   41.2974    0.0000 </r>
       <r>   42.4990    0.0000 </r>
      </set>
     </set>
     <set comment="spin 2">
      <set comment="kpoint 1">
       <r>    0.2933    1.0000 </r>
       <r>    7.6055    1.0000 </r>
       <r>    7.6055    1.0000 </r>
       <r>    7.6055    1.0000 </r>
       <r>    8.6460    1.0000 </r>
       <r>    8.6460    1.0000 </r>
       <r>   32.8667    0.0000 </r>
       <r>   36.8126    0.0000 </r>
       <r>   36.8128    0.0000 </r>
       <r>   36.8128    0.0000 </r>
       <r>   39.9877    0.0000 </r>
       <r>   39.9878    0.0000 </r>
      </set>
      <set comment="kpoint 2">
       <r>    0.6145    1.0000 </r>
       <r>    7.5169    1.0000 </r>
       <r>    7.6763    1.0000 </r>
       <r>    7.6763    1.0000 </r>
       <r>    8.6180    1.0000 </r>
       <r>    8.6180    1.0000 </r>
       <r>   31.5954    0.0000 </r>
       <r>   34.3277    0.0000 </r>
       <r>   36.2107    0.0000 </r>
       <r>   36.2109    0.0000 </r>
       <r>   40.9201    0.0000 </r>
       <r>   40.9202    0.0000 </r>
      </set>
      <set comment="kpoint 3">
       <r>    1.5405    1.0000 </r>
       <r>    7.3096    1.0000 </r>
       <r>    7.7967    1.0000 </r>
       <r>    7.7967    1.0000 </r>
       <r>    8.6260    1.0000 </r>
       <r>    8.6260    1.0000 </r>
       <r>   27.2567    0.0000 </r>
       <r>   33.5403    0.0000 </r>
       <r>   35.3179    0.0000 </r>
       <r>   35.3181    0.0000 </r>
       <r>   40.8934    0.0000 </r>
       <r>   41.6479    0.0000 </r>
      </set>
      <set comment="kpoint 4">
       <r>    2.9144    1.0000 </r>
       <r>    7.1840    1.0000 </r>
       <r>    7.7618    1.0000 </r>
       <r>    7.7619    1.0000 </r>
       <r>    8.8424    1.0000 </r>
       <r>    8.8425    1.0375 </r>
       <r>   22.7431    0.0000 </r>
       <r>   32.7746    0.0000 </r>
       <r>   34.6224    0.0000 </r>
       <r>   34.6226    0.0000 </r>
       <r>   39.8388    0.0000 </r>
       <r>   39.8390    0.0000 </r>
      </set>
      <set comment="kpoint 5">
       <r>    4.2536    1.0000 </r>
       <r>    7.5672    1.0000 </r>
       <r>    7.6258    1.0000 </r>
       <r>    7.6259    1.0000 </r>
       <r>    9.1786    0.9929 </r>
       <r>    9.1787    0.4826 </r>
       <r>   18.7171    0.0000 </r>
       <r>   31.9405    0.0000 </r>
       <r>   34.2055    0.0000 </r>
       <r>   34.2056    0.0000 </r>
       <r>   38.0521    0.0000 </r>
       <r>   38.0525    0.0000 </r>
      </set>
      <set comment="kpoint 6">
       <r>    4.8556    1.0000 </r>
       <r>    7.5288    1.0000 </r>
       <r>    7.5289    1.0000 </r>
       <r>    8.6848    1.0000 </r>
       <r>    9.4075    0.0397 </r>
       <r>    9.4076    0.0085 </r>
       <r>   15.8233    0.0000 </r>
       <r>   31.4354    0.0000 </r>
       <r>   34.0161    0.0000 </r>
       <r>   34.0162    0.0000 </r>
       <r>   37.1061    0.0000 </r>
       <r>   37.1067    0.0000 </r>
      </set>
      <set comment="kpoint 7">
       <r>    0.7208    1.0000 </r>
       <r>    7.4442    1.0000 </r>
       <r>    7.7291    1.0000 </r>
       <r>    7.7291    1.0000 </r>
       <r>    8.5016    1.0000 </r>
       <r>    8.7025    1.0000 </r>
       <r>   32.1366    0.0000 </r>
       <r>   34.3151    0.0000 </r>
       <r>   34.3152    0.0000 </r>
       <r>   35.0855    0.0000 </r>
       <r>   41.6667    0.0000 </r>
       <r>   42.4054    0.0000 </r>
      </set>
      <set comment="kpoint 8">
       <r>    1.4438    1.0000 </r>
       <r>    7.2458    1.0000 </r>
       <r>    7.8541    1.0000 </r>
       <r>    7.8697    1.0000 </r>
       <r>    8.4022    1.0000 </r>
       <r>    8.7642    1.0000 </r>
       <r>   29.0032    0.0000 </r>
       <r>   32.6373    0.0000 </r>
       <r>   32.8388    0.0000 </r>
       <r>   36.1252    0.0000 </r>
       <r>   39.8314    0.0000 </r>
       <r>   42.1482    0.0000 </r>
      </set>
      <set comment="kpoint 9">
       <r>    2.6778    1.0000 </r>
       <r>    7.0527    1.0000 </r>
       <r>    7.7735    1.0000 </r>
       <r>    7.9108    1.0000 </r>
       <r>    8.6414    1.0000 </r>
       <r>    8.9497    1.1161 </r>
       <r>   24.4186    0.0000 </r>
       <r>   31.8649    0.0000 </r>
       <r>   31.9017    0.0000 </r>
       <r>   35.9767    0.0000 </r>
       <r>   39.1349    0.0000 </r>
       <r>   41.8719    0.0000 </r>
      </set>
      <set comment="kpoint 10">
       <r>    4.0861    1.0000 </r>
       <r>    7.1074    1.0000 </r>
       <r>    7.5744    1.0000 </r>
       <r>    7.8061    1.0000 </r>
       <r>    9.1963    0.9781 </r>
       <r>    9.2392    0.3777 </r>
       <r>   20.1646    0.0000 </r>
       <r>   31.0944    0.0000 </r>
       <r>   31.4300    0.0000 </r>
       <r>   34.1173    0.0000 </r>
       <r>   39.4351    0.0000 </r>
       <r>   41.3176    0.0000 </r>
      </set>
      <set comment="kpoint 11">
       <r>    4.9410    1.0000 </r>
       <r>    7.3433    1.0000 </r>
       <r>    7.6823    1.0000 </r>
       <r>    7.8110    1.0000 </r>
       <r>    9.4312    0.1077 </r>
       <r>   10.0178   -0.0154 </r>
       <r>   16.7011    0.0000 </r>
       <r>   30.2617    0.0000 </r>
       <r>   31.6190    0.0000 </r>
       <r>   32.8292    0.0000 </r>
       <r>   39.3043    0.0000 </r>
       <r>   39.7971    0.0000 </r>
      </set>
      <set comment="kpoint 12">
       <r>    5.0983    1.0000 </r>
       <r>    7.3415    1.0000 </r>
       <r>    7.6308    1.0000 </r>
       <r>    8.1417    1.0000 </r>
       <r>    9.3974    0.0370 </r>
       <r>   10.5676    0.0000 </r>
       <r>   15.4476    0.0000 </r>
       <r>   29.5367    0.0000 </r>
       <r>   32.4756    0.0000 </r>
       <r>   32.5272    0.0000 </r>
       <r>   38.7508    0.0000 </r>
       <r>   39.4159    0.0000 </r>
      </set>
      <set comment="kpoint 13">
       <r>    4.7595    1.0000 </r>
       <r>    7.4258    1.0000 </r>
       <r>    7.6005    1.0000 </r>
       <r>    7.6875    1.0000 </r>
       <r>    9.1289    1.0174 </r>
       <r>    9.9103   -0.0636 </r>
       <r>   17.7325    0.0000 </r>
       <r>   29.1609    0.0000 </r>
       <r>   32.9884    0.0000 </r>
       <r>   34.1894    0.0000 </r>
       <r>   38.2150    0.0000 </r>
       <r>   39.5697    0.0000 </r>
      </set>
      <set comment="kpoint 14">
       <r>    3.6431    1.0000 </r>
       <r>    7.0872    1.0000 </r>
       <r>    7.6446    1.0000 </r>
       <r>    7.8266    1.0000 </r>
       <r>    8.7295    1.0000 </r>
       <r>    9.3530    0.3760 </r>
       <r>   21.5314    0.0000 </r>
       <r>   29.2463    0.0000 </r>
       <r>   34.1888    0.0000 </r>
       <r>   36.5262    0.0000 </r>
       <r>   38.0428    0.0000 </r>
       <r>   39.1993    0.0000 </r>
      </set>
      <set comment="kpoint 15">
       <r>    2.2241    1.0000 </r>
       <r>    7.1467    1.0000 </r>
       <r>    7.7923    1.0000 </r>
       <r>    7.9251    1.0000 </r>
       <r>    8.4255    1.0000 </r>
       <r>    8.9414    1.0555 </r>
       <r>   25.9243    0.0000 </r>
       <r>   29.8063    0.0000 </r>
       <r>   35.6440    0.0000 </r>
       <r>   38.1776    0.0000 </r>
       <r>   38.3862    0.0000 </r>
       <r>   39.3485    0.0000 </r>
      </set>
      <set comment="kpoint 16">
       <r>    1.1378    1.0000 </r>
       <r>    7.3630    1.0000 </r>
       <r>    7.7798    1.0000 </r>
       <r>    7.7856    1.0000 </r>
       <r>    8.4736    1.0000 </r>
       <r>    8.7149    1.0000 </r>
       <r>   30.1266    0.0000 </r>
       <r>   31.2440    0.0000 </r>
       <r>   35.7158    0.0000 </r>
       <r>   38.0022    0.0000 </r>
       <r>   39.1736    0.0000 </r>
       <r>   40.3339    0.0000 </r>
      </set>
      <set comment="kpoint 17">
       <r>    1.9395    1.0000 </r>
       <r>    7.0221    1.0000 </r>
       <r>    8.0835    1.0000 </r>
       <r>    8.0835    1.0000 </r>
       <r>    8.1548    1.0000 </r>
       <r>    8.8556    1.0000 </r>
       <r>   30.9178    0.0000 </r>
       <r>   30.9179    0.0000 </r>
       <r>   30.9510    0.0000 </r>
       <r>   32.2503    0.0000 </r>
       <r>   37.7216    0.0000 </r>
       <r>   45.6047    0.0000 </r>
      </set>
      <set comment="kpoint 18">
       <r>    2.9493    1.0000 </r>
       <r>    6.7788    1.0000 </r>
       <r>    7.8257    1.0000 </r>
       <r>    8.2413    1.0000 </r>
       <r>    8.5617    1.0000 </r>
       <r>    9.0124    1.1039 </r>
       <r>   26.4821    0.0000 </r>
       <r>   29.5865    0.0000 </r>
       <r>   30.5367    0.0000 </r>
       <r>   32.4712    0.0000 </r>
       <r>   36.8507    0.0000 </r>
       <r>   45.0123    0.0000 </r>
      </set>
      <set comment="kpoint 19">
       <r>    4.2346    1.0000 </r>
       <r>    6.6447    1.0000 </r>
       <r>    7.5239    1.0000 </r>
       <r>    8.1975    1.0000 </r>
       <r>    9.2813    0.8762 </r>
       <r>    9.3405    0.1584 </r>
       <r>   22.0844    0.0000 </r>
       <r>   28.9040    0.0000 </r>
       <r>   28.9080    0.0000 </r>
       <r>   32.0440    0.0000 </r>
       <r>   39.4029    0.0000 </r>
       <r>   44.0592    0.0000 </r>
      </set>
      <set comment="kpoint 20">
       <r>    5.2392    1.0000 </r>
       <r>    6.7149    1.0000 </r>
       <r>    7.4213    1.0000 </r>
       <r>    8.0720    1.0000 </r>
       <r>    9.4646    0.0117 </r>
       <r>   10.6219   -0.0024 </r>
       <r>   18.1949    0.0000 </r>
       <r>   27.2152    0.0000 </r>
       <r>   28.9713    0.0000 </r>
       <r>   31.6609    0.0000 </r>
       <r>   42.6586    0.0000 </r>
       <r>   43.4363    0.0000 </r>
      </set>
      <set comment="kpoint 21">
       <r>    5.5812    1.0000 </r>
       <r>    6.8154    1.0000 </r>
       <r>    7.5687    1.0000 </r>
       <r>    7.9716    1.0000 </r>
       <r>    9.4125    0.0095 </r>
       <r>   12.1316    0.0000 </r>
       <r>   15.6291    0.0000 </r>
       <r>   25.8700    0.0000 </r>
       <r>   29.8230    0.0000 </r>
       <r>   31.7107    0.0000 </r>
       <r>   42.2195    0.0000 </r>
       <r>   42.4616    0.0000 </r>
      </set>
      <set comment="kpoint 22">
       <r>    5.4809    1.0000 </r>
       <r>    6.9728    1.0000 </r>
       <r>    7.3660    1.0000 </r>
       <r>    7.9557    1.0000 </r>
       <r>    9.1189    1.0580 </r>
       <r>   11.3802    0.0000 </r>
       <r>   17.1456    0.0000 </r>
       <r>   25.0482    0.0000 </r>
       <r>   31.4395    0.0000 </r>
       <r>   32.3030    0.0000 </r>
       <r>   41.4919    0.0000 </r>
       <r>   41.6685    0.0000 </r>
      </set>
      <set comment="kpoint 23">
       <r>    4.7168    1.0000 </r>
       <r>    6.9204    1.0000 </r>
       <r>    7.3272    1.0000 </r>
       <r>    8.0412    1.0000 </r>
       <r>    8.6851    1.0000 </r>
       <r>   10.2196    0.0000 </r>
       <r>   20.7716    0.0000 </r>
       <r>   24.8359    0.0000 </r>
       <r>   33.5158    0.0000 </r>
       <r>   33.6976    0.0000 </r>
       <r>   40.2293    0.0000 </r>
       <r>   41.2941    0.0000 </r>
      </set>
      <set comment="kpoint 24">
       <r>    3.3930    1.0000 </r>
       <r>    6.9447    1.0000 </r>
       <r>    7.6169    1.0000 </r>
       <r>    8.2026    1.0000 </r>
       <r>    8.2576    1.0000 </r>
       <r>    9.4673    0.1384 </r>
       <r>   24.7280    0.0000 </r>
       <r>   25.4824    0.0000 </r>
       <r>   35.2635    0.0000 </r>
       <r>   36.3895    0.0000 </r>
       <r>   38.2959    0.0000 </r>
       <r>   41.5261    0.0000 </r>
      </set>
      <set comment="kpoint 25">
       <r>    3.6420    1.0000 </r>
       <r>    6.4912    1.0000 </r>
       <r>    7.9703    1.0000 </r>
       <r>    8.6194    1.0000 </r>
       <r>    8.6194    1.0000 </r>
       <r>    9.0600    1.1859 </r>
       <r>   27.8946    0.0000 </r>
       <r>   27.8947    0.0000 </r>
       <r>   28.2461    0.0000 </r>
       <r>   30.0262    0.0000 </r>
       <r>   34.2667    0.0000 </r>
       <r>   49.2876    0.0000 </r>
      </set>
      <set comment="kpoint 26">
       <r>    4.5365    1.0000 </r>
       <r>    6.2892    1.0000 </r>
[...]
       </set>
       <set comment="band 5">
        <r>  0.0000  0.0025  0.0017  0.0001  0.1759  0.6591  0.0485  0.0112  0.0856 </r>
       </set>
       <set comment="band 6">
        <r>  0.1239  0.0085  0.1175  0.0563  0.0017  0.0021  0.1103  0.3768  0.1004 </r>
       </set>
       <set comment="band 7">
        <r>  0.1558  0.2910  0.0087  0.0400  0.1694  0.0965  0.0131  0.0311  0.0192 </r>
       </set>
       <set comment="band 8">
        <r>  0.1606  0.1733  0.0188  0.0971  0.0638  0.0328  0.0539  0.0427  0.0970 </r>
       </set>
       <set comment="band 9">
        <r>  0.0949  0.0049  0.2921  0.0278  0.0003  0.0031  0.2562  0.0376  0.0026 </r>
       </set>
       <set comment="band 10">
        <r>  0.0111  0.0103  0.0272  0.2749  0.0095  0.0001  0.0104  0.0601  0.0895 </r>
       </set>
       <set comment="band 11">
        <r>  0.0267  0.0522  0.0018  0.0004  0.3692  0.0299  0.0240  0.0501  0.0846 </r>
       </set>
       <set comment="band 12">
        <r>  0.0831  0.0298  0.0683  0.1525  0.0123  0.0118  0.2395  0.0635  0.1065 </r>
       </set>
      </set>
      <set comment="kpoint 46">
       <set comment="band 1">
        <r>  0.3237  0.0000  0.1505  0.0691  0.0000  0.0000  0.0770  0.1414  0.0084 </r>
       </set>
       <set comment="band 2">
        <r>  0.0000  0.0422  0.0000  0.0000  0.7207  0.1759  0.0000  0.0000  0.0000 </r>
       </set>
       <set comment="band 3">
        <r>  0.0047  0.0000  0.0001  0.0094  0.0000  0.0000  0.4310  0.3389  0.1619 </r>
       </set>
       <set comment="band 4">
        <r>  0.0039  0.0000  0.0160  0.0020  0.0000  0.0000  0.3330  0.0127  0.6008 </r>
       </set>
       <set comment="band 5">
        <r>  0.0000  0.0037  0.0000  0.0000  0.2059  0.7710  0.0000  0.0000  0.0000 </r>
       </set>
       <set comment="band 6">
        <r>  0.0723  0.0000  0.0474  0.0225  0.0000  0.0000  0.1193  0.4904  0.2033 </r>
       </set>
       <set comment="band 7">
        <r>  0.0000  0.4369  0.0000  0.0000  0.2428  0.1570  0.0000  0.0000  0.0000 </r>
       </set>
       <set comment="band 8">
        <r>  0.2308  0.0000  0.0500  0.1837  0.0000  0.0000  0.0530  0.1085  0.0698 </r>
       </set>
       <set comment="band 9">
        <r>  0.0742  0.0000  0.2772  0.0025  0.0000  0.0000  0.3104  0.0129  0.0013 </r>
       </set>
       <set comment="band 10">
        <r>  0.0004  0.0000  0.0444  0.3215  0.0000  0.0000  0.0279  0.0080  0.1115 </r>
       </set>
       <set comment="band 11">
        <r>  0.0000  0.1041  0.0000  0.0000  0.3924  0.0367  0.0000  0.0000  0.0000 </r>
       </set>
       <set comment="band 12">
        <r>  0.1312  0.0000  0.1251  0.0953  0.0000  0.0000  0.1905  0.1114  0.1915 </r>
       </set>
      </set>
      <set comment="kpoint 47">
       <set comment="band 1">
        <r>  0.1550  0.0947  0.0000  0.0156  0.0142  0.0000  0.1572  0.0000  0.3843 </r>
       </set>
       <set comment="band 2">
        <r>  0.0000  0.0000  0.0131  0.0000  0.0000  0.0108  0.0000  0.9152  0.0000 </r>
       </set>
       <set comment="band 3">
        <r>  0.0579  0.1145  0.0000  0.0014  0.5114  0.0000  0.1503  0.0000  0.0818 </r>
       </set>
       <set comment="band 4">
        <r>  0.0066  0.0227  0.0000  0.0032  0.0000  0.0000  0.5207  0.0000  0.4243 </r>
       </set>
       <set comment="band 5">
        <r>  0.0000  0.0000  0.0077  0.0000  0.0000  0.9636  0.0000  0.0148  0.0000 </r>
       </set>
       <set comment="band 6">
        <r>  0.0929  0.1582  0.0000  0.0119  0.4588  0.0000  0.1402  0.0000  0.0530 </r>
       </set>
       <set comment="band 7">
        <r>  0.0000  0.0000  0.4952  0.0000  0.0000  0.0698  0.0000  0.2204  0.0000 </r>
       </set>
       <set comment="band 8">
        <r>  0.0085  0.1076  0.0000  0.1715  0.0470  0.0000  0.1467  0.0000  0.2323 </r>
       </set>
       <set comment="band 9">
        <r>  0.2723  0.1355  0.0000  0.2445  0.0251  0.0000  0.0002  0.0000  0.0615 </r>
       </set>
       <set comment="band 10">
        <r>  0.0000  0.0000  0.0999  0.0000  0.0000  0.0153  0.0000  0.6747  0.0000 </r>
       </set>
       <set comment="band 11">
        <r>  0.2765  0.0837  0.0000  0.1767  0.0134  0.0000  0.0180  0.0000  0.1081 </r>
       </set>
       <set comment="band 12">
        <r>  0.0452  0.0010  0.0000  0.0448  0.0992  0.0000  0.0540  0.0000  0.2290 </r>
       </set>
      </set>
      <set comment="kpoint 48">
       <set comment="band 1">
        <r>  0.0633  0.0368  0.0009  0.0255  0.0122  0.0023  0.2386  0.0248  0.4546 </r>
       </set>
       <set comment="band 2">
        <r>  0.0006  0.0000  0.0314  0.0067  0.0039  0.0121  0.0106  0.8516  0.0145 </r>
       </set>
       <set comment="band 3">
        <r>  0.0313  0.1179  0.0002  0.0002  0.6246  0.0383  0.0802  0.0161  0.0123 </r>
       </set>
       <set comment="band 4">
        <r>  0.0000  0.0112  0.0016  0.0041  0.0002  0.1297  0.4855  0.0020  0.3435 </r>
       </set>
       <set comment="band 5">
        <r>  0.0002  0.0002  0.0022  0.0001  0.0875  0.7704  0.0746  0.0103  0.0463 </r>
       </set>
       <set comment="band 6">
        <r>  0.1062  0.2993  0.0048  0.0203  0.2744  0.0300  0.0616  0.0009  0.0632 </r>
       </set>
       <set comment="band 7">
        <r>  0.0919  0.0004  0.2836  0.1324  0.0182  0.0251  0.0363  0.1659  0.0208 </r>
       </set>
       <set comment="band 8">
        <r>  0.2013  0.1845  0.0075  0.0242  0.0187  0.0001  0.0954  0.0144  0.2334 </r>
       </set>
       <set comment="band 9">
        <r>  0.1446  0.0159  0.2211  0.1935  0.0108  0.0128  0.0632  0.0632  0.0024 </r>
       </set>
       <set comment="band 10">
        <r>  0.0559  0.0081  0.0572  0.0539  0.0009  0.0053  0.0008  0.5080  0.0347 </r>
       </set>
       <set comment="band 11">
        <r>  0.1507  0.0267  0.0368  0.2044  0.0023  0.0027  0.0188  0.1350  0.1065 </r>
       </set>
       <set comment="band 12">
        <r>  0.0567  0.0087  0.0020  0.0224  0.2211  0.0035  0.0377  0.0015  0.1836 </r>
       </set>
      </set>
      <set comment="kpoint 49">
       <set comment="band 1">
        <r>  0.0204  0.0081  0.0022  0.0301  0.0054  0.0022  0.3133  0.0715  0.4307 </r>
       </set>
       <set comment="band 2">
        <r>  0.0127  0.0009  0.0574  0.0237  0.0157  0.0109  0.0353  0.7354  0.0222 </r>
       </set>
       <set comment="band 3">
        <r>  0.0056  0.1143  0.0017  0.0004  0.6547  0.0966  0.0126  0.0376  0.0009 </r>
       </set>
       <set comment="band 4">
        <r>  0.0027  0.0025  0.0034  0.0030  0.0008  0.0535  0.5032  0.0004  0.4046 </r>
       </set>
       <set comment="band 5">
        <r>  0.0006  0.0008  0.0001  0.0000  0.1545  0.7795  0.0288  0.0054  0.0216 </r>
       </set>
       <set comment="band 6">
        <r>  0.0216  0.3711  0.0455  0.0509  0.1746  0.0436  0.0459  0.0167  0.0533 </r>
       </set>
       <set comment="band 7">
        <r>  0.1961  0.0394  0.2026  0.0838  0.0391  0.0252  0.0293  0.1853  0.0131 </r>
       </set>
       <set comment="band 8">
        <r>  0.2943  0.1149  0.0009  0.0464  0.0214  0.0046  0.0829  0.0163  0.2011 </r>
       </set>
       <set comment="band 9">
        <r>  0.1160  0.0029  0.2689  0.1379  0.0018  0.0033  0.1381  0.0667  0.0015 </r>
       </set>
       <set comment="band 10">
        <r>  0.0669  0.0034  0.0305  0.1292  0.0001  0.0008  0.0000  0.3454  0.0775 </r>
       </set>
       <set comment="band 11">
        <r>  0.0500  0.0150  0.0414  0.1969  0.0268  0.0040  0.0315  0.2424  0.0443 </r>
       </set>
       <set comment="band 12">
        <r>  0.0595  0.0223  0.0140  0.0036  0.3233  0.0089  0.0050  0.0110  0.1245 </r>
       </set>
      </set>
      <set comment="kpoint 50">
       <set comment="band 1">
        <r>  0.0335  0.0000  0.0860  0.0732  0.0000  0.0000  0.2569  0.2722  0.1385 </r>
       </set>
       <set comment="band 2">
        <r>  0.0302  0.0000  0.0088  0.0027  0.0000  0.0000  0.1848  0.4734  0.2244 </r>
       </set>
       <set comment="band 3">
        <r>  0.0000  0.0954  0.0000  0.0000  0.6814  0.1500  0.0000  0.0000  0.0000 </r>
       </set>
       <set comment="band 4">
        <r>  0.0018  0.0000  0.0094  0.0002  0.0000  0.0000  0.4340  0.0066  0.5192 </r>
       </set>
       <set comment="band 5">
        <r>  0.0000  0.0024  0.0000  0.0000  0.1952  0.7901  0.0000  0.0000  0.0000 </r>
       </set>
       <set comment="band 6">
        <r>  0.1522  0.0000  0.1905  0.0927  0.0000  0.0000  0.0775  0.2719  0.0587 </r>
       </set>
       <set comment="band 7">
        <r>  0.0000  0.5141  0.0000  0.0000  0.2225  0.0980  0.0000  0.0000  0.0000 </r>
       </set>
       <set comment="band 8">
        <r>  0.3697  0.0000  0.0131  0.0938  0.0000  0.0000  0.0779  0.0380  0.1677 </r>
       </set>
       <set comment="band 9">
        <r>  0.1059  0.0000  0.2873  0.0803  0.0000  0.0000  0.2071  0.0588  0.0019 </r>
       </set>
       <set comment="band 10">
        <r>  0.0464  0.0000  0.0221  0.2004  0.0000  0.0000  0.0027  0.2021  0.1089 </r>
       </set>
       <set comment="band 11">
        <r>  0.0000  0.0614  0.0000  0.0000  0.4259  0.0201  0.0000  0.0000  0.0000 </r>
       </set>
       <set comment="band 12">
        <r>  0.0190  0.0000  0.0001  0.2901  0.0000  0.0000  0.1633  0.2999  0.0264 </r>
       </set>
      </set>
      <set comment="kpoint 51">
       <set comment="band 1">
        <r>  0.0540  0.0088  0.0000  0.0130  0.0008  0.0000  0.2310  0.0000  0.5569 </r>
       </set>
       <set comment="band 2">
        <r>  0.0000  0.0000  0.0138  0.0000  0.0000  0.0011  0.0000  0.9221  0.0000 </r>
       </set>
       <set comment="band 3">
        <r>  0.0091  0.1249  0.0000  0.0006  0.7571  0.0000  0.0438  0.0000  0.0001 </r>
       </set>
       <set comment="band 4">
        <r>  0.0000  0.0073  0.0000  0.0028  0.0244  0.0000  0.6495  0.0000  0.3024 </r>
       </set>
       <set comment="band 5">
        <r>  0.0000  0.0000  0.0013  0.0000  0.0000  0.9910  0.0000  0.0016  0.0000 </r>
       </set>
       <set comment="band 6">
        <r>  0.0500  0.4893  0.0000  0.0039  0.2244  0.0000  0.0189  0.0000  0.0306 </r>
       </set>
       <set comment="band 7">
        <r>  0.2736  0.0772  0.0000  0.0304  0.0056  0.0000  0.1212  0.0000  0.3083 </r>
       </set>
       <set comment="band 8">
        <r>  0.0000  0.0000  0.5484  0.0000  0.0000  0.0090  0.0000  0.1980  0.0000 </r>
       </set>
       <set comment="band 9">
        <r>  0.1817  0.0034  0.0000  0.4375  0.0071  0.0000  0.0485  0.0000  0.0006 </r>
       </set>
       <set comment="band 10">
        <r>  0.0000  0.0000  0.0851  0.0000  0.0000  0.0017  0.0000  0.7558  0.0000 </r>
       </set>
       <set comment="band 11">
        <r>  0.3175  0.0094  0.0000  0.1590  0.0013  0.0000  0.0325  0.0000  0.1832 </r>
       </set>
       <set comment="band 12">
        <r>  0.0162  0.0156  0.0000  0.0138  0.2135  0.0000  0.0192  0.0000  0.0525 </r>
       </set>
      </set>
      <set comment="kpoint 52">
       <set comment="band 1">
        <r>  0.0304  0.0000  0.0016  0.0250  0.0000  0.0000  0.2815  0.0095  0.5255 </r>
       </set>
       <set comment="band 2">
        <r>  0.0011  0.0000  0.0317  0.0051  0.0000  0.0000  0.0029  0.8879  0.0032 </r>
       </set>
       <set comment="band 3">
        <r>  0.0000  0.1369  0.0000  0.0000  0.7345  0.0558  0.0000  0.0000  0.0000 </r>
       </set>
       <set comment="band 4">
        <r>  0.0031  0.0000  0.0008  0.0045  0.0000  0.0000  0.6301  0.0001  0.3426 </r>
       </set>
       <set comment="band 5">
        <r>  0.0000  0.0007  0.0000  0.0000  0.0779  0.9155  0.0000  0.0000  0.0000 </r>
       </set>
       <set comment="band 6">
        <r>  0.0000  0.5602  0.0000  0.0000  0.2246  0.0290  0.0000  0.0000  0.0000 </r>
       </set>
       <set comment="band 7">
        <r>  0.0866  0.0000  0.1183  0.1447  0.0000  0.0000  0.1458  0.0419  0.2512 </r>
       </set>
       <set comment="band 8">
        <r>  0.3825  0.0000  0.1924  0.0281  0.0000  0.0000  0.0038  0.1398  0.0508 </r>
       </set>
       <set comment="band 9">
        <r>  0.1255  0.0000  0.2279  0.2178  0.0000  0.0000  0.0843  0.0619  0.0001 </r>
       </set>
       <set comment="band 10">
        <r>  0.0584  0.0000  0.0549  0.0474  0.0000  0.0000  0.0015  0.5466  0.0439 </r>
       </set>
       <set comment="band 11">
        <r>  0.1780  0.0000  0.0355  0.1942  0.0000  0.0000  0.0217  0.1313  0.1537 </r>
       </set>
       <set comment="band 12">
        <r>  0.0000  0.0331  0.0000  0.0000  0.3341  0.0050  0.0000  0.0000  0.0000 </r>
       </set>
      </set>
      <set comment="kpoint 53">
       <set comment="band 1">
        <r>  0.0999  0.0919  0.0000  0.0525  0.0783  0.0000  0.2343  0.0000  0.2775 </r>
       </set>
       <set comment="band 2">
        <r>  0.0000  0.0000  0.0487  0.0000  0.0000  0.0502  0.0000  0.8349  0.0000 </r>
       </set>
       <set comment="band 3">
        <r>  0.0389  0.0537  0.0000  0.0015  0.5534  0.0000  0.2258  0.0000  0.0537 </r>
       </set>
       <set comment="band 4">
        <r>  0.0002  0.0205  0.0000  0.0038  0.0078  0.0000  0.3584  0.0000  0.5806 </r>
       </set>
       <set comment="band 5">
        <r>  0.0000  0.0000  0.0057  0.0000  0.0000  0.9136  0.0000  0.0672  0.0000 </r>
       </set>
       <set comment="band 6">
        <r>  0.1320  0.1821  0.0000  0.0352  0.3626  0.0000  0.1329  0.0000  0.0432 </r>
       </set>
       <set comment="band 7">
        <r>  0.0000  0.0000  0.4945  0.0000  0.0000  0.0754  0.0000  0.2558  0.0000 </r>
       </set>
       <set comment="band 8">
        <r>  0.2293  0.0043  0.0000  0.2344  0.0586  0.0000  0.1720  0.0000  0.0151 </r>
       </set>
       <set comment="band 9">
        <r>  0.1945  0.2708  0.0000  0.0079  0.0232  0.0000  0.0453  0.0000  0.2150 </r>
       </set>
       <set comment="band 10">
        <r>  0.0000  0.0000  0.0927  0.0000  0.0000  0.0188  0.0000  0.5391  0.0000 </r>
       </set>
       <set comment="band 11">
        <r>  0.0276  0.0574  0.0000  0.3600  0.0146  0.0000  0.0325  0.0000  0.0031 </r>
       </set>
       <set comment="band 12">
        <r>  0.1753  0.0050  0.0000  0.0147  0.2199  0.0000  0.0322  0.0000  0.3910 </r>
       </set>
      </set>
      <set comment="kpoint 54">
       <set comment="band 1">
        <r>  0.0155  0.0319  0.0003  0.0567  0.0295  0.0027  0.4561  0.0193  0.2588 </r>
       </set>
       <set comment="band 2">
        <r>  0.0227  0.0155  0.0525  0.0038  0.1957  0.0435  0.0632  0.5181  0.0045 </r>
       </set>
       <set comment="band 3">
        <r>  0.0119  0.0594  0.0236  0.0021  0.5206  0.0002  0.0360  0.2727  0.0006 </r>
       </set>
       <set comment="band 4">
        <r>  0.0040  0.0091  0.0013  0.0008  0.0069  0.0447  0.2789  0.0003  0.6243 </r>
       </set>
       <set comment="band 5">
        <r>  0.0009  0.0000  0.0022  0.0000  0.0263  0.8717  0.0125  0.0506  0.0265 </r>
       </set>
       <set comment="band 6">
        <r>  0.1023  0.2741  0.0177  0.0650  0.2376  0.0060  0.0877  0.0037  0.0422 </r>
       </set>
       <set comment="band 7">
        <r>  0.1536  0.0018  0.3322  0.0341  0.0211  0.0405  0.0325  0.2059  0.0018 </r>
       </set>
       <set comment="band 8">
        <r>  0.1088  0.0035  0.1483  0.1498  0.0289  0.0056  0.2243  0.0577  0.0190 </r>
       </set>
       <set comment="band 9">
        <r>  0.2840  0.2309  0.0199  0.0201  0.0345  0.0047  0.0143  0.0003  0.1603 </r>
       </set>
       <set comment="band 10">
        <r>  0.0027  0.0219  0.0376  0.1971  0.0396  0.0019  0.0099  0.2012  0.0052 </r>
       </set>
       <set comment="band 11">
        <r>  0.0193  0.0181  0.0230  0.0494  0.1730  0.0091  0.0434  0.2502  0.0544 </r>
       </set>
       <set comment="band 12">
        <r>  0.1024  0.0003  0.0156  0.1869  0.1670  0.0000  0.0000  0.0695  0.2412 </r>
       </set>
      </set>
      <set comment="kpoint 55">
       <set comment="band 1">
        <r>  0.0190  0.0075  0.0000  0.0438  0.0027  0.0000  0.3812  0.0000  0.4180 </r>
       </set>
       <set comment="band 2">
        <r>  0.0000  0.0000  0.0514  0.0000  0.0000  0.0050  0.0000  0.8754  0.0000 </r>
       </set>
       <set comment="band 3">
        <r>  0.0105  0.1165  0.0000  0.0000  0.7713  0.0000  0.0252  0.0000  0.0000 </r>
       </set>
       <set comment="band 4">
        <r>  0.0067  0.0047  0.0000  0.0035  0.0104  0.0000  0.4772  0.0000  0.4721 </r>
       </set>
       <set comment="band 5">
        <r>  0.0000  0.0000  0.0012  0.0000  0.0000  0.9854  0.0000  0.0074  0.0000 </r>
       </set>
       <set comment="band 6">
        <r>  0.0651  0.4305  0.0000  0.0185  0.2539  0.0000  0.0308  0.0000  0.0305 </r>
       </set>
       <set comment="band 7">
        <r>  0.0000  0.0000  0.5338  0.0000  0.0000  0.0102  0.0000  0.2651  0.0000 </r>
       </set>
       <set comment="band 8">
        <r>  0.0728  0.0864  0.0000  0.1684  0.0287  0.0000  0.1959  0.0000  0.2148 </r>
       </set>
       <set comment="band 9">
        <r>  0.5085  0.0254  0.0000  0.1279  0.0004  0.0000  0.0675  0.0000  0.0179 </r>
       </set>
       <set comment="band 10">
        <r>  0.0000  0.0000  0.0876  0.0000  0.0000  0.0022  0.0000  0.5972  0.0000 </r>
       </set>
       <set comment="band 11">
        <r>  0.1234  0.0117  0.0000  0.3482  0.0023  0.0000  0.0183  0.0000  0.1445 </r>
       </set>
       <set comment="band 12">
        <r>  0.0446  0.0303  0.0000  0.0001  0.3682  0.0000  0.0117  0.0000  0.0975 </r>
       </set>
      </set>
      <set comment="kpoint 56">
       <set comment="band 1">
        <r>  0.0013  0.0000  0.0032  0.0551  0.0000  0.0000  0.5284  0.0001  0.2891 </r>
       </set>
       <set comment="band 2">
        <r>  0.0076  0.0000  0.0749  0.0019  0.0000  0.0000  0.0002  0.8380  0.0034 </r>
       </set>
       <set comment="band 3">
        <r>  0.0000  0.1007  0.0000  0.0000  0.8096  0.0155  0.0000  0.0000  0.0000 </r>
       </set>
       <set comment="band 4">
        <r>  0.0138  0.0000  0.0018  0.0005  0.0000  0.0000  0.3368  0.0033  0.6137 </r>
       </set>
       <set comment="band 5">
        <r>  0.0000  0.0010  0.0000  0.0000  0.0230  0.9700  0.0000  0.0000  0.0000 </r>
       </set>
       <set comment="band 6">
        <r>  0.0000  0.5424  0.0000  0.0000  0.2643  0.0149  0.0000  0.0000  0.0000 </r>
       </set>
       <set comment="band 7">
        <r>  0.0681  0.0000  0.3670  0.0686  0.0000  0.0000  0.0699  0.2183  0.0173 </r>
       </set>
       <set comment="band 8">
        <r>  0.2691  0.0000  0.0114  0.1387  0.0000  0.0000  0.1381  0.0235  0.1921 </r>
       </set>
       <set comment="band 9">
        <r>  0.3417  0.0000  0.1573  0.0763  0.0000  0.0000  0.1411  0.0424  0.0043 </r>
       </set>
       <set comment="band 10">
        <r>  0.0157  0.0000  0.0549  0.1029  0.0000  0.0000  0.0002  0.3933  0.0420 </r>
       </set>
       <set comment="band 11">
        <r>  0.0000  0.0614  0.0000  0.0000  0.4773  0.0026  0.0000  0.0000  0.0000 </r>
       </set>
       <set comment="band 12">
        <r>  0.0178  0.0000  0.0156  0.3632  0.0000  0.0000  0.0466  0.1539  0.0545 </r>
       </set>
      </set>
     </set>
    </set>
   </array>
  </projected>
 </calculation>
 <structure name="finalpos" >
  <crystal>
   <varray name="basis" >
    <v>       1.76142189       1.76142189       0.00000000 </v>
    <v>       0.00000000       1.76142189       1.76142189 </v>
    <v>       1.76142189       0.00000000       1.76142189 </v>
   </varray>
   <i name="volume">     10.93000000 </i>
   <varray name="rec_basis" >
    <v>       0.28386158       0.28386158      -0.28386158 </v>
    <v>      -0.28386158       0.28386158       0.28386158 </v>
    <v>       0.28386158      -0.28386158       0.28386158 </v>
   </varray>
  </crystal>
  <varray name="positions" >
   <v>       0.00000000       0.00000000       0.00000000 </v>
  </varray>
 </structure>
</modeling>
