diamond Si                              
   5.70000000000000     
     0.000000    0.500000    0.500000
     0.500000    0.000000    0.500000
     0.500000    0.500000    0.000000
   Si
     2
Direct
  0.875000  0.875000  0.875000
  0.125000  0.125000  0.125000
 
   32   32   32
  22.704      22.704      22.649      22.396      21.728      20.535      19.058      17.816      17.330      17.816    
  19.058      20.535      21.728      22.396      22.649      22.704      22.704      22.704      22.649      22.396    
  21.728      20.535      19.058      17.816      17.330      17.816      19.058      20.535      21.728      22.396    
  22.649      22.704      22.704      23.177      23.417      23.057      21.808      19.835      17.774      16.453    
  16.453      17.774      19.835      21.808      23.057      23.417      23.177      22.704      22.182      21.678    
  21.154      20.518      19.694      18.687      17.713      17.103      17.103      17.713      18.687      19.694    
  20.518      21.154      21.678      22.182      22.649      23.417      23.519      22.451      20.184      17.325    
  14.928      13.991      14.928      17.325      20.184      22.451      23.519      23.417      22.649      21.678    
  20.704      19.795      18.933      18.070      17.205      16.409      15.821      15.602      15.821      16.409    
  17.205      18.070      18.933      19.795      20.704      21.678      22.396      23.057      22.451      20.276    
  16.939      13.527      11.367      11.367      13.527      16.939      20.276      22.451      23.057      22.396    
  21.154      19.795      18.501      17.337      16.299      15.369      14.567      13.958      13.624      13.624    
  13.958      14.567      15.369      16.298      17.337      18.501      19.795      21.154      21.728      21.808    
  20.184      16.939      12.964      9.6829      8.4107      9.6829      12.964      16.939      20.184      21.808    
  21.728      20.518      18.933      17.337      15.882      14.621      13.555      12.681      12.015      11.592    
  11.446      11.592      12.015      12.681      13.555      14.621      15.882      17.337      18.933      20.518    
  20.535      19.835      17.325      13.527      9.6829      7.2636      7.2636      9.6829      13.527      17.326    
  19.835      20.535      19.694      18.070      16.299      14.621      13.151      11.926      10.944      10.200    
  9.6946      9.4384      9.4384      9.6947      10.200      10.944      11.926      13.151      14.621      16.298    
  18.070      19.694      19.058      17.774      14.928      11.367      8.4107      7.2636      8.4108      11.367    
  14.928      17.774      19.058      18.687      17.205      15.369      13.555      11.926      10.555      9.4576    
  8.6234      8.0372      7.6889      7.5734      7.6889      8.0372      8.6234      9.4576      10.555      11.926    
  13.555      15.369      17.205      18.687      17.816      16.453      13.991      11.367      9.6829      9.6829    
  11.367      13.991      16.453      17.816      17.713      16.409      14.567      12.682      10.944      9.4576    
  8.2566      7.3354      6.6721      6.2439      6.0342      6.0342      6.2439      6.6721      7.3354      8.2566    
  9.4576      10.944      12.681      14.567      16.409      17.713      17.330      16.453      14.928      13.527    
  12.964      13.527      14.928      16.453      17.330      17.103      15.821      13.958      12.015      10.200    
  8.6234      7.3354      6.3373      5.6050      5.1083      4.8212      4.7274      4.8212      5.1083      5.6050    
  6.3373      7.3354      8.6234      10.200      12.015      13.958      15.821      17.103      17.816      17.774    
  17.325      16.939      16.939      17.326      17.774      17.816      17.103      15.602      13.624      11.592    
  9.6947      8.0372      6.6721      5.6050      4.8118      4.2566      3.9063      3.7370      3.7370      3.9062    
  4.2566      4.8118      5.6050      6.6721      8.0372      9.6947      11.592      13.624      15.602      17.103    
  19.058      19.835      20.184      20.276      20.184      19.835      19.058      17.713      15.821      13.624    
  11.446      9.4384      7.6889      6.2439      5.1083      4.2566      3.6489      3.2452      3.0151      2.9405    
  3.0151      3.2452      3.6488      4.2566      5.1083      6.2439      7.6889      9.4384      11.446      13.624    
  15.821      17.713      20.535      21.808      22.451      22.451      21.808      20.535      18.687      16.409    
  13.958      11.592      9.4384      7.5734      6.0341      4.8212      3.9063      3.2453      2.7925      2.5107    
  2.3757      2.3757      2.5108      2.7924      3.2452      3.9062      4.8212      6.0342      7.5734      9.4384    
  11.592      13.958      16.409      18.687      21.728      23.057      23.519      23.057      21.728      19.694    
  17.205      14.567      12.015      9.6947      7.6889      6.0341      4.7274      3.7370      3.0151      2.5108    
  2.1804      1.9935      1.9330      1.9935      2.1804      2.5108      3.0151      3.7370      4.7274      6.0342    
  7.6889      9.6946      12.015      14.567      17.205      19.694      22.396      23.417      23.417      22.396    
  20.518      18.070      15.369      12.682      10.200      8.0372      6.2439      4.8212      3.7370      2.9404    
  2.3756      1.9935      1.7573      1.6443      1.6443      1.7572      1.9935      2.3757      2.9405      3.7370    
  4.8212      6.2439      8.0372      10.200      12.681      15.369      18.070      20.518      22.649      23.177    
  22.649      21.154      18.933      16.299      13.555      10.944      8.6234      6.6721      5.1083      3.9063    
  3.0151      2.3756      1.9330      1.6443      1.4813      1.4286      1.4813      1.6443      1.9330      2.3757    
  3.0151      3.9063      5.1083      6.6721      8.6234      10.944      13.555      16.299      18.933      21.154    
  22.704      22.704      21.678      19.795      17.337      14.621      11.926      9.4576      7.3354      5.6050    
  4.2566      3.2453      2.5108      1.9935      1.6443      1.4286      1.3254      1.3254      1.4286      1.6443    
  1.9935      2.5107      3.2452      4.2566      5.6050      7.3354      9.4576      11.926      14.621      17.337    
  19.795      21.678      22.704      22.182      20.704      18.501      15.882      13.151      10.555      8.2566    
  6.3373      4.8118      3.6489      2.7925      2.1804      1.7573      1.4813      1.3254      1.2749      1.3254    
  1.4813      1.7573      2.1804      2.7925      3.6489      4.8118      6.3373      8.2566      10.555      13.151    
  15.882      18.501      20.704      22.182      22.704      21.678      19.795      17.337      14.621      11.926    
  9.4576      7.3354      5.6050      4.2566      3.2452      2.5107      1.9935      1.6443      1.4286      1.3254    
  1.3254      1.4286      1.6443      1.9935      2.5108      3.2453      4.2566      5.6050      7.3354      9.4576    
  11.926      14.621      17.337      19.795      21.678      22.704      22.649      21.154      18.933      16.299    
  13.555      10.944      8.6234      6.6721      5.1083      3.9063      3.0151      2.3757      1.9330      1.6443    
  1.4813      1.4286      1.4813      1.6443      1.9330      2.3756      3.0151      3.9063      5.1083      6.6721    
  8.6234      10.944      13.555      16.299      18.933      21.154      22.649      23.177      22.396      20.518    
  18.070      15.369      12.681      10.200      8.0372      6.2439      4.8212      3.7370      2.9405      2.3757    
  1.9935      1.7572      1.6443      1.6443      1.7573      1.9935      2.3756      2.9404      3.7370      4.8212    
  6.2439      8.0372      10.200      12.682      15.369      18.070      20.518      22.396      23.417      23.417    
  21.728      19.694      17.205      14.567      12.015      9.6946      7.6889      6.0342      4.7274      3.7370    
  3.0151      2.5108      2.1804      1.9935      1.9330      1.9935      2.1804      2.5108      3.0151      3.7370    
  4.7274      6.0341      7.6889      9.6947      12.015      14.567      17.205      19.694      21.728      23.057    
  23.519      23.057      20.535      18.687      16.409      13.958      11.592      9.4384      7.5734      6.0342    
  4.8212      3.9062      3.2452      2.7924      2.5108      2.3757      2.3757      2.5107      2.7925      3.2453    
  3.9063      4.8212      6.0341      7.5734      9.4384      11.592      13.958      16.409      18.687      20.535    
  21.808      22.451      22.451      21.808      19.058      17.713      15.821      13.624      11.446      9.4384    
  7.6889      6.2439      5.1083      4.2566      3.6488      3.2452      3.0151      2.9405      3.0151      3.2452    
  3.6489      4.2566      5.1083      6.2439      7.6889      9.4384      11.446      13.624      15.821      17.713    
  19.058      19.835      20.184      20.276      20.184      19.835      17.816      17.103      15.602      13.624    
  11.592      9.6947      8.0372      6.6721      5.6050      4.8118      4.2566      3.9062      3.7370      3.7370    
  3.9063      4.2566      4.8118      5.6050      6.6721      8.0372      9.6947      11.592      13.624      15.602    
  17.103      17.816      17.774      17.326      16.939      16.939      17.325      17.774      17.330      17.103    
  15.821      13.958      12.015      10.200      8.6234      7.3354      6.3373      5.6050      5.1083      4.8212    
  4.7274      4.8212      5.1083      5.6050      6.3373      7.3354      8.6234      10.200      12.015      13.958    
  15.821      17.103      17.330      16.453      14.928      13.527      12.964      13.527      14.928      16.453    
  17.816      17.713      16.409      14.567      12.681      10.944      9.4576      8.2566      7.3354      6.6721    
  6.2439      6.0342      6.0342      6.2439      6.6721      7.3354      8.2566      9.4576      10.944      12.682    
  14.567      16.409      17.713      17.816      16.453      13.991      11.367      9.6829      9.6829      11.367    
  13.991      16.453      19.058      18.687      17.205      15.369      13.555      11.926      10.555      9.4576    
  8.6234      8.0372      7.6889      7.5734      7.6889      8.0372      8.6234      9.4576      10.555      11.926    
  13.555      15.369      17.205      18.687      19.058      17.774      14.928      11.367      8.4108      7.2636    
  8.4107      11.367      14.928      17.774      20.535      19.694      18.070      16.298      14.621      13.151    
  11.926      10.944      10.200      9.6947      9.4384      9.4384      9.6946      10.200      10.944      11.926    
  13.151      14.621      16.299      18.070      19.694      20.535      19.835      17.326      13.527      9.6829    
  7.2636      7.2636      9.6829      13.527      17.325      19.835      21.728      20.518      18.933      17.337    
  15.882      14.621      13.555      12.681      12.015      11.592      11.446      11.592      12.015      12.681    
  13.555      14.621      15.882      17.337      18.933      20.518      21.728      21.808      20.184      16.939    
  12.964      9.6829      8.4107      9.6829      12.964      16.939      20.184      21.808      22.396      21.154    
  19.795      18.501      17.337      16.298      15.369      14.567      13.958      13.624      13.624      13.958    
  14.567      15.369      16.299      17.337      18.501      19.795      21.154      22.396      23.057      22.451    
  20.276      16.939      13.527      11.367      11.367      13.527      16.939      20.276      22.451      23.057    
  22.649      21.678      20.704      19.795      18.933      18.070      17.205      16.409      15.821      15.602    
  15.821      16.409      17.205      18.070      18.933      19.795      20.704      21.678      22.649      23.417    
  23.519      22.451      20.184      17.325      14.928      13.991      14.928      17.325      20.184      22.451    
  23.519      23.417      22.704      22.182      21.678      21.154      20.518      19.694      18.687      17.713    
  17.103      17.103      17.713      18.687      19.694      20.518      21.154      21.678      22.182      22.704    
  23.177      23.417      23.057      21.808      19.835      17.774      16.453      16.453      17.774      19.835    
  21.808      23.057      23.417      23.177      22.704      23.177      23.417      23.057      21.808      19.835    
  17.774      16.453      16.453      17.774      19.835      21.808      23.057      23.417      23.177      22.704    
  22.182      21.678      21.154      20.518      19.694      18.687      17.713      17.103      17.103      17.713    
  18.687      19.694      20.518      21.154      21.678      22.182      23.177      23.957      24.013      22.825    
  20.375      17.313      14.755      13.757      14.755      17.313      20.375      22.825      24.013      23.957    
  23.177      22.182      21.182      20.251      19.366      18.477      17.580      16.747      16.129      15.897    
  16.129      16.747      17.580      18.477      19.366      20.251      21.182      22.182      23.417      24.013    
  23.166      20.575      16.722      12.828      10.375      10.376      12.828      16.722      20.575      23.166    
  24.013      23.417      22.128      20.703      19.345      18.124      17.031      16.046      15.190      14.536    
  14.176      14.176      14.536      15.190      16.046      17.031      18.124      19.345      20.703      22.128    
  23.057      22.825      20.575      16.463      11.568      7.5771      6.0375      7.5772      11.568      16.463    
  20.575      22.825      23.057      21.887      20.206      18.501      16.944      15.593      14.446      13.499    
  12.770      12.303      12.142      12.303      12.770      13.499      14.446      15.593      16.944      18.501    
  20.206      21.887      21.808      20.375      16.722      11.568      6.4938      3.3386      3.3386      6.4939    
  11.568      16.722      20.375      21.808      21.265      19.610      17.704      15.885      14.287      12.950    
  11.873      11.050      10.488      10.200      10.200      10.488      11.050      11.873      12.950      14.287    
  15.885      17.704      19.610      21.265      19.835      17.313      12.828      7.5771      3.3386      1.7116    
  3.3386      7.5772      12.828      17.313      19.835      20.154      18.859      16.917      14.947      13.160    
  11.648      10.433      9.5037      8.8465      8.4538      8.3231      8.4539      8.8466      9.5037      10.433    
  11.648      13.160      14.947      16.917      18.859      20.154      17.774      14.755      10.375      6.0375    
  3.3386      3.3386      6.0376      10.375      14.755      17.774      18.774      17.962      16.139      14.118    
  12.215      10.569      9.2302      8.1981      7.4512      6.9667      6.7285      6.7285      6.9667      7.4512    
  8.1981      9.2302      10.569      12.215      14.118      16.139      17.962      18.774      16.453      13.757    
  10.376      7.5772      6.4939      7.5772      10.375      13.757      16.453      17.611      17.100      15.439    
  13.414      11.450      9.7113      8.2741      7.1525      6.3256      5.7624      5.4361      5.3293      5.4361    
  5.7624      6.3256      7.1525      8.2741      9.7113      11.450      13.414      15.439      17.100      17.611    
  16.453      14.755      12.828      11.568      11.568      12.828      14.755      16.453      17.155      16.562    
  14.933      12.886      10.875      9.0680      7.5528      6.3559      5.4604      4.8312      4.4333      4.2409    
  4.2409      4.4333      4.8312      5.4604      6.3559      7.5528      9.0679      10.875      12.886      14.933    
  16.562      17.155      17.774      17.313      16.722      16.463      16.722      17.313      17.774      17.611    
  16.562      14.746      12.599      10.514      8.6363      7.0503      5.7858      4.8293      4.1435      3.6871    
  3.4267      3.3422      3.4267      3.6871      4.1435      4.8293      5.7858      7.0503      8.6364      10.514    
  12.599      14.745      16.562      17.611      19.835      20.375      20.575      20.575      20.375      19.835    
  18.774      17.100      14.933      12.599      10.390      8.4192      6.7538      5.4197      4.4028      3.6640    
  3.1567      2.8409      2.6896      2.6897      2.8410      3.1567      3.6639      4.4028      5.4197      6.7538    
  8.4191      10.390      12.600      14.933      17.100      18.774      21.808      22.825      23.166      22.825    
  21.808      20.154      17.962      15.439      12.886      10.514      8.4192      6.6559      5.2411      4.1570    
  3.3619      2.8051      2.4403      2.2341      2.1674      2.2341      2.4403      2.8050      3.3619      4.1570    
  5.2411      6.6559      8.4191      10.514      12.886      15.439      17.962      20.154      23.057      24.013    
  24.013      23.057      21.265      18.859      16.139      13.414      10.875      8.6363      6.7538      5.2411    
  4.0768      3.2161      2.6046      2.1909      1.9355      1.8136      1.8136      1.9355      2.1909      2.6047    
  3.2162      4.0768      5.2411      6.7539      8.6364      10.875      13.414      16.139      18.859      21.265    
  23.417      23.957      23.417      21.887      19.610      16.917      14.118      11.450      9.0680      7.0503    
  5.4197      4.1570      3.2161      2.5396      2.0713      1.7664      1.5945      1.5389      1.5945      1.7664    
  2.0713      2.5396      3.2162      4.1570      5.4197      7.0503      9.0679      11.450      14.118      16.917    
  19.610      21.887      23.177      23.177      22.128      20.206      17.704      14.947      12.215      9.7113    
  7.5528      5.7858      4.4028      3.3619      2.6046      2.0713      1.7116      1.4896      1.3835      1.3835    
  1.4896      1.7116      2.0713      2.6046      3.3619      4.4028      5.7858      7.5528      9.7113      12.215    
  14.947      17.704      20.206      22.128      22.704      22.182      20.703      18.501      15.885      13.160    
  10.569      8.2741      6.3559      4.8293      3.6640      2.8051      2.1909      1.7664      1.4896      1.3332    
  1.2825      1.3332      1.4896      1.7664      2.1909      2.8050      3.6639      4.8292      6.3559      8.2741    
  10.569      13.160      15.885      18.501      20.703      22.182      22.182      21.182      19.345      16.944    
  14.287      11.648      9.2302      7.1525      5.4604      4.1435      3.1567      2.4403      1.9355      1.5945    
  1.3835      1.2825      1.2825      1.3835      1.5945      1.9355      2.4403      3.1567      4.1435      5.4604    
  7.1525      9.2302      11.648      14.287      16.944      19.345      21.182      22.182      21.678      20.251    
  18.124      15.593      12.950      10.433      8.1981      6.3256      4.8312      3.6871      2.8409      2.2341    
  1.8136      1.5389      1.3835      1.3332      1.3835      1.5388      1.8135      2.2341      2.8410      3.6871    
  4.8313      6.3256      8.1981      10.433      12.950      15.593      18.124      20.251      21.678      22.182    
  21.154      19.366      17.031      14.446      11.873      9.5037      7.4512      5.7624      4.4333      3.4267    
  2.6896      2.1674      1.8136      1.5945      1.4896      1.4896      1.5945      1.8135      2.1674      2.6896    
  3.4267      4.4334      5.7625      7.4512      9.5037      11.873      14.446      17.031      19.366      21.154    
  22.128      22.128      20.518      18.477      16.046      13.499      11.050      8.8465      6.9667      5.4361    
  4.2409      3.3422      2.6897      2.2341      1.9355      1.7664      1.7116      1.7664      1.9355      2.2341    
  2.6896      3.3421      4.2409      5.4361      6.9667      8.8465      11.050      13.499      16.046      18.477    
  20.518      21.887      22.369      21.887      19.694      17.580      15.190      12.770      10.488      8.4538    
  6.7285      5.3293      4.2409      3.4267      2.8410      2.4403      2.1909      2.0713      2.0713      2.1909    
  2.4403      2.8410      3.4267      4.2409      5.3292      6.7285      8.4538      10.488      12.770      15.190    
  17.580      19.694      21.265      22.101      22.101      21.265      18.687      16.747      14.536      12.303    
  10.200      8.3231      6.7285      5.4361      4.4333      3.6871      3.1567      2.8050      2.6047      2.5396    
  2.6046      2.8050      3.1567      3.6871      4.4334      5.4361      6.7285      8.3231      10.200      12.303    
  14.536      16.747      18.687      20.154      21.051      21.351      21.051      20.154      17.713      16.129    
  14.176      12.142      10.200      8.4539      6.9667      5.7624      4.8312      4.1435      3.6639      3.3619    
  3.2162      3.2162      3.3619      3.6639      4.1435      4.8313      5.7625      6.9667      8.4538      10.200    
  12.142      14.176      16.129      17.713      18.774      19.348      19.577      19.577      19.348      18.774    
  17.103      15.897      14.176      12.303      10.488      8.8466      7.4512      6.3256      5.4604      4.8293    
  4.4028      4.1570      4.0768      4.1570      4.4028      4.8292      5.4604      6.3256      7.4512      8.8465    
  10.488      12.303      14.176      15.897      17.103      17.611      17.549      17.267      17.124      17.267    
  17.549      17.611      17.103      16.129      14.536      12.770      11.050      9.5037      8.1981      7.1525    
  6.3559      5.7858      5.4197      5.2411      5.2411      5.4197      5.7858      6.3559      7.1525      8.1981    
  9.5037      11.050      12.770      14.536      16.129      17.103      17.155      16.390      15.304      14.539    
  14.539      15.304      16.390      17.155      17.713      16.747      15.190      13.499      11.873      10.433    
  9.2302      8.2741      7.5528      7.0503      6.7538      6.6559      6.7539      7.0503      7.5528      8.2741    
  9.2302      10.433      11.873      13.499      15.190      16.747      17.713      17.611      16.390      14.533    
  12.881      12.223      12.881      14.533      16.390      17.611      18.687      17.580      16.046      14.446    
  12.950      11.648      10.569      9.7113      9.0679      8.6364      8.4191      8.4191      8.6364      9.0679    
  9.7113      10.569      11.648      12.950      14.446      16.046      17.580      18.687      18.774      17.549    
  15.304      12.881      11.315      11.315      12.881      15.304      17.549      18.774      19.694      18.477    
  17.031      15.593      14.287      13.160      12.215      11.450      10.875      10.514      10.390      10.514    
  10.875      11.450      12.215      13.160      14.287      15.593      17.031      18.477      19.694      20.154    
  19.348      17.267      14.539      12.223      11.315      12.223      14.539      17.267      19.348      20.154    
  20.518      19.366      18.124      16.944      15.885      14.947      14.118      13.414      12.886      12.599    
  12.600      12.886      13.414      14.118      14.947      15.885      16.944      18.124      19.366      20.518    
  21.265      21.051      19.577      17.124      14.539      12.881      12.881      14.539      17.124      19.577    
  21.051      21.265      21.154      20.251      19.345      18.501      17.704      16.917      16.139      15.439    
  14.933      14.745      14.933      15.439      16.139      16.917      17.704      18.501      19.345      20.251    
  21.154      21.887      22.101      21.351      19.577      17.267      15.304      14.533      15.304      17.267    
  19.577      21.351      22.101      21.887      21.678      21.182      20.703      20.206      19.610      18.859    
  17.962      17.100      16.562      16.562      17.100      17.962      18.859      19.610      20.206      20.703    
  21.182      21.678      22.128      22.369      22.101      21.051      19.348      17.549      16.390      16.390    
  17.549      19.348      21.051      22.101      22.369      22.128      22.182      22.182      22.128      21.887    
  21.265      20.154      18.774      17.611      17.155      17.611      18.774      20.154      21.265      21.887    
  22.128      22.182      22.182      22.182      22.128      21.887      21.265      20.154      18.774      17.611    
  17.155      17.611      18.774      20.154      21.265      21.887      22.128      22.182      22.649      23.417    
  23.519      22.451      20.184      17.325      14.928      13.991      14.928      17.325      20.184      22.451    
  23.519      23.417      22.649      21.678      20.704      19.795      18.933      18.070      17.205      16.409    
  15.821      15.602      15.821      16.409      17.205      18.070      18.933      19.795      20.704      21.678    
  23.417      24.013      23.166      20.575      16.722      12.828      10.375      10.376      12.828      16.722    
  20.575      23.166      24.013      23.417      22.128      20.703      19.345      18.124      17.031      16.046    
  15.190      14.536      14.176      14.176      14.536      15.190      16.046      17.031      18.124      19.345    
  20.703      22.128      23.519      23.166      20.683      16.250      11.016      6.7636      5.1256      6.7636    
  11.016      16.250      20.683      23.166      23.519      22.369      20.654      18.911      17.318      15.935    
  14.759      13.785      13.034      12.552      12.385      12.552      13.034      13.785      14.759      15.935    
  17.318      18.911      20.654      22.369      22.451      20.575      16.250      10.304      4.5140     0.93111    
 0.93107      4.5140      10.304      16.250      20.575      22.451      22.101      20.445      18.465      16.568    
  14.900      13.503      12.374      11.508      10.913      10.609      10.609      10.913      11.508      12.374    
  13.503      14.900      16.569      18.465      20.445      22.101      20.184      16.722      11.016      4.5140    
 -.67064     -2.6511     -.67065      4.5140      11.016      16.722      20.184      21.051      19.941      17.945    
  15.870      13.977      12.371      11.077      10.085      9.3797      8.9569      8.8158      8.9569      9.3797    
  10.085      11.077      12.371      13.977      15.870      17.945      19.941      21.051      17.325      12.828    
  6.7636     0.93111     -2.6511     -2.6511     0.93108      6.7636      12.828      17.326      19.348      19.046    
  17.314      15.195      13.169      11.402      9.9601      8.8444      8.0339      7.5064      7.2465      7.2465    
  7.5064      8.0339      8.8444      9.9601      11.402      13.169      15.195      17.314      19.046      19.348    
  14.928      10.375      5.1256     0.93107     -.67065     0.93108      5.1256      10.375      14.928      17.549    
  17.925      16.597      14.545      12.470      10.601      9.0421      7.8195      6.9148      6.2968      5.9378    
  5.8201      5.9378      6.2968      6.9148      7.8195      9.0421      10.601      12.470      14.545      16.597    
  17.925      17.549      13.991      10.376      6.7636      4.5140      4.5140      6.7636      10.375      13.991    
  16.390      16.974      15.923      13.974      11.889      9.9624      8.3207      7.0118      6.0273      5.3333    
  4.8936      4.6807      4.6806      4.8935      5.3334      6.0273      7.0118      8.3207      9.9623      11.889    
  13.974      15.923      16.974      16.390      14.928      12.828      11.016      10.304      11.016      12.828    
  14.928      16.390      16.600      15.504      13.571      11.463      9.4917      7.7867      6.4078      5.3562    
  4.5989      4.0937      3.8054      3.7118      3.8054      4.0937      4.5989      5.3562      6.4079      7.7867    
  9.4917      11.463      13.571      15.504      16.600      16.390      17.325      16.722      16.250      16.250    
  16.722      17.326      17.549      16.974      15.504      13.424      11.234      9.2005      7.4333      5.9908    
  4.8788      4.0660      3.5064      3.1578      2.9908      2.9909      3.1579      3.5064      4.0659      4.8788    
  5.9909      7.4333      9.2005      11.234      13.424      15.504      16.974      17.549      20.184      20.575    
  20.683      20.575      20.184      19.348      17.925      15.923      13.571      11.234      9.1017      7.2571    
  5.7467      4.5738      3.7070      3.0980      2.6988      2.4733      2.4003      2.4733      2.6988      3.0980    
  3.7070      4.5738      5.7467      7.2571      9.1017      11.234      13.571      15.923      17.925      19.348    
  22.451      23.166      23.166      22.451      21.051      19.046      16.597      13.974      11.463      9.2005    
  7.2571      5.6664      4.4255      3.5005      2.8410      2.3945      2.1191      1.9878      1.9878      2.1191    
  2.3945      2.8410      3.5006      4.4254      5.6664      7.2571      9.2005      11.463      13.974      16.597    
  19.046      21.051      23.519      24.013      23.519      22.101      19.941      17.314      14.545      11.889    
  9.4917      7.4333      5.7467      4.4255      3.4332      2.7170      2.2210      1.8984      1.7168      1.6581    