diamond Si                              
   5.70000000000000     
     0.000000    0.500000    0.500000
     0.500000    0.000000    0.500000
     0.500000    0.500000    0.000000
   Si
     2
Direct
  0.875000  0.875000  0.875000
  0.125000  0.125000  0.125000
 
   32   32   32
 0.22703538987E+02 0.22704236211E+02 0.22648832161E+02 0.22396016870E+02 0.21728451891E+02
 0.20535251216E+02 0.19058338229E+02 0.17816308476E+02 0.17329736015E+02 0.17816289196E+02
 0.19058300536E+02 0.20535209051E+02 0.21728428675E+02 0.22396021928E+02 0.22648850061E+02
 0.22704246740E+02 0.22703542412E+02 0.22704246740E+02 0.22648850061E+02 0.22396021928E+02
 0.21728428675E+02 0.20535209051E+02 0.19058300536E+02 0.17816289196E+02 0.17329736015E+02
 0.17816308476E+02 0.19058338229E+02 0.20535251216E+02 0.21728451891E+02 0.22396016870E+02
 0.22648832161E+02 0.22704236211E+02 0.22704236211E+02 0.23177292897E+02 0.23417392849E+02
 0.23057242101E+02 0.21808356960E+02 0.19835327191E+02 0.17773854625E+02 0.16452635556E+02
 0.16452601020E+02 0.17773806789E+02 0.19835348879E+02 0.21808434354E+02 0.23057288940E+02
 0.23417377676E+02 0.23177273828E+02 0.22704260295E+02 0.22181832540E+02 0.21678444537E+02
 0.21154051351E+02 0.20517716777E+02 0.19693852271E+02 0.18686916464E+02 0.17712544108E+02
 0.17103020137E+02 0.17103059589E+02 0.17712621712E+02 0.18686968354E+02 0.19693876290E+02
 0.20517752673E+02 0.21154098406E+02 0.21678456720E+02 0.22181799737E+02 0.22648832161E+02
 0.23417392849E+02 0.23518875661E+02 0.22450961987E+02 0.20184186652E+02 0.17325483248E+02
 0.14927711752E+02 0.13991490766E+02 0.14927724127E+02 0.17325493968E+02 0.20184182394E+02
 0.22450948141E+02 0.23518873385E+02 0.23417409721E+02 0.22648847097E+02 0.21678446952E+02
 0.20703562772E+02 0.19795270229E+02 0.18932886021E+02 0.18069964354E+02 0.17204989215E+02
 0.16408727405E+02 0.15820903040E+02 0.15601570298E+02 0.15820909543E+02 0.16408737690E+02
 0.17204993233E+02 0.18069956285E+02 0.18932879937E+02 0.19795284117E+02 0.20703588526E+02
 0.21678456720E+02 0.22396016870E+02 0.23057242101E+02 0.22450961987E+02 0.20275917907E+02
 0.16939378950E+02 0.13527234319E+02 0.11366535951E+02 0.11366599987E+02 0.13527319679E+02
 0.16939328555E+02 0.20275766838E+02 0.22450891795E+02 0.23057314284E+02 0.22396090614E+02
 0.21154056798E+02 0.19795211100E+02 0.18500996206E+02 0.17337219914E+02 0.16298504921E+02
 0.15368630162E+02 0.14566840810E+02 0.13957765139E+02 0.13624391607E+02 0.13624313186E+02
 0.13957641820E+02 0.14566829336E+02 0.15368690261E+02 0.16298487206E+02 0.17337123525E+02
 0.18500964896E+02 0.19795284117E+02 0.21154098406E+02 0.21728451891E+02 0.21808356960E+02
 0.20184186652E+02 0.16939378950E+02 0.12964492670E+02 0.96829009751E+01 0.84107161764E+01
 0.96828838767E+01 0.12964489140E+02 0.16939393671E+02 0.20184191242E+02 0.21808344980E+02
 0.21728451779E+02 0.20517776192E+02 0.18932902261E+02 0.17337126203E+02 0.15881789296E+02
 0.14620743651E+02 0.13555373134E+02 0.12681494548E+02 0.12015353024E+02 0.11591999195E+02
 0.11446115643E+02 0.11591989248E+02 0.12015346354E+02 0.12681493279E+02 0.13555369718E+02
 0.14620741404E+02 0.15881793580E+02 0.17337123525E+02 0.18932879937E+02 0.20517752673E+02
 0.20535251216E+02 0.19835327191E+02 0.17325483248E+02 0.13527234319E+02 0.96829009751E+01
 0.72636284762E+01 0.72635938055E+01 0.96828728968E+01 0.13527308631E+02 0.17325603387E+02
 0.19835363130E+02 0.20535199653E+02 0.19693853415E+02 0.18070004528E+02 0.16298516410E+02
 0.14620689185E+02 0.13151030585E+02 0.11926045824E+02 0.10944401795E+02 0.10199731242E+02
 0.96946452014E+01 0.94383875254E+01 0.94384473370E+01 0.96947469715E+01 0.10199753035E+02
 0.10944347993E+02 0.11926028092E+02 0.13151091880E+02 0.14620741404E+02 0.16298487206E+02
 0.18069956285E+02 0.19693876290E+02 0.19058338229E+02 0.17773854625E+02 0.14927711752E+02
 0.11366535951E+02 0.84107161764E+01 0.72635938055E+01 0.84107578957E+01 0.11366581205E+02
 0.14927725848E+02 0.17773839611E+02 0.19058319073E+02 0.18686956280E+02 0.17204978701E+02
 0.15368671935E+02 0.13555365731E+02 0.11926047109E+02 0.10554923980E+02 0.94576223963E+01
 0.86233673586E+01 0.80372343388E+01 0.76889488130E+01 0.75733539269E+01 0.76889431619E+01
 0.80372393108E+01 0.86233816798E+01 0.94576229855E+01 0.10554903109E+02 0.11926028092E+02
 0.13555369718E+02 0.15368690261E+02 0.17204993233E+02 0.18686968354E+02 0.17816308476E+02
 0.16452635556E+02 0.13991490766E+02 0.11366599987E+02 0.96828838767E+01 0.96828728968E+01
 0.11366581205E+02 0.13991483446E+02 0.16452630262E+02 0.17816277305E+02 0.17712564442E+02
 0.16408695956E+02 0.14566840385E+02 0.12681541987E+02 0.10944384594E+02 0.94576236420E+01
 0.82565578851E+01 0.73353991871E+01 0.66720791347E+01 0.62439045992E+01 0.60341633063E+01
 0.60341521319E+01 0.62438758728E+01 0.66720500620E+01 0.73353912041E+01 0.82565695665E+01
 0.94576229855E+01 0.10944347993E+02 0.12681493279E+02 0.14566829336E+02 0.16408737690E+02
 0.17712621712E+02 0.17329736015E+02 0.16452601020E+02 0.14927724127E+02 0.13527319679E+02
 0.12964489140E+02 0.13527308631E+02 0.14927725848E+02 0.16452630262E+02 0.17329775953E+02
 0.17103082459E+02 0.15820913773E+02 0.13957650215E+02 0.12015366060E+02 0.10199761338E+02
 0.86233637894E+01 0.73353680385E+01 0.63372526176E+01 0.56050493301E+01 0.51082920716E+01
 0.48212109455E+01 0.47273894041E+01 0.48212280898E+01 0.51083003461E+01 0.56050430124E+01
 0.63372560616E+01 0.73353912041E+01 0.86233816798E+01 0.10199753035E+02 0.12015346354E+02
 0.13957641820E+02 0.15820909543E+02 0.17103059589E+02 0.17816289196E+02 0.17773806789E+02
 0.17325493968E+02 0.16939328555E+02 0.16939393671E+02 0.17325603387E+02 0.17773839611E+02
 0.17816277305E+02 0.17103082459E+02 0.15601703705E+02 0.13624380315E+02 0.11591924543E+02
 0.96946547627E+01 0.80372347307E+01 0.66720969577E+01 0.56050315764E+01 0.48117675827E+01
 0.42565988090E+01 0.39062637939E+01 0.37370483113E+01 0.37370186611E+01 0.39062321881E+01
 0.42566401726E+01 0.48118427624E+01 0.56050430124E+01 0.66720500620E+01 0.80372393108E+01
 0.96947469715E+01 0.11591989248E+02 0.13624313186E+02 0.15601570298E+02 0.17103020137E+02
 0.19058300536E+02 0.19835348879E+02 0.20184182394E+02 0.20275766838E+02 0.20184191242E+02
 0.19835363130E+02 0.19058319073E+02 0.17712564442E+02 0.15820913773E+02 0.13624380315E+02
 0.11446087710E+02 0.94384254449E+01 0.76889428145E+01 0.62438904214E+01 0.51083138592E+01
 0.42566471071E+01 0.36488530986E+01 0.32451942777E+01 0.30151486934E+01 0.29404572853E+01
 0.30151422067E+01 0.32451864505E+01 0.36488475089E+01 0.42566401726E+01 0.51083003461E+01
 0.62438758728E+01 0.76889431619E+01 0.94384473370E+01 0.11446115643E+02 0.13624391607E+02
 0.15820903040E+02 0.17712544108E+02 0.20535209051E+02 0.21808434354E+02 0.22450948141E+02
 0.22450891795E+02 0.21808344980E+02 0.20535199653E+02 0.18686956280E+02 0.16408695956E+02
 0.13957650215E+02 0.11591924543E+02 0.94384254449E+01 0.75734205927E+01 0.60341480217E+01
 0.48211935378E+01 0.39062701387E+01 0.32452830275E+01 0.27924775091E+01 0.25107068608E+01
 0.23756570619E+01 0.23757001447E+01 0.25107612439E+01 0.27924392408E+01 0.32451864505E+01
 0.39062321881E+01 0.48212280898E+01 0.60341521319E+01 0.75733539269E+01 0.94383875254E+01
 0.11591999195E+02 0.13957765139E+02 0.16408727405E+02 0.18686916464E+02 0.21728428675E+02
 0.23057288940E+02 0.23518873385E+02 0.23057314284E+02 0.21728451779E+02 0.19693853415E+02
 0.17204978701E+02 0.14566840385E+02 0.12015366060E+02 0.96946547627E+01 0.76889428145E+01
 0.60341480217E+01 0.47273773588E+01 0.37370134372E+01 0.30151402652E+01 0.25107615032E+01
 0.21803904123E+01 0.19934850528E+01 0.19329670435E+01 0.19934806450E+01 0.21803867127E+01
 0.25107612439E+01 0.30151422067E+01 0.37370186611E+01 0.47273894041E+01 0.60341633063E+01
 0.76889488130E+01 0.96946452014E+01 0.12015353024E+02 0.14566840810E+02 0.17204989215E+02
 0.19693852271E+02 0.22396021928E+02 0.23417377676E+02 0.23417409721E+02 0.22396090614E+02
 0.20517776192E+02 0.18070004528E+02 0.15368671935E+02 0.12681541987E+02 0.10199761338E+02
 0.80372347307E+01 0.62438904214E+01 0.48211935378E+01 0.37370134372E+01 0.29403970274E+01
 0.23756469883E+01 0.19934773914E+01 0.17572670783E+01 0.16443472444E+01 0.16443228687E+01
 0.17572280502E+01 0.19934806450E+01 0.23757001447E+01 0.29404572853E+01 0.37370483113E+01
 0.48212109455E+01 0.62439045992E+01 0.80372343388E+01 0.10199731242E+02 0.12681494548E+02
 0.15368630162E+02 0.18069964354E+02 0.20517716777E+02 0.22648850061E+02 0.23177273828E+02
 0.22648847097E+02 0.21154056798E+02 0.18932902261E+02 0.16298516410E+02 0.13555365731E+02
 0.10944384594E+02 0.86233637894E+01 0.66720969577E+01 0.51083138592E+01 0.39062701387E+01
 0.30151402652E+01 0.23756469883E+01 0.19329608655E+01 0.16443170593E+01 0.14813162612E+01
 0.14285724692E+01 0.14813216550E+01 0.16443228687E+01 0.19329670435E+01 0.23756570619E+01
 0.30151486934E+01 0.39062637939E+01 0.51082920716E+01 0.66720791347E+01 0.86233673586E+01
 0.10944401795E+02 0.13555373134E+02 0.16298504921E+02 0.18932886021E+02 0.21154051351E+02
 0.22704246740E+02 0.22704260295E+02 0.21678446952E+02 0.19795211100E+02 0.17337126203E+02
 0.14620689185E+02 0.11926047109E+02 0.94576236420E+01 0.73353680385E+01 0.56050315764E+01
 0.42566471071E+01 0.32452830275E+01 0.25107615032E+01 0.19934773914E+01 0.16443170593E+01
 0.14285592854E+01 0.13253768803E+01 0.13253771191E+01 0.14285724692E+01 0.16443472444E+01
 0.19934850528E+01 0.25107068608E+01 0.32451942777E+01 0.42565988090E+01 0.56050493301E+01
 0.73353991871E+01 0.94576223963E+01 0.11926045824E+02 0.14620743651E+02 0.17337219914E+02
 0.19795270229E+02 0.21678444537E+02 0.22703542412E+02 0.22181832540E+02 0.20703562772E+02
 0.18500996206E+02 0.15881789296E+02 0.13151030585E+02 0.10554923980E+02 0.82565578851E+01
 0.63372526176E+01 0.48117675827E+01 0.36488530986E+01 0.27924775091E+01 0.21803904123E+01
 0.17572670783E+01 0.14813162612E+01 0.13253768803E+01 0.12748932480E+01 0.13253768803E+01
 0.14813162612E+01 0.17572670783E+01 0.21803904123E+01 0.27924775091E+01 0.36488530986E+01
 0.48117675827E+01 0.63372526176E+01 0.82565578851E+01 0.10554923980E+02 0.13151030585E+02
 0.15881789296E+02 0.18500996206E+02 0.20703562772E+02 0.22181832540E+02 0.22704246740E+02
 0.21678444537E+02 0.19795270229E+02 0.17337219914E+02 0.14620743651E+02 0.11926045824E+02
 0.94576223963E+01 0.73353991871E+01 0.56050493301E+01 0.42565988090E+01 0.32451942777E+01
 0.25107068608E+01 0.19934850528E+01 0.16443472444E+01 0.14285724692E+01 0.13253771191E+01
 0.13253768803E+01 0.14285592854E+01 0.16443170593E+01 0.19934773914E+01 0.25107615032E+01
 0.32452830275E+01 0.42566471071E+01 0.56050315764E+01 0.73353680385E+01 0.94576236420E+01
 0.11926047109E+02 0.14620689185E+02 0.17337126203E+02 0.19795211100E+02 0.21678446952E+02
 0.22704260295E+02 0.22648850061E+02 0.21154051351E+02 0.18932886021E+02 0.16298504921E+02
 0.13555373134E+02 0.10944401795E+02 0.86233673586E+01 0.66720791347E+01 0.51082920716E+01
 0.39062637939E+01 0.30151486934E+01 0.23756570619E+01 0.19329670435E+01 0.16443228687E+01
 0.14813216550E+01 0.14285724692E+01 0.14813162612E+01 0.16443170593E+01 0.19329608655E+01
 0.23756469883E+01 0.30151402652E+01 0.39062701387E+01 0.51083138592E+01 0.66720969577E+01
 0.86233637894E+01 0.10944384594E+02 0.13555365731E+02 0.16298516410E+02 0.18932902261E+02
 0.21154056798E+02 0.22648847097E+02 0.23177273828E+02 0.22396021928E+02 0.20517716777E+02
 0.18069964354E+02 0.15368630162E+02 0.12681494548E+02 0.10199731242E+02 0.80372343388E+01
 0.62439045992E+01 0.48212109455E+01 0.37370483113E+01 0.29404572853E+01 0.23757001447E+01
 0.19934806450E+01 0.17572280502E+01 0.16443228687E+01 0.16443472444E+01 0.17572670783E+01
 0.19934773914E+01 0.23756469883E+01 0.29403970274E+01 0.37370134372E+01 0.48211935378E+01
 0.62438904214E+01 0.80372347307E+01 0.10199761338E+02 0.12681541987E+02 0.15368671935E+02
 0.18070004528E+02 0.20517776192E+02 0.22396090614E+02 0.23417409721E+02 0.23417377676E+02
 0.21728428675E+02 0.19693852271E+02 0.17204989215E+02 0.14566840810E+02 0.12015353024E+02
 0.96946452014E+01 0.76889488130E+01 0.60341633063E+01 0.47273894041E+01 0.37370186611E+01
 0.30151422067E+01 0.25107612439E+01 0.21803867127E+01 0.19934806450E+01 0.19329670435E+01
 0.19934850528E+01 0.21803904123E+01 0.25107615032E+01 0.30151402652E+01 0.37370134372E+01
 0.47273773588E+01 0.60341480217E+01 0.76889428145E+01 0.96946547627E+01 0.12015366060E+02
 0.14566840385E+02 0.17204978701E+02 0.19693853415E+02 0.21728451779E+02 0.23057314284E+02
 0.23518873385E+02 0.23057288940E+02 0.20535209051E+02 0.18686916464E+02 0.16408727405E+02
 0.13957765139E+02 0.11591999195E+02 0.94383875254E+01 0.75733539269E+01 0.60341521319E+01
 0.48212280898E+01 0.39062321881E+01 0.32451864505E+01 0.27924392408E+01 0.25107612439E+01
 0.23757001447E+01 0.23756570619E+01 0.25107068608E+01 0.27924775091E+01 0.32452830275E+01
 0.39062701387E+01 0.48211935378E+01 0.60341480217E+01 0.75734205927E+01 0.94384254449E+01
 0.11591924543E+02 0.13957650215E+02 0.16408695956E+02 0.18686956280E+02 0.20535199653E+02
 0.21808344980E+02 0.22450891795E+02 0.22450948141E+02 0.21808434354E+02 0.19058300536E+02
 0.17712544108E+02 0.15820903040E+02 0.13624391607E+02 0.11446115643E+02 0.94384473370E+01
 0.76889431619E+01 0.62438758728E+01 0.51083003461E+01 0.42566401726E+01 0.36488475089E+01
 0.32451864505E+01 0.30151422067E+01 0.29404572853E+01 0.30151486934E+01 0.32451942777E+01
 0.36488530986E+01 0.42566471071E+01 0.51083138592E+01 0.62438904214E+01 0.76889428145E+01
 0.94384254449E+01 0.11446087710E+02 0.13624380315E+02 0.15820913773E+02 0.17712564442E+02
 0.19058319073E+02 0.19835363130E+02 0.20184191242E+02 0.20275766838E+02 0.20184182394E+02
 0.19835348879E+02 0.17816289196E+02 0.17103020137E+02 0.15601570298E+02 0.13624313186E+02
 0.11591989248E+02 0.96947469715E+01 0.80372393108E+01 0.66720500620E+01 0.56050430124E+01
 0.48118427624E+01 0.42566401726E+01 0.39062321881E+01 0.37370186611E+01 0.37370483113E+01
 0.39062637939E+01 0.42565988090E+01 0.48117675827E+01 0.56050315764E+01 0.66720969577E+01
 0.80372347307E+01 0.96946547627E+01 0.11591924543E+02 0.13624380315E+02 0.15601703705E+02
 0.17103082459E+02 0.17816277305E+02 0.17773839611E+02 0.17325603387E+02 0.16939393671E+02
 0.16939328555E+02 0.17325493968E+02 0.17773806789E+02 0.17329736015E+02 0.17103059589E+02
 0.15820909543E+02 0.13957641820E+02 0.12015346354E+02 0.10199753035E+02 0.86233816798E+01
 0.73353912041E+01 0.63372560616E+01 0.56050430124E+01 0.51083003461E+01 0.48212280898E+01
 0.47273894041E+01 0.48212109455E+01 0.51082920716E+01 0.56050493301E+01 0.63372526176E+01
 0.73353680385E+01 0.86233637894E+01 0.10199761338E+02 0.12015366060E+02 0.13957650215E+02
 0.15820913773E+02 0.17103082459E+02 0.17329775953E+02 0.16452630262E+02 0.14927725848E+02
 0.13527308631E+02 0.12964489140E+02 0.13527319679E+02 0.14927724127E+02 0.16452601020E+02
 0.17816308476E+02 0.17712621712E+02 0.16408737690E+02 0.14566829336E+02 0.12681493279E+02
 0.10944347993E+02 0.94576229855E+01 0.82565695665E+01 0.73353912041E+01 0.66720500620E+01
 0.62438758728E+01 0.60341521319E+01 0.60341633063E+01 0.62439045992E+01 0.66720791347E+01
 0.73353991871E+01 0.82565578851E+01 0.94576236420E+01 0.10944384594E+02 0.12681541987E+02
 0.14566840385E+02 0.16408695956E+02 0.17712564442E+02 0.17816277305E+02 0.16452630262E+02
 0.13991483446E+02 0.11366581205E+02 0.96828728968E+01 0.96828838767E+01 0.11366599987E+02
 0.13991490766E+02 0.16452635556E+02 0.19058338229E+02 0.18686968354E+02 0.17204993233E+02
 0.15368690261E+02 0.13555369718E+02 0.11926028092E+02 0.10554903109E+02 0.94576229855E+01
 0.86233816798E+01 0.80372393108E+01 0.76889431619E+01 0.75733539269E+01 0.76889488130E+01
 0.80372343388E+01 0.86233673586E+01 0.94576223963E+01 0.10554923980E+02 0.11926047109E+02
 0.13555365731E+02 0.15368671935E+02 0.17204978701E+02 0.18686956280E+02 0.19058319073E+02
 0.17773839611E+02 0.14927725848E+02 0.11366581205E+02 0.84107578957E+01 0.72635938055E+01
 0.84107161764E+01 0.11366535951E+02 0.14927711752E+02 0.17773854625E+02 0.20535251216E+02
 0.19693876290E+02 0.18069956285E+02 0.16298487206E+02 0.14620741404E+02 0.13151091880E+02
 0.11926028092E+02 0.10944347993E+02 0.10199753035E+02 0.96947469715E+01 0.94384473370E+01
 0.94383875254E+01 0.96946452014E+01 0.10199731242E+02 0.10944401795E+02 0.11926045824E+02
 0.13151030585E+02 0.14620689185E+02 0.16298516410E+02 0.18070004528E+02 0.19693853415E+02
 0.20535199653E+02 0.19835363130E+02 0.17325603387E+02 0.13527308631E+02 0.96828728968E+01
 0.72635938055E+01 0.72636284762E+01 0.96829009751E+01 0.13527234319E+02 0.17325483248E+02
 0.19835327191E+02 0.21728451891E+02 0.20517752673E+02 0.18932879937E+02 0.17337123525E+02
 0.15881793580E+02 0.14620741404E+02 0.13555369718E+02 0.12681493279E+02 0.12015346354E+02
 0.11591989248E+02 0.11446115643E+02 0.11591999195E+02 0.12015353024E+02 0.12681494548E+02
 0.13555373134E+02 0.14620743651E+02 0.15881789296E+02 0.17337126203E+02 0.18932902261E+02
 0.20517776192E+02 0.21728451779E+02 0.21808344980E+02 0.20184191242E+02 0.16939393671E+02
 0.12964489140E+02 0.96828838767E+01 0.84107161764E+01 0.96829009751E+01 0.12964492670E+02
 0.16939378950E+02 0.20184186652E+02 0.21808356960E+02 0.22396016870E+02 0.21154098406E+02
 0.19795284117E+02 0.18500964896E+02 0.17337123525E+02 0.16298487206E+02 0.15368690261E+02
 0.14566829336E+02 0.13957641820E+02 0.13624313186E+02 0.13624391607E+02 0.13957765139E+02
 0.14566840810E+02 0.15368630162E+02 0.16298504921E+02 0.17337219914E+02 0.18500996206E+02
 0.19795211100E+02 0.21154056798E+02 0.22396090614E+02 0.23057314284E+02 0.22450891795E+02
 0.20275766838E+02 0.16939328555E+02 0.13527319679E+02 0.11366599987E+02 0.11366535951E+02
 0.13527234319E+02 0.16939378950E+02 0.20275917907E+02 0.22450961987E+02 0.23057242101E+02
 0.22648832161E+02 0.21678456720E+02 0.20703588526E+02 0.19795284117E+02 0.18932879937E+02
 0.18069956285E+02 0.17204993233E+02 0.16408737690E+02 0.15820909543E+02 0.15601570298E+02
 0.15820903040E+02 0.16408727405E+02 0.17204989215E+02 0.18069964354E+02 0.18932886021E+02
 0.19795270229E+02 0.20703562772E+02 0.21678446952E+02 0.22648847097E+02 0.23417409721E+02
 0.23518873385E+02 0.22450948141E+02 0.20184182394E+02 0.17325493968E+02 0.14927724127E+02
 0.13991490766E+02 0.14927711752E+02 0.17325483248E+02 0.20184186652E+02 0.22450961987E+02
 0.23518875661E+02 0.23417392849E+02 0.22704236211E+02 0.22181799737E+02 0.21678456720E+02
 0.21154098406E+02 0.20517752673E+02 0.19693876290E+02 0.18686968354E+02 0.17712621712E+02
 0.17103059589E+02 0.17103020137E+02 0.17712544108E+02 0.18686916464E+02 0.19693852271E+02
 0.20517716777E+02 0.21154051351E+02 0.21678444537E+02 0.22181832540E+02 0.22704260295E+02
 0.23177273828E+02 0.23417377676E+02 0.23057288940E+02 0.21808434354E+02 0.19835348879E+02
 0.17773806789E+02 0.16452601020E+02 0.16452635556E+02 0.17773854625E+02 0.19835327191E+02
 0.21808356960E+02 0.23057242101E+02 0.23417392849E+02 0.23177292897E+02 0.22704230102E+02
 0.23177283064E+02 0.23417385216E+02 0.23057237078E+02 0.21808350606E+02 0.19835320678E+02
 0.17773852828E+02 0.16452637549E+02 0.16452601576E+02 0.17773806059E+02 0.19835351095E+02
 0.21808438383E+02 0.23057289794E+02 0.23417376095E+02 0.23177274777E+02 0.22704263243E+02
 0.22181832772E+02 0.21678442724E+02 0.21154052217E+02 0.20517719638E+02 0.19693852528E+02
 0.18686915165E+02 0.17712546421E+02 0.17103025619E+02 0.17103063483E+02 0.17712624486E+02
 0.18686974303E+02 0.19693883999E+02 0.20517756512E+02 0.21154098239E+02 0.21678456689E+02
 0.22181798900E+02 0.23177283064E+02 0.23957084854E+02 0.24012881663E+02 0.22824558859E+02
 0.20374560816E+02 0.17312791740E+02 0.14754724603E+02 0.13757470027E+02 0.14754756016E+02
 0.17312866717E+02 0.20374670408E+02 0.22824662902E+02 0.24012941748E+02 0.23957095962E+02
 0.23177271983E+02 0.22181997675E+02 0.21182336101E+02 0.20251457709E+02 0.19366229564E+02
 0.18476691225E+02 0.17580139959E+02 0.16747210738E+02 0.16128702300E+02 0.15897377326E+02
 0.16128692066E+02 0.16747242571E+02 0.17580234418E+02 0.18476797338E+02 0.19366285185E+02
 0.20251457333E+02 0.21182320728E+02 0.22181998958E+02 0.23417385216E+02 0.24012881663E+02
 0.23165864131E+02 0.20575430480E+02 0.16721934644E+02 0.12828245933E+02 0.10375460090E+02
 0.10375535787E+02 0.12828385322E+02 0.16721997583E+02 0.20575412730E+02 0.23165876042E+02
 0.24012960598E+02 0.23417435485E+02 0.22127849176E+02 0.20702912948E+02 0.19345437591E+02
 0.18124457806E+02 0.17031245565E+02 0.16046189247E+02 0.15190246566E+02 0.14535832990E+02
 0.14176215095E+02 0.14176160763E+02 0.14535760902E+02 0.15190281747E+02 0.16046290663E+02
 0.17031278239E+02 0.18124409479E+02 0.19345425026E+02 0.20702980140E+02 0.22127896168E+02
 0.23057237078E+02 0.22824558859E+02 0.20575430480E+02 0.16462970079E+02 0.11568169981E+02
 0.75770640543E+01 0.60375365735E+01 0.75771921711E+01 0.11568265424E+02 0.16462922831E+02
 0.20575318913E+02 0.22824530844E+02 0.23057308971E+02 0.21886886926E+02 0.20205626880E+02
 0.18501060376E+02 0.16944264701E+02 0.15593063489E+02 0.14446316879E+02 0.13498506953E+02
 0.12769797086E+02 0.12303410935E+02 0.12142054744E+02 0.12303353968E+02 0.12769767175E+02
 0.13498529649E+02 0.14446324650E+02 0.15593025589E+02 0.16944245467E+02 0.18501098755E+02
 0.20205651967E+02 0.21886831045E+02 0.21808350606E+02 0.20374560816E+02 0.16721934644E+02
 0.11568169981E+02 0.64937998338E+01 0.33385501389E+01 0.33385807089E+01 0.64938721518E+01
 0.11568230646E+02 0.16721932193E+02 0.20374505628E+02 0.21808315848E+02 0.21265142155E+02
 0.19609676604E+02 0.17704023160E+02 0.15885156228E+02 0.14286829537E+02 0.12950294572E+02
 0.11873362534E+02 0.11050184330E+02 0.10487518445E+02 0.10200410681E+02 0.10200424532E+02
 0.10487544583E+02 0.11050194698E+02 0.11873353256E+02 0.12950294419E+02 0.14286856720E+02
 0.15885178181E+02 0.17703992801E+02 0.19609607643E+02 0.21265106467E+02 0.19835320678E+02
 0.17312791740E+02 0.12828245933E+02 0.75770640543E+01 0.33385501389E+01 0.17116489606E+01
 0.33386210926E+01 0.75771501751E+01 0.12828287944E+02 0.17312782190E+02 0.19835303600E+02
 0.20153683598E+02 0.18858973316E+02 0.16916657710E+02 0.14946743609E+02 0.13159645547E+02
 0.11648055853E+02 0.10432853017E+02 0.95036668722E+01 0.88465387741E+01 0.84538186913E+01
 0.83230631856E+01 0.84538560350E+01 0.88465861660E+01 0.95036954688E+01 0.10432860222E+02
 0.11648062682E+02 0.13159662836E+02 0.14946752163E+02 0.16916635999E+02 0.18858935704E+02
 0.20153668566E+02 0.17773852828E+02 0.14754724603E+02 0.10375460090E+02 0.60375365735E+01
 0.33385807089E+01 0.33386210926E+01 0.60375994992E+01 0.10375450966E+02 0.14754639694E+02
 0.17773778566E+02 0.18773777004E+02 0.17962245943E+02 0.16139267010E+02 0.14117709286E+02
 0.12215181819E+02 0.10568863355E+02 0.92301792445E+01 0.81981391918E+01 0.74511580808E+01
 0.69666571723E+01 0.67285042300E+01 0.67285111199E+01 0.69666730080E+01 0.74511706901E+01
 0.81981376856E+01 0.92301662387E+01 0.10568854883E+02 0.12215185367E+02 0.14117705112E+02
 0.16139231173E+02 0.17962198044E+02 0.18773777605E+02 0.16452637549E+02 0.13757470027E+02
 0.10375535787E+02 0.75771921711E+01 0.64938721518E+01 0.75771501751E+01 0.10375450966E+02
 0.13757362907E+02 0.16452548350E+02 0.17610784846E+02 0.17100415196E+02 0.15439440030E+02
 0.13413795389E+02 0.11450338001E+02 0.97113066514E+01 0.82740910505E+01 0.71524859252E+01
 0.63256024870E+01 0.57624451652E+01 0.54360845036E+01 0.53292589626E+01 0.54360740677E+01
 0.57624219898E+01 0.63255801451E+01 0.71524837565E+01 0.82741013215E+01 0.97112965622E+01
 0.11450290854E+02 0.13413730613E+02 0.15439390620E+02 0.17100404920E+02 0.17610826284E+02
 0.16452601576E+02 0.14754756016E+02 0.12828385322E+02 0.11568265424E+02 0.11568230646E+02
 0.12828287944E+02 0.14754639694E+02 0.16452548350E+02 0.17154759685E+02 0.16562242059E+02
 0.14932916254E+02 0.12885887792E+02 0.10875361754E+02 0.90679682784E+01 0.75528217618E+01
 0.63558598464E+01 0.54603684445E+01 0.48312406955E+01 0.44333362437E+01 0.42409399445E+01
 0.42409184881E+01 0.44333040916E+01 0.48312483306E+01 0.54604108030E+01 0.63558808716E+01
 0.75527953569E+01 0.90679362676E+01 0.10875365238E+02 0.12885893797E+02 0.14932862727E+02
 0.16562142983E+02 0.17154707552E+02 0.17773806059E+02 0.17312866717E+02 0.16721997583E+02
 0.16462922831E+02 0.16721932193E+02 0.17312782190E+02 0.17773778566E+02 0.17610784846E+02
 0.16562242059E+02 0.14745529922E+02 0.12599456942E+02 0.10514064015E+02 0.86363416556E+01
 0.70502697051E+01 0.57857852166E+01 0.48292607463E+01 0.41434804505E+01 0.36870542322E+01
 0.34267336660E+01 0.33421994021E+01 0.34267383025E+01 0.36870719028E+01 0.41435053805E+01
 0.48292696932E+01 0.57857712462E+01 0.70502660065E+01 0.86363835256E+01 0.10514125810E+02
 0.12599459677E+02 0.14745432719E+02 0.16562103752E+02 0.17610708314E+02 0.19835351095E+02
 0.20374670408E+02 0.20575412730E+02 0.20575318913E+02 0.20374505628E+02 0.19835303600E+02
 0.18773777004E+02 0.17100415196E+02 0.14932916254E+02 0.12599456942E+02 0.10390428477E+02
 0.84191871358E+01 0.67538252022E+01 0.54196796793E+01 0.44028006425E+01 0.36640102007E+01
 0.31567381659E+01 0.28409487663E+01 0.26896368393E+01 0.26896751585E+01 0.28409982448E+01
 0.31567103720E+01 0.36639391062E+01 0.44027866573E+01 0.54197264376E+01 0.67538404776E+01
 0.84191434374E+01 0.10390410984E+02 0.12599512415E+02 0.14932957157E+02 0.17100356407E+02
 0.18773696438E+02 0.21808438383E+02 0.22824662902E+02 0.23165876042E+02 0.22824530844E+02
 0.21808315848E+02 0.20153683598E+02 0.17962245943E+02 0.15439440030E+02 0.12885887792E+02
 0.10514064015E+02 0.84191871358E+01 0.66559492433E+01 0.52410861516E+01 0.41569665880E+01
 0.33619112888E+01 0.28050912322E+01 0.24403242809E+01 0.22341145286E+01 0.21674003208E+01
 0.22341268138E+01 0.24403105788E+01 0.28050494266E+01 0.33618880328E+01 0.41569760731E+01
 0.52410750846E+01 0.66558843763E+01 0.84191300115E+01 0.10514094987E+02 0.12885981457E+02
 0.15439493616E+02 0.17962235621E+02 0.20153706674E+02 0.23057289794E+02 0.24012941748E+02
 0.24012960598E+02 0.23057308971E+02 0.21265142155E+02 0.18858973316E+02 0.16139267010E+02
 0.13413795389E+02 0.10875361754E+02 0.86363416556E+01 0.67538252022E+01 0.52410861516E+01
 0.40767884948E+01 0.32161488178E+01 0.26046261192E+01 0.21909209658E+01 0.19355368651E+01
 0.18135770785E+01 0.18135525132E+01 0.19355030055E+01 0.21909328488E+01 0.26046654690E+01
 0.32161548726E+01 0.40767568811E+01 0.52410740403E+01 0.67538547268E+01 0.86363604215E+01
 0.10875326955E+02 0.13413747881E+02 0.16139273467E+02 0.18859025979E+02 0.21265171952E+02
 0.23417376095E+02 0.23957095962E+02 0.23417435485E+02 0.21886886926E+02 0.19609676604E+02
 0.16916657710E+02 0.14117709286E+02 0.11450338001E+02 0.90679682784E+01 0.70502697051E+01
 0.54196796793E+01 0.41569665880E+01 0.32161488178E+01 0.25395501180E+01 0.20712766726E+01
 0.17663822464E+01 0.15944589422E+01 0.15388699716E+01 0.15944531516E+01 0.17663837739E+01
 0.20712915821E+01 0.25395718848E+01 0.32161750167E+01 0.41570032749E+01 0.54197196446E+01
 0.70502830200E+01 0.90679340978E+01 0.11450277236E+02 0.14117663186E+02 0.16916633730E+02
 0.19609640686E+02 0.21886820700E+02 0.23177274777E+02 0.23177271983E+02 0.22127849176E+02
 0.20205626880E+02 0.17704023160E+02 0.14946743609E+02 0.12215181819E+02 0.97113066514E+01
 0.75528217618E+01 0.57857852166E+01 0.44028006425E+01 0.33619112888E+01 0.26046261192E+01
 0.20712766726E+01 0.17115979714E+01 0.14895757753E+01 0.13834830476E+01 0.13834906308E+01
 0.14895878579E+01 0.17116008133E+01 0.20712759276E+01 0.26046335679E+01 0.33619186707E+01
 0.44027888061E+01 0.57857576553E+01 0.75528069078E+01 0.97113200868E+01 0.12215203306E+02
 0.14946744237E+02 0.17704003044E+02 0.20205609968E+02 0.22127847726E+02 0.22704263243E+02
 0.22181997675E+02 0.20702912948E+02 0.18501060376E+02 0.15885156228E+02 0.13159645547E+02
 0.10568863355E+02 0.82740910505E+01 0.63558598464E+01 0.48292607463E+01 0.36640102007E+01
 0.28050912322E+01 0.21909209658E+01 0.17663822464E+01 0.14895757753E+01 0.13331693991E+01
 0.12825296816E+01 0.13331690053E+01 0.14895920256E+01 0.17664071892E+01 0.21909144468E+01
 0.28050335139E+01 0.36639383718E+01 0.48292273717E+01 0.63558697226E+01 0.82741082804E+01
 0.10568874772E+02 0.13159679536E+02 0.15885228576E+02 0.18501136896E+02 0.20702951055E+02
 0.22182001149E+02 0.22181832772E+02 0.21182336101E+02 0.19345437591E+02 0.16944264701E+02
 0.14286829537E+02 0.11648055853E+02 0.92301792445E+01 0.71524859252E+01 0.54603684445E+01
 0.41434804505E+01 0.31567381659E+01 0.24403242809E+01 0.19355368651E+01 0.15944589422E+01
 0.13834830476E+01 0.12825296816E+01 0.12825295090E+01 0.13834821790E+01 0.15944574026E+01
 0.19355365205E+01 0.24403275252E+01 0.31567446042E+01 0.41434856506E+01 0.54603674333E+01
 0.71524785773E+01 0.92301715800E+01 0.11648055492E+02 0.14286839275E+02 0.16944280418E+02
 0.19345452335E+02 0.21182345374E+02 0.22181835756E+02 0.21678442724E+02 0.20251457709E+02
 0.18124457806E+02 0.15593063489E+02 0.12950294572E+02 0.10432853017E+02 0.81981391918E+01
 0.63256024870E+01 0.48312406955E+01 0.36870542322E+01 0.28409487663E+01 0.22341145286E+01
 0.18135770785E+01 0.15388699716E+01 0.13834906308E+01 0.13331690053E+01 0.13834821790E+01
 0.15388385643E+01 0.18135439523E+01 0.22341342316E+01 0.28410327427E+01 0.36871361972E+01
 0.48312546832E+01 0.63255680843E+01 0.81981241306E+01 0.10432866301E+02 0.12950275018E+02
 0.15592983117E+02 0.18124376615E+02 0.20251440522E+02 0.21678467070E+02 0.22181996399E+02
 0.21154052217E+02 0.19366229564E+02 0.17031245565E+02 0.14446316879E+02 0.11873362534E+02
 0.95036668722E+01 0.74511580808E+01 0.57624451652E+01 0.44333362437E+01 0.34267336660E+01
 0.26896368393E+01 0.21674003208E+01 0.18135525132E+01 0.15944531516E+01 0.14895878579E+01
 0.14895920256E+01 0.15944574026E+01 0.18135439523E+01 0.21673809866E+01 0.26896241989E+01
 0.34267399018E+01 0.44333536406E+01 0.57624570808E+01 0.74511592136E+01 0.95036648537E+01
 0.11873362685E+02 0.14446316014E+02 0.17031241755E+02 0.19366227627E+02 0.21154054947E+02