   2   2   0   0
  0.2314913E+02  0.4030509E-09  0.4030509E-09  0.4030509E-09  0.5000000E-15
  1.000000000000000E-004
  CAR 
 diamond Si                              
     14.02322734     -7.57037349  301      4.88221749      1.00000000
     -7.570  0.0000E+00  0.0000E+00
     -7.498  0.0000E+00  0.0000E+00
     -7.426  0.0000E+00  0.0000E+00
     -7.354  0.0000E+00  0.0000E+00
     -7.282  0.0000E+00  0.0000E+00
     -7.210  0.0000E+00  0.0000E+00
     -7.139  0.9271E-17  0.6673E-18
     -7.067  0.2373E-13  0.1709E-14
     -6.995  0.2076E-10  0.1496E-11
     -6.923  0.6612E-08  0.4774E-09
     -6.851  0.7761E-06  0.5634E-07
     -6.779  0.3453E-04  0.2542E-05
     -6.707  0.6280E-03  0.4775E-04
     -6.635  0.5547E-02  0.4470E-03
     -6.563  0.2880E-01  0.2520E-02
     -6.491  0.8506E-01  0.8643E-02
     -6.419  0.1318E+00  0.1813E-01
     -6.347  0.1518E+00  0.2905E-01
     -6.275  0.2267E+00  0.4537E-01
     -6.203  0.3045E+00  0.6728E-01
     -6.131  0.2471E+00  0.8507E-01
     -6.059  0.1946E+00  0.9907E-01
     -5.987  0.3273E+00  0.1226E+00
     -5.915  0.4416E+00  0.1544E+00
     -5.843  0.3995E+00  0.1832E+00
     -5.771  0.3870E+00  0.2110E+00
     -5.699  0.3683E+00  0.2375E+00
     -5.627  0.2876E+00  0.2582E+00
     -5.555  0.3829E+00  0.2858E+00
     -5.483  0.6462E+00  0.3323E+00
     -5.411  0.6333E+00  0.3779E+00
     -5.339  0.4950E+00  0.4135E+00
     -5.267  0.5350E+00  0.4520E+00
     -5.195  0.4837E+00  0.4869E+00
     -5.123  0.3575E+00  0.5126E+00
     -5.051  0.4841E+00  0.5474E+00
     -4.979  0.8203E+00  0.6065E+00
     -4.907  0.9594E+00  0.6755E+00
     -4.835  0.8218E+00  0.7347E+00
     -4.763  0.7131E+00  0.7860E+00
     -4.691  0.6437E+00  0.8323E+00
     -4.619  0.5583E+00  0.8725E+00
     -4.547  0.6918E+00  0.9223E+00
     -4.475  0.1218E+01  0.1010E+01
     -4.403  0.1481E+01  0.1117E+01
     -4.331  0.1041E+01  0.1191E+01
     -4.259  0.7905E+00  0.1248E+01
     -4.187  0.8045E+00  0.1306E+01
     -4.115  0.5558E+00  0.1346E+01
     -4.043  0.6126E+00  0.1390E+01
     -3.971  0.1004E+01  0.1463E+01
     -3.899  0.1152E+01  0.1546E+01
     -3.827  0.8496E+00  0.1607E+01
     -3.756  0.4874E+00  0.1642E+01
     -3.684  0.4459E+00  0.1674E+01
     -3.612  0.4463E+00  0.1706E+01
     -3.540  0.6100E+00  0.1750E+01
     -3.468  0.8636E+00  0.1812E+01
     -3.396  0.6985E+00  0.1862E+01
     -3.324  0.3940E+00  0.1891E+01
     -3.252  0.2518E+00  0.1909E+01
     -3.180  0.2385E+00  0.1926E+01
     -3.108  0.2936E+00  0.1947E+01
     -3.036  0.3157E+00  0.1970E+01
     -2.964  0.2718E+00  0.1989E+01
     -2.892  0.1929E+00  0.2003E+01
     -2.820  0.1454E+00  0.2014E+01
     -2.748  0.1458E+00  0.2024E+01
     -2.676  0.2010E+00  0.2039E+01
     -2.604  0.1855E+00  0.2052E+01
     -2.532  0.1725E+00  0.2065E+01
     -2.460  0.2447E+00  0.2082E+01
     -2.388  0.3671E+00  0.2109E+01
     -2.316  0.6637E+00  0.2156E+01
     -2.244  0.8598E+00  0.2218E+01
     -2.172  0.6958E+00  0.2268E+01
     -2.100  0.4045E+00  0.2297E+01
     -2.028  0.3892E+00  0.2325E+01
     -1.956  0.7036E+00  0.2376E+01
     -1.884  0.1252E+01  0.2466E+01
     -1.812  0.1710E+01  0.2589E+01
     -1.740  0.1548E+01  0.2701E+01
     -1.668  0.1131E+01  0.2782E+01
     -1.596  0.9095E+00  0.2848E+01
     -1.524  0.8082E+00  0.2906E+01
     -1.452  0.6226E+00  0.2950E+01
     -1.380  0.5303E+00  0.2989E+01
     -1.308  0.7317E+00  0.3041E+01
     -1.236  0.9544E+00  0.3110E+01
     -1.164  0.7867E+00  0.3167E+01
     -1.092  0.4401E+00  0.3198E+01
     -1.020  0.3098E+00  0.3221E+01
     -0.948  0.3731E+00  0.3247E+01
     -0.876  0.5371E+00  0.3286E+01
     -0.804  0.5412E+00  0.3325E+01
     -0.732  0.4850E+00  0.3360E+01
     -0.660  0.3774E+00  0.3387E+01
     -0.588  0.2882E+00  0.3408E+01
     -0.516  0.4345E+00  0.3439E+01
     -0.444  0.5228E+00  0.3477E+01
     -0.373  0.4050E+00  0.3506E+01
     -0.301  0.2995E+00  0.3528E+01
     -0.229  0.2613E+00  0.3546E+01
     -0.157  0.2826E+00  0.3567E+01
     -0.085  0.2927E+00  0.3588E+01
     -0.013  0.2190E+00  0.3604E+01
      0.059  0.9603E-01  0.3610E+01
      0.131  0.9648E-01  0.3617E+01
      0.203  0.3093E+00  0.3640E+01
      0.275  0.5390E+00  0.3678E+01
      0.347  0.4568E+00  0.3711E+01
      0.419  0.2423E+00  0.3729E+01
      0.491  0.1787E+00  0.3742E+01
      0.563  0.1528E+00  0.3753E+01
      0.635  0.9633E-01  0.3760E+01
      0.707  0.1890E+00  0.3773E+01
      0.779  0.5430E+00  0.3812E+01
      0.851  0.1009E+01  0.3885E+01
      0.923  0.1255E+01  0.3975E+01
      0.995  0.1196E+01  0.4061E+01
      1.067  0.1055E+01  0.4137E+01
      1.139  0.1350E+01  0.4234E+01
      1.211  0.1764E+01  0.4361E+01
      1.283  0.1547E+01  0.4473E+01
      1.355  0.1177E+01  0.4557E+01
      1.427  0.9551E+00  0.4626E+01
      1.499  0.9199E+00  0.4692E+01
      1.571  0.1106E+01  0.4772E+01
      1.643  0.1237E+01  0.4861E+01
      1.715  0.1382E+01  0.4961E+01
      1.787  0.1447E+01  0.5065E+01
      1.859  0.1258E+01  0.5155E+01
      1.931  0.1264E+01  0.5246E+01
      2.003  0.1694E+01  0.5368E+01
      2.075  0.1946E+01  0.5508E+01
      2.147  0.1969E+01  0.5650E+01
      2.219  0.1879E+01  0.5785E+01
      2.291  0.1506E+01  0.5894E+01
      2.363  0.1323E+01  0.5989E+01
      2.435  0.1615E+01  0.6105E+01
      2.507  0.1754E+01  0.6231E+01
      2.579  0.1531E+01  0.6341E+01
      2.651  0.1287E+01  0.6434E+01
      2.723  0.1281E+01  0.6526E+01
      2.795  0.1611E+01  0.6642E+01
      2.867  0.1873E+01  0.6777E+01
      2.939  0.1648E+01  0.6896E+01
      3.010  0.1274E+01  0.6987E+01
      3.082  0.1245E+01  0.7077E+01
      3.154  0.1547E+01  0.7188E+01
      3.226  0.1414E+01  0.7290E+01
      3.298  0.9345E+00  0.7357E+01
      3.370  0.8638E+00  0.7420E+01
      3.442  0.1320E+01  0.7515E+01
      3.514  0.1373E+01  0.7613E+01
      3.586  0.7791E+00  0.7669E+01
      3.658  0.5497E+00  0.7709E+01
      3.730  0.7977E+00  0.7766E+01
      3.802  0.8255E+00  0.7826E+01
      3.874  0.5022E+00  0.7862E+01
      3.946  0.2465E+00  0.7880E+01
      4.018  0.2999E+00  0.7901E+01
      4.090  0.3992E+00  0.7930E+01
      4.162  0.2581E+00  0.7949E+01
      4.234  0.1257E+00  0.7958E+01
      4.306  0.1896E+00  0.7971E+01
      4.378  0.2241E+00  0.7987E+01
      4.450  0.1205E+00  0.7996E+01
      4.522  0.4091E-01  0.7999E+01
      4.594  0.1145E-01  0.8000E+01
      4.666  0.1781E-02  0.8000E+01
      4.738  0.1138E-03  0.8000E+01
      4.810  0.2755E-05  0.8000E+01
      4.882  0.2499E-07  0.8000E+01
      4.954  0.8690E-07  0.8000E+01
      5.026  0.9898E-05  0.8000E+01
      5.098  0.4176E-03  0.8000E+01
      5.170  0.6598E-02  0.8001E+01
      5.242  0.3969E-01  0.8003E+01
      5.314  0.9499E-01  0.8010E+01
      5.386  0.1252E+00  0.8019E+01
      5.458  0.2280E+00  0.8036E+01
      5.530  0.3961E+00  0.8064E+01
      5.602  0.4421E+00  0.8096E+01
      5.674  0.4907E+00  0.8131E+01
      5.746  0.4734E+00  0.8165E+01
      5.818  0.3370E+00  0.8190E+01
      5.890  0.4804E+00  0.8224E+01
      5.962  0.8459E+00  0.8285E+01
      6.034  0.9208E+00  0.8351E+01
      6.106  0.9615E+00  0.8421E+01
      6.178  0.1345E+01  0.8517E+01
      6.250  0.1789E+01  0.8646E+01
      6.322  0.2000E+01  0.8790E+01
      6.393  0.1727E+01  0.8914E+01
      6.465  0.1259E+01  0.9005E+01
      6.537  0.1196E+01  0.9091E+01
      6.609  0.1447E+01  0.9195E+01
      6.681  0.1658E+01  0.9315E+01
      6.753  0.1904E+01  0.9452E+01
      6.825  0.2082E+01  0.9601E+01
      6.897  0.1799E+01  0.9731E+01
      6.969  0.1229E+01  0.9819E+01
      7.041  0.8055E+00  0.9877E+01
      7.113  0.7319E+00  0.9930E+01
      7.185  0.9015E+00  0.9995E+01
      7.257  0.8985E+00  0.1006E+02
      7.329  0.9103E+00  0.1013E+02
      7.401  0.1170E+01  0.1021E+02
      7.473  0.1472E+01  0.1032E+02
      7.545  0.1679E+01  0.1044E+02
      7.617  0.2127E+01  0.1059E+02
      7.689  0.2518E+01  0.1077E+02
      7.761  0.2352E+01  0.1094E+02
      7.833  0.1964E+01  0.1108E+02
      7.905  0.1667E+01  0.1120E+02
      7.977  0.1574E+01  0.1131E+02
      8.049  0.1965E+01  0.1146E+02
      8.121  0.2222E+01  0.1162E+02
      8.193  0.1618E+01  0.1173E+02
      8.265  0.1029E+01  0.1181E+02
      8.337  0.9445E+00  0.1187E+02
      8.409  0.1311E+01  0.1197E+02
      8.481  0.1904E+01  0.1211E+02
      8.553  0.1658E+01  0.1223E+02
      8.625  0.8875E+00  0.1229E+02
      8.697  0.5242E+00  0.1233E+02
      8.769  0.6375E+00  0.1237E+02
      8.841  0.1043E+01  0.1245E+02
      8.913  0.1781E+01  0.1258E+02
      8.985  0.2584E+01  0.1276E+02
      9.057  0.2398E+01  0.1293E+02
      9.129  0.1539E+01  0.1305E+02
      9.201  0.1440E+01  0.1315E+02
      9.273  0.1928E+01  0.1329E+02
      9.345  0.1575E+01  0.1340E+02
      9.417  0.9018E+00  0.1347E+02
      9.489  0.8571E+00  0.1353E+02
      9.561  0.1157E+01  0.1361E+02
      9.633  0.1285E+01  0.1370E+02
      9.705  0.1127E+01  0.1378E+02
      9.776  0.9229E+00  0.1385E+02
      9.848  0.9069E+00  0.1392E+02
      9.920  0.1161E+01  0.1400E+02
      9.992  0.1399E+01  0.1410E+02
     10.064  0.1231E+01  0.1419E+02
     10.136  0.1047E+01  0.1426E+02
     10.208  0.1209E+01  0.1435E+02
     10.280  0.1539E+01  0.1446E+02
     10.352  0.1701E+01  0.1458E+02
     10.424  0.1383E+01  0.1468E+02
     10.496  0.9115E+00  0.1475E+02
     10.568  0.7381E+00  0.1480E+02
     10.640  0.6848E+00  0.1485E+02
     10.712  0.6012E+00  0.1490E+02
     10.784  0.5531E+00  0.1494E+02
     10.856  0.7642E+00  0.1499E+02
     10.928  0.9473E+00  0.1506E+02
     11.000  0.6755E+00  0.1511E+02
     11.072  0.5791E+00  0.1515E+02
     11.144  0.7552E+00  0.1520E+02
     11.216  0.7622E+00  0.1526E+02
     11.288  0.6687E+00  0.1531E+02
     11.360  0.5551E+00  0.1535E+02
     11.432  0.6737E+00  0.1539E+02
     11.504  0.9472E+00  0.1546E+02
     11.576  0.9642E+00  0.1553E+02
     11.648  0.9483E+00  0.1560E+02
     11.720  0.9212E+00  0.1567E+02
     11.792  0.7947E+00  0.1572E+02
     11.864  0.7921E+00  0.1578E+02
     11.936  0.6819E+00  0.1583E+02
     12.008  0.4333E+00  0.1586E+02
     12.080  0.2669E+00  0.1588E+02
     12.152  0.2250E+00  0.1590E+02
     12.224  0.1398E+00  0.1591E+02
     12.296  0.3762E-01  0.1591E+02
     12.368  0.3921E-02  0.1591E+02
     12.440  0.1551E-03  0.1591E+02
     12.512  0.7669E-04  0.1591E+02
     12.584  0.2283E-02  0.1591E+02
     12.656  0.2631E-01  0.1591E+02
     12.728  0.1158E+00  0.1592E+02
     12.800  0.2023E+00  0.1593E+02
     12.872  0.1779E+00  0.1595E+02
     12.944  0.1911E+00  0.1596E+02
     13.016  0.2557E+00  0.1598E+02
     13.088  0.1995E+00  0.1599E+02
     13.159  0.7071E-01  0.1600E+02
     13.231  0.1032E-01  0.1600E+02
     13.303  0.5897E-03  0.1600E+02
     13.375  0.1281E-04  0.1600E+02
     13.447  0.1040E-06  0.1600E+02
     13.519  0.3119E-09  0.1600E+02
     13.591  0.3424E-12  0.1600E+02
     13.663  0.1112E-15  0.1600E+02
     13.735  0.0000E+00  0.1600E+02
     13.807  0.0000E+00  0.1600E+02
     13.879  0.0000E+00  0.1600E+02
     13.951  0.0000E+00  0.1600E+02
     14.023  0.0000E+00  0.1600E+02
