    2    2    1    1
  0.2314913E+02  0.4030509E-09  0.4030509E-09  0.4030509E-09  0.5000000E-15
  1.000000000000000E-004
  CAR 
 diamond Si                              
      8     56      8
 
  0.0000000E+00  0.0000000E+00  0.0000000E+00  0.7513148E-03
      1         -6.570373   1.000000
      2          4.460810   1.000000
      3          4.460837   1.000000
      4          4.460837   1.000000
      5          6.235814   0.000000
      6          6.956797   0.000000
      7          6.956822   0.000000
      8          6.956822   0.000000
 
  0.9090909E-01  0.1560421E-17 -0.2282697E-17  0.6010518E-02
      1         -6.474947   1.000000
      2          3.436375   1.000000
      3          4.316925   1.000000
      4          4.316954   1.000000
      5          6.489337   0.000000
      6          7.168588   0.000000
      7          7.168616   0.000000
      8          7.577942   0.000000
 
  0.1818182E+00 -0.3818052E-17  0.2373500E-17  0.6010518E-02
      1         -6.193519   1.000000
      2          1.879038   1.000000
      3          4.015396   1.000000
      4          4.015423   1.000000
      5          6.219147   0.000000
      6          7.597391   0.000000
      7          7.597432   0.000000
      8          9.088092   0.000000
 
  0.2727273E+00 -0.9196524E-17  0.7029697E-17  0.6010518E-02
      1         -5.743162   1.000000
      2          0.388284   1.000000
      3          3.722348   1.000000
      4          3.722376   1.000000
      5          5.892321   0.000000
      6          7.881534   0.000000
      7          7.881592   0.000000
      8         10.638047   0.000000
 
  0.3636364E+00 -0.6972094E-18 -0.2191894E-17  0.6010518E-02
      1         -5.176074   1.000000
      2         -0.897703   1.000000
      3          3.508676   1.000000
      4          3.508701   1.000000
      5          5.642571   0.000000
      6          7.907937   0.000000
      7          7.907999   0.000000
      8         11.842925   0.000000
 
  0.4545455E+00  0.8632117E-18 -0.4474591E-17  0.6010518E-02
      1         -4.671342   1.000000
      2         -1.766947   1.000000
      3          3.398806   1.000000
      4          3.398833   1.000000
      5          5.513310   0.000000
      6          7.850769   0.000000
      7          7.850835   0.000000
      8         11.978013   0.000000
 
  0.9090909E-01  0.9090909E-01 -0.1884861E-17  0.4507889E-02
      1         -6.442985   1.000000
      2          3.494028   1.000000
      3          4.045612   1.000000
      4          4.045629   1.000000
      5          6.677565   0.000000
      6          7.153896   0.000000
      7          7.530932   0.000000
      8          7.530950   0.000000
 
  0.1818182E+00  0.9090909E-01 -0.3727248E-17  0.1803156E-01
      1         -6.222687   1.000000
      2          2.276384   1.000000
      3          3.698013   1.000000
      4          3.804907   1.000000
      5          6.667950   0.000000
      6          7.195125   0.000000
      7          8.058815   0.000000
      8          8.667729   0.000000
 
  0.2727273E+00  0.9090909E-01  0.9289486E-18  0.1803156E-01
      1         -5.825898   1.000000
      2          0.833502   1.000000
      3          3.408904   1.000000
      4          3.458451   1.000000
      5          6.558002   0.000000
      6          7.440284   0.000000
      7          8.420795   0.000000
      8          9.534838   0.000000
 
  0.3636364E+00  0.9090909E-01  0.5585146E-17  0.1803156E-01
      1         -5.287657   1.000000
      2         -0.496538   1.000000
      3          3.112126   1.000000
      4          3.234383   1.000000
      5          6.318604   0.000000
      6          7.667897   0.000000
      7          8.443599   0.000000
      8         10.310844   0.000000
 
  0.4545455E+00  0.9090909E-01  0.3302449E-17  0.1803156E-01
      1         -4.724522   1.000000
      2         -1.527254   1.000000
      3          2.846971   1.000000
      4          3.188197   1.000000
      5          6.154987   0.000000
      6          7.723289   0.000000
      7          8.284519   0.000000
      8         11.420194   0.000000
 
 -0.4545455E+00  0.9090909E-01 -0.1550395E-16  0.1803156E-01
      1         -4.507843   1.000000
      2         -1.861404   1.000000
      3          2.696956   1.000000
      4          3.269904   1.000000
      5          6.107622   0.000000
      6          7.804223   0.000000
      7          8.133310   0.000000
      8         12.125839   0.000000
 
 -0.3636364E+00  0.9090909E-01  0.9968933E-17  0.1803156E-01
      1         -4.901512   1.000000
      2         -1.230472   1.000000
      3          2.679612   1.000000
      4          3.466486   1.000000
      5          6.184934   0.000000
      6          7.965889   0.000000
      7          8.037572   0.000000
      8         11.648703   0.000000
 
 -0.2727273E+00  0.9090909E-01  0.7473421E-18  0.1803156E-01
      1         -5.480239   1.000000
      2         -0.073051   1.000000
      3          2.808354   1.000000
      4          3.752562   1.000000
      5          6.376840   0.000000
      6          7.908607   0.000000
      7          8.092273   0.000000
      8         10.530696   0.000000
 
 -0.1818182E+00  0.9090909E-01 -0.8474249E-17  0.1803156E-01
      1         -5.977578   1.000000
      2          1.296588   1.000000
      3          3.099593   1.000000
      4          4.075993   1.000000
      5          6.645735   0.000000
      6          7.593978   0.000000
      7          7.871041   0.000000
      8          9.533882   0.000000
 
 -0.9090909E-01  0.9090909E-01  0.3120842E-17  0.9015778E-02
      1         -6.317255   1.000000
      2          2.625134   1.000000
      3          3.621870   1.000000
      4          4.323426   1.000000
      5          6.790223   0.000000
      6          7.223888   0.000000
      7          7.337976   0.000000
      8          8.513948   0.000000
 
  0.1818182E+00  0.1818182E+00 -0.3769722E-17  0.4507889E-02
      1         -6.063733   1.000000
      2          2.014098   1.000000
      3          3.320024   1.000000
      4          3.320039   1.000000
      5          6.112158   0.000000
      6          7.954799   0.000000
      7          8.722632   0.000000
      8          8.722646   0.000000
 
  0.2727273E+00  0.1818182E+00 -0.5171800E-17  0.1803156E-01
      1         -5.723833   1.000000
      2          0.999309   1.000000
      3          2.921187   1.000000
      4          3.014242   1.000000
      5          6.154826   0.000000
      6          7.804257   0.000000
      7          9.062379   0.000000
      8          9.268065   0.000000
 
  0.3636364E+00  0.1818182E+00 -0.7454497E-17  0.1803156E-01
      1         -5.226643   1.000000
      2         -0.186700   1.000000
      3          2.428603   1.000000
      4          2.833528   1.000000
      5          6.353527   0.000000
      6          8.104952   0.000000
      7          8.953149   0.000000
      8          9.417182   0.000000
 
  0.4545455E+00  0.1818182E+00  0.4140594E-17  0.1803156E-01
      1         -4.646081   1.000000
      2         -1.248436   1.000000
      3          1.997906   1.000000
      4          2.797524   1.000000
      5          6.367724   0.000000
      6          8.434562   0.000000
      7          9.253994   0.000000
      8          9.532415   0.000000
 
 -0.4545455E+00  0.1818182E+00 -0.1466580E-16  0.1803156E-01
      1         -4.252197   1.000000
      2         -1.838610   1.000000
      3          1.705564   1.000000
      4          2.905956   1.000000
      5          6.417313   0.000000
      6          8.410643   0.000000
      7          9.013463   0.000000
      8         10.938768   0.000000
 
 -0.3636364E+00  0.1818182E+00 -0.1694850E-16  0.1803156E-01
      1         -4.484704   1.000000
      2         -1.496912   1.000000
      3          1.589237   1.000000
      4          3.145168   1.000000
      5          6.581878   0.000000
      6          8.457432   0.000000
      7          8.790315   0.000000
      8         11.497660   0.000000
 
 -0.2727273E+00  0.1818182E+00  0.1585487E-17  0.1803156E-01
      1         -5.052335   1.000000
      2         -0.548208   1.000000
      3          1.697379   1.000000
      4          3.480318   1.000000
      5          6.825947   0.000000
      6          8.499864   0.000000
      7          8.547731   0.000000
      8         10.188662   0.000000
 
 -0.1818182E+00  0.1818182E+00 -0.7636103E-17  0.9015778E-02
      1         -5.586144   1.000000
      2          0.497624   1.000000
      3          2.154526   1.000000
      4          3.839522   1.000000
      5          7.001773   0.000000
      6          8.020548   0.000000
      7          8.248458   0.000000
      8          9.584395   0.000000
 
  0.2727273E+00  0.2727273E+00 -0.5654583E-17  0.4507889E-02
      1         -5.440461   1.000000
      2          0.518077   1.000000
      3          2.680837   1.000000
      4          2.680851   1.000000
      5          5.601926   0.000000
      6          7.256399   0.000000
      7         10.119988   0.000000
      8         10.120003   0.000000
 
  0.3636364E+00  0.2727273E+00 -0.3667322E-17  0.1803156E-01
      1         -4.990862   1.000000
      2         -0.328970   1.000000
      3          2.215902   1.000000
      4          2.472526   1.000000
      5          5.725595   0.000000
      6          7.024578   0.000000
      7         10.303546   0.000000
      8         10.586656   0.000000
 
  0.4545455E+00  0.2727273E+00 -0.1960155E-17  0.1803156E-01
      1         -4.420995   1.000000
      2         -1.222720   1.000000
      3          1.587464   1.000000
      4          2.414019   1.000000
      5          5.929180   0.000000
      6          7.671575   0.000000
      7         10.108141   0.000000
      8         10.545152   0.000000
 
 -0.4545455E+00  0.2727273E+00 -0.6888761E-17  0.1803156E-01
      1         -3.908996   1.000000
      2         -1.895901   1.000000
      3          1.090062   1.000000
      4          2.508831   1.000000
      5          6.042191   0.000000
      6          9.021810   0.000000
      7          9.929508   0.000000
      8         10.277097   0.000000
 
 -0.3636364E+00  0.2727273E+00 -0.9171458E-17  0.1803156E-01
      1         -3.963073   1.000000
      2         -1.823077   1.000000
      3          0.854734   1.000000
      4          2.746076   1.000000
      5          6.270093   0.000000
      6          9.838816   0.000000
      7          9.918604   0.000000
      8         10.691911   0.000000
 
 -0.2727273E+00  0.2727273E+00 -0.1839305E-16  0.9015778E-02
      1         -4.499732   1.000000
      2         -1.165328   1.000000
      3          1.005393   1.000000
      4          3.094365   1.000000
      5          6.601360   0.000000
      6          9.323023   0.000000
      7          9.656513   0.000000
      8         10.120921   0.000000
 
  0.3636364E+00  0.3636364E+00 -0.7539443E-17  0.4507889E-02
      1         -4.587990   1.000000
      2         -0.932136   1.000000
      3          2.228695   1.000000
      4          2.228710   1.000000
      5          5.307283   0.000000
      6          6.303241   0.000000
      7         11.603120   0.000000
      8         11.603136   0.000000
 
  0.4545455E+00  0.3636364E+00 -0.8060903E-17  0.1803156E-01
      1         -4.044953   1.000000
      2         -1.656146   1.000000
      3          1.785573   1.000000
      4          2.133640   1.000000
      5          5.510669   0.000000
      6          6.284658   0.000000
      7         11.816332   0.000000
      8         11.957523   0.000000
 
 -0.4545455E+00  0.3636364E+00  0.8882780E-18  0.1803156E-01
      1         -3.470787   1.000000
      2         -2.285519   1.000000
      3          1.141548   1.000000
      4          2.195840   1.000000
      5          5.678419   0.000000
      6          7.310975   0.000000
      7         11.654098   0.000000
      8         11.723745   0.000000
 
 -0.3636364E+00  0.3636364E+00 -0.1394419E-17  0.9015778E-02
      1         -3.441762   1.000000
      2         -2.292159   1.000000
      3          0.736618   1.000000
      4          2.408531   1.000000
      5          5.908704   0.000000
      6          8.877356   0.000000
      7         11.066060   0.000000
      8         11.455422   0.000000
 
  0.4545455E+00  0.4545455E+00 -0.9424304E-17  0.4507889E-02
      1         -3.528967   1.000000
      2         -2.296013   1.000000
      3          1.997370   1.000000
      4          1.997385   1.000000
      5          5.302735   0.000000
      6          5.630413   0.000000
      7         13.023210   0.000000
      8         13.023227   0.000000
 
 -0.4545455E+00  0.4545455E+00  0.1726423E-17  0.9015778E-02
      1         -2.972523   1.000000
      2         -2.860300   1.000000
      3          1.642136   1.000000
      4          2.018816   1.000000
      5          5.480558   0.000000
      6          5.981618   0.000000
      7         12.933231   0.000000
      8         13.007744   0.000000
 
  0.2727273E+00  0.1818182E+00  0.9090909E-01  0.1803156E-01
      1         -5.943138   1.000000
      2          1.438519   1.000000
      3          2.888758   1.000000
      4          3.714582   1.000000
      5          6.756948   0.000000
      6          7.445183   0.000000
      7          8.545120   0.000000
      8          9.027643   0.000000
 
  0.3636364E+00  0.1818182E+00  0.9090909E-01  0.3606311E-01
      1         -5.495316   1.000000
      2          0.272848   1.000000
      3          2.363582   1.000000
      4          3.441200   1.000000
      5          6.940532   0.000000
      6          7.598151   0.000000
      7          8.909371   0.000000
      8          9.215707   0.000000
 
  0.4545455E+00  0.1818182E+00  0.9090909E-01  0.3606311E-01
      1         -4.928649   1.000000
      2         -0.888175   1.000000
      3          2.097097   1.000000
      4          3.150077   1.000000
      5          6.837093   0.000000
      6          7.719155   0.000000
      7          8.977351   0.000000
      8          9.962685   0.000000
 
 -0.4545455E+00  0.1818182E+00  0.9090909E-01  0.3606311E-01
      1         -4.418070   1.000000
      2         -1.718785   1.000000
      3          1.986098   1.000000
      4          2.974915   1.000000
      5          6.749825   0.000000
      6          7.664376   0.000000
      7          8.951158   0.000000
      8         11.237963   0.000000
 
  0.3636364E+00  0.2727273E+00  0.9090909E-01  0.1803156E-01
      1         -5.330313   1.000000
      2          0.208239   1.000000
      3          2.257969   1.000000
      4          2.858229   1.000000
      5          6.271365   0.000000
      6          7.621704   0.000000
      7          9.097529   0.000000
      8         10.021573   0.000000
 
  0.4545455E+00  0.2727273E+00  0.9090909E-01  0.3606311E-01
      1         -4.794374   1.000000
      2         -0.738771   1.000000
      3          1.738248   1.000000
      4          2.598711   1.000000
      5          6.600934   0.000000
      6          8.010796   0.000000
      7          8.819812   0.000000
      8         10.403325   0.000000
 
 -0.4545455E+00  0.2727273E+00  0.9090909E-01  0.3606311E-01
      1         -4.224381   1.000000
      2         -1.592999   1.000000
      3          1.379515   1.000000
      4          2.470139   1.000000
      5          6.714004   0.000000
      6          8.474720   0.000000
      7          9.252172   0.000000
      8         10.388974   0.000000
 
 -0.3636364E+00  0.2727273E+00  0.9090909E-01  0.3606311E-01
      1         -4.009343   1.000000
      2         -1.877271   1.000000
      3          1.180681   1.000000
      4          2.544967   1.000000
      5          6.875307   0.000000
      6          8.271755   0.000000
      7         10.190698   0.000000
      8         10.871852   0.000000
 
 -0.2727273E+00  0.2727273E+00  0.9090909E-01  0.3606311E-01
      1         -4.429099   1.000000
      2         -1.304893   1.000000
      3          1.197789   1.000000
      4          2.794265   1.000000
      5          7.139742   0.000000
      6          8.125225   0.000000
      7          9.605131   0.000000
      8         10.294488   0.000000
 
 -0.1818182E+00  0.2727273E+00  0.9090909E-01  0.1803156E-01
      1         -5.007798   1.000000
      2         -0.450757   1.000000
      3          1.549694   1.000000
      4          3.144127   1.000000
      5          7.419645   0.000000
      6          7.714616   0.000000
      7          8.954861   0.000000
      8          9.778824   0.000000
 
  0.4545455E+00  0.3636364E+00  0.9090909E-01  0.1803156E-01
      1         -4.496593   1.000000
      2         -1.052617   1.000000
      3          1.839552   1.000000
      4          2.181831   1.000000
      5          5.974378   0.000000
      6          6.813231   0.000000
      7         10.296053   0.000000
      8         11.572618   0.000000
 
 -0.4545455E+00  0.3636364E+00  0.9090909E-01  0.3606311E-01
      1         -3.910925   1.000000
      2         -1.780208   1.000000
      3          1.300267   1.000000
      4          2.031429   1.000000
      5          6.305924   0.000000
      6          7.511189   0.000000
      7          9.997009   0.000000
      8         11.858168   0.000000
 
 -0.3636364E+00  0.3636364E+00  0.9090909E-01  0.3606311E-01
      1         -3.526303   1.000000
      2         -2.198982   1.000000
      3          0.863820   1.000000
      4          2.128956   1.000000
      5          6.492914   0.000000
      6          8.963573   0.000000
      7          9.713090   0.000000
      8         11.128447   0.000000
 
 -0.2727273E+00  0.3636364E+00  0.9090909E-01  0.1803156E-01
      1         -3.859490   1.000000
      2         -1.842133   1.000000
      3          0.775224   1.000000
      4          2.405516   1.000000
      5          6.794058   0.000000
      6          9.272471   0.000000
      7          9.856880   0.000000
      8         10.714395   0.000000
 
 -0.4545455E+00  0.4545455E+00  0.9090909E-01  0.1803156E-01
      1         -3.471900   1.000000
      2         -2.302374   1.000000
      3          1.673941   1.000000
      4          1.783690   1.000000
      5          5.940902   0.000000
      6          6.215671   0.000000
      7         11.687195   0.000000
      8         12.767270   0.000000
 
 -0.3636364E+00  0.4545455E+00  0.9090909E-01  0.1803156E-01
      1         -3.053599   1.000000
      2         -2.688549   1.000000
      3          1.138056   1.000000
      4          1.845107   1.000000
      5          6.202788   0.000000
      6          7.319236   0.000000
      7         11.307086   0.000000
      8         11.483795   0.000000
 
 -0.4545455E+00  0.3636364E+00  0.1818182E+00  0.1803156E-01
      1         -4.237661   1.000000
      2         -1.389772   1.000000
      3          1.200897   1.000000
      4          2.215339   1.000000
      5          7.449413   0.000000
      6          8.083805   0.000000
      7          8.451926   0.000000
      8         11.482228   0.000000
 
 -0.3636364E+00  0.3636364E+00  0.1818182E+00  0.3606311E-01
      1         -3.699905   1.000000
      2         -2.001328   1.000000
      3          0.958132   1.000000
      4          1.947904   1.000000
      5          7.817085   0.000000
      6          8.087789   0.000000
      7          9.231300   0.000000
      8         10.877923   0.000000
 
 -0.3636364E+00  0.4545455E+00  0.1818182E+00  0.1803156E-01
      1         -3.327400   1.000000
      2         -2.353705   1.000000
      3          1.170966   1.000000
      4          1.508558   1.000000
      5          7.403079   0.000000
      6          7.620570   0.000000
      7          9.644446   0.000000
      8         11.090821   0.000000
 
 -0.2727273E+00  0.4545455E+00  0.1818182E+00  0.1803156E-01
      1         -3.166921   1.000000
      2         -2.493803   1.000000
      3          0.944846   1.000000
      4          1.537580   1.000000
      5          7.730114   0.000000
      6          9.035552   0.000000
      7          9.313974   0.000000
      8          9.457623   0.000000
