       N       E                     dE             d eps       ncg     rms          rms(c)
DAV:   1    -0.192998133468E+01   -0.19300E+01   -0.20157E+03   904   0.416E+02
DAV:   2    -0.106868683920E+02   -0.87569E+01   -0.85341E+01  1400   0.543E+01
DAV:   3    -0.107806178261E+02   -0.93749E-01   -0.93749E-01  1128   0.701E+00
DAV:   4    -0.107809693596E+02   -0.35153E-03   -0.35153E-03  1424   0.425E-01
DAV:   5    -0.107809695685E+02   -0.20893E-06   -0.20892E-06  1152   0.836E-03    0.448E+00
DAV:   6    -0.107093577987E+02    0.71612E-01   -0.41482E-02  1024   0.107E+00    0.271E+00
DAV:   7    -0.106721542066E+02    0.37204E-01   -0.90042E-02  1104   0.170E+00    0.147E-01
DAV:   8    -0.106733725548E+02   -0.12183E-02   -0.25240E-03   968   0.357E-01    0.694E-02
DAV:   9    -0.106736128982E+02   -0.24034E-03   -0.27495E-04  1216   0.119E-01    0.444E-02
DAV:  10    -0.106736297833E+02   -0.16885E-04   -0.18962E-05   496   0.325E-02
   1 F= -.10673630E+02 E0= -.10673630E+02  d E =-.114038E-10
