 vasp.6.3.0 20Jan22 (build Feb 01 2022 16:52:37) complex                        
  
 executed on           TETRA_NSC1 date 2022.02.23  07:07:38
 running    4 mpi-ranks, with    1 threads/rank
 distrk:  each k-point on    4 cores,    1 groups
 distr:  one band on NCORE=   1 cores,    4 groups


--------------------------------------------------------------------------------------------------------


 INCAR:
   SYSTEM = diamond Si
   ISTART = 0
   ICHARG = 2
   ENCUT = 240
   ISMEAR = 0
   SIGMA = 0.1

 POTCAR:    PAW_PBE Si 05Jan2001                  
 POTCAR:    PAW_PBE Si 05Jan2001                  
   VRHFIN =Si: s2p2                                                                                 
   LEXCH  = PE                                                                                      
   EATOM  =   103.0669 eV,    7.5752 Ry                                                             
                                                                                                    
   TITEL  = PAW_PBE Si 05Jan2001                                                                    
   LULTRA =        F    use ultrasoft PP ?                                                          
   IUNSCR =        1    unscreen: 0-lin 1-nonlin 2-no                                               
   RPACOR =    1.500    partial core radius                                                         
   POMASS =   28.085; ZVAL   =    4.000    mass and valenz                                          
   RCORE  =    1.900    outmost cutoff radius                                                       
   RWIGS  =    2.480; RWIGS  =    1.312    wigner-seitz radius (au A)                               
   ENMAX  =  245.345; ENMIN  =  184.009 eV                                                          
   ICORE  =        2    local potential                                                             
   LCOR   =        T    correct aug charges                                                         
   LPAW   =        T    paw PP                                                                      
   EAUG   =  322.069                                                                                
   DEXC   =    0.000                                                                                
   RMAX   =    1.950    core radius for proj-oper                                                   
   RAUG   =    1.300    factor for augmentation sphere                                              
   RDEP   =    1.993    radius for radial grids                                                     
   RDEPT  =    1.837    core radius for aug-charge                                                  
                                                                                                    
   Atomic configuration                                                                             
    6 entries                                                                                       
     n  l   j            E        occ.                                                              
     1  0  0.50     -1785.8828   2.0000                                                             
     2  0  0.50      -139.4969   2.0000                                                             
     2  1  1.50       -95.5546   6.0000                                                             
     3  0  0.50       -10.8127   2.0000                                                             
     3  1  0.50        -4.0811   2.0000                                                             
     3  2  1.50        -4.0817   0.0000                                                             
   Description                                                                                      
     l       E           TYP  RCUT    TYP  RCUT                                                     
     0    -10.8127223     23  1.900                                                                 
     0     -7.6451159     23  1.900                                                                 
     1     -4.0811372     23  1.900                                                                 
     1      2.4879257     23  1.900                                                                 
     2     -4.0817478      7  1.900                                                                 
  local pseudopotential read in
  partial core-charges read in
  partial kinetic energy density read in
  atomic valenz-charges read in
  non local Contribution for L=           0  read in
    real space projection operators read in
  non local Contribution for L=           0  read in
    real space projection operators read in
  non local Contribution for L=           1  read in
    real space projection operators read in
  non local Contribution for L=           1  read in
    real space projection operators read in
    PAW grid and wavefunctions read in
 
   number of l-projection  operators is LMAX  =           4
   number of lm-projection operators is LMMAX =           8
 
  PAW_PBE Si 05Jan2001                  :
 energy of atom  1       EATOM= -103.0669
 kinetic energy error for atom=    0.0061 (will be added to EATOM!!)
 
 
 POSCAR: cubic diamond Si
  positions in direct lattice
  No initial velocities read in
 exchange correlation table for  LEXCH =        8
   RHO(1)=    0.500       N(1)  =     2000
   RHO(2)=  100.500       N(2)  =     4000
 


--------------------------------------------------------------------------------------------------------


 ion  position               nearest neighbor table
   1  0.875  0.875  0.875-   2 2.47   2 2.47   2 2.47   2 2.47
   2  0.125  0.125  0.125-   1 2.47   1 2.47   1 2.47   1 2.47
 
  LATTYP: Found a face centered cubic cell.
 ALAT       =     5.7000000000
  
  Lattice vectors:
  
 A1 = (   0.0000000000,   2.8500000000,   2.8500000000)
 A2 = (   2.8500000000,   0.0000000000,   2.8500000000)
 A3 = (   2.8500000000,   2.8500000000,   0.0000000000)


Analysis of symmetry for initial positions (statically):
=====================================================================
 Subroutine PRICEL returns:
 Original cell was already a primitive cell.
 

 Routine SETGRP: Setting up the symmetry group for a 
 face centered cubic supercell.


 Subroutine GETGRP returns: Found 48 space group operations
 (whereof 12 operations were pure point group operations)
 out of a pool of 48 trial point group operations.


The static configuration has the point symmetry D_3d.
 The point group associated with its full space group is O_h .


Analysis of symmetry for dynamics (positions and initial velocities):
=====================================================================
 Subroutine PRICEL returns:
 Original cell was already a primitive cell.
 

 Routine SETGRP: Setting up the symmetry group for a 
 face centered cubic supercell.


 Subroutine GETGRP returns: Found 48 space group operations
 (whereof 12 operations were pure point group operations)
 out of a pool of 48 trial point group operations.


The dynamic configuration has the point symmetry D_3d.
 The point group associated with its full space group is O_h .


 Subroutine INISYM returns: Found 48 space group operations
 (whereof 12 operations are pure point group operations),
 and found     1 'primitive' translations


----------------------------------------------------------------------------------------

                                     Primitive cell                                     

  volume of cell :      46.2983

  direct lattice vectors                    reciprocal lattice vectors
     0.000000000  2.850000000  2.850000000    -0.175438596  0.175438596  0.175438596
     2.850000000  0.000000000  2.850000000     0.175438596 -0.175438596  0.175438596
     2.850000000  2.850000000  0.000000000     0.175438596  0.175438596 -0.175438596

  length of vectors
     4.030508653  4.030508653  4.030508653     0.303868563  0.303868563  0.303868563

  position of ions in fractional coordinates (direct lattice)
     0.875000000  0.875000000  0.875000000
     0.125000000  0.125000000  0.125000000

  ion indices of the primitive-cell ions
   primitive index   ion index
                 1           1
                 2           2

----------------------------------------------------------------------------------------

 
 
 KPOINTS: k-points                                

Automatic generation of k-mesh.
 Grid dimensions read from file:
 generate k-points for:   11   11   11

 Generating k-lattice:

  Cartesian coordinates                     Fractional coordinates (reciprocal lattice)
    -0.015948963  0.015948963  0.015948963     0.090909091 -0.000000000  0.000000000
     0.015948963 -0.015948963  0.015948963    -0.000000000  0.090909091 -0.000000000
     0.015948963  0.015948963 -0.015948963     0.000000000  0.000000000  0.090909091

  Length of vectors
     0.027624415  0.027624415  0.027624415

  Shift w.r.t. Gamma in fractional coordinates (k-lattice)
     0.000000000  0.000000000  0.000000000

 
 Subroutine IBZKPT returns following result:
 ===========================================
 
 Found     56 irreducible k-points:
 
 Following reciprocal coordinates:
            Coordinates               Weight
  0.000000  0.000000  0.000000      1.000000
  0.090909  0.000000 -0.000000      8.000000
  0.181818 -0.000000  0.000000      8.000000
  0.272727 -0.000000  0.000000      8.000000
  0.363636 -0.000000 -0.000000      8.000000
  0.454545  0.000000 -0.000000      8.000000
  0.090909  0.090909 -0.000000      6.000000
  0.181818  0.090909 -0.000000     24.000000
  0.272727  0.090909  0.000000     24.000000
  0.363636  0.090909  0.000000     24.000000
  0.454545  0.090909  0.000000     24.000000
 -0.454545  0.090909 -0.000000     24.000000
 -0.363636  0.090909  0.000000     24.000000
 -0.272727  0.090909  0.000000     24.000000
 -0.181818  0.090909 -0.000000     24.000000
 -0.090909  0.090909  0.000000     12.000000
  0.181818  0.181818 -0.000000      6.000000
  0.272727  0.181818 -0.000000     24.000000
  0.363636  0.181818 -0.000000     24.000000
  0.454545  0.181818  0.000000     24.000000
 -0.454545  0.181818 -0.000000     24.000000
 -0.363636  0.181818 -0.000000     24.000000
 -0.272727  0.181818  0.000000     24.000000
 -0.181818  0.181818 -0.000000     12.000000
  0.272727  0.272727 -0.000000      6.000000
  0.363636  0.272727 -0.000000     24.000000
  0.454545  0.272727 -0.000000     24.000000
 -0.454545  0.272727 -0.000000     24.000000
 -0.363636  0.272727 -0.000000     24.000000
 -0.272727  0.272727 -0.000000     12.000000
  0.363636  0.363636 -0.000000      6.000000
  0.454545  0.363636 -0.000000     24.000000
 -0.454545  0.363636  0.000000     24.000000
 -0.363636  0.363636 -0.000000     12.000000
  0.454545  0.454545 -0.000000      6.000000
 -0.454545  0.454545  0.000000     12.000000
  0.272727  0.181818  0.090909     24.000000
  0.363636  0.181818  0.090909     48.000000
  0.454545  0.181818  0.090909     48.000000
 -0.454545  0.181818  0.090909     48.000000
  0.363636  0.272727  0.090909     24.000000
  0.454545  0.272727  0.090909     48.000000
 -0.454545  0.272727  0.090909     48.000000
 -0.363636  0.272727  0.090909     48.000000
 -0.272727  0.272727  0.090909     48.000000
 -0.181818  0.272727  0.090909     24.000000
  0.454545  0.363636  0.090909     24.000000
 -0.454545  0.363636  0.090909     48.000000
 -0.363636  0.363636  0.090909     48.000000
 -0.272727  0.363636  0.090909     24.000000
 -0.454545  0.454545  0.090909     24.000000
 -0.363636  0.454545  0.090909     24.000000
 -0.454545  0.363636  0.181818     24.000000
 -0.363636  0.363636  0.181818     48.000000
 -0.363636  0.454545  0.181818     24.000000
 -0.272727  0.454545  0.181818     24.000000
 
 Following cartesian coordinates:
            Coordinates               Weight
  0.000000  0.000000  0.000000      1.000000
 -0.090909  0.090909  0.090909      8.000000
 -0.181818  0.181818  0.181818      8.000000
 -0.272727  0.272727  0.272727      8.000000
 -0.363636  0.363636  0.363636      8.000000
 -0.454545  0.454545  0.454545      8.000000
 -0.000000  0.000000  0.181818      6.000000
 -0.090909  0.090909  0.272727     24.000000
 -0.181818  0.181818  0.363636     24.000000
 -0.272727  0.272727  0.454545     24.000000
 -0.363636  0.363636  0.545455     24.000000
  0.545455 -0.545455 -0.363636     24.000000
  0.454545 -0.454545 -0.272727     24.000000
  0.363636 -0.363636 -0.181818     24.000000
  0.272727 -0.272727 -0.090909     24.000000
  0.181818 -0.181818 -0.000000     12.000000
  0.000000 -0.000000  0.363636      6.000000
 -0.090909  0.090909  0.454545     24.000000
 -0.181818  0.181818  0.545455     24.000000
 -0.272727  0.272727  0.636364     24.000000
  0.636364 -0.636364 -0.272727     24.000000
  0.545455 -0.545455 -0.181818     24.000000
  0.454545 -0.454545 -0.090909     24.000000
  0.363636 -0.363636  0.000000     12.000000
 -0.000000  0.000000  0.545455      6.000000
 -0.090909  0.090909  0.636364     24.000000
 -0.181818  0.181818  0.727273     24.000000
  0.727273 -0.727273 -0.181818     24.000000
  0.636364 -0.636364 -0.090909     24.000000
  0.545455 -0.545455  0.000000     12.000000
  0.000000 -0.000000  0.727273      6.000000
 -0.090909  0.090909  0.818182     24.000000
  0.818182 -0.818182 -0.090909     24.000000
  0.727273 -0.727273  0.000000     12.000000
  0.000000 -0.000000  0.909091      6.000000
  0.909091 -0.909091  0.000000     12.000000
 -0.000000  0.181818  0.363636     24.000000
 -0.090909  0.272727  0.454545     48.000000
 -0.181818  0.363636  0.545455     48.000000
  0.727273 -0.545455 -0.363636     48.000000
 -0.000000  0.181818  0.545455     24.000000
 -0.090909  0.272727  0.636364     48.000000
  0.818182 -0.636364 -0.272727     48.000000
  0.727273 -0.545455 -0.181818     48.000000
  0.636364 -0.454545 -0.090909     48.000000
  0.545455 -0.363636 -0.000000     24.000000
  0.000000  0.181818  0.727273     24.000000
  0.909091 -0.727273 -0.181818     48.000000
  0.818182 -0.636364 -0.090909     48.000000
  0.727273 -0.545455  0.000000     24.000000
  1.000000 -0.818182 -0.090909     24.000000
  0.909091 -0.727273 -0.000000     24.000000
  1.000000 -0.636364 -0.272727     24.000000
  0.909091 -0.545455 -0.181818     48.000000
  1.000000 -0.636364 -0.090909     24.000000
  0.909091 -0.545455  0.000000     24.000000
 


--------------------------------------------------------------------------------------------------------




 Dimension of arrays:
   k-points           NKPTS =     56   k-points in BZ     NKDIM =     56   number of bands    NBANDS=      8
   number of dos      NEDOS =    301   number of ions     NIONS =      2
   non local maximal  LDIM  =      4   non local SUM 2l+1 LMDIM =      8
   total plane-waves  NPLWV =   4096
   max r-space proj   IRMAX =      1   max aug-charges    IRDMAX=   3157
   dimension x,y,z NGX =    16 NGY =   16 NGZ =   16
   dimension x,y,z NGXF=    32 NGYF=   32 NGZF=   32
   support grid    NGXF=    32 NGYF=   32 NGZF=   32
   ions per type =               2
   NGX,Y,Z   is equivalent  to a cutoff of   6.60,  6.60,  6.60 a.u.
   NGXF,Y,Z  is equivalent  to a cutoff of  13.20, 13.20, 13.20 a.u.

 SYSTEM =  diamond Si                              
 POSCAR =  cubic diamond Si                        

 Startparameter for this run:
   NWRITE =      2    write-flag & timer
   PREC   = normal    normal or accurate (medium, high low for compatibility)
   ISTART =      0    job   : 0-new  1-cont  2-samecut
   ICHARG =      2    charge: 1-file 2-atom 10-const
   ISPIN  =      1    spin polarized calculation?
   LNONCOLLINEAR =      F non collinear calculations
   LSORBIT =      F    spin-orbit coupling
   INIWAV =      1    electr: 0-lowe 1-rand  2-diag
   LASPH  =      F    aspherical Exc in radial PAW
 Electronic Relaxation 1
   ENCUT  =  240.0 eV  17.64 Ry    4.20 a.u.   5.09  5.09  5.09*2*pi/ulx,y,z
   ENINI  =  240.0     initial cutoff
   ENAUG  =  322.1 eV  augmentation charge cutoff
   NELM   =     60;   NELMIN=  2; NELMDL= -5     # of ELM steps 
   EDIFF  = 0.1E-03   stopping-criterion for ELM
   LREAL  =      F    real-space projection
   NLSPLINE    = F    spline interpolate recip. space projectors
   LCOMPAT=      F    compatible to vasp.4.4
   GGA_COMPAT  = T    GGA compatible to vasp.4.4-vasp.4.6
   LMAXPAW     = -100 max onsite density
   LMAXMIX     =    2 max onsite mixed and CHGCAR
   VOSKOWN=      0    Vosko Wilk Nusair interpolation
   ROPT   =    0.00000
 Ionic relaxation
   EDIFFG = 0.1E-02   stopping-criterion for IOM
   NSW    =      0    number of steps for IOM
   NBLOCK =      1;   KBLOCK =      1    inner block; outer block 
   IBRION =     -1    ionic relax: 0-MD 1-quasi-New 2-CG
   NFREE  =      0    steps in history (QN), initial steepest desc. (CG)
   ISIF   =      2    stress and relaxation
   IWAVPR =     10    prediction:  0-non 1-charg 2-wave 3-comb
   ISYM   =      2    0-nonsym 1-usesym 2-fastsym
   LCORR  =      T    Harris-Foulkes like correction to forces

   POTIM  = 0.5000    time-step for ionic-motion
   TEIN   =    0.0    initial temperature
   TEBEG  =    0.0;   TEEND  =   0.0 temperature during run
   SMASS  =  -3.00    Nose mass-parameter (am)
   estimated Nose-frequenzy (Omega)   =  0.10E-29 period in steps = 0.13E+47 mass=  -0.371E-27a.u.
   SCALEE = 1.0000    scale energy and forces
   NPACO  =    256;   APACO  = 10.0  distance and # of slots for P.C.
   PSTRESS=    0.0 pullay stress

  Mass of Ions in am
   POMASS =  28.09
  Ionic Valenz
   ZVAL   =   4.00
  Atomic Wigner-Seitz radii
   RWIGS  =  -1.00
  virtual crystal weights 
   VCA    =   1.00
   NELECT =       8.0000    total number of electrons
   NUPDOWN=      -1.0000    fix difference up-down

 DOS related values:
   EMIN   =  10.00;   EMAX   =-10.00  energy-range for DOS
   EFERMI =   0.00
   ISMEAR =     0;   SIGMA  =   0.10  broadening in eV -4-tet -1-fermi 0-gaus

 Electronic relaxation 2 (details)
   IALGO  =     38    algorithm
   LDIAG  =      T    sub-space diagonalisation (order eigenvalues)
   LSUBROT=      F    optimize rotation matrix (better conditioning)
   TURBO    =      0    0=normal 1=particle mesh
   IRESTART =      0    0=no restart 2=restart with 2 vectors
   NREBOOT  =      0    no. of reboots
   NMIN     =      0    reboot dimension
   EREF     =   0.00    reference energy to select bands
   IMIX   =      4    mixing-type and parameters
     AMIX     =   0.40;   BMIX     =  1.00
     AMIX_MAG =   1.60;   BMIX_MAG =  1.00
     AMIN     =   0.10
     WC   =   100.;   INIMIX=   1;  MIXPRE=   1;  MAXMIX= -45

 Intra band minimization:
   WEIMIN = 0.0000     energy-eigenvalue tresh-hold
   EBREAK =  0.31E-05  absolut break condition
   DEPER  =   0.30     relativ break condition  

   TIME   =   0.40     timestep for ELM

  volume/ion in A,a.u.               =      23.15       156.22
  Fermi-wavevector in a.u.,A,eV,Ry     =   0.911836  1.723120 11.312489  0.831445
  Thomas-Fermi vector in A             =   2.036161
 
 Write flags
   LWAVE        =      T    write WAVECAR
   LDOWNSAMPLE  =      F    k-point downsampling of WAVECAR
   LCHARG       =      T    write CHGCAR
   LVTOT        =      F    write LOCPOT, total local potential
   LVHAR        =      F    write LOCPOT, Hartree potential only
   LELF         =      F    write electronic localiz. function (ELF)
   LORBIT       =      0    0 simple, 1 ext, 2 COOP (PROOUT), +10 PAW based schemes


 Dipole corrections
   LMONO  =      F    monopole corrections only (constant potential shift)
   LDIPOL =      F    correct potential (dipole corrections)
   IDIPOL =      0    1-x, 2-y, 3-z, 4-all directions 
   EPSILON=  1.0000000 bulk dielectric constant

 Exchange correlation treatment:
   GGA     =    --    GGA type
   LEXCH   =     8    internal setting for exchange type
   LIBXC   =     F    Libxc                    
   VOSKOWN =     0    Vosko Wilk Nusair interpolation
   LHFCALC =     F    Hartree Fock is set to
   LHFONE  =     F    Hartree Fock one center treatment
   AEXX    =    0.0000 exact exchange contribution

 Linear response parameters
   LEPSILON=     F    determine dielectric tensor
   LRPA    =     F    only Hartree local field effects (RPA)
   LNABLA  =     F    use nabla operator in PAW spheres
   LVEL    =     F    velocity operator in full k-point grid
   CSHIFT  =0.1000    complex shift for real part using Kramers Kronig
   OMEGAMAX=  -1.0    maximum frequency
   DEG_THRESHOLD= 0.2000000E-02 threshold for treating states as degnerate
   RTIME   =   -0.100 relaxation time in fs
  (WPLASMAI=    0.000 imaginary part of plasma frequency in eV, 0.658/RTIME)
   DFIELD  = 0.0000000 0.0000000 0.0000000 field for delta impulse in time
 
  Optional k-point grid parameters
   LKPOINTS_OPT  =     F    use optional k-point grid
   KPOINTS_OPT_MODE=     1    mode for optional k-point grid
 
 Orbital magnetization related:
   ORBITALMAG=     F  switch on orbital magnetization
   LCHIMAG   =     F  perturbation theory with respect to B field
   DQ        =  0.001000  dq finite difference perturbation B field
   LLRAUG    =     F  two centre corrections for induced B field



--------------------------------------------------------------------------------------------------------


 Static calculation
 charge density and potential will be updated during run
 non-spin polarized calculation
 Variant of blocked Davidson
 Davidson routine will perform the subspace rotation
 perform sub-space diagonalisation
    after iterative eigenvector-optimisation
 modified Broyden-mixing scheme, WC =      100.0
 initial mixing is a Kerker type mixing with AMIX =  0.4000 and BMIX =      1.0000
 Hartree-type preconditioning will be used
 using additional bands            4
 reciprocal scheme for non local part
 use partial core corrections
 calculate Harris-corrections to forces 
   (improved forces if not selfconsistent)
 use gradient corrections 
 use of overlap-Matrix (Vanderbilt PP)
 Gauss-broadening in eV      SIGMA  =   0.10


--------------------------------------------------------------------------------------------------------


  energy-cutoff  :      240.00
  volume of cell :       46.30
      direct lattice vectors                 reciprocal lattice vectors
     0.000000000  2.850000000  2.850000000    -0.175438596  0.175438596  0.175438596
     2.850000000  0.000000000  2.850000000     0.175438596 -0.175438596  0.175438596
     2.850000000  2.850000000  0.000000000     0.175438596  0.175438596 -0.175438596

  length of vectors
     4.030508653  4.030508653  4.030508653     0.303868563  0.303868563  0.303868563


 
 k-points in units of 2pi/SCALE and weight: k-points                                
   0.00000000  0.00000000  0.00000000       0.001
  -0.09090909  0.09090909  0.09090909       0.006
  -0.18181818  0.18181818  0.18181818       0.006
  -0.27272727  0.27272727  0.27272727       0.006
  -0.36363636  0.36363636  0.36363636       0.006
  -0.45454545  0.45454545  0.45454545       0.006
  -0.00000000  0.00000000  0.18181818       0.005
  -0.09090909  0.09090909  0.27272727       0.018
  -0.18181818  0.18181818  0.36363636       0.018
  -0.27272727  0.27272727  0.45454545       0.018
  -0.36363636  0.36363636  0.54545455       0.018
   0.54545455 -0.54545455 -0.36363636       0.018
   0.45454545 -0.45454545 -0.27272727       0.018
   0.36363636 -0.36363636 -0.18181818       0.018
   0.27272727 -0.27272727 -0.09090909       0.018
   0.18181818 -0.18181818 -0.00000000       0.009
   0.00000000 -0.00000000  0.36363636       0.005
  -0.09090909  0.09090909  0.45454545       0.018
  -0.18181818  0.18181818  0.54545455       0.018
  -0.27272727  0.27272727  0.63636364       0.018
   0.63636364 -0.63636364 -0.27272727       0.018
   0.54545455 -0.54545455 -0.18181818       0.018
   0.45454545 -0.45454545 -0.09090909       0.018
   0.36363636 -0.36363636  0.00000000       0.009
  -0.00000000  0.00000000  0.54545455       0.005
  -0.09090909  0.09090909  0.63636364       0.018
  -0.18181818  0.18181818  0.72727273       0.018
   0.72727273 -0.72727273 -0.18181818       0.018
   0.63636364 -0.63636364 -0.09090909       0.018
   0.54545455 -0.54545455  0.00000000       0.009
   0.00000000 -0.00000000  0.72727273       0.005
  -0.09090909  0.09090909  0.81818182       0.018
   0.81818182 -0.81818182 -0.09090909       0.018
   0.72727273 -0.72727273  0.00000000       0.009
   0.00000000 -0.00000000  0.90909091       0.005
   0.90909091 -0.90909091  0.00000000       0.009
  -0.00000000  0.18181818  0.36363636       0.018
  -0.09090909  0.27272727  0.45454545       0.036
  -0.18181818  0.36363636  0.54545455       0.036
   0.72727273 -0.54545455 -0.36363636       0.036
  -0.00000000  0.18181818  0.54545455       0.018
  -0.09090909  0.27272727  0.63636364       0.036
   0.81818182 -0.63636364 -0.27272727       0.036
   0.72727273 -0.54545455 -0.18181818       0.036
   0.63636364 -0.45454545 -0.09090909       0.036
   0.54545455 -0.36363636 -0.00000000       0.018
   0.00000000  0.18181818  0.72727273       0.018
   0.90909091 -0.72727273 -0.18181818       0.036
   0.81818182 -0.63636364 -0.09090909       0.036
   0.72727273 -0.54545455  0.00000000       0.018
   1.00000000 -0.81818182 -0.09090909       0.018
   0.90909091 -0.72727273 -0.00000000       0.018
   1.00000000 -0.63636364 -0.27272727       0.018
   0.90909091 -0.54545455 -0.18181818       0.036
   1.00000000 -0.63636364 -0.09090909       0.018
   0.90909091 -0.54545455  0.00000000       0.018
 
 k-points in reciprocal lattice and weights: k-points                                
   0.00000000  0.00000000  0.00000000       0.001
   0.09090909  0.00000000 -0.00000000       0.006
   0.18181818 -0.00000000  0.00000000       0.006
   0.27272727 -0.00000000  0.00000000       0.006
   0.36363636 -0.00000000 -0.00000000       0.006
   0.45454545  0.00000000 -0.00000000       0.006
   0.09090909  0.09090909 -0.00000000       0.005
   0.18181818  0.09090909 -0.00000000       0.018
   0.27272727  0.09090909  0.00000000       0.018
   0.36363636  0.09090909  0.00000000       0.018
   0.45454545  0.09090909  0.00000000       0.018
  -0.45454545  0.09090909 -0.00000000       0.018
  -0.36363636  0.09090909  0.00000000       0.018
  -0.27272727  0.09090909  0.00000000       0.018
  -0.18181818  0.09090909 -0.00000000       0.018
  -0.09090909  0.09090909  0.00000000       0.009
   0.18181818  0.18181818 -0.00000000       0.005
   0.27272727  0.18181818 -0.00000000       0.018
   0.36363636  0.18181818 -0.00000000       0.018
   0.45454545  0.18181818  0.00000000       0.018
  -0.45454545  0.18181818 -0.00000000       0.018
  -0.36363636  0.18181818 -0.00000000       0.018
  -0.27272727  0.18181818  0.00000000       0.018
  -0.18181818  0.18181818 -0.00000000       0.009
   0.27272727  0.27272727 -0.00000000       0.005
   0.36363636  0.27272727 -0.00000000       0.018
   0.45454545  0.27272727 -0.00000000       0.018
  -0.45454545  0.27272727 -0.00000000       0.018
  -0.36363636  0.27272727 -0.00000000       0.018
  -0.27272727  0.27272727 -0.00000000       0.009
   0.36363636  0.36363636 -0.00000000       0.005
   0.45454545  0.36363636 -0.00000000       0.018
  -0.45454545  0.36363636  0.00000000       0.018
  -0.36363636  0.36363636 -0.00000000       0.009
   0.45454545  0.45454545 -0.00000000       0.005
  -0.45454545  0.45454545  0.00000000       0.009
   0.27272727  0.18181818  0.09090909       0.018
   0.36363636  0.18181818  0.09090909       0.036
   0.45454545  0.18181818  0.09090909       0.036
  -0.45454545  0.18181818  0.09090909       0.036
   0.36363636  0.27272727  0.09090909       0.018
   0.45454545  0.27272727  0.09090909       0.036
  -0.45454545  0.27272727  0.09090909       0.036
  -0.36363636  0.27272727  0.09090909       0.036
  -0.27272727  0.27272727  0.09090909       0.036
  -0.18181818  0.27272727  0.09090909       0.018
   0.45454545  0.36363636  0.09090909       0.018
  -0.45454545  0.36363636  0.09090909       0.036
  -0.36363636  0.36363636  0.09090909       0.036
  -0.27272727  0.36363636  0.09090909       0.018
  -0.45454545  0.45454545  0.09090909       0.018
  -0.36363636  0.45454545  0.09090909       0.018
  -0.45454545  0.36363636  0.18181818       0.018
  -0.36363636  0.36363636  0.18181818       0.036
  -0.36363636  0.45454545  0.18181818       0.018
  -0.27272727  0.45454545  0.18181818       0.018
 
 position of ions in fractional coordinates (direct lattice) 
   0.87500000  0.87500000  0.87500000
   0.12500000  0.12500000  0.12500000
 
 position of ions in cartesian coordinates  (Angst):
   4.98750000  4.98750000  4.98750000
   0.71250000  0.71250000  0.71250000
 


--------------------------------------------------------------------------------------------------------


 k-point   1 :   0.0000 0.0000 0.0000  plane waves:     387
 k-point   2 :   0.0909 0.0000-0.0000  plane waves:     381
 k-point   3 :   0.1818-0.0000 0.0000  plane waves:     386
 k-point   4 :   0.2727-0.0000 0.0000  plane waves:     386
 k-point   5 :   0.3636-0.0000-0.0000  plane waves:     395
 k-point   6 :   0.4545 0.0000-0.0000  plane waves:     392
 k-point   7 :   0.0909 0.0909-0.0000  plane waves:     383
 k-point   8 :   0.1818 0.0909-0.0000  plane waves:     381
 k-point   9 :   0.2727 0.0909 0.0000  plane waves:     384
 k-point  10 :   0.3636 0.0909 0.0000  plane waves:     384
 k-point  11 :   0.4545 0.0909 0.0000  plane waves:     389
 k-point  12 :  -0.4545 0.0909-0.0000  plane waves:     391
 k-point  13 :  -0.3636 0.0909 0.0000  plane waves:     390
 k-point  14 :  -0.2727 0.0909 0.0000  plane waves:     388
 k-point  15 :  -0.1818 0.0909-0.0000  plane waves:     385
 k-point  16 :  -0.0909 0.0909 0.0000  plane waves:     381
 k-point  17 :   0.1818 0.1818-0.0000  plane waves:     379
 k-point  18 :   0.2727 0.1818-0.0000  plane waves:     382
 k-point  19 :   0.3636 0.1818-0.0000  plane waves:     389
 k-point  20 :   0.4545 0.1818 0.0000  plane waves:     391
 k-point  21 :  -0.4545 0.1818-0.0000  plane waves:     393
 k-point  22 :  -0.3636 0.1818-0.0000  plane waves:     388
 k-point  23 :  -0.2727 0.1818 0.0000  plane waves:     393
 k-point  24 :  -0.1818 0.1818-0.0000  plane waves:     385
 k-point  25 :   0.2727 0.2727-0.0000  plane waves:     383
 k-point  26 :   0.3636 0.2727-0.0000  plane waves:     392
 k-point  27 :   0.4545 0.2727-0.0000  plane waves:     392
 k-point  28 :  -0.4545 0.2727-0.0000  plane waves:     393
 k-point  29 :  -0.3636 0.2727-0.0000  plane waves:     394
 k-point  30 :  -0.2727 0.2727-0.0000  plane waves:     395
 k-point  31 :   0.3636 0.3636-0.0000  plane waves:     387
 k-point  32 :   0.4545 0.3636-0.0000  plane waves:     393
 k-point  33 :  -0.4545 0.3636 0.0000  plane waves:     392
 k-point  34 :  -0.3636 0.3636-0.0000  plane waves:     391
 k-point  35 :   0.4545 0.4545-0.0000  plane waves:     392
 k-point  36 :  -0.4545 0.4545 0.0000  plane waves:     392
 k-point  37 :   0.2727 0.1818 0.0909  plane waves:     381
 k-point  38 :   0.3636 0.1818 0.0909  plane waves:     387
 k-point  39 :   0.4545 0.1818 0.0909  plane waves:     392
 k-point  40 :  -0.4545 0.1818 0.0909  plane waves:     390
 k-point  41 :   0.3636 0.2727 0.0909  plane waves:     389
 k-point  42 :   0.4545 0.2727 0.0909  plane waves:     395
 k-point  43 :  -0.4545 0.2727 0.0909  plane waves:     392
 k-point  44 :  -0.3636 0.2727 0.0909  plane waves:     390
 k-point  45 :  -0.2727 0.2727 0.0909  plane waves:     392
 k-point  46 :  -0.1818 0.2727 0.0909  plane waves:     396
 k-point  47 :   0.4545 0.3636 0.0909  plane waves:     393
 k-point  48 :  -0.4545 0.3636 0.0909  plane waves:     396
 k-point  49 :  -0.3636 0.3636 0.0909  plane waves:     387
 k-point  50 :  -0.2727 0.3636 0.0909  plane waves:     394
 k-point  51 :  -0.4545 0.4545 0.0909  plane waves:     393
 k-point  52 :  -0.3636 0.4545 0.0909  plane waves:     385
 k-point  53 :  -0.4545 0.3636 0.1818  plane waves:     397
 k-point  54 :  -0.3636 0.3636 0.1818  plane waves:     395
 k-point  55 :  -0.3636 0.4545 0.1818  plane waves:     393
 k-point  56 :  -0.2727 0.4545 0.1818  plane waves:     390

 maximum and minimum number of plane-waves per node :       397      379

 maximum number of plane-waves:       397
 maximum index in each direction: 
   IXMAX=    5   IYMAX=    5   IZMAX=    5
   IXMIN=   -5   IYMIN=   -5   IZMIN=   -5


 serial   3D FFT for wavefunctions
 parallel 3D FFT for charge:
    minimum data exchange during FFTs selected (reduces bandwidth)


 total amount of memory used by VASP MPI-rank0    33076. kBytes
=======================================================================

   base      :      30000. kBytes
   nonl-proj :       1446. kBytes
   fftplans  :        302. kBytes
   grid      :        577. kBytes
   one-center:          6. kBytes
   wavefun   :        745. kBytes
 
     INWAV:  cpu time      0.0000: real time      0.0001
 Broyden mixing: mesh for mixing (old mesh)
   NGX = 11   NGY = 11   NGZ = 11
  (NGX  = 32   NGY  = 32   NGZ  = 32)
  gives a total of   1331 points

 initial charge density was supplied:
 charge density of overlapping atoms calculated
 number of electron       8.0000000 magnetization 
 keeping initial charge density in first step


--------------------------------------------------------------------------------------------------------


 Maximum index for augmentation-charges          733 (set IRDMAX)


--------------------------------------------------------------------------------------------------------


 First call to EWALD:  gamma=   0.494
 Maximum number of real-space cells 3x 3x 3
 Maximum number of reciprocal cells 3x 3x 3

    FEWALD:  cpu time      0.0015: real time      0.0015


--------------------------------------- Iteration      1(   1)  ---------------------------------------


    POTLOK:  cpu time      0.0042: real time      0.0044
    SETDIJ:  cpu time      0.0013: real time      0.0013
     EDDAV:  cpu time      0.0734: real time      0.0736
       DOS:  cpu time      0.0007: real time      0.0007
    --------------------------------------------
      LOOP:  cpu time      0.0796: real time      0.0801

 eigenvalue-minimisations  :   904
 total energy-change (2. order) :-0.1929981E+01  (-0.2015729E+03)
 number of electron       8.0000000 magnetization 
 augmentation part        8.0000000 magnetization 

 Free energy of the ion-electron system (eV)
  ---------------------------------------------------
  alpha Z        PSCENC =         2.90837177
  Ewald energy   TEWEN  =      -217.73683164
  -Hartree energ DENC   =       -13.29386202
  -exchange      EXHF   =         0.00000000
  -V(xc)+E(xc)   XCENC  =       -19.14854751
  PAW double counting   =       176.24759923     -141.06103558
  entropy T*S    EENTRO =        -0.00081670
  eigenvalues    EBANDS =         4.03358796
  atomic energy  EATOM  =       206.12155316
  Solvation  Ediel_sol  =         0.00000000
  ---------------------------------------------------
  free energy    TOTEN  =        -1.92998133 eV

  energy without entropy =       -1.92916464  energy(sigma->0) =       -1.92957299


--------------------------------------------------------------------------------------------------------




--------------------------------------- Iteration      1(   2)  ---------------------------------------


     EDDAV:  cpu time      0.1137: real time      0.1141
       DOS:  cpu time      0.0005: real time      0.0005
    --------------------------------------------
      LOOP:  cpu time      0.1142: real time      0.1146

 eigenvalue-minimisations  :  1400
 total energy-change (2. order) :-0.8756887E+01  (-0.8534075E+01)
 number of electron       8.0000000 magnetization 
 augmentation part        8.0000000 magnetization 

 Free energy of the ion-electron system (eV)
  ---------------------------------------------------
  alpha Z        PSCENC =         2.90837177
  Ewald energy   TEWEN  =      -217.73683164
  -Hartree energ DENC   =       -13.29386202
  -exchange      EXHF   =         0.00000000
  -V(xc)+E(xc)   XCENC  =       -19.14854751
  PAW double counting   =       176.24759923     -141.06103558
  entropy T*S    EENTRO =        -0.00000000
  eigenvalues    EBANDS =        -4.72411580
  atomic energy  EATOM  =       206.12155316
  Solvation  Ediel_sol  =         0.00000000
  ---------------------------------------------------
  free energy    TOTEN  =       -10.68686839 eV

  energy without entropy =      -10.68686839  energy(sigma->0) =      -10.68686839


--------------------------------------------------------------------------------------------------------




--------------------------------------- Iteration      1(   3)  ---------------------------------------


     EDDAV:  cpu time      0.0892: real time      0.0896
       DOS:  cpu time      0.0005: real time      0.0005
    --------------------------------------------
      LOOP:  cpu time      0.0897: real time      0.0900

 eigenvalue-minimisations  :  1128
 total energy-change (2. order) :-0.9374943E-01  (-0.9374943E-01)
 number of electron       8.0000000 magnetization 
 augmentation part        8.0000000 magnetization 

 Free energy of the ion-electron system (eV)
  ---------------------------------------------------
  alpha Z        PSCENC =         2.90837177
  Ewald energy   TEWEN  =      -217.73683164
  -Hartree energ DENC   =       -13.29386202
  -exchange      EXHF   =         0.00000000
  -V(xc)+E(xc)   XCENC  =       -19.14854751
  PAW double counting   =       176.24759923     -141.06103558
  entropy T*S    EENTRO =        -0.00000000
  eigenvalues    EBANDS =        -4.81786523
  atomic energy  EATOM  =       206.12155316
  Solvation  Ediel_sol  =         0.00000000
  ---------------------------------------------------
  free energy    TOTEN  =       -10.78061783 eV

  energy without entropy =      -10.78061783  energy(sigma->0) =      -10.78061783


--------------------------------------------------------------------------------------------------------




--------------------------------------- Iteration      1(   4)  ---------------------------------------


     EDDAV:  cpu time      0.1154: real time      0.1162
       DOS:  cpu time      0.0005: real time      0.0005
    --------------------------------------------
      LOOP:  cpu time      0.1159: real time      0.1167

 eigenvalue-minimisations  :  1424
 total energy-change (2. order) :-0.3515335E-03  (-0.3515338E-03)
 number of electron       8.0000000 magnetization 
 augmentation part        8.0000000 magnetization 

 Free energy of the ion-electron system (eV)
  ---------------------------------------------------
  alpha Z        PSCENC =         2.90837177
  Ewald energy   TEWEN  =      -217.73683164
  -Hartree energ DENC   =       -13.29386202
  -exchange      EXHF   =         0.00000000
  -V(xc)+E(xc)   XCENC  =       -19.14854751
  PAW double counting   =       176.24759923     -141.06103558
  entropy T*S    EENTRO =        -0.00000000
  eigenvalues    EBANDS =        -4.81821676
  atomic energy  EATOM  =       206.12155316
  Solvation  Ediel_sol  =         0.00000000
  ---------------------------------------------------
  free energy    TOTEN  =       -10.78096936 eV

  energy without entropy =      -10.78096936  energy(sigma->0) =      -10.78096936


--------------------------------------------------------------------------------------------------------




--------------------------------------- Iteration      1(   5)  ---------------------------------------


     EDDAV:  cpu time      0.0907: real time      0.0911
       DOS:  cpu time      0.0005: real time      0.0005
    CHARGE:  cpu time      0.0031: real time      0.0031
    MIXING:  cpu time      0.0005: real time      0.0005
    --------------------------------------------
      LOOP:  cpu time      0.0948: real time      0.0951

 eigenvalue-minimisations  :  1152
 total energy-change (2. order) :-0.2089302E-06  (-0.2089241E-06)
 number of electron       8.0000009 magnetization 
 augmentation part       -0.4645387 magnetization 

 Broyden mixing:
  rms(total) = 0.44803E+00    rms(broyden)= 0.44802E+00
  rms(prec ) = 0.82227E+00
  weight for this iteration     100.00

 Free energy of the ion-electron system (eV)
  ---------------------------------------------------
  alpha Z        PSCENC =         2.90837177
  Ewald energy   TEWEN  =      -217.73683164
  -Hartree energ DENC   =       -13.29386202
  -exchange      EXHF   =         0.00000000
  -V(xc)+E(xc)   XCENC  =       -19.14854751
  PAW double counting   =       176.24759923     -141.06103558
  entropy T*S    EENTRO =        -0.00000000
  eigenvalues    EBANDS =        -4.81821697
  atomic energy  EATOM  =       206.12155316
  Solvation  Ediel_sol  =         0.00000000
  ---------------------------------------------------
  free energy    TOTEN  =       -10.78096957 eV

  energy without entropy =      -10.78096957  energy(sigma->0) =      -10.78096957


--------------------------------------------------------------------------------------------------------




--------------------------------------- Iteration      1(   6)  ---------------------------------------


    POTLOK:  cpu time      0.0036: real time      0.0037
    SETDIJ:  cpu time      0.0011: real time      0.0011
     EDDAV:  cpu time      0.0778: real time      0.0780
       DOS:  cpu time      0.0005: real time      0.0005
    CHARGE:  cpu time      0.0028: real time      0.0029
    MIXING:  cpu time      0.0004: real time      0.0004
    --------------------------------------------
      LOOP:  cpu time      0.0863: real time      0.0866

 eigenvalue-minimisations  :  1024
 total energy-change (2. order) : 0.7161177E-01  (-0.4148208E-02)
 number of electron       8.0000009 magnetization 
 augmentation part       -0.4607163 magnetization 

 Broyden mixing:
  rms(total) = 0.27097E+00    rms(broyden)= 0.27097E+00
  rms(prec ) = 0.49719E+00
  weight for this iteration     100.00

 eigenvalues of (default mixing * dielectric matrix)
  average eigenvalue GAMMA=   2.5244
  2.5244

 Free energy of the ion-electron system (eV)
  ---------------------------------------------------
  alpha Z        PSCENC =         2.90837177
  Ewald energy   TEWEN  =      -217.73683164
  -Hartree energ DENC   =       -14.53565898
  -exchange      EXHF   =         0.00000000
  -V(xc)+E(xc)   XCENC  =       -18.95235056
  PAW double counting   =       358.71300840     -323.58892907
  entropy T*S    EENTRO =        -0.00000000
  eigenvalues    EBANDS =        -3.63852087
  atomic energy  EATOM  =       206.12155316
  Solvation  Ediel_sol  =         0.00000000
  ---------------------------------------------------
  free energy    TOTEN  =       -10.70935780 eV

  energy without entropy =      -10.70935780  energy(sigma->0) =      -10.70935780


--------------------------------------------------------------------------------------------------------




--------------------------------------- Iteration      1(   7)  ---------------------------------------


    POTLOK:  cpu time      0.0036: real time      0.0037
    SETDIJ:  cpu time      0.0011: real time      0.0011
     EDDAV:  cpu time      0.0831: real time      0.0833
       DOS:  cpu time      0.0005: real time      0.0005
    CHARGE:  cpu time      0.0029: real time      0.0029
    MIXING:  cpu time      0.0003: real time      0.0003
    --------------------------------------------
      LOOP:  cpu time      0.0915: real time      0.0918

 eigenvalue-minimisations  :  1104
 total energy-change (2. order) : 0.3720359E-01  (-0.9004161E-02)
 number of electron       8.0000009 magnetization 
 augmentation part       -0.4562056 magnetization 

 Broyden mixing:
  rms(total) = 0.14677E-01    rms(broyden)= 0.14677E-01
  rms(prec ) = 0.32245E-01
  weight for this iteration     100.00

 eigenvalues of (default mixing * dielectric matrix)
  average eigenvalue GAMMA=   1.9931
  1.6065  2.3797

 Free energy of the ion-electron system (eV)
  ---------------------------------------------------
  alpha Z        PSCENC =         2.90837177
  Ewald energy   TEWEN  =      -217.73683164
  -Hartree energ DENC   =       -16.67485878
  -exchange      EXHF   =         0.00000000
  -V(xc)+E(xc)   XCENC  =       -18.60917306
  PAW double counting   =       787.18415543     -752.13883734
  entropy T*S    EENTRO =        -0.00000000
  eigenvalues    EBANDS =        -1.72653374
  atomic energy  EATOM  =       206.12155316
  Solvation  Ediel_sol  =         0.00000000
  ---------------------------------------------------
  free energy    TOTEN  =       -10.67215421 eV

  energy without entropy =      -10.67215421  energy(sigma->0) =      -10.67215421


--------------------------------------------------------------------------------------------------------




--------------------------------------- Iteration      1(   8)  ---------------------------------------


    POTLOK:  cpu time      0.0037: real time      0.0038
    SETDIJ:  cpu time      0.0011: real time      0.0011
     EDDAV:  cpu time      0.0728: real time      0.0730
       DOS:  cpu time      0.0005: real time      0.0005
    CHARGE:  cpu time      0.0029: real time      0.0029
    MIXING:  cpu time      0.0004: real time      0.0004
    --------------------------------------------
      LOOP:  cpu time      0.0813: real time      0.0816

 eigenvalue-minimisations  :   968
 total energy-change (2. order) :-0.1218348E-02  (-0.2523952E-03)
 number of electron       8.0000009 magnetization 
 augmentation part       -0.4569194 magnetization 

 Broyden mixing:
  rms(total) = 0.69410E-02    rms(broyden)= 0.69409E-02
  rms(prec ) = 0.12942E-01
  weight for this iteration     100.00

 eigenvalues of (default mixing * dielectric matrix)
  average eigenvalue GAMMA=   2.2291
  1.5497  2.8767  2.2609

 Free energy of the ion-electron system (eV)
  ---------------------------------------------------
  alpha Z        PSCENC =         2.90837177
  Ewald energy   TEWEN  =      -217.73683164
  -Hartree energ DENC   =       -16.62641745
  -exchange      EXHF   =         0.00000000
  -V(xc)+E(xc)   XCENC  =       -18.61169993
  PAW double counting   =       767.50880278     -732.44290787
  entropy T*S    EENTRO =        -0.00000000
  eigenvalues    EBANDS =        -1.79424336
  atomic energy  EATOM  =       206.12155316
  Solvation  Ediel_sol  =         0.00000000
  ---------------------------------------------------
  free energy    TOTEN  =       -10.67337255 eV

  energy without entropy =      -10.67337255  energy(sigma->0) =      -10.67337255


--------------------------------------------------------------------------------------------------------




--------------------------------------- Iteration      1(   9)  ---------------------------------------


    POTLOK:  cpu time      0.0037: real time      0.0038
    SETDIJ:  cpu time      0.0011: real time      0.0011
     EDDAV:  cpu time      0.0931: real time      0.0934
       DOS:  cpu time      0.0005: real time      0.0005
    CHARGE:  cpu time      0.0029: real time      0.0029
    MIXING:  cpu time      0.0003: real time      0.0003
    --------------------------------------------
      LOOP:  cpu time      0.1016: real time      0.1020

 eigenvalue-minimisations  :  1216
 total energy-change (2. order) :-0.2403434E-03  (-0.2749498E-04)
 number of electron       8.0000009 magnetization 
 augmentation part       -0.4570266 magnetization 

 Broyden mixing:
  rms(total) = 0.44430E-02    rms(broyden)= 0.44429E-02
  rms(prec ) = 0.53583E-02
  weight for this iteration     100.00

 eigenvalues of (default mixing * dielectric matrix)
  average eigenvalue GAMMA=   2.1378
  0.9931  2.7626  2.6401  2.1553

 Free energy of the ion-electron system (eV)
  ---------------------------------------------------
  alpha Z        PSCENC =         2.90837177
  Ewald energy   TEWEN  =      -217.73683164
  -Hartree energ DENC   =       -16.67942209
  -exchange      EXHF   =         0.00000000
  -V(xc)+E(xc)   XCENC  =       -18.60284523
  PAW double counting   =       765.54574558     -730.47656753
  entropy T*S    EENTRO =        -0.00000000
  eigenvalues    EBANDS =        -1.75361692
  atomic energy  EATOM  =       206.12155316
  Solvation  Ediel_sol  =         0.00000000
  ---------------------------------------------------
  free energy    TOTEN  =       -10.67361290 eV

  energy without entropy =      -10.67361290  energy(sigma->0) =      -10.67361290


--------------------------------------------------------------------------------------------------------




--------------------------------------- Iteration      1(  10)  ---------------------------------------


    POTLOK:  cpu time      0.0037: real time      0.0038
    SETDIJ:  cpu time      0.0011: real time      0.0011
     EDDAV:  cpu time      0.0427: real time      0.0428
       DOS:  cpu time      0.0005: real time      0.0005
    --------------------------------------------
      LOOP:  cpu time      0.0480: real time      0.0482

 eigenvalue-minimisations  :   496
 total energy-change (2. order) :-0.1688507E-04  (-0.1896213E-05)
 number of electron       8.0000009 magnetization 
 augmentation part       -0.4570266 magnetization 

 Free energy of the ion-electron system (eV)
  ---------------------------------------------------
  alpha Z        PSCENC =         2.90837177
  Ewald energy   TEWEN  =      -217.73683164
  -Hartree energ DENC   =       -16.68916258
  -exchange      EXHF   =         0.00000000
  -V(xc)+E(xc)   XCENC  =       -18.60273239
  PAW double counting   =       757.47803549     -722.40993095
  entropy T*S    EENTRO =        -0.00000000
  eigenvalues    EBANDS =        -1.74293263
  atomic energy  EATOM  =       206.12155316
  Solvation  Ediel_sol  =         0.00000000
  ---------------------------------------------------
  free energy    TOTEN  =       -10.67362978 eV

  energy without entropy =      -10.67362978  energy(sigma->0) =      -10.67362978


--------------------------------------------------------------------------------------------------------




 average (electrostatic) potential at core
  the test charge radii are     0.9892
  (the norm of the test charge is              1.0000)
       1 -84.8056       2 -84.8056
 
 
 
 E-fermi :   4.8822     XC(G=0):  -8.8516     alpha+bet :-10.3609

 Fermi energy:         4.8822174904

 k-point     1 :       0.0000    0.0000    0.0000
  band No.  band energies     occupation 
      1      -6.5704      2.00000
      2       4.4608      2.00000
      3       4.4608      2.00000
      4       4.4608      2.00000
      5       6.2358      0.00000
      6       6.9568      0.00000
      7       6.9568      0.00000
      8       6.9568      0.00000

 k-point     2 :       0.0909    0.0000   -0.0000
  band No.  band energies     occupation 
      1      -6.4749      2.00000
      2       3.4364      2.00000
      3       4.3169      2.00000
      4       4.3170      2.00000
      5       6.4893      0.00000
      6       7.1686      0.00000
      7       7.1686      0.00000
      8       7.5779      0.00000

 k-point     3 :       0.1818   -0.0000    0.0000
  band No.  band energies     occupation 
      1      -6.1935      2.00000
      2       1.8790      2.00000
      3       4.0154      2.00000
      4       4.0154      2.00000
      5       6.2191      0.00000
      6       7.5974      0.00000
      7       7.5974      0.00000
      8       9.0881      0.00000

 k-point     4 :       0.2727   -0.0000    0.0000
  band No.  band energies     occupation 
      1      -5.7432      2.00000
      2       0.3883      2.00000
      3       3.7223      2.00000
      4       3.7224      2.00000
      5       5.8923      0.00000
      6       7.8815      0.00000
      7       7.8816      0.00000
      8      10.6380      0.00000

 k-point     5 :       0.3636   -0.0000   -0.0000
  band No.  band energies     occupation 
      1      -5.1761      2.00000
      2      -0.8977      2.00000
      3       3.5087      2.00000
      4       3.5087      2.00000
      5       5.6426      0.00000
      6       7.9079      0.00000
      7       7.9080      0.00000
      8      11.8429      0.00000

 k-point     6 :       0.4545    0.0000   -0.0000
  band No.  band energies     occupation 
      1      -4.6713      2.00000
      2      -1.7669      2.00000
      3       3.3988      2.00000
      4       3.3988      2.00000
      5       5.5133      0.00000
      6       7.8508      0.00000
      7       7.8508      0.00000
      8      11.9780      0.00000

 k-point     7 :       0.0909    0.0909   -0.0000
  band No.  band energies     occupation 
      1      -6.4430      2.00000
      2       3.4940      2.00000
      3       4.0456      2.00000
      4       4.0456      2.00000
      5       6.6776      0.00000
      6       7.1539      0.00000
      7       7.5309      0.00000
      8       7.5309      0.00000

 k-point     8 :       0.1818    0.0909   -0.0000
  band No.  band energies     occupation 
      1      -6.2227      2.00000
      2       2.2764      2.00000
      3       3.6980      2.00000
      4       3.8049      2.00000
      5       6.6680      0.00000
      6       7.1951      0.00000
      7       8.0588      0.00000
      8       8.6677      0.00000

 k-point     9 :       0.2727    0.0909    0.0000
  band No.  band energies     occupation 
      1      -5.8259      2.00000
      2       0.8335      2.00000
      3       3.4089      2.00000
      4       3.4585      2.00000
      5       6.5580      0.00000
      6       7.4403      0.00000
      7       8.4208      0.00000
      8       9.5348      0.00000

 k-point    10 :       0.3636    0.0909    0.0000
  band No.  band energies     occupation 
      1      -5.2877      2.00000
      2      -0.4965      2.00000
      3       3.1121      2.00000
      4       3.2344      2.00000
      5       6.3186      0.00000
      6       7.6679      0.00000
      7       8.4436      0.00000
      8      10.3108      0.00000

 k-point    11 :       0.4545    0.0909    0.0000
  band No.  band energies     occupation 
      1      -4.7245      2.00000
      2      -1.5273      2.00000
      3       2.8470      2.00000
      4       3.1882      2.00000
      5       6.1550      0.00000
      6       7.7233      0.00000
      7       8.2845      0.00000
      8      11.4202      0.00000

 k-point    12 :      -0.4545    0.0909   -0.0000
  band No.  band energies     occupation 
      1      -4.5078      2.00000
      2      -1.8614      2.00000
      3       2.6970      2.00000
      4       3.2699      2.00000
      5       6.1076      0.00000
      6       7.8042      0.00000
      7       8.1333      0.00000
      8      12.1258      0.00000

 k-point    13 :      -0.3636    0.0909    0.0000
  band No.  band energies     occupation 
      1      -4.9015      2.00000
      2      -1.2305      2.00000
      3       2.6796      2.00000
      4       3.4665      2.00000
      5       6.1849      0.00000
      6       7.9659      0.00000
      7       8.0376      0.00000
      8      11.6487      0.00000

 k-point    14 :      -0.2727    0.0909    0.0000
  band No.  band energies     occupation 
      1      -5.4802      2.00000
      2      -0.0731      2.00000
      3       2.8084      2.00000
      4       3.7526      2.00000
      5       6.3768      0.00000
      6       7.9086      0.00000
      7       8.0923      0.00000
      8      10.5307      0.00000

 k-point    15 :      -0.1818    0.0909   -0.0000
  band No.  band energies     occupation 
      1      -5.9776      2.00000
      2       1.2966      2.00000
      3       3.0996      2.00000
      4       4.0760      2.00000
      5       6.6457      0.00000
      6       7.5940      0.00000
      7       7.8710      0.00000
      8       9.5339      0.00000

 k-point    16 :      -0.0909    0.0909    0.0000
  band No.  band energies     occupation 
      1      -6.3173      2.00000
      2       2.6251      2.00000
      3       3.6219      2.00000
      4       4.3234      2.00000
      5       6.7902      0.00000
      6       7.2239      0.00000
      7       7.3380      0.00000
      8       8.5139      0.00000

 k-point    17 :       0.1818    0.1818   -0.0000
  band No.  band energies     occupation 
      1      -6.0637      2.00000
      2       2.0141      2.00000
      3       3.3200      2.00000
      4       3.3200      2.00000
      5       6.1122      0.00000
      6       7.9548      0.00000
      7       8.7226      0.00000
      8       8.7226      0.00000

 k-point    18 :       0.2727    0.1818   -0.0000
  band No.  band energies     occupation 
      1      -5.7238      2.00000
      2       0.9993      2.00000
      3       2.9212      2.00000
      4       3.0142      2.00000
      5       6.1548      0.00000
      6       7.8043      0.00000
      7       9.0624      0.00000
      8       9.2681      0.00000

 k-point    19 :       0.3636    0.1818   -0.0000
  band No.  band energies     occupation 
      1      -5.2266      2.00000
      2      -0.1867      2.00000
      3       2.4286      2.00000
      4       2.8335      2.00000
      5       6.3535      0.00000
      6       8.1050      0.00000
      7       8.9531      0.00000
      8       9.4172      0.00000

 k-point    20 :       0.4545    0.1818    0.0000
  band No.  band energies     occupation 
      1      -4.6461      2.00000
      2      -1.2484      2.00000
      3       1.9979      2.00000
      4       2.7975      2.00000
      5       6.3677      0.00000
      6       8.4346      0.00000
      7       9.2540      0.00000
      8       9.5324      0.00000

 k-point    21 :      -0.4545    0.1818   -0.0000
  band No.  band energies     occupation 
      1      -4.2522      2.00000
      2      -1.8386      2.00000
      3       1.7056      2.00000
      4       2.9060      2.00000
      5       6.4173      0.00000
      6       8.4106      0.00000
      7       9.0135      0.00000
      8      10.9388      0.00000

 k-point    22 :      -0.3636    0.1818   -0.0000
  band No.  band energies     occupation 
      1      -4.4847      2.00000
      2      -1.4969      2.00000
      3       1.5892      2.00000
      4       3.1452      2.00000
      5       6.5819      0.00000
      6       8.4574      0.00000
      7       8.7903      0.00000
      8      11.4977      0.00000

 k-point    23 :      -0.2727    0.1818    0.0000
  band No.  band energies     occupation 
      1      -5.0523      2.00000
      2      -0.5482      2.00000
      3       1.6974      2.00000
      4       3.4803      2.00000
      5       6.8259      0.00000
      6       8.4999      0.00000
      7       8.5477      0.00000
      8      10.1887      0.00000

 k-point    24 :      -0.1818    0.1818   -0.0000
  band No.  band energies     occupation 
      1      -5.5861      2.00000
      2       0.4976      2.00000
      3       2.1545      2.00000
      4       3.8395      2.00000
      5       7.0018      0.00000
      6       8.0205      0.00000
      7       8.2485      0.00000
      8       9.5844      0.00000

 k-point    25 :       0.2727    0.2727   -0.0000
  band No.  band energies     occupation 
      1      -5.4405      2.00000
      2       0.5181      2.00000
      3       2.6808      2.00000
      4       2.6809      2.00000
      5       5.6019      0.00000
      6       7.2564      0.00000
      7      10.1200      0.00000
      8      10.1200      0.00000

 k-point    26 :       0.3636    0.2727   -0.0000
  band No.  band energies     occupation 
      1      -4.9909      2.00000
      2      -0.3290      2.00000
      3       2.2159      2.00000
      4       2.4725      2.00000
      5       5.7256      0.00000
      6       7.0246      0.00000
      7      10.3035      0.00000
      8      10.5867      0.00000

 k-point    27 :       0.4545    0.2727   -0.0000
  band No.  band energies     occupation 
      1      -4.4210      2.00000
      2      -1.2227      2.00000
      3       1.5875      2.00000
      4       2.4140      2.00000
      5       5.9292      0.00000
      6       7.6716      0.00000
      7      10.1081      0.00000
      8      10.5452      0.00000

 k-point    28 :      -0.4545    0.2727   -0.0000
  band No.  band energies     occupation 
      1      -3.9090      2.00000
      2      -1.8959      2.00000
      3       1.0901      2.00000
      4       2.5088      2.00000
      5       6.0422      0.00000
      6       9.0218      0.00000
      7       9.9295      0.00000
      8      10.2771      0.00000

 k-point    29 :      -0.3636    0.2727   -0.0000
  band No.  band energies     occupation 
      1      -3.9631      2.00000
      2      -1.8231      2.00000
      3       0.8547      2.00000
      4       2.7461      2.00000
      5       6.2701      0.00000
      6       9.8388      0.00000
      7       9.9186      0.00000
      8      10.6919      0.00000

 k-point    30 :      -0.2727    0.2727   -0.0000
  band No.  band energies     occupation 
      1      -4.4997      2.00000
      2      -1.1653      2.00000
      3       1.0054      2.00000
      4       3.0944      2.00000
      5       6.6014      0.00000
      6       9.3230      0.00000
      7       9.6565      0.00000
      8      10.1209      0.00000

 k-point    31 :       0.3636    0.3636   -0.0000
  band No.  band energies     occupation 
      1      -4.5880      2.00000
      2      -0.9321      2.00000
      3       2.2287      2.00000
      4       2.2287      2.00000
      5       5.3073      0.00000
      6       6.3032      0.00000
      7      11.6031      0.00000
      8      11.6031      0.00000

 k-point    32 :       0.4545    0.3636   -0.0000
  band No.  band energies     occupation 
      1      -4.0450      2.00000
      2      -1.6561      2.00000
      3       1.7856      2.00000
      4       2.1336      2.00000
      5       5.5107      0.00000
      6       6.2847      0.00000
      7      11.8163      0.00000
      8      11.9575      0.00000

 k-point    33 :      -0.4545    0.3636    0.0000
  band No.  band energies     occupation 
      1      -3.4708      2.00000
      2      -2.2855      2.00000
      3       1.1415      2.00000
      4       2.1958      2.00000
      5       5.6784      0.00000
      6       7.3110      0.00000
      7      11.6541      0.00000
      8      11.7237      0.00000

 k-point    34 :      -0.3636    0.3636   -0.0000
  band No.  band energies     occupation 
      1      -3.4418      2.00000
      2      -2.2922      2.00000
      3       0.7366      2.00000
      4       2.4085      2.00000
      5       5.9087      0.00000
      6       8.8774      0.00000
      7      11.0661      0.00000
      8      11.4554      0.00000

 k-point    35 :       0.4545    0.4545   -0.0000
  band No.  band energies     occupation 
      1      -3.5290      2.00000
      2      -2.2960      2.00000
      3       1.9974      2.00000
      4       1.9974      2.00000
      5       5.3027      0.00000
      6       5.6304      0.00000
      7      13.0232      0.00000
      8      13.0232      0.00000

 k-point    36 :      -0.4545    0.4545    0.0000
  band No.  band energies     occupation 
      1      -2.9725      2.00000
      2      -2.8603      2.00000
      3       1.6421      2.00000
      4       2.0188      2.00000
      5       5.4806      0.00000
      6       5.9816      0.00000
      7      12.9332      0.00000
      8      13.0077      0.00000

 k-point    37 :       0.2727    0.1818    0.0909
  band No.  band energies     occupation 
      1      -5.9431      2.00000
      2       1.4385      2.00000
      3       2.8888      2.00000
      4       3.7146      2.00000
      5       6.7569      0.00000
      6       7.4452      0.00000
      7       8.5451      0.00000
      8       9.0276      0.00000

 k-point    38 :       0.3636    0.1818    0.0909
  band No.  band energies     occupation 
      1      -5.4953      2.00000
      2       0.2728      2.00000
      3       2.3636      2.00000
      4       3.4412      2.00000
      5       6.9405      0.00000
      6       7.5982      0.00000
      7       8.9094      0.00000
      8       9.2157      0.00000

 k-point    39 :       0.4545    0.1818    0.0909
  band No.  band energies     occupation 
      1      -4.9286      2.00000
      2      -0.8882      2.00000
      3       2.0971      2.00000
      4       3.1501      2.00000
      5       6.8371      0.00000
      6       7.7192      0.00000
      7       8.9774      0.00000
      8       9.9627      0.00000

 k-point    40 :      -0.4545    0.1818    0.0909
  band No.  band energies     occupation 
      1      -4.4181      2.00000
      2      -1.7188      2.00000
      3       1.9861      2.00000
      4       2.9749      2.00000
      5       6.7498      0.00000
      6       7.6644      0.00000
      7       8.9512      0.00000
      8      11.2380      0.00000

 k-point    41 :       0.3636    0.2727    0.0909
  band No.  band energies     occupation 
      1      -5.3303      2.00000
      2       0.2082      2.00000
      3       2.2580      2.00000
      4       2.8582      2.00000
      5       6.2714      0.00000
      6       7.6217      0.00000
      7       9.0975      0.00000
      8      10.0216      0.00000

 k-point    42 :       0.4545    0.2727    0.0909
  band No.  band energies     occupation 
      1      -4.7944      2.00000
      2      -0.7388      2.00000
      3       1.7382      2.00000
      4       2.5987      2.00000
      5       6.6009      0.00000
      6       8.0108      0.00000
      7       8.8198      0.00000
      8      10.4033      0.00000

 k-point    43 :      -0.4545    0.2727    0.0909
  band No.  band energies     occupation 
      1      -4.2244      2.00000
      2      -1.5930      2.00000
      3       1.3795      2.00000
      4       2.4701      2.00000
      5       6.7140      0.00000
      6       8.4747      0.00000
      7       9.2522      0.00000
      8      10.3890      0.00000

 k-point    44 :      -0.3636    0.2727    0.0909
  band No.  band energies     occupation 
      1      -4.0093      2.00000
      2      -1.8773      2.00000
      3       1.1807      2.00000
      4       2.5450      2.00000
      5       6.8753      0.00000
      6       8.2718      0.00000
      7      10.1907      0.00000
      8      10.8719      0.00000

 k-point    45 :      -0.2727    0.2727    0.0909
  band No.  band energies     occupation 
      1      -4.4291      2.00000
      2      -1.3049      2.00000
      3       1.1978      2.00000
      4       2.7943      2.00000
      5       7.1397      0.00000
      6       8.1252      0.00000
      7       9.6051      0.00000
      8      10.2945      0.00000

 k-point    46 :      -0.1818    0.2727    0.0909
  band No.  band energies     occupation 
      1      -5.0078      2.00000
      2      -0.4508      2.00000
      3       1.5497      2.00000
      4       3.1441      2.00000
      5       7.4196      0.00000
      6       7.7146      0.00000
      7       8.9549      0.00000
      8       9.7788      0.00000

 k-point    47 :       0.4545    0.3636    0.0909
  band No.  band energies     occupation 
      1      -4.4966      2.00000
      2      -1.0526      2.00000
      3       1.8396      2.00000
      4       2.1818      2.00000
      5       5.9744      0.00000
      6       6.8132      0.00000
      7      10.2961      0.00000
      8      11.5726      0.00000

 k-point    48 :      -0.4545    0.3636    0.0909
  band No.  band energies     occupation 
      1      -3.9109      2.00000
      2      -1.7802      2.00000
      3       1.3003      2.00000
      4       2.0314      2.00000
      5       6.3059      0.00000
      6       7.5112      0.00000
      7       9.9970      0.00000
      8      11.8582      0.00000

 k-point    49 :      -0.3636    0.3636    0.0909
  band No.  band energies     occupation 
      1      -3.5263      2.00000
      2      -2.1990      2.00000
      3       0.8638      2.00000
      4       2.1290      2.00000
      5       6.4929      0.00000
      6       8.9636      0.00000
      7       9.7131      0.00000
      8      11.1284      0.00000

 k-point    50 :      -0.2727    0.3636    0.0909
  band No.  band energies     occupation 
      1      -3.8595      2.00000
      2      -1.8421      2.00000
      3       0.7752      2.00000
      4       2.4055      2.00000
      5       6.7941      0.00000
      6       9.2725      0.00000
      7       9.8569      0.00000
      8      10.7144      0.00000

 k-point    51 :      -0.4545    0.4545    0.0909
  band No.  band energies     occupation 
      1      -3.4719      2.00000
      2      -2.3024      2.00000
      3       1.6739      2.00000
      4       1.7837      2.00000
      5       5.9409      0.00000
      6       6.2157      0.00000
      7      11.6872      0.00000
      8      12.7673      0.00000

 k-point    52 :      -0.3636    0.4545    0.0909
  band No.  band energies     occupation 
      1      -3.0536      2.00000
      2      -2.6885      2.00000
      3       1.1381      2.00000
      4       1.8451      2.00000
      5       6.2028      0.00000
      6       7.3192      0.00000
      7      11.3071      0.00000
      8      11.4838      0.00000

 k-point    53 :      -0.4545    0.3636    0.1818
  band No.  band energies     occupation 
      1      -4.2377      2.00000
      2      -1.3898      2.00000
      3       1.2009      2.00000
      4       2.2153      2.00000
      5       7.4494      0.00000
      6       8.0838      0.00000
      7       8.4519      0.00000
      8      11.4822      0.00000

 k-point    54 :      -0.3636    0.3636    0.1818
  band No.  band energies     occupation 
      1      -3.6999      2.00000
      2      -2.0013      2.00000
      3       0.9581      2.00000
      4       1.9479      2.00000
      5       7.8171      0.00000
      6       8.0878      0.00000
      7       9.2313      0.00000
      8      10.8779      0.00000

 k-point    55 :      -0.3636    0.4545    0.1818
  band No.  band energies     occupation 
      1      -3.3274      2.00000
      2      -2.3537      2.00000
      3       1.1710      2.00000
      4       1.5086      2.00000
      5       7.4031      0.00000
      6       7.6206      0.00000
      7       9.6444      0.00000
      8      11.0908      0.00000

 k-point    56 :      -0.2727    0.4545    0.1818
  band No.  band energies     occupation 
      1      -3.1669      2.00000
      2      -2.4938      2.00000
      3       0.9448      2.00000
      4       1.5376      2.00000
      5       7.7301      0.00000
      6       9.0356      0.00000
      7       9.3140      0.00000
      8       9.4576      0.00000


--------------------------------------------------------------------------------------------------------


 soft charge-density along one line, spin component           1
         0         1         2         3         4         5         6         7         8         9
 total charge-density along one line
 
 pseudopotential strength for first ion, spin component:           1
 18.574  25.916  -0.000  -0.000  -0.000  -0.000  -0.000  -0.000
 25.916  36.163  -0.000  -0.000  -0.000  -0.000  -0.000  -0.000
 -0.000  -0.000   4.195  -0.000  -0.000   7.819  -0.000  -0.000
 -0.000  -0.000  -0.000   4.195  -0.000  -0.000   7.819  -0.000
 -0.000  -0.000  -0.000  -0.000   4.195  -0.000  -0.000   7.819
 -0.000  -0.000   7.819  -0.000  -0.000  14.583  -0.000  -0.000
 -0.000  -0.000  -0.000   7.819  -0.000  -0.000  14.583  -0.000
 -0.000  -0.000  -0.000  -0.000   7.819  -0.000  -0.000  14.583
 total augmentation occupancy for first ion, spin component:           1
  5.009  -1.764   0.000   0.000  -0.000  -0.000  -0.000   0.000
 -1.764   0.739   0.000   0.000   0.000   0.000   0.000   0.000
  0.000   0.000   2.825  -0.000  -0.000  -0.654  -0.000   0.000
  0.000   0.000  -0.000   2.825   0.000  -0.000  -0.654  -0.000
 -0.000  -0.000  -0.000   0.000   2.825   0.000   0.000  -0.654
  0.000   0.000  -0.654  -0.000   0.000   0.158  -0.000   0.000
 -0.000   0.000   0.000  -0.654   0.000  -0.000   0.158  -0.000
 -0.000   0.000  -0.000   0.000  -0.654  -0.000   0.000   0.158


------------------------ aborting loop because EDIFF is reached ----------------------------------------


    CHARGE:  cpu time      0.0029: real time      0.0029
    FORLOC:  cpu time      0.0003: real time      0.0003
    FORNL :  cpu time      0.0050: real time      0.0050
    STRESS:  cpu time      0.0848: real time      0.0850
    FORCOR:  cpu time      0.0035: real time      0.0035
    FORHAR:  cpu time      0.0008: real time      0.0008
    MIXING:  cpu time      0.0003: real time      0.0003
    OFIELD:  cpu time      0.0000: real time      0.0000

  FORCE on cell =-STRESS in cart. coord.  units (eV):
  Direction    XX          YY          ZZ          XY          YZ          ZX
  --------------------------------------------------------------------------------------
  Alpha Z     2.90837     2.90837     2.90837
  Ewald     -72.57898   -72.57898   -72.57898     0.00000    -0.00000     0.00000
  Hartree     5.56335     5.56335     5.56335    -0.00000    -0.00000    -0.00000
  E(xc)     -24.59720   -24.59720   -24.59720    -0.00000    -0.00000    -0.00000
  Local     -31.48680   -31.48680   -31.48680     0.00005     0.00005     0.00005
  n-local    76.79324    78.14947    72.50894     1.96916    -1.10986     0.43877
  augment   -11.64896   -11.64896   -11.64896    -0.00007    -0.00007    -0.00007
  Kinetic    55.68660    54.05877    50.92796     3.57006    -0.87989     1.02504
  Fock        0.00000     0.00000     0.00000     0.00000     0.00000     0.00000
  -------------------------------------------------------------------------------------
  Total      -2.46522    -2.46522    -2.46522     0.00000    -0.00000    -0.00000
  in kB     -85.31035   -85.31035   -85.31035     0.00000    -0.00000    -0.00000
  external pressure =      -85.31 kB  Pullay stress =        0.00 kB


 VOLUME and BASIS-vectors are now :
 -----------------------------------------------------------------------------
  energy-cutoff  :      240.00
  volume of cell :       46.30
      direct lattice vectors                 reciprocal lattice vectors
     0.000000000  2.850000000  2.850000000    -0.175438596  0.175438596  0.175438596
     2.850000000  0.000000000  2.850000000     0.175438596 -0.175438596  0.175438596
     2.850000000  2.850000000  0.000000000     0.175438596  0.175438596 -0.175438596

  length of vectors
     4.030508653  4.030508653  4.030508653     0.303868563  0.303868563  0.303868563


 FORCES acting on ions
    electron-ion (+dipol)            ewald-force                    non-local-force                 convergence-correction
 -----------------------------------------------------------------------------------------------
   0.322E-05 0.322E-05 0.333E-05   0.337E-14 0.159E-14 -.166E-13   0.141E-16 0.111E-15 0.117E-15   0.694E-07 0.694E-07 0.694E-07
   -.322E-05 -.322E-05 -.333E-05   -.336E-14 -.169E-14 0.164E-13   -.198E-16 -.892E-16 -.110E-15   -.694E-07 -.694E-07 -.694E-07
 -----------------------------------------------------------------------------------------------
   -.118E-12 -.235E-13 0.607E-13   0.121E-16 -.996E-16 -.220E-15   -.572E-17 0.220E-16 0.659E-17   -.247E-15 0.235E-15 -.511E-15
 
 
 POSITION                                       TOTAL-FORCE (eV/Angst)
 -----------------------------------------------------------------------------------
      4.98750      4.98750      4.98750        -0.000000     -0.000000     -0.000000
      0.71250      0.71250      0.71250         0.000000      0.000000      0.000000
 -----------------------------------------------------------------------------------
    total drift:                               -0.000000     -0.000000      0.000000


--------------------------------------------------------------------------------------------------------



  FREE ENERGIE OF THE ION-ELECTRON SYSTEM (eV)
  ---------------------------------------------------
  free  energy   TOTEN  =       -10.67362978 eV

  energy  without entropy=      -10.67362978  energy(sigma->0) =      -10.67362978
 


--------------------------------------------------------------------------------------------------------


    POTLOK:  cpu time      0.0049: real time      0.0050


--------------------------------------------------------------------------------------------------------


 writing wavefunctions
     LOOP+:  cpu time      1.0626: real time      1.0702
    4ORBIT:  cpu time      0.0000: real time      0.0000

 total amount of memory used by VASP MPI-rank0    33076. kBytes
=======================================================================

   base      :      30000. kBytes
   nonl-proj :       1446. kBytes
   fftplans  :        302. kBytes
   grid      :        577. kBytes
   one-center:          6. kBytes
   wavefun   :        745. kBytes
 
  
  
 General timing and accounting informations for this job:
 ========================================================
  
                  Total CPU time used (sec):        1.290
                            User time (sec):        1.180
                          System time (sec):        0.110
                         Elapsed time (sec):        1.340
  
                   Maximum memory used (kb):       46156.
                   Average memory used (kb):          N/A
  
                          Minor page faults:         9606
                          Major page faults:            0
                 Voluntary context switches:          162
