   1   1   0   0
  0.1482975E+02  0.2757716E-09  0.2757716E-09  0.2757716E-09  0.5000000E-15
  1.000000000000000E-004
  CAR 
 fcc Si                                  
     37.85978306     -6.39080222  301      9.67179579      1.00000000
     -6.391  0.0000E+00  0.0000E+00
     -6.243  0.0000E+00  0.0000E+00
     -6.096  0.0000E+00  0.0000E+00
     -5.948  0.0000E+00  0.0000E+00
     -5.801  0.0000E+00  0.0000E+00
     -5.653  0.0000E+00  0.0000E+00
     -5.506  0.0000E+00  0.0000E+00
     -5.358  0.0000E+00  0.0000E+00
     -5.211  0.0000E+00  0.0000E+00
     -5.063  0.0000E+00  0.0000E+00
     -4.916  0.1685E-15  0.2486E-16
     -4.768  0.1941E-09  0.2863E-10
     -4.621  0.3267E-05  0.4820E-06
     -4.473  0.9359E-03  0.1385E-03
     -4.326  0.7361E-02  0.1224E-02
     -4.178  0.3004E-01  0.5655E-02
     -4.031  0.9018E-01  0.1896E-01
     -3.883  0.2743E-01  0.2300E-01
     -3.736  0.6702E-01  0.3289E-01
     -3.588  0.8676E-01  0.4569E-01
     -3.441  0.2099E+00  0.7664E-01
     -3.293  0.7977E-01  0.8841E-01
     -3.146  0.2354E-01  0.9188E-01
     -2.998  0.5091E-01  0.9939E-01
     -2.851  0.2215E+00  0.1321E+00
     -2.703  0.2374E+00  0.1671E+00
     -2.556  0.6512E-01  0.1767E+00
     -2.408  0.1760E+00  0.2026E+00
     -2.261  0.1819E+00  0.2295E+00
     -2.113  0.1596E+00  0.2530E+00
     -1.966  0.1684E-01  0.2555E+00
     -1.818  0.8533E-01  0.2681E+00
     -1.671  0.1937E+00  0.2967E+00
     -1.523  0.5045E+00  0.3711E+00
     -1.376  0.1292E+00  0.3901E+00
     -1.228  0.1396E+00  0.4107E+00
     -1.081  0.1442E+00  0.4320E+00
     -0.933  0.2945E+00  0.4754E+00
     -0.786  0.1456E+00  0.4969E+00
     -0.638  0.3964E-01  0.5027E+00
     -0.491  0.8541E-01  0.5153E+00
     -0.343  0.4164E+00  0.5768E+00
     -0.196  0.2666E+00  0.6161E+00
     -0.048  0.1520E+00  0.6385E+00
      0.099  0.3458E+00  0.6895E+00
      0.247  0.4637E+00  0.7579E+00
      0.394  0.2655E+00  0.7971E+00
      0.542  0.1542E-01  0.7993E+00
      0.689  0.4792E-01  0.8064E+00
      0.837  0.1964E+00  0.8354E+00
      0.984  0.4600E+00  0.9032E+00
      1.132  0.1157E+00  0.9203E+00
      1.279  0.2582E+00  0.9584E+00
      1.427  0.3204E+00  0.1006E+01
      1.574  0.4937E+00  0.1078E+01
      1.722  0.8702E-01  0.1091E+01
      1.869  0.1595E+00  0.1115E+01
      2.017  0.3405E+00  0.1165E+01
      2.164  0.7550E+00  0.1276E+01
      2.312  0.2883E+00  0.1319E+01
      2.459  0.1467E+00  0.1341E+01
      2.607  0.9508E-01  0.1355E+01
      2.754  0.3429E+00  0.1405E+01
      2.902  0.1188E+00  0.1423E+01
      3.049  0.1660E+00  0.1447E+01
      3.197  0.1185E+00  0.1465E+01
      3.344  0.5034E+00  0.1539E+01
      3.492  0.4409E+00  0.1604E+01
      3.639  0.5234E+00  0.1681E+01
      3.787  0.2696E+00  0.1721E+01
      3.934  0.4729E+00  0.1791E+01
      4.082  0.4148E+00  0.1852E+01
      4.229  0.1064E+00  0.1868E+01
      4.377  0.4136E-02  0.1868E+01
      4.524  0.1442E+00  0.1889E+01
      4.672  0.7850E+00  0.2005E+01
      4.819  0.7395E+00  0.2114E+01
      4.967  0.1613E+00  0.2138E+01
      5.114  0.6163E-01  0.2147E+01
      5.262  0.1983E+00  0.2176E+01
      5.409  0.2837E+00  0.2218E+01
      5.557  0.1675E+00  0.2243E+01
      5.704  0.1764E+00  0.2269E+01
      5.852  0.8387E+00  0.2393E+01
      5.999  0.5779E+00  0.2478E+01
      6.147  0.3919E+00  0.2536E+01
      6.294  0.2650E+00  0.2575E+01
      6.442  0.6681E+00  0.2673E+01
      6.589  0.3432E+00  0.2724E+01
      6.737  0.2343E+00  0.2759E+01
      6.884  0.1876E+00  0.2786E+01
      7.032  0.2713E+00  0.2826E+01
      7.179  0.3755E+00  0.2882E+01
      7.327  0.5996E+00  0.2970E+01
      7.474  0.4323E+00  0.3034E+01
      7.622  0.3766E+00  0.3089E+01
      7.769  0.1540E+00  0.3112E+01
      7.917  0.1679E+00  0.3137E+01
      8.064  0.1856E+00  0.3164E+01
      8.212  0.3409E+00  0.3215E+01
      8.359  0.1201E+01  0.3392E+01
      8.507  0.5523E+00  0.3473E+01
      8.654  0.1764E+00  0.3499E+01
      8.802  0.4743E+00  0.3569E+01
      8.949  0.2583E+00  0.3607E+01
      9.097  0.1364E+00  0.3627E+01
      9.244  0.3509E+00  0.3679E+01
      9.392  0.8131E+00  0.3799E+01
      9.539  0.7182E+00  0.3905E+01
      9.687  0.7026E+00  0.4009E+01
      9.834  0.2531E+00  0.4046E+01
      9.982  0.3165E+00  0.4093E+01
     10.129  0.2555E+00  0.4130E+01
     10.277  0.1306E+00  0.4150E+01
     10.424  0.4069E-01  0.4156E+01
     10.572  0.2109E+00  0.4187E+01
     10.719  0.8234E+00  0.4308E+01
     10.867  0.1050E+01  0.4463E+01
     11.014  0.4127E+00  0.4524E+01
     11.162  0.6179E+00  0.4615E+01
     11.309  0.4139E+00  0.4676E+01
     11.457  0.2693E+00  0.4716E+01
     11.604  0.3618E+00  0.4769E+01
     11.752  0.3010E+00  0.4813E+01
     11.899  0.9335E+00  0.4951E+01
     12.047  0.6504E+00  0.5047E+01
     12.194  0.4212E+00  0.5109E+01
     12.342  0.6337E+00  0.5203E+01
     12.489  0.6270E+00  0.5295E+01
     12.637  0.2538E+00  0.5333E+01
     12.784  0.1676E+00  0.5357E+01
     12.932  0.7240E+00  0.5464E+01
     13.079  0.6907E+00  0.5566E+01
     13.227  0.3195E+00  0.5613E+01
     13.374  0.3653E+00  0.5667E+01
     13.522  0.6213E+00  0.5759E+01
     13.669  0.8083E+00  0.5878E+01
     13.817  0.3243E+00  0.5926E+01
     13.964  0.8054E+00  0.6045E+01
     14.112  0.7159E+00  0.6150E+01
     14.259  0.7839E+00  0.6266E+01
     14.407  0.2146E+00  0.6297E+01
     14.554  0.5054E+00  0.6372E+01
     14.702  0.4813E+00  0.6443E+01
     14.849  0.1515E+00  0.6465E+01
     14.997  0.2420E-01  0.6469E+01
     15.144  0.3235E+00  0.6517E+01
     15.292  0.1190E+01  0.6692E+01
     15.439  0.6482E+00  0.6788E+01
     15.587  0.5060E+00  0.6862E+01
     15.734  0.4697E+00  0.6932E+01
     15.882  0.4087E+00  0.6992E+01
     16.029  0.4913E+00  0.7064E+01
     16.177  0.3948E+00  0.7123E+01
     16.324  0.4851E+00  0.7194E+01
     16.472  0.2855E+00  0.7236E+01
     16.620  0.4959E+00  0.7309E+01
     16.767  0.1066E+01  0.7467E+01
     16.915  0.6406E+00  0.7561E+01
     17.062  0.1504E+00  0.7583E+01
     17.210  0.2086E+00  0.7614E+01
     17.357  0.3453E+00  0.7665E+01
     17.505  0.3551E+00  0.7717E+01
     17.652  0.5736E+00  0.7802E+01
     17.800  0.4363E+00  0.7866E+01
     17.947  0.4429E+00  0.7932E+01
     18.095  0.7948E+00  0.8049E+01
     18.242  0.6775E+00  0.8149E+01
     18.390  0.7393E+00  0.8258E+01
     18.537  0.8179E+00  0.8379E+01
     18.685  0.5786E+00  0.8464E+01
     18.832  0.1655E+00  0.8488E+01
     18.980  0.1476E+00  0.8510E+01
     19.127  0.8514E+00  0.8636E+01
     19.275  0.1137E+01  0.8803E+01
     19.422  0.5546E+00  0.8885E+01
     19.570  0.4687E+00  0.8954E+01
     19.717  0.5509E+00  0.9036E+01
     19.865  0.4106E+00  0.9096E+01
     20.012  0.3044E+00  0.9141E+01
     20.160  0.5153E+00  0.9217E+01
     20.307  0.5068E+00  0.9292E+01
     20.455  0.3434E+00  0.9342E+01
     20.602  0.1094E+00  0.9359E+01
     20.750  0.8740E+00  0.9487E+01
     20.897  0.1514E+01  0.9711E+01
     21.045  0.4632E+00  0.9779E+01
     21.192  0.4123E+00  0.9840E+01
     21.340  0.5525E+00  0.9922E+01
     21.487  0.5356E+00  0.1000E+02
     21.635  0.3498E+00  0.1005E+02
     21.782  0.6144E+00  0.1014E+02
     21.930  0.4054E+00  0.1020E+02
     22.077  0.6195E+00  0.1029E+02
     22.225  0.6338E+00  0.1039E+02
     22.372  0.9926E+00  0.1053E+02
     22.520  0.1302E+01  0.1073E+02
     22.667  0.3087E+00  0.1077E+02
     22.815  0.4825E+00  0.1084E+02
     22.962  0.8175E+00  0.1096E+02
     23.110  0.6040E+00  0.1105E+02
     23.257  0.2623E+00  0.1109E+02
     23.405  0.2301E+00  0.1112E+02
     23.552  0.4108E+00  0.1119E+02
     23.700  0.5429E+00  0.1127E+02
     23.847  0.8204E+00  0.1139E+02
     23.995  0.1062E+01  0.1154E+02
     24.142  0.1116E+01  0.1171E+02
     24.290  0.5117E+00  0.1178E+02
     24.437  0.7318E+00  0.1189E+02
     24.585  0.7921E+00  0.1201E+02
     24.732  0.3998E+00  0.1207E+02
     24.880  0.4552E+00  0.1213E+02
     25.027  0.9719E+00  0.1228E+02
     25.175  0.4657E+00  0.1235E+02
     25.322  0.7098E+00  0.1245E+02
     25.470  0.3487E+00  0.1250E+02
     25.617  0.3268E+00  0.1255E+02
     25.765  0.5125E+00  0.1263E+02
     25.912  0.6108E+00  0.1272E+02
     26.060  0.1432E+01  0.1293E+02
     26.207  0.3465E+00  0.1298E+02
     26.355  0.4658E+00  0.1305E+02
     26.502  0.8803E+00  0.1318E+02
     26.650  0.1055E+01  0.1333E+02
     26.797  0.6031E+00  0.1342E+02
     26.945  0.2524E+00  0.1346E+02
     27.092  0.3916E+00  0.1352E+02
     27.240  0.5039E+00  0.1359E+02
     27.387  0.2905E+00  0.1363E+02
     27.535  0.7175E+00  0.1374E+02
     27.682  0.1285E+01  0.1393E+02
     27.830  0.5500E+00  0.1401E+02
     27.977  0.6097E+00  0.1410E+02
     28.125  0.5003E+00  0.1417E+02
     28.272  0.2172E+00  0.1421E+02
     28.420  0.4118E+00  0.1427E+02
     28.567  0.9137E+00  0.1440E+02
     28.715  0.4376E+00  0.1447E+02
     28.862  0.3050E+00  0.1451E+02
     29.010  0.4620E+00  0.1458E+02
     29.157  0.4044E+00  0.1464E+02
     29.305  0.6081E-01  0.1465E+02
     29.452  0.1603E+00  0.1467E+02
     29.600  0.7063E+00  0.1478E+02
     29.747  0.5431E+00  0.1486E+02
     29.895  0.2086E+00  0.1489E+02
     30.042  0.8388E+00  0.1501E+02
     30.190  0.1019E+01  0.1516E+02
     30.337  0.3974E+00  0.1522E+02
     30.485  0.4939E+00  0.1529E+02
     30.632  0.1866E+00  0.1532E+02
     30.780  0.3910E+00  0.1538E+02
     30.927  0.4756E+00  0.1545E+02
     31.075  0.3106E+00  0.1549E+02
     31.222  0.2986E+00  0.1554E+02
     31.370  0.1962E+00  0.1557E+02
     31.517  0.1127E+00  0.1558E+02
     31.665  0.1382E+00  0.1560E+02
     31.812  0.1341E+00  0.1562E+02
     31.960  0.1113E+00  0.1564E+02
     32.107  0.1185E+00  0.1566E+02
     32.255  0.2599E+00  0.1570E+02
     32.402  0.1078E+00  0.1571E+02
     32.550  0.3717E-02  0.1571E+02
     32.697  0.1032E+00  0.1573E+02
     32.845  0.3821E+00  0.1578E+02
     32.992  0.7666E-01  0.1579E+02
     33.140  0.1539E+00  0.1582E+02
     33.287  0.7769E-01  0.1583E+02
     33.435  0.7395E-01  0.1584E+02
     33.582  0.1876E+00  0.1587E+02
     33.730  0.1122E+00  0.1588E+02
     33.877  0.8022E-01  0.1590E+02
     34.025  0.2736E+00  0.1594E+02
     34.172  0.1831E+00  0.1596E+02
     34.320  0.3189E-01  0.1597E+02
     34.467  0.3382E-01  0.1597E+02
     34.615  0.1855E-02  0.1597E+02
     34.762  0.2281E-05  0.1597E+02
     34.910  0.2085E-09  0.1597E+02
     35.057  0.6803E-05  0.1597E+02
     35.205  0.4597E-02  0.1597E+02
     35.352  0.7128E-01  0.1598E+02
     35.500  0.4534E-01  0.1599E+02
     35.647  0.1156E-02  0.1599E+02
     35.795  0.1356E-01  0.1599E+02
     35.942  0.4179E-01  0.1600E+02
     36.090  0.5615E-02  0.1600E+02
     36.237  0.1960E-04  0.1600E+02
     36.385  0.1164E-08  0.1600E+02
     36.532  0.1011E-14  0.1600E+02
     36.680  0.0000E+00  0.1600E+02
     36.827  0.0000E+00  0.1600E+02
     36.975  0.0000E+00  0.1600E+02
     37.122  0.0000E+00  0.1600E+02
     37.270  0.0000E+00  0.1600E+02
     37.417  0.0000E+00  0.1600E+02
     37.565  0.0000E+00  0.1600E+02
     37.712  0.0000E+00  0.1600E+02
     37.860  0.0000E+00  0.1600E+02
