    1    1    1    1
  0.1482975E+02  0.2757716E-09  0.2757716E-09  0.2757716E-09  0.5000000E-15
  1.000000000000000E-004
  CAR 
 fcc Si                                  
      4     56      8
 
  0.0000000E+00  0.0000000E+00  0.0000000E+00  0.7513148E-03
      1         -4.379412   1.000000
      2         20.693476   0.000000
      3         20.693657   0.000000
      4         20.693657   0.000000
      5         21.769539   0.000000
      6         21.769654   0.000000
      7         21.769655   0.000000
      8         26.975083   0.000000
 
  0.9090909E-01  0.7448393E-18  0.7448393E-18  0.6010518E-02
      1         -4.142488   1.000000
      2         17.722325   0.000000
      3         19.841871   0.000000
      4         19.842039   0.000000
      5         22.856531   0.000000
      6         22.926739   0.000000
      7         22.926930   0.000000
      8         27.615346   0.000000
 
  0.1818182E+00 -0.6836994E-17  0.7040794E-17  0.6010518E-02
      1         -3.434335   1.000000
      2         13.904818   0.000000
      3         18.956972   0.000000
      4         18.957145   0.000000
      5         22.895839   0.000000
      6         23.906736   0.000000
      7         23.907417   0.000000
      8         26.755511   0.000000
 
  0.2727273E+00 -0.1337799E-16  0.1437758E-16  0.6010518E-02
      1         -2.260175   1.000000
      2         10.261749   0.000000
      3         18.412064   0.000000
      4         18.412237   0.000000
      5         22.757295   0.000000
      6         22.883940   0.000000
      7         22.884616   0.000000
      8         28.029962   0.000000
 
  0.3636364E+00 -0.3240900E-16 -0.4653426E-17  0.6010518E-02
      1         -0.628548   1.000000
      2          6.952001   1.000000
      3         18.194108   0.000000
      4         18.194253   0.000000
      5         21.616350   0.000000
      6         21.616910   0.000000
      7         22.807863   0.000000
      8         26.566277   0.000000
 
  0.4545455E+00  0.2141838E-16 -0.6337200E-17  0.6010518E-02
      1          1.422269   1.000000
      2          4.051410   1.000000
      3         18.180714   0.000000
      4         18.180833   0.000000
      5         20.840649   0.000000
      6         20.841219   0.000000
      7         22.942786   0.000000
      8         25.654373   0.000000
 
  0.9090909E-01  0.9090909E-01  0.3140096E-17  0.4507889E-02
      1         -4.063564   1.000000
      2         18.516807   0.000000
      3         18.516914   0.000000
      4         19.969052   0.000000
      5         20.309295   0.000000
      6         24.389490   0.000000
      7         24.389508   0.000000
      8         25.728792   0.000000
 
  0.1818182E+00  0.9090909E-01 -0.6887944E-17  0.1803156E-01
      1         -3.512735   1.000000
      2         15.323307   0.000000
      3         17.501484   0.000000
      4         19.179567   0.000000
      5         21.033245   0.000000
      6         23.814912   0.000000
      7         25.168987   0.000000
      8         25.763729   0.000000
 
  0.2727273E+00  0.9090909E-01  0.7387738E-17  0.1803156E-01
      1         -2.494010   1.000000
      2         11.628234   0.000000
      3         16.871825   0.000000
      4         18.373324   0.000000
      5         20.752983   0.000000
      6         24.009344   0.000000
      7         25.295733   0.000000
      8         25.649456   0.000000
 
  0.3636364E+00  0.9090909E-01  0.1507147E-16  0.1803156E-01
      1         -1.015138   1.000000
      2          8.206896   1.000000
      3         16.640812   0.000000
      4         17.577644   0.000000
      5         19.817652   0.000000
      6         23.916458   0.000000
      7         24.426048   0.000000
      8         27.533360   0.000000
 
  0.4545455E+00  0.9090909E-01  0.6959274E-16  0.1803156E-01
      1          0.905021   1.000000
      2          5.162795   1.000000
      3         16.695577   0.000000
      4         16.799866   0.000000
      5         19.643852   0.000000
      6         22.754229   0.000000
      7         24.479493   0.000000
      8         27.675447   0.000000
 
 -0.4545455E+00  0.9090909E-01 -0.2875516E-16  0.1803156E-01
      1          2.334110   1.000000
      2          3.450083   1.000000
      3         15.952563   0.000000
      4         17.319924   0.000000
      5         20.123617   0.000000
      6         21.959366   0.000000
      7         24.322538   0.000000
      8         27.583147   0.000000
 
 -0.3636364E+00  0.9090909E-01 -0.1989473E-17  0.1803156E-01
      1          0.218925   1.000000
      2          6.130845   1.000000
      3         15.531132   0.000000
      4         18.150114   0.000000
      5         21.130720   0.000000
      6         21.698446   0.000000
      7         24.085745   0.000000
      8         28.230395   0.000000
 
 -0.2727273E+00  0.9090909E-01  0.6016458E-16  0.1803156E-01
      1         -1.558574   1.000000
      2          9.307499   1.000000
      3         15.491007   0.000000
      4         19.132642   0.000000
      5         22.023451   0.000000
      6         22.517654   0.000000
      7         23.914795   0.000000
      8         27.491472   0.000000
 
 -0.1818182E+00  0.9090909E-01 -0.1437758E-16  0.1803156E-01
      1         -2.885225   1.000000
      2         12.832202   0.000000
      3         15.863296   0.000000
      4         20.091894   0.000000
      5         22.832066   0.000000
      6         23.829281   0.000000
      7         24.142094   0.000000
      8         25.258478   0.000000
 
 -0.9090909E-01  0.9090909E-01 -0.1489679E-17  0.9015778E-02
      1         -3.748657   1.000000
      2         16.438609   0.000000
      3         16.765799   0.000000
      4         20.763015   0.000000
      5         22.406238   0.000000
      6         23.448597   0.000000
      7         24.638940   0.000000
      8         25.678442   0.000000
 
  0.1818182E+00  0.1818182E+00 -0.5515928E-17  0.4507889E-02
      1         -3.119911   1.000000
      2         16.353430   0.000000
      3         16.353522   0.000000
      4         18.056352   0.000000
      5         18.097459   0.000000
      6         21.301434   0.000000
      7         27.635588   0.000000
      8         27.635636   0.000000
 
  0.2727273E+00  0.1818182E+00 -0.6367527E-17  0.1803156E-01
      1         -2.258879   1.000000
      2         13.340188   0.000000
      3         15.595926   0.000000
      4         16.733908   0.000000
      5         18.381389   0.000000
      6         20.767375   0.000000
      7         28.050591   0.000000
      8         28.461802   0.000000
 
  0.3636364E+00  0.1818182E+00  0.1836623E-17  0.1803156E-01
      1         -0.935867   1.000000
      2          9.875164   0.002013
      3         15.240755   0.000000
      4         15.240796   0.000000
      5         18.024138   0.000000
      6         22.881114   0.000000
      7         26.821834   0.000000
      8         28.554506   0.000000
 
  0.4545455E+00  0.1818182E+00  0.1437758E-16  0.1803156E-01
      1          0.836498   1.000000
      2          6.720152   1.000000
      3         13.886010   0.000000
      4         15.296752   0.000000
      5         18.023777   0.000000
      6         25.382455   0.000000
      7         25.568142   0.000000
      8         28.649307   0.000000
 
 -0.4545455E+00  0.1818182E+00 -0.1397484E-17  0.1803156E-01
      1          2.951166   1.000000
      2          4.045202   1.000000
      3         12.863271   0.000000
      4         15.754790   0.000000
      5         18.510109   0.000000
      6         24.635168   0.000000
      7         26.585229   0.000000
      8         29.952053   0.000000
 
 -0.3636364E+00  0.1818182E+00 -0.3014294E-16  0.1803156E-01
      1          1.519758   1.000000
      2          5.753971   1.000000
      3         12.240083   0.000000
      4         16.599101   0.000000
      5         19.445027   0.000000
      6         24.073329   0.000000
      7         26.388898   0.000000
      8         30.093142   0.000000
 
 -0.2727273E+00  0.1818182E+00  0.5643310E-17  0.1803156E-01
      1         -0.394302   1.000000
      2          8.769319   1.000000
      3         12.049854   0.000000
      4         17.793849   0.000000
      5         20.798882   0.000000
      6         23.965982   0.000000
      7         25.949070   0.000000
      8         26.996554   0.000000
 
 -0.1818182E+00  0.1818182E+00  0.1367399E-16  0.9015778E-02
      1         -1.869204   1.000000
      2         11.862611   0.000000
      3         12.570560   0.000000
      4         19.219499   0.000000
      5         22.500498   0.000000
      6         24.224484   0.000000
      7         24.423752   0.000000
      8         25.182839   0.000000
 
  0.2727273E+00  0.2727273E+00 -0.2375832E-17  0.4507889E-02
      1         -1.555791   1.000000
      2         14.624338   0.000000
      3         14.701034   0.000000
      4         14.701140   0.000000
      5         16.271964   0.000000
      6         18.561874   0.000000
      7         30.796091   0.000000
      8         30.797409   0.000000
 
  0.3636364E+00  0.2727273E+00  0.7857206E-17  0.1803156E-01
      1         -0.391610   1.000000
      2         11.835610   0.000000
      3         12.843380   0.000000
      4         14.215664   0.000000
      5         16.623417   0.000000
      6         19.231149   0.000000
      7         30.006509   0.000000
      8         31.529484   0.000000
 
  0.4545455E+00  0.2727273E+00  0.7387738E-17  0.1803156E-01
      1          1.224973   1.000000
      2          8.676737   1.000000
      3         11.188610   0.000000
      4         14.141697   0.000000
      5         16.712971   0.000000
      6         21.876945   0.000000
      7         28.785819   0.000000
      8         31.244178   0.000000
 
 -0.4545455E+00  0.2727273E+00 -0.8734272E-17  0.1803156E-01
      1          3.259279   1.000000
      2          5.828337   1.000000
      3          9.958468   0.000025
      4         14.478191   0.000000
      5         17.112108   0.000000
      6         25.021153   0.000000
      7         27.759265   0.000000
      8         30.468425   0.000000
 
 -0.3636364E+00  0.2727273E+00 -0.9160310E-16  0.1803156E-01
      1          3.257765   1.000000
      2          5.816762   1.000000
      3          9.176003   1.000000
      4         15.219096   0.000000
      5         17.942317   0.000000
      6         27.066280   0.000000
      7         27.967880   0.000000
      8         29.589938   0.000000
 
 -0.2727273E+00  0.2727273E+00  0.2675599E-16  0.9015778E-02
      1          1.221098   1.000000
      2          8.329309   1.000000
      3          9.167299   1.000000
      4         16.345592   0.000000
      5         19.189394   0.000000
      6         26.493735   0.000000
      7         27.253646   0.000000
      8         27.848130   0.000000
 
  0.3636364E+00  0.3636364E+00  0.2782595E-16  0.4507889E-02
      1          0.612270   1.000000
      2         10.532885   0.000000
      3         13.594362   0.000000
      4         13.594461   0.000000
      5         15.037295   0.000000
      6         17.233505   0.000000
      7         32.780624   0.000000
      8         33.589470   0.000000
 
  0.4545455E+00  0.3636364E+00  0.2763305E-16  0.1803156E-01
      1          2.067207   1.000000
      2          8.707904   1.000000
      3         11.100200   0.000000
      4         13.385235   0.000000
      5         15.682106   0.000000
      6         18.367675   0.000000
      7         32.114963   0.000000
      8         34.036100   0.000000
 
 -0.4545455E+00  0.3636364E+00 -0.1607106E-16  0.1803156E-01
      1          3.944937   1.000000
      2          7.230765   1.000000
      3          8.272520   1.000000
      4         13.589178   0.000000
      5         16.094099   0.000000
      6         21.360131   0.000000
      7         31.084879   0.000000
      8         33.106366   0.000000
 
 -0.3636364E+00  0.3636364E+00  0.9306852E-17  0.9015778E-02
      1          5.351128   1.000000
      2          5.953886   1.000000
      3          6.917537   1.000000
      4         14.203964   0.000000
      5         16.812584   0.000000
      6         24.859274   0.000000
      7         29.875969   0.000000
      8         31.198514   0.000000
 
  0.4545455E+00  0.4545455E+00  0.1916993E-16  0.4507889E-02
      1          3.348557   1.000000
      2          6.748495   1.000000
      3         13.039542   0.000000
      4         13.039639   0.000000
      5         14.416059   0.000000
      6         16.624489   0.000000
      7         34.334652   0.000000
      8         35.848393   0.000000
 
 -0.4545455E+00  0.4545455E+00  0.1267440E-16  0.9015778E-02
      1          4.762400   1.000000
      2          5.495892   1.000000
      3         10.794081   0.000000
      4         13.107817   0.000000
      5         15.375086   0.000000
      6         18.086449   0.000000
      7         33.717807   0.000000
      8         35.330510   0.000000
 
  0.2727273E+00  0.1818182E+00  0.9090909E-01  0.1803156E-01
      1         -2.806692   1.000000
      2         14.169627   0.000000
      3         14.671202   0.000000
      4         19.079631   0.000000
      5         20.787107   0.000000
      6         22.375906   0.000000
      7         25.952700   0.000000
      8         26.586093   0.000000
 
  0.3636364E+00  0.1818182E+00  0.9090909E-01  0.3606311E-01
      1         -1.635292   1.000000
      2         10.813094   0.000000
      3         13.958089   0.000000
      4         17.639701   0.000000
      5         20.862183   0.000000
      6         23.421864   0.000000
      7         24.920287   0.000000
      8         27.173679   0.000000
 
  0.4545455E+00  0.1818182E+00  0.9090909E-01  0.3606311E-01
      1         -0.009122   1.000000
      2          7.534960   1.000000
      3         13.852656   0.000000
      4         16.218708   0.000000
      5         20.684435   0.000000
      6         23.079556   0.000000
      7         25.956041   0.000000
      8         27.940592   0.000000
 
 -0.4545455E+00  0.1818182E+00  0.9090909E-01  0.3606311E-01
      1          2.037878   1.000000
      2          4.649040   1.000000
      3         14.101874   0.000000
      4         15.176582   0.000000
      5         20.819876   0.000000
      6         22.178117   0.000000
      7         26.655583   0.000000
      8         30.034873   0.000000
 
  0.3636364E+00  0.2727273E+00  0.9090909E-01  0.1803156E-01
      1         -1.245426   1.000000
      2         12.434329   0.000000
      3         12.965265   0.000000
      4         15.208174   0.000000
      5         19.108918   0.000000
      6         20.377700   0.000000
      7         27.572382   0.000000
      8         30.228782   0.000000
 
  0.4545455E+00  0.2727273E+00  0.9090909E-01  0.3606311E-01
      1          0.225358   1.000000
      2          9.341244   0.999999
      3         12.438196   0.000000
      4         13.589510   0.000000
      5         19.424110   0.000000
      6         22.425805   0.000000
      7         26.322050   0.000000
      8         30.737365   0.000000
 
 -0.4545455E+00  0.2727273E+00  0.9090909E-01  0.3606311E-01
      1          2.133644   1.000000
      2          6.343849   1.000000
      3         11.905369   0.000000
      4         12.973801   0.000000
      5         19.663172   0.000000
      6         24.536224   0.000000
      7         26.022737   0.000000
      8         30.398606   0.000000
 
 -0.3636364E+00  0.2727273E+00  0.9090909E-01  0.3606311E-01
      1          3.564177   1.000000
      2          4.635021   1.000000
      3         11.075005   0.000000
      4         13.506787   0.000000
      5         20.267914   0.000000
      6         24.054073   0.000000
      7         28.508105   0.000000
      8         29.074240   0.000000
 
 -0.2727273E+00  0.2727273E+00  0.9090909E-01  0.3606311E-01
      1          1.449943   1.000000
      2          7.289362   1.000000
      3         10.608533   0.000000
      4         14.537014   0.000000
      5         21.235855   0.000000
      6         23.640511   0.000000
      7         26.425992   0.000000
      8         29.662434   0.000000
 
 -0.1818182E+00  0.2727273E+00  0.9090909E-01  0.1803156E-01
      1         -0.316003   1.000000
      2         10.101801   0.000000
      3         10.873375   0.000000
      4         15.968173   0.000000
      5         22.340631   0.000000
      6         23.090494   0.000000
      7         24.339801   0.000000
      8         28.918042   0.000000
 
  0.4545455E+00  0.3636364E+00  0.9090909E-01  0.1803156E-01
      1          0.919771   1.000000
      2         10.705406   0.000000
      3         11.267560   0.000000
      4         12.146264   0.000000
      5         17.948424   0.000000
      6         19.254556   0.000000
      7         29.550213   0.000000
      8         33.472206   0.000000
 
 -0.4545455E+00  0.3636364E+00  0.9090909E-01  0.3606311E-01
      1          2.672464   1.000000
      2          8.376708   1.000000
      3          9.415501   0.999855
      4         11.816135   0.000000
      5         18.563719   0.000000
      6         21.693636   0.000000
      7         28.426022   0.000000
      8         32.757248   0.000000
 
 -0.3636364E+00  0.3636364E+00  0.9090909E-01  0.3606311E-01
      1          4.775388   1.000000
      2          5.779349   1.000000
      3          8.303531   1.000000
      4         12.280301   0.000000
      5         19.115714   0.000000
      6         24.913786   0.000000
      7         27.575178   0.000000
      8         30.079473   0.000000
 
 -0.2727273E+00  0.3636364E+00  0.9090909E-01  0.1803156E-01
      1          3.344162   1.000000
      2          7.143467   1.000000
      3          7.994016   1.000000
      4         13.200114   0.000000
      5         20.029277   0.000000
      6         26.536076   0.000000
      7         26.634172   0.000000
      8         28.939047   0.000000
 
 -0.4545455E+00  0.4545455E+00  0.9090909E-01  0.1803156E-01
      1          3.648491   1.000000
      2          7.031101   1.000000
      3         10.679552   0.000000
      4         11.450633   0.000000
      5         17.349624   0.000000
      6         18.697023   0.000000
      7         31.804221   0.000000
      8         33.968004   0.000000
 
 -0.3636364E+00  0.4545455E+00  0.9090909E-01  0.1803156E-01
      1          5.357966   1.000000
      2          6.041683   1.000000
      3          8.259284   1.000000
      4         11.501300   0.000000
      5         18.277128   0.000000
      6         21.439329   0.000000
      7         30.889230   0.000000
      8         30.930441   0.000000
 
 -0.4545455E+00  0.3636364E+00  0.1818182E+00  0.1803156E-01
      1          1.835349   1.000000
      2          8.921454   1.000000
      3          9.652206   0.609128
      4         11.907211   0.000000
      5         21.997960   0.000000
      6         22.446985   0.000000
      7         25.225200   0.000000
      8         32.241954   0.000000
 
 -0.3636364E+00  0.3636364E+00  0.1818182E+00  0.3606311E-01
      1          3.864036   1.000000
      2          6.400648   1.000000
      3          9.603821   0.831801
      4         10.761195   0.000000
      5         22.373185   0.000000
      6         23.730981   0.000000
      7         25.954499   0.000000
      8         29.494361   0.000000
 
 -0.3636364E+00  0.4545455E+00  0.1818182E+00  0.1803156E-01
      1          4.541513   1.000000
      2          7.783365   1.000000
      3          8.328985   1.000000
      4          9.425500   0.999752
      5         21.423378   0.000000
      6         22.149637   0.000000
      7         27.392756   0.000000
      8         30.159011   0.000000
 
 -0.2727273E+00  0.4545455E+00  0.1818182E+00  0.1803156E-01
      1          5.949795   1.000000
      2          6.549069   1.000000
      3          7.395097   1.000000
      4          9.620146   0.767440
      5         22.347774   0.000000
      6         24.929570   0.000000
      7         26.025628   0.000000
      8         27.643307   0.000000
