       N       E                     dE             d eps       ncg     rms          rms(c)
DAV:   1    -0.416449900356E+01   -0.41645E+01   -0.11528E+03  1040   0.208E+02
DAV:   2    -0.489481127312E+01   -0.73031E+00   -0.69707E+00  1416   0.154E+01
DAV:   3    -0.489754152321E+01   -0.27303E-02   -0.27266E-02   968   0.802E-01
DAV:   4    -0.489754261694E+01   -0.10937E-05   -0.10932E-05  1488   0.158E-02
DAV:   5    -0.489754261614E+01    0.80726E-09   -0.12962E-09   864   0.103E-04    0.295E+00
DAV:   6    -0.488471122271E+01    0.12831E-01   -0.40804E-03  1024   0.277E-01    0.163E+00
DAV:   7    -0.487745208430E+01    0.72591E-02   -0.79763E-03  1056   0.387E-01    0.131E-01
DAV:   8    -0.487741439672E+01    0.37688E-04   -0.22579E-05  1040   0.351E-02
   1 F= -.48774144E+01 E0= -.48758835E+01  d E =-.306173E-02
