fcc Si                                  
   3.50000000000000     
     0.500000    0.500000    0.000000
     0.000000    0.500000    0.500000
     0.500000    0.000000    0.500000
   Si
     1
Direct
  0.000000  0.000000  0.000000
 
   20   20   20
 -1.9519     -1.4711     -.18242      1.5143      3.1334      4.2926      4.8423      4.8826      4.6738      4.4770    
  4.4015      4.4770      4.6738      4.8826      4.8423      4.2926      3.1334      1.5143     -.18242     -1.4711    
 -1.4711     -.58747     0.89658      2.5301      3.8750      4.6699      4.9019      4.7649      4.5371      4.3942    
  4.3942      4.5371      4.7649      4.9018      4.6699      3.8750      2.5301     0.89651     -.58755     -1.4711    
 -.18242     0.89658      2.2981      3.6029      4.4921      4.8562      4.8024      4.5704      4.3750      4.3012    
  4.3750      4.5704      4.8024      4.8562      4.4921      3.6029      2.2980     0.89652     -.18244     -.58755    
  1.5143      2.5301      3.6029      4.4177      4.8090      4.8049      4.5824      4.3513      4.2144      4.2144    
  4.3513      4.5824      4.8049      4.8090      4.4177      3.6029      2.5301      1.5143     0.89652     0.89651    
  3.1334      3.8750      4.4921      4.8090      4.8013      4.5840      4.3321      4.1484      4.0814      4.1484    
  4.3321      4.5840      4.8013      4.8090      4.4921      3.8750      3.1334      2.5301      2.2980      2.5301    
  4.2926      4.6699      4.8562      4.8049      4.5840      4.3247      4.1132      3.9950      3.9950      4.1132    
  4.3247      4.5839      4.8049      4.8562      4.6699      4.2926      3.8750      3.6029      3.6029      3.8750    
  4.8423      4.9019      4.8024      4.5824      4.3321      4.1132      3.9652      3.9131      3.9652      4.1132    
  4.3321      4.5823      4.8024      4.9018      4.8423      4.6699      4.4921      4.4177      4.4921      4.6699    
  4.8826      4.7649      4.5704      4.3513      4.1484      3.9950      3.9131      3.9131      3.9950      4.1484    
  4.3513      4.5703      4.7649      4.8825      4.9018      4.8562      4.8090      4.8090      4.8562      4.9018    
  4.6738      4.5371      4.3750      4.2144      4.0814      3.9950      3.9652      3.9950      4.0814      4.2144    
  4.3750      4.5371      4.6738      4.7649      4.8024      4.8049      4.8013      4.8049      4.8024      4.7649    
  4.4770      4.3942      4.3012      4.2144      4.1484      4.1132      4.1132      4.1484      4.2144      4.3012    
  4.3942      4.4771      4.5371      4.5703      4.5823      4.5839      4.5840      4.5824      4.5704      4.5371    
  4.4015      4.3942      4.3750      4.3513      4.3321      4.3247      4.3321      4.3513      4.3750      4.3942    
  4.4016      4.3942      4.3750      4.3513      4.3321      4.3247      4.3321      4.3513      4.3750      4.3942    
  4.4770      4.5371      4.5704      4.5824      4.5840      4.5839      4.5823      4.5703      4.5371      4.4771    
  4.3942      4.3012      4.2144      4.1484      4.1132      4.1132      4.1484      4.2144      4.3012      4.3942    
  4.6738      4.7649      4.8024      4.8049      4.8013      4.8049      4.8024      4.7649      4.6738      4.5371    
  4.3750      4.2144      4.0814      3.9950      3.9652      3.9950      4.0814      4.2144      4.3750      4.5371    
  4.8826      4.9018      4.8562      4.8090      4.8090      4.8562      4.9018      4.8825      4.7649      4.5703    
  4.3513      4.1484      3.9950      3.9131      3.9131      3.9950      4.1484      4.3513      4.5704      4.7649    
  4.8423      4.6699      4.4921      4.4177      4.4921      4.6699      4.8423      4.9018      4.8024      4.5823    
  4.3321      4.1132      3.9652      3.9131      3.9652      4.1132      4.3321      4.5824      4.8024      4.9019    
  4.2926      3.8750      3.6029      3.6029      3.8750      4.2926      4.6699      4.8562      4.8049      4.5839    
  4.3247      4.1132      3.9950      3.9950      4.1132      4.3247      4.5840      4.8049      4.8562      4.6699    
  3.1334      2.5301      2.2980      2.5301      3.1334      3.8750      4.4921      4.8090      4.8013      4.5840    
  4.3321      4.1484      4.0814      4.1484      4.3321      4.5840      4.8013      4.8090      4.4921      3.8750    
  1.5143     0.89651     0.89652      1.5143      2.5301      3.6029      4.4177      4.8090      4.8049      4.5824    
  4.3513      4.2144      4.2144      4.3513      4.5824      4.8049      4.8090      4.4177      3.6029      2.5301    
 -.18242     -.58755     -.18244     0.89652      2.2980      3.6029      4.4921      4.8562      4.8024      4.5704    
  4.3750      4.3012      4.3750      4.5704      4.8024      4.8562      4.4921      3.6029      2.2981     0.89658    
 -1.4711     -1.4711     -.58755     0.89651      2.5301      3.8750      4.6699      4.9018      4.7649      4.5371    
  4.3942      4.3942      4.5371      4.7649      4.9019      4.6699      3.8750      2.5301     0.89658     -.58747    
 -1.4711     -.58749     0.89657      2.5301      3.8750      4.6699      4.9019      4.7649      4.5371      4.3942    
  4.3942      4.5371      4.7649      4.9018      4.6699      3.8750      2.5301     0.89651     -.58754     -1.4711    
 -.58749     0.56247      2.0628      3.4716      4.4486      4.8721      4.8476      4.6221      4.4261      4.3516    
  4.4260      4.6221      4.8476      4.8721      4.4487      3.4715      2.0627     0.56235     -.58756     -1.0184    
 0.89657      2.0628      3.3132      4.2929      4.8069      4.8722      4.6726      4.4414      4.3023      4.3023    
  4.4413      4.6725      4.8723      4.8070      4.2929      3.3131      2.0627     0.89650     0.19257     0.19259    
  2.5301      3.4716      4.2929      4.7753      4.8708      4.6946      4.4452      4.2576      4.1884      4.2576    
  4.4452      4.6946      4.8708      4.7753      4.2929      3.4715      2.5301      1.7806      1.4950      1.7806    
  3.8750      4.4486      4.8069      4.8708      4.6999      4.4447      4.2269      4.1031      4.1031      4.2269    
  4.4446      4.6999      4.8708      4.8070      4.4487      3.8750      3.2849      2.9118      2.9118      3.2849    
  4.6699      4.8721      4.8722      4.6946      4.4447      4.2161      4.0581      4.0019      4.0581      4.2161    
  4.4446      4.6946      4.8723      4.8721      4.6699      4.3460      4.0523      3.9345      4.0523      4.3460    
  4.9019      4.8476      4.6726      4.4452      4.2269      4.0581      3.9668      3.9668      4.0581      4.2269    
  4.4452      4.6725      4.8476      4.9018      4.8285      4.6913      4.5872      4.5872      4.6912      4.8285    
  4.7649      4.6221      4.4414      4.2576      4.1031      4.0019      3.9668      4.0019      4.1032      4.2576    
  4.4413      4.6221      4.7649      4.8345      4.8308      4.7942      4.7747      4.7942      4.8308      4.8345    
  4.5371      4.4261      4.3023      4.1884      4.1031      4.0581      4.0581      4.1032      4.1884      4.3023    
  4.4261      4.5371      4.6169      4.6582      4.6661      4.6608      4.6608      4.6661      4.6582      4.6169    
  4.3942      4.3516      4.3023      4.2576      4.2269      4.2161      4.2269      4.2576      4.3023      4.3516    
  4.3942      4.4207      4.4278      4.4201      4.4082      4.4028      4.4083      4.4202      4.4278      4.4207    
  4.3942      4.4260      4.4413      4.4452      4.4446      4.4446      4.4452      4.4413      4.4261      4.3942    
  4.3459      4.2869      4.2276      4.1797      4.1531      4.1531      4.1797      4.2276      4.2869      4.3459    
  4.5371      4.6221      4.6725      4.6946      4.6999      4.6946      4.6725      4.6221      4.5371      4.4207    
  4.2869      4.1559      4.0478      3.9775      3.9533      3.9775      4.0478      4.1559      4.2869      4.4207    
  4.7649      4.8476      4.8723      4.8708      4.8708      4.8723      4.8476      4.7649      4.6169      4.4278    
  4.2276      4.0478      3.9145      3.8442      3.8442      3.9145      4.0478      4.2276      4.4278      4.6169    
  4.9018      4.8721      4.8070      4.7753      4.8070      4.8721      4.9018      4.8345      4.6582      4.4201    
  4.1797      3.9775      3.8442      3.7978      3.8442      3.9775      4.1798      4.4202      4.6582      4.8345    
  4.6699      4.4487      4.2929      4.2929      4.4487      4.6699      4.8285      4.8308      4.6661      4.4082    
  4.1531      3.9533      3.8442      3.8442      3.9533      4.1531      4.4083      4.6661      4.8308      4.8285    
  3.8750      3.4715      3.3131      3.4715      3.8750      4.3460      4.6913      4.7942      4.6608      4.4028    
  4.1531      3.9775      3.9145      3.9775      4.1531      4.4028      4.6607      4.7942      4.6913      4.3460    
  2.5301      2.0627      2.0627      2.5301      3.2849      4.0523      4.5872      4.7747      4.6608      4.4083    
  4.1797      4.0478      4.0478      4.1798      4.4083      4.6607      4.7746      4.5872      4.0523      3.2849    
 0.89651     0.56235     0.89650      1.7806      2.9118      3.9345      4.5872      4.7942      4.6661      4.4202    
  4.2276      4.1559      4.2276      4.4202      4.6661      4.7942      4.5872      3.9345      2.9118      1.7806    
 -.58754     -.58756     0.19257      1.4950      2.9118      4.0523      4.6912      4.8308      4.6582      4.4278    
  4.2869      4.2869      4.4278      4.6582      4.8308      4.6913      4.0523      2.9118      1.4950     0.19260    
 -1.4711     -1.0184     0.19259      1.7806      3.2849      4.3460      4.8285      4.8345      4.6169      4.4207    
  4.3459      4.4207      4.6169      4.8345      4.8285      4.3460      3.2849      1.7806     0.19260     -1.0184    
 -.18244     0.89656      2.2981      3.6029      4.4921      4.8562      4.8025      4.5704      4.3750      4.3012    
  4.3750      4.5704      4.8024      4.8562      4.4921      3.6029      2.2980     0.89652     -.18244     -.58756    
 0.89656      2.0628      3.3132      4.2929      4.8069      4.8722      4.6726      4.4414      4.3023      4.3023    
  4.4413      4.6725      4.8723      4.8070      4.2929      3.3131      2.0627     0.89650     0.19257     0.19258    
  2.2981      3.3132      4.2104      4.7551      4.8904      4.7313      4.4838      4.2951      4.2252      4.2951    
  4.4838      4.7313      4.8904      4.7551      4.2104      3.3132      2.2980      1.4949      1.1897      1.4950    
  3.6029      4.2929      4.7551      4.8912      4.7552      4.5058      4.2859      4.1595      4.1596      4.2859    
  4.5058      4.7552      4.8912      4.7551      4.2929      3.6029      2.9118      2.4799      2.4799      2.9118    
  4.4921      4.8069      4.8904      4.7552      4.5124      4.2799      4.1166      4.0580      4.1166      4.2799    
  4.5124      4.7552      4.8904      4.8070      4.4921      4.0523      3.6713      3.5210      3.6713      4.0523    
  4.8562      4.8722      4.7313      4.5058      4.2799      4.1018      4.0044      4.0044      4.1018      4.2799    
  4.5058      4.7313      4.8723      4.8562      4.6913      4.4678      4.3113      4.3113      4.4677      4.6913    
  4.8025      4.6726      4.4838      4.2859      4.1166      4.0044      3.9654      4.0044      4.1166      4.2859    
  4.4838      4.6725      4.8024      4.8308      4.7716      4.6879      4.6498      4.6879      4.7716      4.8308    
  4.5704      4.4414      4.2951      4.1595      4.0580      4.0044      4.0044      4.0581      4.1596      4.2950    
  4.4413      4.5703      4.6582      4.6897      4.6771      4.6560      4.6560      4.6771      4.6897      4.6582    
  4.3750      4.3023      4.2252      4.1596      4.1166      4.1018      4.1166      4.1596      4.2252      4.3023    
  4.3750      4.4278      4.4524      4.4526      4.4418      4.4357      4.4418      4.4526      4.4524      4.4278    
  4.3012      4.3023      4.2951      4.2859      4.2799      4.2799      4.2859      4.2950      4.3023      4.3013    
  4.2869      4.2585      4.2216      4.1865      4.1651      4.1651      4.1865      4.2216      4.2585      4.2869    
  4.3750      4.4413      4.4838      4.5058      4.5124      4.5058      4.4838      4.4413      4.3750      4.2869    
  4.1856      4.0850      4.0001      3.9437      3.9240      3.9437      4.0001      4.0850      4.1856      4.2869    
  4.5704      4.6725      4.7313      4.7552      4.7552      4.7313      4.6725      4.5703      4.4278      4.2585    
  4.0850      3.9321      3.8199      3.7610      3.7610      3.8198      3.9321      4.0850      4.2585      4.4278    
  4.8024      4.8723      4.8904      4.8912      4.8904      4.8723      4.8024      4.6582      4.4524      4.2216    
  4.0001      3.8199      3.7035      3.6635      3.7035      3.8199      4.0001      4.2216      4.4524      4.6582    
  4.8562      4.8070      4.7551      4.7551      4.8070      4.8562      4.8308      4.6897      4.4526      4.1865    
  3.9437      3.7610      3.6635      3.6635      3.7610      3.9437      4.1865      4.4526      4.6897      4.8308    
  4.4921      4.2929      4.2104      4.2929      4.4921      4.6913      4.7716      4.6771      4.4418      4.1651    
  3.9240      3.7610      3.7035      3.7610      3.9240      4.1651      4.4418      4.6771      4.7716      4.6912    
  3.6029      3.3131      3.3132      3.6029      4.0523      4.4678      4.6879      4.6560      4.4357      4.1651    
  3.9437      3.8198      3.8199      3.9437      4.1651      4.4357      4.6559      4.6878      4.4677      4.0523    
  2.2980      2.0627      2.2980      2.9118      3.6713      4.3113      4.6498      4.6560      4.4418      4.1865    
  4.0001      3.9321      4.0001      4.1865      4.4418      4.6559      4.6498      4.3113      3.6713      2.9118    
 0.89652     0.89650      1.4949      2.4799      3.5210      4.3113      4.6879      4.6771      4.4526      4.2216    
  4.0850      4.0850      4.2216      4.4526      4.6771      4.6878      4.3113      3.5210      2.4799      1.4950    
 -.18244     0.19257      1.1897      2.4799      3.6713      4.4677      4.7716      4.6897      4.4524      4.2585    
  4.1856      4.2585      4.4524      4.6897      4.7716      4.4677      3.6713      2.4799      1.1897     0.19258    
 -.58756     0.19258      1.4950      2.9118      4.0523      4.6913      4.8308      4.6582      4.4278      4.2869    
  4.2869      4.4278      4.6582      4.8308      4.6912      4.0523      2.9118      1.4950     0.19258     -.58755    
  1.5142      2.5301      3.6029      4.4177      4.8090      4.8049      4.5824      4.3513      4.2144      4.2144    
  4.3513      4.5824      4.8049      4.8090      4.4177      3.6029      2.5301      1.5143     0.89652     0.89650    
  2.5301      3.4716      4.2929      4.7753      4.8708      4.6946      4.4452      4.2576      4.1884      4.2576    
  4.4452      4.6946      4.8708      4.7753      4.2929      3.4715      2.5300      1.7806      1.4950      1.7806    
  3.6029      4.2929      4.7551      4.8912      4.7552      4.5058      4.2859      4.1595      4.1596      4.2859    
  4.5058      4.7552      4.8912      4.7551      4.2929      3.6029      2.9117      2.4799      2.4799      2.9118    
  4.4177      4.7753      4.8912      4.7735      4.5348      4.3015      4.1366      4.0773      4.1366      4.3015    
  4.5348      4.7736      4.8912      4.7753      4.4178      3.9345      3.5211      3.3587      3.5210      3.9345    
  4.8090      4.8708      4.7552      4.5348      4.3064      4.1243      4.0241      4.0241      4.1243      4.3064    
  4.5348      4.7552      4.8708      4.8090      4.5872      4.3113      4.1235      4.1235      4.3113      4.5872    
  4.8049      4.6946      4.5058      4.3015      4.1243      4.0059      3.9645      4.0059      4.1243      4.3015    
  4.5058      4.6946      4.8049      4.7942      4.6878      4.5657      4.5129      4.5657      4.6878      4.7942    
  4.5824      4.4452      4.2859      4.1366      4.0241      3.9645      3.9645      4.0241      4.1366      4.2859    
  4.4452      4.5824      4.6661      4.6771      4.6382      4.5991      4.5991      4.6382      4.6771      4.6661    
  4.3513      4.2576      4.1595      4.0773      4.0241      4.0059      4.0241      4.0773      4.1596      4.2576    
  4.3513      4.4201      4.4526      4.4515      4.4338      4.4240      4.4338      4.4515      4.4526      4.4202    
  4.2144      4.1884      4.1596      4.1366      4.1243      4.1243      4.1366      4.1596      4.1884      4.2144    
  4.2276      4.2216      4.1983      4.1690      4.1490      4.1490      4.1691      4.1983      4.2216      4.2276    
  4.2144      4.2576      4.2859      4.3015      4.3064      4.3015      4.2859      4.2576      4.2144      4.1559    
  4.0850      4.0097      3.9418      3.8942      3.8771      3.8942      3.9418      4.0097      4.0850      4.1558    
  4.3513      4.4452      4.5058      4.5348      4.5348      4.5058      4.4452      4.3513      4.2276      4.0850    
  3.9404      3.8126      3.7179      3.6679      3.6679      3.7179      3.8125      3.9404      4.0850      4.2276    
  4.5824      4.6946      4.7552      4.7736      4.7552      4.6946      4.5824      4.4201      4.2216      4.0097    
  3.8126      3.6550      3.5546      3.5202      3.5546      3.6550      3.8125      4.0097      4.2216      4.4202    
  4.8049      4.8708      4.8912      4.8912      4.8708      4.8049      4.6661      4.4526      4.1983      3.9418    
  3.7179      3.5546      3.4690      3.4690      3.5546      3.7179      3.9418      4.1983      4.4526      4.6661    
  4.8090      4.7753      4.7551      4.7753      4.8090      4.7942      4.6771      4.4515      4.1690      3.8942    
  3.6679      3.5202      3.4690      3.5202      3.6679      3.8942      4.1691      4.4515      4.6771      4.7942    
  4.4177      4.2929      4.2929      4.4178      4.5872      4.6878      4.6382      4.4338      4.1490      3.8771    
  3.6679      3.5546      3.5546      3.6679      3.8770      4.1490      4.4338      4.6382      4.6879      4.5872    
  3.6029      3.4715      3.6029      3.9345      4.3113      4.5657      4.5991      4.4240      4.1490      3.8942    
  3.7179      3.6550      3.7179      3.8942      4.1490      4.4240      4.5991      4.5657      4.3113      3.9345    
  2.5301      2.5300      2.9117      3.5211      4.1235      4.5129      4.5991      4.4338      4.1691      3.9418    
  3.8125      3.8125      3.9418      4.1691      4.4338      4.5991      4.5129      4.1234      3.5210      2.9118    
  1.5143      1.7806      2.4799      3.3587      4.1235      4.5657      4.6382      4.4515      4.1983      4.0097    
  3.9404      4.0097      4.1983      4.4515      4.6382      4.5657      4.1234      3.3587      2.4799      1.7806    
 0.89652      1.4950      2.4799      3.5210      4.3113      4.6878      4.6771      4.4526      4.2216      4.0850    
  4.0850      4.2216      4.4526      4.6771      4.6879      4.3113      3.5210      2.4799      1.4949     0.89651    
 0.89650      1.7806      2.9118      3.9345      4.5872      4.7942      4.6661      4.4202      4.2276      4.1558    
  4.2276      4.4202      4.6661      4.7942      4.5872      3.9345      2.9118      1.7806     0.89651     0.56236    
  3.1334      3.8750      4.4921      4.8090      4.8013      4.5840      4.3321      4.1484      4.0814      4.1484    
  4.3321      4.5840      4.8013      4.8090      4.4921      3.8750      3.1334      2.5301      2.2980      2.5301    
  3.8750      4.4486      4.8070      4.8708      4.6999      4.4447      4.2269      4.1031      4.1031      4.2269    
  4.4447      4.6999      4.8708      4.8070      4.4487      3.8750      3.2849      2.9118      2.9118      3.2849    
  4.4921      4.8070      4.8904      4.7552      4.5124      4.2799      4.1166      4.0580      4.1166      4.2799    
  4.5124      4.7552      4.8904      4.8070      4.4921      4.0523      3.6713      3.5210      3.6713      4.0523    
  4.8090      4.8708      4.7552      4.5347      4.3064      4.1243      4.0241      4.0241      4.1243      4.3064    
  4.5348      4.7552      4.8708      4.8090      4.5872      4.3113      4.1235      4.1235      4.3113      4.5872    
  4.8013      4.6999      4.5124      4.3064      4.1269      4.0065      3.9643      4.0065      4.1269      4.3064    
  4.5123      4.6999      4.8013      4.7747      4.6498      4.5129      4.4544      4.5129      4.6498      4.7746    
  4.5840      4.4447      4.2799      4.1243      4.0065      3.9439      3.9439      4.0065      4.1243      4.2799    
  4.4446      4.5839      4.6607      4.6559      4.5991      4.5481      4.5481      4.5991      4.6559      4.6607    
  4.3321      4.2269      4.1166      4.0241      3.9643      3.9439      3.9643      4.0241      4.1166      4.2269    
  4.3321      4.4083      4.4418      4.4338      4.4070      4.3933      4.4070      4.4338      4.4418      4.4083    
  4.1484      4.1031      4.0580      4.0241      4.0065      4.0065      4.0241      4.0580      4.1031      4.1484    
  4.1797      4.1865      4.1691      4.1401      4.1186      4.1186      4.1401      4.1691      4.1866      4.1798    
  4.0814      4.1031      4.1166      4.1243      4.1269      4.1243      4.1166      4.1031      4.0815      4.0478    
  4.0001      3.9418      3.8832      3.8390      3.8225      3.8390      3.8832      3.9418      4.0001      4.0478    
  4.1484      4.2269      4.2799      4.3064      4.3064      4.2799      4.2269      4.1484      4.0478      3.9321    
  3.8126      3.7036      3.6204      3.5753      3.5753      3.6204      3.7037      3.8125      3.9320      4.0478    
  4.3321      4.4447      4.5124      4.5348      4.5123      4.4446      4.3321      4.1797      4.0001      3.8126    
  3.6393      3.5008      3.4121      3.3816      3.4121      3.5008      3.6393      3.8125      4.0001      4.1797    
  4.5840      4.6999      4.7552      4.7552      4.6999      4.5839      4.4083      4.1865      3.9418      3.7036    
  3.5008      3.3552      3.2796      3.2796      3.3552      3.5008      3.7037      3.9418      4.1865      4.4083    
  4.8013      4.8708      4.8904      4.8708      4.8013      4.6607      4.4418      4.1691      3.8832      3.6204    
  3.4121      3.2796      3.2344      3.2796      3.4121      3.6204      3.8832      4.1691      4.4418      4.6608    
  4.8090      4.8070      4.8070      4.8090      4.7747      4.6559      4.4338      4.1401      3.8390      3.5753    
  3.3816      3.2796      3.2796      3.3816      3.5753      3.8390      4.1401      4.4338      4.6559      4.7747    
  4.4921      4.4487      4.4921      4.5872      4.6498      4.5991      4.4070      4.1186      3.8225      3.5753    
  3.4121      3.3552      3.4121      3.5753      3.8225      4.1186      4.4070      4.5991      4.6498      4.5872    
  3.8750      3.8750      4.0523      4.3113      4.5129      4.5481      4.3933      4.1186      3.8390      3.6204    
  3.5008      3.5008      3.6204      3.8390      4.1186      4.3933      4.5481      4.5129      4.3113      4.0523    
  3.1334      3.2849      3.6713      4.1235      4.4544      4.5481      4.4070      4.1401      3.8832      3.7037    
  3.6393      3.7037      3.8832      4.1401      4.4070      4.5481      4.4544      4.1235      3.6713      3.2849    
  2.5301      2.9118      3.5210      4.1235      4.5129      4.5991      4.4338      4.1691      3.9418      3.8125    
  3.8125      3.9418      4.1691      4.4338      4.5991      4.5129      4.1235      3.5210      2.9117      2.5301    
  2.2980      2.9118      3.6713      4.3113      4.6498      4.6559      4.4418      4.1866      4.0001      3.9320    
  4.0001      4.1865      4.4418      4.6559      4.6498      4.3113      3.6713      2.9117      2.2980      2.0627    
  2.5301      3.2849      4.0523      4.5872      4.7746      4.6607      4.4083      4.1798      4.0478      4.0478    
  4.1797      4.4083      4.6608      4.7747      4.5872      4.0523      3.2849      2.5301      2.0627      2.0627    
  4.2926      4.6699      4.8562      4.8049      4.5839      4.3247      4.1132      3.9950      3.9950      4.1132    
  4.3247      4.5839      4.8049      4.8562      4.6699      4.2926      3.8750      3.6029      3.6029      3.8750    
  4.6699      4.8721      4.8723      4.6946      4.4447      4.2161      4.0581      4.0019      4.0581      4.2161    
  4.4446      4.6946      4.8722      4.8722      4.6699      4.3460      4.0523      3.9345      4.0523      4.3460    
  4.8562      4.8723      4.7313      4.5058      4.2799      4.1018      4.0044      4.0044      4.1018      4.2799    
  4.5058      4.7313      4.8722      4.8562      4.6913      4.4678      4.3113      4.3113      4.4678      4.6913    
  4.8049      4.6946      4.5058      4.3015      4.1243      4.0059      3.9645      4.0059      4.1243      4.3015    
  4.5058      4.6946      4.8049      4.7942      4.6878      4.5657      4.5129      4.5657      4.6878      4.7942    
  4.5839      4.4447      4.2799      4.1243      4.0065      3.9439      3.9439      4.0065      4.1243      4.2799    
  4.4446      4.5839      4.6607      4.6559      4.5991      4.5481      4.5481      4.5991      4.6559      4.6607    
  4.3247      4.2161      4.1018      4.0059      3.9439      3.9227      3.9439      4.0059      4.1018      4.2161    
  4.3247      4.4028      4.4357      4.4240      4.3933      4.3778      4.3933      4.4240      4.4357      4.4028    
  4.1132      4.0581      4.0044      3.9645      3.9439      3.9439      3.9644      4.0044      4.0581      4.1132    
  4.1531      4.1651      4.1490      4.1186      4.0953      4.0953      4.1186      4.1490      4.1651      4.1531    
  3.9950      4.0019      4.0044      4.0059      4.0065      4.0059      4.0044      4.0019      3.9950      3.9775    
  3.9437      3.8942      3.8390      3.7949      3.7780      3.7949      3.8390      3.8942      3.9437      3.9775    
  3.9950      4.0581      4.1018      4.1243      4.1243      4.1018      4.0581      3.9950      3.9145      3.8199    
  3.7179      3.6204      3.5425      3.4990      3.4990      3.5425      3.6204      3.7179      3.8198      3.9145    
  4.1132      4.2161      4.2799      4.3015      4.2799      4.2161      4.1132      3.9775      3.8199      3.6550    
  3.5008      3.3751      3.2930      3.2645      3.2930      3.3751      3.5008      3.6550      3.8198      3.9775    
  4.3247      4.4446      4.5058      4.5058      4.4446      4.3247      4.1531      3.9437      3.7179      3.5008    
  3.3165      3.1840      3.1150      3.1150      3.1840      3.3165      3.5008      3.7179      3.9437      4.1531    
  4.5839      4.6946      4.7313      4.6946      4.5839      4.4028      4.1651      3.8942      3.6204      3.3751    
  3.1840      3.0638      3.0230      3.0638      3.1840      3.3751      3.6204      3.8942      4.1652      4.4028    
  4.8049      4.8722      4.8722      4.8049      4.6607      4.4357      4.1490      3.8390      3.5425      3.2930    
  3.1150      3.0230      3.0230      3.1150      3.2930      3.5425      3.8390      4.1490      4.4357      4.6607    
  4.8562      4.8722      4.8562      4.7942      4.6559      4.4240      4.1186      3.7949      3.4990      3.2645    
  3.1150      3.0638      3.1150      3.2645      3.4990      3.7949      4.1186      4.4240      4.6559      4.7942    
  4.6699      4.6699      4.6913      4.6878      4.5991      4.3933      4.0953      3.7780      3.4990      3.2930    
  3.1840      3.1840      3.2930      3.4990      3.7780      4.0953      4.3933      4.5991      4.6879      4.6913    
  4.2926      4.3460      4.4678      4.5657      4.5481      4.3778      4.0953      3.7949      3.5425      3.3751    
  3.3165      3.3751      3.5425      3.7949      4.0953      4.3778      4.5481      4.5657      4.4678      4.3460    
  3.8750      4.0523      4.3113      4.5129      4.5481      4.3933      4.1186      3.8390      3.6204      3.5008    
  3.5008      3.6204      3.8390      4.1186      4.3933      4.5481      4.5129      4.3113      4.0523      3.8750    
  3.6029      3.9345      4.3113      4.5657      4.5991      4.4240      4.1490      3.8942      3.7179      3.6550    
  3.7179      3.8942      4.1490      4.4240      4.5991      4.5657      4.3113      3.9345      3.6029      3.4715    
  3.6029      4.0523      4.4678      4.6878      4.6559      4.4357      4.1651      3.9437      3.8198      3.8198    
  3.9437      4.1652      4.4357      4.6559      4.6879      4.4678      4.0523      3.6029      3.3132      3.3132    
  3.8750      4.3460      4.6913      4.7942      4.6607      4.4028      4.1531      3.9775      3.9145      3.9775    
  4.1531      4.4028      4.6607      4.7942      4.6913      4.3460      3.8750      3.4715      3.3132      3.4715    
  4.8423      4.9018      4.8024      4.5824      4.3321      4.1132      3.9652      3.9131      3.9652      4.1132    
  4.3321      4.5823      4.8024      4.9018      4.8423      4.6699      4.4921      4.4177      4.4921      4.6698    
  4.9018      4.8476      4.6726      4.4452      4.2269      4.0581      3.9668      3.9668      4.0581      4.2269    
  4.4452      4.6725      4.8476      4.9018      4.8285      4.6913      4.5872      4.5872      4.6912      4.8285    
  4.8024      4.6726      4.4838      4.2859      4.1166      4.0044      3.9654      4.0044      4.1166      4.2859    