fcc Si                                  
   3.50000000000000     
     0.500000    0.500000    0.000000
     0.000000    0.500000    0.500000
     0.500000    0.000000    0.500000
   Si
     1
Direct
  0.000000  0.000000  0.000000
 
   20   20   20
 -.19519236349E+01 -.14710770413E+01 -.18241508883E+00 0.15142503642E+01 0.31334234120E+01
 0.42925956700E+01 0.48423245713E+01 0.48825592592E+01 0.46738090244E+01 0.44770424226E+01
 0.44015359517E+01 0.44770424226E+01 0.46738090244E+01 0.48825592592E+01 0.48423245713E+01
 0.42925956700E+01 0.31334234120E+01 0.15142503642E+01 -.18241508883E+00 -.14710770413E+01
 -.14710770413E+01 -.58747248917E+00 0.89657648400E+00 0.25300842134E+01 0.38750012044E+01
 0.46698668075E+01 0.49018533216E+01 0.47649382132E+01 0.45371107658E+01 0.43942092449E+01
 0.43942117050E+01 0.45371060426E+01 0.47649132435E+01 0.49018234551E+01 0.46698550448E+01
 0.38749985355E+01 0.25300559726E+01 0.89650771938E+00 -.58754934245E+00 -.14711103844E+01
 -.18241508883E+00 0.89657648400E+00 0.22980707104E+01 0.36029371612E+01 0.44921022865E+01
 0.48562158444E+01 0.48024415036E+01 0.45703662128E+01 0.43750289689E+01 0.43012178994E+01
 0.43750271620E+01 0.45703553607E+01 0.48024260845E+01 0.48562056553E+01 0.44920882907E+01
 0.36028991588E+01 0.22980118246E+01 0.89652346104E+00 -.18244233843E+00 -.58754934245E+00
 0.15142503642E+01 0.25300842134E+01 0.36029371612E+01 0.44177311831E+01 0.48090135807E+01
 0.48049321067E+01 0.45823786713E+01 0.43512987810E+01 0.42144043329E+01 0.42144014596E+01
 0.43512922283E+01 0.45823782810E+01 0.48049454999E+01 0.48090264411E+01 0.44177186805E+01
 0.36029059480E+01 0.25300729660E+01 0.15142708127E+01 0.89652346104E+00 0.89650771938E+00
 0.31334234120E+01 0.38750012044E+01 0.44921022865E+01 0.48090135807E+01 0.48012830198E+01
 0.45839573996E+01 0.43320759878E+01 0.41484408016E+01 0.40814397286E+01 0.41484424478E+01
 0.43320701174E+01 0.45839522177E+01 0.48012981597E+01 0.48090449871E+01 0.44921275109E+01
 0.38750151297E+01 0.31334394308E+01 0.25300729660E+01 0.22980118246E+01 0.25300559726E+01
 0.42925956700E+01 0.46698668075E+01 0.48562158444E+01 0.48049321067E+01 0.45839573996E+01
 0.43247298337E+01 0.41131677602E+01 0.39950173124E+01 0.39950295121E+01 0.41131826095E+01
 0.43247192241E+01 0.45839334107E+01 0.48049282204E+01 0.48562381382E+01 0.46698960666E+01
 0.42926192836E+01 0.38750151297E+01 0.36029059480E+01 0.36028991588E+01 0.38749985355E+01
 0.48423245713E+01 0.49018533216E+01 0.48024415036E+01 0.45823786713E+01 0.43320759878E+01
 0.41131677602E+01 0.39652163101E+01 0.39131174714E+01 0.39652388416E+01 0.41131831313E+01
 0.43320626135E+01 0.45823414711E+01 0.48024010046E+01 0.49018294953E+01 0.48423336766E+01
 0.46698960666E+01 0.44921275109E+01 0.44177186805E+01 0.44920882907E+01 0.46698550448E+01
 0.48825592592E+01 0.47649382132E+01 0.45703662128E+01 0.43512987810E+01 0.41484408016E+01
 0.39950173124E+01 0.39131174714E+01 0.39131205282E+01 0.39950247281E+01 0.41484447868E+01
 0.43512899332E+01 0.45703359044E+01 0.47648934118E+01 0.48825283954E+01 0.49018294953E+01
 0.48562381382E+01 0.48090449871E+01 0.48090264411E+01 0.48562056553E+01 0.49018234551E+01
 0.46738090244E+01 0.45371107658E+01 0.43750289689E+01 0.42144043329E+01 0.40814397286E+01
 0.39950295121E+01 0.39652388416E+01 0.39950247281E+01 0.40814366508E+01 0.42144085516E+01
 0.43750384226E+01 0.45371175073E+01 0.46738027060E+01 0.47648934118E+01 0.48024010046E+01
 0.48049282204E+01 0.48012981597E+01 0.48049454999E+01 0.48024260845E+01 0.47649132435E+01
 0.44770424226E+01 0.43942092449E+01 0.43012178994E+01 0.42144014596E+01 0.41484424478E+01
 0.41131826095E+01 0.41131831313E+01 0.41484447868E+01 0.42144085516E+01 0.43012332156E+01
 0.43942340368E+01 0.44770700912E+01 0.45371175073E+01 0.45703359044E+01 0.45823414711E+01
 0.45839334107E+01 0.45839522177E+01 0.45823782810E+01 0.45703553607E+01 0.45371060426E+01
 0.44015359517E+01 0.43942117050E+01 0.43750271620E+01 0.43512922283E+01 0.43320701174E+01
 0.43247192241E+01 0.43320626135E+01 0.43512899332E+01 0.43750384226E+01 0.43942340368E+01
 0.44015616720E+01 0.43942340368E+01 0.43750384226E+01 0.43512899332E+01 0.43320626135E+01
 0.43247192241E+01 0.43320701174E+01 0.43512922283E+01 0.43750271620E+01 0.43942117050E+01
 0.44770424226E+01 0.45371060426E+01 0.45703553607E+01 0.45823782810E+01 0.45839522177E+01
 0.45839334107E+01 0.45823414711E+01 0.45703359044E+01 0.45371175073E+01 0.44770700912E+01
 0.43942340368E+01 0.43012332156E+01 0.42144085516E+01 0.41484447868E+01 0.41131831313E+01
 0.41131826095E+01 0.41484424478E+01 0.42144014596E+01 0.43012178994E+01 0.43942092449E+01
 0.46738090244E+01 0.47649132435E+01 0.48024260845E+01 0.48049454999E+01 0.48012981597E+01
 0.48049282204E+01 0.48024010046E+01 0.47648934118E+01 0.46738027060E+01 0.45371175073E+01
 0.43750384226E+01 0.42144085516E+01 0.40814366508E+01 0.39950247281E+01 0.39652388416E+01
 0.39950295121E+01 0.40814397286E+01 0.42144043329E+01 0.43750289689E+01 0.45371107658E+01
 0.48825592592E+01 0.49018234551E+01 0.48562056553E+01 0.48090264411E+01 0.48090449871E+01
 0.48562381382E+01 0.49018294953E+01 0.48825283954E+01 0.47648934118E+01 0.45703359044E+01
 0.43512899332E+01 0.41484447868E+01 0.39950247281E+01 0.39131205282E+01 0.39131174714E+01
 0.39950173124E+01 0.41484408016E+01 0.43512987810E+01 0.45703662128E+01 0.47649382132E+01
 0.48423245713E+01 0.46698550448E+01 0.44920882907E+01 0.44177186805E+01 0.44921275109E+01
 0.46698960666E+01 0.48423336766E+01 0.49018294953E+01 0.48024010046E+01 0.45823414711E+01
 0.43320626135E+01 0.41131831313E+01 0.39652388416E+01 0.39131174714E+01 0.39652163101E+01
 0.41131677602E+01 0.43320759878E+01 0.45823786713E+01 0.48024415036E+01 0.49018533216E+01
 0.42925956700E+01 0.38749985355E+01 0.36028991588E+01 0.36029059480E+01 0.38750151297E+01
 0.42926192836E+01 0.46698960666E+01 0.48562381382E+01 0.48049282204E+01 0.45839334107E+01
 0.43247192241E+01 0.41131826095E+01 0.39950295121E+01 0.39950173124E+01 0.41131677602E+01
 0.43247298337E+01 0.45839573996E+01 0.48049321067E+01 0.48562158444E+01 0.46698668075E+01
 0.31334234120E+01 0.25300559726E+01 0.22980118246E+01 0.25300729660E+01 0.31334394308E+01
 0.38750151297E+01 0.44921275109E+01 0.48090449871E+01 0.48012981597E+01 0.45839522177E+01
 0.43320701174E+01 0.41484424478E+01 0.40814397286E+01 0.41484408016E+01 0.43320759878E+01
 0.45839573996E+01 0.48012830198E+01 0.48090135807E+01 0.44921022865E+01 0.38750012044E+01
 0.15142503642E+01 0.89650771938E+00 0.89652346104E+00 0.15142708127E+01 0.25300729660E+01
 0.36029059480E+01 0.44177186805E+01 0.48090264411E+01 0.48049454999E+01 0.45823782810E+01
 0.43512922283E+01 0.42144014596E+01 0.42144043329E+01 0.43512987810E+01 0.45823786713E+01
 0.48049321067E+01 0.48090135807E+01 0.44177311831E+01 0.36029371612E+01 0.25300842134E+01
 -.18241508883E+00 -.58754934245E+00 -.18244233843E+00 0.89652346104E+00 0.22980118246E+01
 0.36028991588E+01 0.44920882907E+01 0.48562056553E+01 0.48024260845E+01 0.45703553607E+01
 0.43750271620E+01 0.43012178994E+01 0.43750289689E+01 0.45703662128E+01 0.48024415036E+01
 0.48562158444E+01 0.44921022865E+01 0.36029371612E+01 0.22980707104E+01 0.89657648400E+00
 -.14710770413E+01 -.14711103844E+01 -.58754934245E+00 0.89650771938E+00 0.25300559726E+01
 0.38749985355E+01 0.46698550448E+01 0.49018234551E+01 0.47649132435E+01 0.45371060426E+01
 0.43942117050E+01 0.43942092449E+01 0.45371107658E+01 0.47649382132E+01 0.49018533216E+01
 0.46698668075E+01 0.38750012044E+01 0.25300842134E+01 0.89657648400E+00 -.58747248917E+00
 -.14710861837E+01 -.58748695483E+00 0.89656839694E+00 0.25300825516E+01 0.38749984812E+01
 0.46698642526E+01 0.49018568805E+01 0.47649439124E+01 0.45371105128E+01 0.43942062612E+01
 0.43942143172E+01 0.45371113869E+01 0.47649131020E+01 0.49018209243E+01 0.46698592127E+01
 0.38750076206E+01 0.25300615352E+01 0.89651024866E+00 -.58754489673E+00 -.14711088454E+01
 -.58748695483E+00 0.56246718458E+00 0.20628181906E+01 0.34715595894E+01 0.44486325280E+01
 0.48721350481E+01 0.48476299853E+01 0.46221212593E+01 0.44260584650E+01 0.43515906167E+01
 0.44260316901E+01 0.46220705866E+01 0.48475891031E+01 0.48721394112E+01 0.44486546029E+01
 0.34715293702E+01 0.20627148906E+01 0.56234513539E+00 -.58756178360E+00 -.10184143282E+01
 0.89656839694E+00 0.20628181906E+01 0.33132192914E+01 0.42929031869E+01 0.48069379889E+01
 0.48722467315E+01 0.46725688756E+01 0.44413721703E+01 0.43022915808E+01 0.43022743444E+01
 0.44413296271E+01 0.46725347131E+01 0.48722572913E+01 0.48069767295E+01 0.42929017369E+01
 0.33131440941E+01 0.20627176962E+01 0.89650402994E+00 0.19257209112E+00 0.19259038574E+00
 0.25300825516E+01 0.34715595894E+01 0.42929031869E+01 0.47753068546E+01 0.48708050723E+01
 0.46945904799E+01 0.44451999290E+01 0.42575712434E+01 0.41883657455E+01 0.42575743385E+01
 0.44451924895E+01 0.46945836075E+01 0.48708230628E+01 0.47753381478E+01 0.42929102799E+01
 0.34715375756E+01 0.25300640209E+01 0.17805922774E+01 0.14949723754E+01 0.17805940696E+01
 0.38749984812E+01 0.44486325280E+01 0.48069379889E+01 0.48708050723E+01 0.46998982774E+01
 0.44446642836E+01 0.42269347954E+01 0.41031264539E+01 0.41031376132E+01 0.42269452898E+01
 0.44446479790E+01 0.46998791709E+01 0.48708227599E+01 0.48069872243E+01 0.44486761945E+01
 0.38750184682E+01 0.32848772384E+01 0.29117728035E+01 0.29117705636E+01 0.32848705970E+01
 0.46698642526E+01 0.48721350481E+01 0.48722467315E+01 0.46945904799E+01 0.44446642836E+01
 0.42161290149E+01 0.40581211857E+01 0.40018612905E+01 0.40581222066E+01 0.42161159428E+01
 0.44446387076E+01 0.46945738707E+01 0.48722503793E+01 0.48721494628E+01 0.46698843289E+01
 0.43459887199E+01 0.40523044667E+01 0.39344760265E+01 0.40522818370E+01 0.43459620246E+01
 0.49018568805E+01 0.48476299853E+01 0.46725688756E+01 0.44451999290E+01 0.42269347954E+01
 0.40581211857E+01 0.39668040979E+01 0.39668090771E+01 0.40581304005E+01 0.42269355122E+01
 0.44451795273E+01 0.46725215437E+01 0.48475714498E+01 0.49018228298E+01 0.48285141480E+01
 0.46912933824E+01 0.45871981499E+01 0.45871710275E+01 0.46912425954E+01 0.48284964475E+01
 0.47649439124E+01 0.46221212593E+01 0.44413721703E+01 0.42575712434E+01 0.41031264539E+01
 0.40018612905E+01 0.39668090771E+01 0.40018872500E+01 0.41031546047E+01 0.42575719498E+01
 0.44413351241E+01 0.46220620015E+01 0.47648944037E+01 0.48345257826E+01 0.48307897566E+01
 0.47942302823E+01 0.47746794484E+01 0.47942104085E+01 0.48307745406E+01 0.48345408548E+01
 0.45371105128E+01 0.44260584650E+01 0.43022915808E+01 0.41883657455E+01 0.41031376132E+01
 0.40581222066E+01 0.40581304005E+01 0.41031546047E+01 0.41883778354E+01 0.43022923430E+01
 0.44260556888E+01 0.45371118890E+01 0.46169306171E+01 0.46581593467E+01 0.46660556364E+01
 0.46607550956E+01 0.46607704209E+01 0.46660865284E+01 0.46581798054E+01 0.46169338867E+01
 0.43942062612E+01 0.43515906167E+01 0.43022743444E+01 0.42575743385E+01 0.42269452898E+01
 0.42161159428E+01 0.42269355122E+01 0.42575719498E+01 0.43022923430E+01 0.43516233348E+01
 0.43942376050E+01 0.44207484336E+01 0.44278268183E+01 0.44201384370E+01 0.44082374909E+01
 0.44027901733E+01 0.44082574513E+01 0.44201593222E+01 0.44278309576E+01 0.44207315251E+01
 0.43942143172E+01 0.44260316901E+01 0.44413296271E+01 0.44451924895E+01 0.44446479790E+01
 0.44446387076E+01 0.44451795273E+01 0.44413351241E+01 0.44260556888E+01 0.43942376050E+01
 0.43458688768E+01 0.42868836309E+01 0.42276144606E+01 0.41797430836E+01 0.41530584383E+01
 0.41530517402E+01 0.41797291890E+01 0.42276045714E+01 0.42868787032E+01 0.43458581648E+01
 0.45371113869E+01 0.46220705866E+01 0.46725347131E+01 0.46945836075E+01 0.46998791709E+01
 0.46945738707E+01 0.46725215437E+01 0.46220620015E+01 0.45371118890E+01 0.44207484336E+01
 0.42868836309E+01 0.41558626459E+01 0.40477876456E+01 0.39775383929E+01 0.39532995937E+01
 0.39775358224E+01 0.40477805425E+01 0.41558504665E+01 0.42868707291E+01 0.44207398529E+01
 0.47649131020E+01 0.48475891031E+01 0.48722572913E+01 0.48708230628E+01 0.48708227599E+01
 0.48722503793E+01 0.48475714498E+01 0.47648944037E+01 0.46169306171E+01 0.44278268183E+01
 0.42276144606E+01 0.40477876456E+01 0.39144835799E+01 0.38441859064E+01 0.38441952352E+01
 0.39145021498E+01 0.40477969657E+01 0.42276076237E+01 0.44278156295E+01 0.46169339982E+01
 0.49018209243E+01 0.48721394112E+01 0.48069767295E+01 0.47753381478E+01 0.48069872243E+01
 0.48721494628E+01 0.49018228298E+01 0.48345257826E+01 0.46581593467E+01 0.44201384370E+01
 0.41797430836E+01 0.39775383929E+01 0.38441859064E+01 0.37977871476E+01 0.38441791150E+01
 0.39775398985E+01 0.41797599114E+01 0.44201604723E+01 0.46581760809E+01 0.48345326247E+01
 0.46698592127E+01 0.44486546029E+01 0.42929017369E+01 0.42929102799E+01 0.44486761945E+01
 0.46698843289E+01 0.48285141480E+01 0.48307897566E+01 0.46660556364E+01 0.44082374909E+01
 0.41530584383E+01 0.39532995937E+01 0.38441952352E+01 0.38441791150E+01 0.39532741669E+01
 0.41530589762E+01 0.44082659820E+01 0.46660822926E+01 0.48307927421E+01 0.48284970565E+01
 0.38750076206E+01 0.34715293702E+01 0.33131440941E+01 0.34715375756E+01 0.38750184682E+01
 0.43459887199E+01 0.46912933824E+01 0.47942302823E+01 0.46607550956E+01 0.44027901733E+01
 0.41530517402E+01 0.39775358224E+01 0.39145021498E+01 0.39775398985E+01 0.41530589762E+01
 0.44027913435E+01 0.46607394469E+01 0.47942025246E+01 0.46912691292E+01 0.43459736646E+01
 0.25300615352E+01 0.20627148906E+01 0.20627176962E+01 0.25300640209E+01 0.32848772384E+01
 0.40523044667E+01 0.45871981499E+01 0.47746794484E+01 0.46607704209E+01 0.44082574513E+01
 0.41797291890E+01 0.40477805425E+01 0.40477969657E+01 0.41797599114E+01 0.44082659820E+01
 0.46607394469E+01 0.47746293753E+01 0.45871630062E+01 0.40522955152E+01 0.32848788828E+01
 0.89651024866E+00 0.56234513539E+00 0.89650402994E+00 0.17805922774E+01 0.29117728035E+01
 0.39344760265E+01 0.45871710275E+01 0.47942104085E+01 0.46660865284E+01 0.44201593222E+01
 0.42276045714E+01 0.41558504665E+01 0.42276076237E+01 0.44201604723E+01 0.46660822926E+01
 0.47942025246E+01 0.45871630062E+01 0.39344714527E+01 0.29117739725E+01 0.17805982607E+01
 -.58754489673E+00 -.58756178360E+00 0.19257209112E+00 0.14949723754E+01 0.29117705636E+01
 0.40522818370E+01 0.46912425954E+01 0.48307745406E+01 0.46581798054E+01 0.44278309576E+01
 0.42868787032E+01 0.42868707291E+01 0.44278156295E+01 0.46581760809E+01 0.48307927421E+01
 0.46912691292E+01 0.40522955152E+01 0.29117739725E+01 0.14949880085E+01 0.19260291850E+00
 -.14711088454E+01 -.10184143282E+01 0.19259038574E+00 0.17805940696E+01 0.32848705970E+01
 0.43459620246E+01 0.48284964475E+01 0.48345408548E+01 0.46169338867E+01 0.44207315251E+01
 0.43458581648E+01 0.44207398529E+01 0.46169339982E+01 0.48345326247E+01 0.48284970565E+01
 0.43459736646E+01 0.32848788828E+01 0.17805982607E+01 0.19260291850E+00 -.10183983236E+01
 -.18243533726E+00 0.89655729091E+00 0.22980690327E+01 0.36029442950E+01 0.44921031622E+01
 0.48562161082E+01 0.48024511940E+01 0.45703756476E+01 0.43750266107E+01 0.43012139936E+01
 0.43750343500E+01 0.45703639877E+01 0.48024237263E+01 0.48562025574E+01 0.44920979812E+01
 0.36029119554E+01 0.22980127003E+01 0.89651806210E+00 -.18244401613E+00 -.58755600276E+00
 0.89655729091E+00 0.20628134632E+01 0.33132257007E+01 0.42929119825E+01 0.48069415878E+01
 0.48722495503E+01 0.46725750071E+01 0.44413759059E+01 0.43022894756E+01 0.43022734223E+01
 0.44413342029E+01 0.46725379959E+01 0.48722550746E+01 0.48069761624E+01 0.42929072595E+01
 0.33131478056E+01 0.20627130094E+01 0.89649610172E+00 0.19256596770E+00 0.19258218646E+00
 0.22980690327E+01 0.33132257007E+01 0.42104372272E+01 0.47550980166E+01 0.48904109890E+01
 0.47312802099E+01 0.44837977797E+01 0.42950675442E+01 0.42251741275E+01 0.42950530286E+01
 0.44837715474E+01 0.47312712458E+01 0.48904455202E+01 0.47551457745E+01 0.42104348678E+01
 0.33131592451E+01 0.22979896123E+01 0.14949361314E+01 0.11897414657E+01 0.14949818851E+01
 0.36029442950E+01 0.42929119825E+01 0.47550980166E+01 0.48911993054E+01 0.47552033247E+01
 0.45057838975E+01 0.42858741787E+01 0.41595497420E+01 0.41595616659E+01 0.42858904650E+01
 0.45057829372E+01 0.47552057717E+01 0.48912327654E+01 0.47551472683E+01 0.42929378451E+01
 0.36029362138E+01 0.29117599487E+01 0.24799032469E+01 0.24799114931E+01 0.29117785771E+01
 0.44921031622E+01 0.48069415878E+01 0.48904109890E+01 0.47552033247E+01 0.45123658830E+01
 0.42799425018E+01 0.41166143003E+01 0.40580205772E+01 0.41166150478E+01 0.42799357656E+01
 0.45123585009E+01 0.47552158209E+01 0.48904472444E+01 0.48069832974E+01 0.44921370814E+01
 0.40523167766E+01 0.36713349640E+01 0.35210457608E+01 0.36713181205E+01 0.40522908284E+01
 0.48562161082E+01 0.48722495503E+01 0.47312802099E+01 0.45057838975E+01 0.42799425018E+01
 0.41018419524E+01 0.40044197538E+01 0.40044065967E+01 0.41018128156E+01 0.42799198690E+01
 0.45057794886E+01 0.47312858788E+01 0.48722517318E+01 0.48562156517E+01 0.46912710180E+01
 0.44677585444E+01 0.43113191463E+01 0.43113079260E+01 0.44677374007E+01 0.46912603079E+01
 0.48024511940E+01 0.46725750071E+01 0.44837977797E+01 0.42858741787E+01 0.41166143003E+01
 0.40044197538E+01 0.39653605800E+01 0.40044234284E+01 0.41166153848E+01 0.42858625412E+01
 0.44837680881E+01 0.46725324090E+01 0.48024131581E+01 0.48307772251E+01 0.47715936560E+01
 0.46878558148E+01 0.46498406392E+01 0.46878530812E+01 0.47715978008E+01 0.48307982646E+01
 0.45703756476E+01 0.44413759059E+01 0.42950675442E+01 0.41595497420E+01 0.40580205772E+01
 0.40044065967E+01 0.40044234284E+01 0.40580545285E+01 0.41595672354E+01 0.42950485627E+01
 0.44413340186E+01 0.45703374975E+01 0.46581639580E+01 0.46896920592E+01 0.46770819946E+01
 0.46559515348E+01 0.46559606578E+01 0.46771013715E+01 0.46897107835E+01 0.46581880466E+01
 0.43750266107E+01 0.43022894756E+01 0.42251741275E+01 0.41595616659E+01 0.41166150478E+01
 0.41018128156E+01 0.41166153848E+01 0.41595672354E+01 0.42251867399E+01 0.43023046377E+01
 0.43750391893E+01 0.44278177638E+01 0.44524226570E+01 0.44525974782E+01 0.44417784241E+01
 0.44356883976E+01 0.44418035660E+01 0.44526259176E+01 0.44524351228E+01 0.44278134128E+01
 0.43012139936E+01 0.43022734223E+01 0.42950530286E+01 0.42858904650E+01 0.42799357656E+01
 0.42799198690E+01 0.42858625412E+01 0.42950485627E+01 0.43023046377E+01 0.43012599154E+01
 0.42868935718E+01 0.42585243339E+01 0.42215594335E+01 0.41865196562E+01 0.41651385256E+01
 0.41651442929E+01 0.41865324676E+01 0.42215688851E+01 0.42585169165E+01 0.42868614790E+01
 0.43750343500E+01 0.44413342029E+01 0.44837715474E+01 0.45057829372E+01 0.45123585009E+01
 0.45057794886E+01 0.44837680881E+01 0.44413340186E+01 0.43750391893E+01 0.42868935718E+01
 0.41856475225E+01 0.40850339006E+01 0.40001363886E+01 0.39437364899E+01 0.39240131893E+01
 0.39437290432E+01 0.40001238230E+01 0.40850190415E+01 0.41856333742E+01 0.42868832790E+01
 0.45703639877E+01 0.46725379959E+01 0.47312712458E+01 0.47552057717E+01 0.47552158209E+01
 0.47312858788E+01 0.46725324090E+01 0.45703374975E+01 0.44278177638E+01 0.42585243339E+01
 0.40850339006E+01 0.39320704404E+01 0.38198554319E+01 0.37609930724E+01 0.37609906807E+01
 0.38198469309E+01 0.39320552707E+01 0.40850214706E+01 0.42585294493E+01 0.44278425682E+01
 0.48024237263E+01 0.48722550746E+01 0.48904455202E+01 0.48912327654E+01 0.48904472444E+01
 0.48722517318E+01 0.48024131581E+01 0.46581639580E+01 0.44524226570E+01 0.42215594335E+01
 0.40001363886E+01 0.38198554319E+01 0.37034985563E+01 0.36634638357E+01 0.37034953460E+01
 0.38198562875E+01 0.40001451073E+01 0.42215713902E+01 0.44524351228E+01 0.46581777003E+01
 0.48562025574E+01 0.48069761624E+01 0.47551457745E+01 0.47551472683E+01 0.48069832974E+01
 0.48562156517E+01 0.48307772251E+01 0.46896920592E+01 0.44525974782E+01 0.41865196562E+01
 0.39437364899E+01 0.37609930724E+01 0.36634638357E+01 0.36634519995E+01 0.37609752984E+01
 0.39437419146E+01 0.41865488977E+01 0.44526255773E+01 0.46896982507E+01 0.48307657434E+01
 0.44920979812E+01 0.42929072595E+01 0.42104348678E+01 0.42929378451E+01 0.44921370814E+01
 0.46912710180E+01 0.47715936560E+01 0.46770819946E+01 0.44417784241E+01 0.41651385256E+01
 0.39240131893E+01 0.37609906807E+01 0.37034953460E+01 0.37609752984E+01 0.39239975332E+01
 0.41651379856E+01 0.44417953596E+01 0.46771018195E+01 0.47715978008E+01 0.46912487270E+01
 0.36029119554E+01 0.33131478056E+01 0.33131592451E+01 0.36029362138E+01 0.40523167766E+01
 0.44677585444E+01 0.46878558148E+01 0.46559515348E+01 0.44356883976E+01 0.41651442929E+01
 0.39437290432E+01 0.38198469309E+01 0.38198562875E+01 0.39437419146E+01 0.41651379856E+01
 0.44356641176E+01 0.46559297726E+01 0.46878466687E+01 0.44677499335E+01 0.40522971886E+01
 0.22980127003E+01 0.20627130094E+01 0.22979896123E+01 0.29117599487E+01 0.36713349640E+01
 0.43113191463E+01 0.46498406392E+01 0.46559606578E+01 0.44418035660E+01 0.41865324676E+01
 0.40001238230E+01 0.39320552707E+01 0.40001451073E+01 0.41865488977E+01 0.44417953596E+01
 0.46559297726E+01 0.46497985944E+01 0.43112793785E+01 0.36713181205E+01 0.29117741625E+01
 0.89651806210E+00 0.89649610172E+00 0.14949361314E+01 0.24799032469E+01 0.35210457608E+01
 0.43113079260E+01 0.46878530812E+01 0.46771013715E+01 0.44526259176E+01 0.42215688851E+01
 0.40850190415E+01 0.40850214706E+01 0.42215713902E+01 0.44526255773E+01 0.46771018195E+01
 0.46878466687E+01 0.43112793785E+01 0.35210096570E+01 0.24798989603E+01 0.14949686383E+01
 -.18244401613E+00 0.19256596770E+00 0.11897414657E+01 0.24799114931E+01 0.36713181205E+01
 0.44677374007E+01 0.47715978008E+01 0.46897107835E+01 0.44524351228E+01 0.42585169165E+01
 0.41856333742E+01 0.42585294493E+01 0.44524351228E+01 0.46896982507E+01 0.47715978008E+01
 0.44677499335E+01 0.36713181205E+01 0.24798989603E+01 0.11897414657E+01 0.19257850047E+00
 -.58755600276E+00 0.19258218646E+00 0.14949818851E+01 0.29117785771E+01 0.40522908284E+01
 0.46912603079E+01 0.48307982646E+01 0.46581880466E+01 0.44278134128E+01 0.42868614790E+01
 0.42868832790E+01 0.44278425682E+01 0.46581777003E+01 0.48307657434E+01 0.46912487270E+01
 0.40522971886E+01 0.29117741625E+01 0.14949686383E+01 0.19257850047E+00 -.58755397825E+00
 0.15142343247E+01 0.25300756545E+01 0.36029485040E+01 0.44177438103E+01 0.48090122462E+01
 0.48049310940E+01 0.45823897362E+01 0.43513063480E+01 0.42143972944E+01 0.42143967059E+01
 0.43513017376E+01 0.45823853952E+01 0.48049383498E+01 0.48090220425E+01 0.44177291365E+01
 0.36029134910E+01 0.25300633457E+01 0.15142590530E+01 0.89652227106E+00 0.89650335158E+00
 0.25300756545E+01 0.34715654962E+01 0.42929226167E+01 0.47753211436E+01 0.48708064610E+01
 0.46945920221E+01 0.44452074351E+01 0.42575731112E+01 0.41883589600E+01 0.42575725685E+01
 0.44451993865E+01 0.46945853775E+01 0.48708160542E+01 0.47753362801E+01 0.42929165680E+01
 0.34715360335E+01 0.25300488380E+01 0.17805779884E+01 0.14949667397E+01 0.17805881628E+01
 0.36029485040E+01 0.42929226167E+01 0.47551110370E+01 0.48912047987E+01 0.47552011145E+01
 0.45057826209E+01 0.42858755532E+01 0.41595478742E+01 0.41595569855E+01 0.42858896172E+01
 0.45057852585E+01 0.47552042589E+01 0.48912279734E+01 0.47551459677E+01 0.42929386106E+01
 0.36029309601E+01 0.29117494527E+01 0.24798968862E+01 0.24799119808E+01 0.29117808696E+01
 0.44177438103E+01 0.47753211436E+01 0.48912047987E+01 0.47735415517E+01 0.45347528744E+01
 0.43014853652E+01 0.41365972879E+01 0.40772910281E+01 0.41366151587E+01 0.43015114390E+01
 0.45347769241E+01 0.47735609105E+01 0.48912231148E+01 0.47753443347E+01 0.44177760923E+01
 0.39345168239E+01 0.35210518458E+01 0.33587206277E+01 0.35210276831E+01 0.39344815506E+01
 0.48090122462E+01 0.48708064610E+01 0.47552011145E+01 0.45347528744E+01 0.43064252487E+01
 0.41243132322E+01 0.40240837334E+01 0.40240840110E+01 0.41243206918E+01 0.43064465128E+01
 0.45347744733E+01 0.47552068591E+01 0.48708044000E+01 0.48090308788E+01 0.45872094930E+01
 0.43113396478E+01 0.41234823998E+01 0.41234543825E+01 0.43112771683E+01 0.45871561091E+01
 0.48049310940E+01 0.46945920221E+01 0.45057826209E+01 0.43014853652E+01 0.41243132322E+01
 0.40058817634E+01 0.39644749739E+01 0.40058770123E+01 0.41243107979E+01 0.43014842115E+01
 0.45057743821E+01 0.46945784340E+01 0.48049265531E+01 0.47942006178E+01 0.46878450926E+01
 0.45656777676E+01 0.45128747814E+01 0.45656710251E+01 0.46878328594E+01 0.47941924267E+01
 0.45823897362E+01 0.44452074351E+01 0.42858755532E+01 0.41365972879E+01 0.40240837334E+01
 0.39644749739E+01 0.39644800715E+01 0.40240945673E+01 0.41366008635E+01 0.42858609492E+01
 0.44451800963E+01 0.45823641078E+01 0.46660687546E+01 0.46770765635E+01 0.46381885469E+01
 0.45990502940E+01 0.45990665133E+01 0.46382216947E+01 0.46771031941E+01 0.46660891896E+01
 0.43513063480E+01 0.42575731112E+01 0.41595478742E+01 0.40772910281E+01 0.40240840110E+01
 0.40058770123E+01 0.40240945673E+01 0.40773100379E+01 0.41595643598E+01 0.42575724848E+01
 0.43512878128E+01 0.44201437932E+01 0.44526067202E+01 0.44514584565E+01 0.44337587718E+01
 0.44240429133E+01 0.44337793311E+01 0.44514880377E+01 0.44526362423E+01 0.44201705701E+01
 0.42143972944E+01 0.41883589600E+01 0.41595569855E+01 0.41366151587E+01 0.41243206918E+01
 0.41243107979E+01 0.41366008635E+01 0.41595643598E+01 0.41883922374E+01 0.42144345561E+01
 0.42276186301E+01 0.42215605749E+01 0.41983138743E+01 0.41690414321E+01 0.41489776748E+01
 0.41489860138E+01 0.41690618518E+01 0.41983342333E+01 0.42215667098E+01 0.42276007267E+01
 0.42143967059E+01 0.42575725685E+01 0.42858896172E+01 0.43015114390E+01 0.43064465128E+01
 0.43014842115E+01 0.42858609492E+01 0.42575724848E+01 0.42144345561E+01 0.41558954547E+01
 0.40850466996E+01 0.40097376667E+01 0.39417997635E+01 0.38942022313E+01 0.38770698543E+01
 0.38942241628E+01 0.39418221017E+01 0.40097342622E+01 0.40850080900E+01 0.41558403687E+01
 0.43513017376E+01 0.44451993865E+01 0.45057852585E+01 0.45347769241E+01 0.45347744733E+01
 0.45057743821E+01 0.44451800963E+01 0.43512878128E+01 0.42276186301E+01 0.40850466996E+01
 0.39404126845E+01 0.38125512765E+01 0.37179291255E+01 0.36678718840E+01 0.36678779256E+01
 0.37179387908E+01 0.38125480977E+01 0.39403907671E+01 0.40850213627E+01 0.42276114685E+01
 0.45823853952E+01 0.46945853775E+01 0.47552042589E+01 0.47735609105E+01 0.47552068591E+01
 0.46945784340E+01 0.45823641078E+01 0.44201437932E+01 0.42215605749E+01 0.40097376667E+01
 0.38125512765E+01 0.36550429191E+01 0.35545699735E+01 0.35201947333E+01 0.35545590663E+01
 0.36550313785E+01 0.38125479386E+01 0.40097461301E+01 0.42215799051E+01 0.44201694200E+01
 0.48049383498E+01 0.48708160542E+01 0.48912279734E+01 0.48912231148E+01 0.48708044000E+01
 0.48049265531E+01 0.46660687546E+01 0.44526067202E+01 0.41983138743E+01 0.39417997635E+01
 0.37179291255E+01 0.35545699735E+01 0.34690438144E+01 0.34690352736E+01 0.35545562504E+01
 0.37179299357E+01 0.39418174737E+01 0.41983341218E+01 0.44526211257E+01 0.46660796313E+01
 0.48090220425E+01 0.47753362801E+01 0.47551459677E+01 0.47753443347E+01 0.48090308788E+01
 0.47942006178E+01 0.46770765635E+01 0.44514584565E+01 0.41690414321E+01 0.38942022313E+01
 0.36678718840E+01 0.35201947333E+01 0.34690352736E+01 0.35201881522E+01 0.36678653321E+01
 0.38942039198E+01 0.41690539381E+01 0.44514760721E+01 0.46770875380E+01 0.47942003106E+01
 0.44177291365E+01 0.42929165680E+01 0.42929386106E+01 0.44177760923E+01 0.45872094930E+01
 0.46878450926E+01 0.46381885469E+01 0.44337587718E+01 0.41489776748E+01 0.38770698543E+01
 0.36678779256E+01 0.35545590663E+01 0.35545562504E+01 0.36678653321E+01 0.38770481720E+01
 0.41489680815E+01 0.44337782126E+01 0.46382210857E+01 0.46878538467E+01 0.45871779246E+01
 0.36029134910E+01 0.34715360335E+01 0.36029309601E+01 0.39345168239E+01 0.43113396478E+01
 0.45656777676E+01 0.45990502940E+01 0.44240429133E+01 0.41489860138E+01 0.38942241628E+01
 0.37179387908E+01 0.36550313785E+01 0.37179299357E+01 0.38942039198E+01 0.41489680815E+01
 0.44240461587E+01 0.45990672585E+01 0.45656795807E+01 0.43113152051E+01 0.39344861244E+01
 0.25300633457E+01 0.25300488380E+01 0.29117494527E+01 0.35210518458E+01 0.41234823998E+01
 0.45128747814E+01 0.45990665133E+01 0.44337793311E+01 0.41690618518E+01 0.39418221017E+01
 0.38125480977E+01 0.38125479386E+01 0.39418174737E+01 0.41690539381E+01 0.44337782126E+01
 0.45990672585E+01 0.45128554243E+01 0.41234460967E+01 0.35210352648E+01 0.29117659065E+01
 0.15142590530E+01 0.17805779884E+01 0.24798968862E+01 0.33587206277E+01 0.41234543825E+01
 0.45656710251E+01 0.46382216947E+01 0.44514880377E+01 0.41983342333E+01 0.40097342622E+01
 0.39403907671E+01 0.40097461301E+01 0.41983341218E+01 0.44514760721E+01 0.46382210857E+01
 0.45656795807E+01 0.41234460967E+01 0.33586962408E+01 0.24798843534E+01 0.17805821795E+01
 0.89652227106E+00 0.14949667397E+01 0.24799119808E+01 0.35210276831E+01 0.43112771683E+01
 0.46878328594E+01 0.46771031941E+01 0.44526362423E+01 0.42215667098E+01 0.40850080900E+01
 0.40850213627E+01 0.42215799051E+01 0.44526211257E+01 0.46770875380E+01 0.46878538467E+01
 0.43113152051E+01 0.35210352648E+01 0.24798843534E+01 0.14949366192E+01 0.89651092701E+00
 0.89650335158E+00 0.17805881628E+01 0.29117808696E+01 0.39344815506E+01 0.45871561091E+01
 0.47941924267E+01 0.46660891896E+01 0.44201705701E+01 0.42276007267E+01 0.41558403687E+01
 0.42276114685E+01 0.44201694200E+01 0.46660796313E+01 0.47942003106E+01 0.45871779246E+01
 0.39344861244E+01 0.29117659065E+01 0.17805821795E+01 0.89651092701E+00 0.56235523326E+00
 0.31334128499E+01 0.38749970615E+01 0.44921128486E+01 0.48090177236E+01 0.48012724577E+01
 0.45839532567E+01 0.43320865498E+01 0.41484449445E+01 0.40814291666E+01 0.41484383049E+01
 0.43320806795E+01 0.45839563606E+01 0.48012875976E+01 0.48090408442E+01 0.44921380729E+01
 0.38750192726E+01 0.31334288687E+01 0.25300688231E+01 0.22980223867E+01 0.25300601155E+01
 0.38749970615E+01 0.44486428508E+01 0.48069566381E+01 0.48708108770E+01 0.46998904386E+01
 0.44446626956E+01 0.42269417985E+01 0.41031248975E+01 0.41031273042E+01 0.42269441306E+01