   1   1   0   0
  0.1071875E+02  0.2474874E-09  0.2474874E-09  0.2474874E-09  0.5000000E-15
  1.000000000000000E-004
  CAR 
 fcc Si                                  
     48.54945163     -5.34448701  301     14.63972776      1.00000000
     -5.344  0.0000E+00  0.0000E+00
     -5.165  0.0000E+00  0.0000E+00
     -4.985  0.0000E+00  0.0000E+00
     -4.806  0.0000E+00  0.0000E+00
     -4.626  0.0000E+00  0.0000E+00
     -4.446  0.0000E+00  0.0000E+00
     -4.267  0.0000E+00  0.0000E+00
     -4.087  0.0000E+00  0.0000E+00
     -3.907  0.0000E+00  0.0000E+00
     -3.728  0.0000E+00  0.0000E+00
     -3.548  0.0000E+00  0.0000E+00
     -3.368  0.8842E-13  0.1588E-13
     -3.189  0.1347E-06  0.2419E-07
     -3.009  0.4429E-03  0.7959E-04
     -2.829  0.6475E-02  0.1243E-02
     -2.650  0.1870E-01  0.4603E-02
     -2.470  0.8151E-01  0.1925E-01
     -2.290  0.1884E-01  0.2263E-01
     -2.111  0.5032E-01  0.3167E-01
     -1.931  0.6052E-01  0.4254E-01
     -1.752  0.1786E+00  0.7462E-01
     -1.572  0.7696E-01  0.8845E-01
     -1.392  0.1125E-01  0.9047E-01
     -1.213  0.3947E-01  0.9756E-01
     -1.033  0.1326E+00  0.1214E+00
     -0.853  0.2492E+00  0.1662E+00
     -0.674  0.3043E-01  0.1716E+00
     -0.494  0.1539E+00  0.1993E+00
     -0.314  0.1050E+00  0.2181E+00
     -0.135  0.1913E+00  0.2525E+00
      0.045  0.8824E-02  0.2541E+00
      0.225  0.5542E-01  0.2641E+00
      0.404  0.7757E-01  0.2780E+00
      0.584  0.4231E+00  0.3540E+00
      0.763  0.1936E+00  0.3888E+00
      0.943  0.6134E-01  0.3998E+00
      1.123  0.1410E+00  0.4251E+00
      1.302  0.1755E+00  0.4566E+00
      1.482  0.2168E+00  0.4956E+00
      1.662  0.1749E-01  0.4987E+00
      1.841  0.5467E-01  0.5086E+00
      2.021  0.1956E+00  0.5437E+00
      2.201  0.3779E+00  0.6116E+00
      2.380  0.4776E-01  0.6202E+00
      2.560  0.2954E+00  0.6732E+00
      2.740  0.2330E+00  0.7151E+00
      2.919  0.4401E+00  0.7942E+00
      3.099  0.2147E-01  0.7980E+00
      3.279  0.3074E-01  0.8035E+00
      3.458  0.4248E-01  0.8112E+00
      3.638  0.3584E+00  0.8756E+00
      3.817  0.2187E+00  0.9149E+00
      3.997  0.1254E+00  0.9374E+00
      4.177  0.1940E+00  0.9722E+00
      4.356  0.4140E+00  0.1047E+01
      4.536  0.2338E+00  0.1089E+01
      4.716  0.5723E-01  0.1099E+01
      4.895  0.1576E+00  0.1127E+01
      5.075  0.4994E+00  0.1217E+01
      5.255  0.4769E+00  0.1303E+01
      5.434  0.6522E-01  0.1314E+01
      5.614  0.1532E+00  0.1342E+01
      5.794  0.2657E+00  0.1390E+01
      5.973  0.1353E+00  0.1414E+01
      6.153  0.3802E-01  0.1421E+01
      6.333  0.1560E+00  0.1449E+01
      6.512  0.2571E+00  0.1495E+01
      6.692  0.5456E+00  0.1593E+01
      6.871  0.1963E+00  0.1628E+01
      7.051  0.4305E+00  0.1706E+01
      7.231  0.3065E+00  0.1761E+01
      7.410  0.5156E+00  0.1853E+01
      7.590  0.8034E-01  0.1868E+01
      7.770  0.5902E-02  0.1869E+01
      7.949  0.1706E+00  0.1899E+01
      8.129  0.6262E+00  0.2012E+01
      8.309  0.4751E+00  0.2097E+01
      8.488  0.2349E+00  0.2139E+01
      8.668  0.1635E+00  0.2169E+01
      8.848  0.1837E+00  0.2202E+01
      9.027  0.5238E-01  0.2211E+01
      9.207  0.8126E-01  0.2226E+01
      9.387  0.1611E+00  0.2255E+01
      9.566  0.7197E+00  0.2384E+01
      9.746  0.3027E+00  0.2438E+01
      9.925  0.2423E+00  0.2482E+01
     10.105  0.4014E+00  0.2554E+01
     10.285  0.6766E+00  0.2676E+01
     10.464  0.1256E+00  0.2698E+01
     10.644  0.1897E+00  0.2732E+01
     10.824  0.3497E+00  0.2795E+01
     11.003  0.1006E+00  0.2813E+01
     11.183  0.9186E-01  0.2830E+01
     11.363  0.3410E+00  0.2891E+01
     11.542  0.2927E+00  0.2943E+01
     11.722  0.4878E+00  0.3031E+01
     11.902  0.1653E+00  0.3061E+01
     12.081  0.5139E-01  0.3070E+01
     12.261  0.3523E+00  0.3133E+01
     12.441  0.3125E+00  0.3189E+01
     12.620  0.5798E+00  0.3294E+01
     12.800  0.3850E+00  0.3363E+01
     12.979  0.4604E+00  0.3445E+01
     13.159  0.6812E+00  0.3568E+01
     13.339  0.1020E+00  0.3586E+01
     13.518  0.1577E+00  0.3614E+01
     13.698  0.4377E-01  0.3622E+01
     13.878  0.3991E+00  0.3694E+01
     14.057  0.2542E+00  0.3740E+01
     14.237  0.3445E+00  0.3802E+01
     14.417  0.3537E+00  0.3865E+01
     14.596  0.5266E+00  0.3960E+01
     14.776  0.5999E+00  0.4068E+01
     14.956  0.1221E+00  0.4089E+01
     15.135  0.4274E+00  0.4166E+01
     15.315  0.1358E+00  0.4191E+01
     15.495  0.2145E-01  0.4194E+01
     15.674  0.3524E+00  0.4258E+01
     15.854  0.5225E+00  0.4352E+01
     16.033  0.9447E+00  0.4521E+01
     16.213  0.1218E+00  0.4543E+01
     16.393  0.2678E+00  0.4591E+01
     16.572  0.4829E+00  0.4678E+01
     16.752  0.2855E+00  0.4729E+01
     16.932  0.2136E+00  0.4768E+01
     17.111  0.3082E+00  0.4823E+01
     17.291  0.4519E+00  0.4904E+01
     17.471  0.7543E+00  0.5040E+01
     17.650  0.2482E+00  0.5084E+01
     17.830  0.4450E+00  0.5164E+01
     18.010  0.4477E+00  0.5245E+01
     18.189  0.3424E+00  0.5306E+01
     18.369  0.2674E+00  0.5354E+01
     18.548  0.3014E+00  0.5408E+01
     18.728  0.6650E+00  0.5528E+01
     18.908  0.2700E+00  0.5576E+01
     19.087  0.3582E+00  0.5641E+01
     19.267  0.3473E+00  0.5703E+01
     19.447  0.8804E+00  0.5861E+01
     19.626  0.4259E+00  0.5938E+01
     19.806  0.2435E+00  0.5982E+01
     19.986  0.5995E+00  0.6089E+01
     20.165  0.3517E+00  0.6152E+01
     20.345  0.6139E+00  0.6263E+01
     20.525  0.2777E+00  0.6313E+01
     20.704  0.4514E+00  0.6394E+01
     20.884  0.2281E+00  0.6435E+01
     21.064  0.2007E+00  0.6471E+01
     21.243  0.5002E+00  0.6561E+01
     21.423  0.5126E+00  0.6653E+01
     21.602  0.3541E+00  0.6716E+01
     21.782  0.5530E+00  0.6816E+01
     21.962  0.5354E+00  0.6912E+01
     22.141  0.3512E+00  0.6975E+01
     22.321  0.4619E+00  0.7058E+01
     22.501  0.4249E+00  0.7134E+01
     22.680  0.3775E+00  0.7202E+01
     22.860  0.4450E+00  0.7282E+01
     23.040  0.2276E+00  0.7323E+01
     23.219  0.2906E+00  0.7375E+01
     23.399  0.4554E+00  0.7457E+01
     23.579  0.2973E+00  0.7510E+01
     23.758  0.5287E+00  0.7605E+01
     23.938  0.3619E+00  0.7670E+01
     24.118  0.3183E+00  0.7727E+01
     24.297  0.5080E+00  0.7819E+01
     24.477  0.5308E+00  0.7914E+01
     24.656  0.1857E+00  0.7947E+01
     24.836  0.4894E+00  0.8035E+01
     25.016  0.4657E+00  0.8119E+01
     25.195  0.3911E+00  0.8189E+01
     25.375  0.3183E+00  0.8246E+01
     25.555  0.2288E+00  0.8288E+01
     25.734  0.5879E+00  0.8393E+01
     25.914  0.7700E+00  0.8531E+01
     26.094  0.8759E+00  0.8689E+01
     26.273  0.6333E+00  0.8803E+01
     26.453  0.2644E+00  0.8850E+01
     26.633  0.3666E+00  0.8916E+01
     26.812  0.2608E+00  0.8963E+01
     26.992  0.3968E+00  0.9034E+01
     27.172  0.6915E+00  0.9158E+01
     27.351  0.5888E+00  0.9264E+01
     27.531  0.5528E+00  0.9363E+01
     27.710  0.5149E+00  0.9456E+01
     27.890  0.4672E+00  0.9540E+01
     28.070  0.1319E+00  0.9564E+01
     28.249  0.7841E+00  0.9704E+01
     28.429  0.6530E+00  0.9822E+01
     28.609  0.4677E+00  0.9906E+01
     28.788  0.4073E+00  0.9979E+01
     28.968  0.2709E+00  0.1003E+02
     29.148  0.3101E+00  0.1008E+02
     29.327  0.4570E+00  0.1017E+02
     29.507  0.4676E+00  0.1025E+02
     29.687  0.5354E+00  0.1035E+02
     29.866  0.5850E+00  0.1045E+02
     30.046  0.4869E+00  0.1054E+02
     30.226  0.7023E+00  0.1066E+02
     30.405  0.4768E+00  0.1075E+02
     30.585  0.5882E+00  0.1086E+02
     30.764  0.5902E+00  0.1096E+02
     30.944  0.3288E+00  0.1102E+02
     31.124  0.5978E+00  0.1113E+02
     31.303  0.5182E+00  0.1122E+02
     31.483  0.4470E+00  0.1130E+02
     31.663  0.5086E+00  0.1139E+02
     31.842  0.5931E+00  0.1150E+02
     32.022  0.3973E+00  0.1157E+02
     32.202  0.2483E+00  0.1162E+02
     32.381  0.4479E+00  0.1170E+02
     32.561  0.5939E+00  0.1180E+02
     32.741  0.4874E+00  0.1189E+02
     32.920  0.8562E+00  0.1204E+02
     33.100  0.3065E+00  0.1210E+02
     33.280  0.3866E+00  0.1217E+02
     33.459  0.8095E+00  0.1231E+02
     33.639  0.6977E+00  0.1244E+02
     33.818  0.6547E+00  0.1256E+02
     33.998  0.2877E+00  0.1261E+02
     34.178  0.1695E+00  0.1264E+02
     34.357  0.4901E+00  0.1273E+02
     34.537  0.7837E+00  0.1287E+02
     34.717  0.5988E+00  0.1298E+02
     34.896  0.6993E+00  0.1310E+02
     35.076  0.5661E+00  0.1320E+02
     35.256  0.4941E+00  0.1329E+02
     35.435  0.5877E+00  0.1340E+02
     35.615  0.6465E+00  0.1351E+02
     35.795  0.3347E+00  0.1357E+02
     35.974  0.7505E+00  0.1371E+02
     36.154  0.9160E+00  0.1387E+02
     36.333  0.4673E+00  0.1396E+02
     36.513  0.3759E+00  0.1402E+02
     36.693  0.3756E+00  0.1409E+02
     36.872  0.1034E+00  0.1411E+02
     37.052  0.2478E+00  0.1415E+02
     37.232  0.5910E+00  0.1426E+02
     37.411  0.1459E+00  0.1429E+02
     37.591  0.1394E+00  0.1431E+02
     37.771  0.4258E+00  0.1439E+02
     37.950  0.1191E+00  0.1441E+02
     38.130  0.7146E+00  0.1454E+02
     38.310  0.2775E+00  0.1459E+02
     38.489  0.5267E+00  0.1468E+02
     38.669  0.5195E+00  0.1478E+02
     38.849  0.2930E+00  0.1483E+02
     39.028  0.5981E+00  0.1494E+02
     39.208  0.5964E+00  0.1504E+02
     39.387  0.3087E+00  0.1510E+02
     39.567  0.3840E+00  0.1517E+02
     39.747  0.2711E-01  0.1517E+02
     39.926  0.2823E+00  0.1522E+02
     40.106  0.3432E+00  0.1529E+02
     40.286  0.4797E+00  0.1537E+02
     40.465  0.3108E+00  0.1543E+02
     40.645  0.4779E+00  0.1551E+02
     40.825  0.5194E-01  0.1552E+02
     41.004  0.3054E-01  0.1553E+02
     41.184  0.7072E-01  0.1554E+02
     41.364  0.3125E+00  0.1560E+02
     41.543  0.6644E-01  0.1561E+02
     41.723  0.2088E+00  0.1565E+02
     41.903  0.1600E+00  0.1567E+02
     42.082  0.1388E+00  0.1570E+02
     42.262  0.1135E+00  0.1572E+02
     42.441  0.2251E-02  0.1572E+02
     42.621  0.7294E-01  0.1573E+02
     42.801  0.3079E+00  0.1579E+02
     42.980  0.2314E-01  0.1579E+02
     43.160  0.1220E+00  0.1582E+02
     43.340  0.7587E-01  0.1583E+02
     43.519  0.3155E-01  0.1583E+02
     43.699  0.8440E-01  0.1585E+02
     43.879  0.2486E+00  0.1589E+02
     44.058  0.1724E+00  0.1593E+02
     44.238  0.7059E-01  0.1594E+02
     44.418  0.1472E+00  0.1596E+02
     44.597  0.4855E-01  0.1597E+02
     44.777  0.1204E-03  0.1597E+02
     44.957  0.7409E-04  0.1597E+02
     45.136  0.2617E-01  0.1598E+02
     45.316  0.7125E-01  0.1599E+02
     45.495  0.2870E-02  0.1599E+02
     45.675  0.4464E-06  0.1599E+02
     45.855  0.1333E-04  0.1599E+02
     46.034  0.8909E-02  0.1599E+02
     46.214  0.3861E-01  0.1600E+02
     46.394  0.2657E-02  0.1600E+02
     46.573  0.8080E-06  0.1600E+02
     46.753  0.5305E-12  0.1600E+02
     46.933  0.0000E+00  0.1600E+02
     47.112  0.0000E+00  0.1600E+02
     47.292  0.0000E+00  0.1600E+02
     47.472  0.0000E+00  0.1600E+02
     47.651  0.0000E+00  0.1600E+02
     47.831  0.0000E+00  0.1600E+02
     48.011  0.0000E+00  0.1600E+02
     48.190  0.0000E+00  0.1600E+02
     48.370  0.0000E+00  0.1600E+02
     48.549  0.0000E+00  0.1600E+02
