    1    1    1    1
  0.1071875E+02  0.2474874E-09  0.2474874E-09  0.2474874E-09  0.5000000E-15
  1.000000000000000E-004
  CAR 
 fcc Si                                  
      4     56      8
 
  0.0000000E+00  0.0000000E+00  0.0000000E+00  0.7513148E-03
      1         -2.894763   1.000000
      2         27.997759   0.000000
      3         27.997840   0.000000
      4         27.997841   0.000000
      5         29.921888   0.000000
      6         29.921964   0.000000
      7         29.921964   0.000000
      8         33.892789   0.000000
 
  0.9090909E-01  0.2906225E-17 -0.4032669E-17  0.6010518E-02
      1         -2.600712   1.000000
      2         24.265597   0.000000
      3         27.170390   0.000000
      4         27.170528   0.000000
      5         31.064664   0.000000
      6         31.189224   0.000000
      7         31.189266   0.000000
      8         35.457068   0.000000
 
  0.1818182E+00  0.9281897E-17 -0.4595891E-17  0.6010518E-02
      1         -1.722242   1.000000
      2         19.521553   0.000000
      3         26.201993   0.000000
      4         26.202252   0.000000
      5         30.967857   0.000000
      6         32.161467   0.000000
      7         32.162054   0.000000
      8         34.390690   0.000000
 
  0.2727273E+00 -0.1036328E-16 -0.1036328E-16  0.6010518E-02
      1         -0.267963   1.000000
      2         15.059893   0.000000
      3         25.691098   0.000000
      4         25.691303   0.000000
      5         30.252501   0.000000
      6         30.252815   0.000000
      7         30.813019   0.000000
      8         36.207209   0.000000
 
  0.3636364E+00  0.2897213E-16  0.1216559E-17  0.6010518E-02
      1          1.746939   1.000000
      2         10.994732   1.000000
      3         25.633688   0.000000
      4         25.633910   0.000000
      5         28.401488   0.000000
      6         28.401771   0.000000
      7         30.954613   0.000000
      8         34.249383   0.000000
 
  0.4545455E+00  0.5857508E-17  0.5857508E-17  0.6010518E-02
      1          4.298272   1.000000
      2          7.416589   1.000000
      3         26.061547   0.000000
      4         26.061753   0.000000
      5         27.014648   0.000000
      6         27.014956   0.000000
      7         31.551463   0.000000
      8         32.687392   0.000000
 
  0.9090909E-01  0.9090909E-01  0.2584837E-17  0.4507889E-02
      1         -2.502812   1.000000
      2         25.527092   0.000000
      3         25.527137   0.000000
      4         26.034184   0.000000
      5         29.180982   0.000000
      6         32.971699   0.000000
      7         32.971758   0.000000
      8         33.038950   0.000000
 
  0.1818182E+00  0.9090909E-01 -0.4900031E-17  0.1803156E-01
      1         -1.819356   1.000000
      2         21.248320   0.000000
      3         24.326423   0.000000
      4         26.234564   0.000000
      5         29.472785   0.000000
      6         30.589170   0.000000
      7         33.688881   0.000000
      8         34.752577   0.000000
 
  0.2727273E+00  0.9090909E-01 -0.4595891E-17  0.1803156E-01
      1         -0.557830   1.000000
      2         16.717941   0.000000
      3         23.602958   0.000000
      4         25.834015   0.000000
      5         27.409357   0.000000
      6         32.405399   0.000000
      7         33.523772   0.000000
      8         33.776723   0.000000
 
  0.3636364E+00  0.9090909E-01  0.4514787E-16  0.1803156E-01
      1          1.269429   1.000000
      2         12.526602   1.000000
      3         23.370823   0.000000
      4         25.310239   0.000000
      5         25.701417   0.000000
      6         31.648530   0.000000
      7         33.364671   0.000000
      8         35.651277   0.000000
 
  0.4545455E+00  0.9090909E-01  0.4631937E-16  0.1803156E-01
      1          3.642255   1.000000
      2          8.797103   1.000000
      3         23.632303   0.000000
      4         23.689271   0.000000
      5         26.020303   0.000000
      6         30.126070   0.000000
      7         33.693576   0.000000
      8         35.067647   0.000000
 
 -0.4545455E+00  0.9090909E-01  0.1378767E-16  0.1803156E-01
      1          5.485131   1.000000
      2          6.610062   1.000000
      3         22.574715   0.000000
      4         24.398318   0.000000
      5         26.842765   0.000000
      6         29.073368   0.000000
      7         33.344603   0.000000
      8         35.101345   0.000000
 
 -0.3636364E+00  0.9090909E-01  0.1495917E-16  0.1803156E-01
      1          2.792907   1.000000
      2          9.983900   1.000000
      3         21.963382   0.000000
      4         25.640279   0.000000
      5         28.152116   0.000000
      6         28.475354   0.000000
      7         32.689931   0.000000
      8         36.276627   0.000000
 
 -0.2727273E+00  0.9090909E-01  0.5082514E-16  0.1803156E-01
      1          0.598384   1.000000
      2         13.867268   1.000000
      3         21.876164   0.000000
      4         27.304708   0.000000
      5         28.413683   0.000000
      6         29.932050   0.000000
      7         32.367006   0.000000
      8         35.895321   0.000000
 
 -0.1818182E+00  0.9090909E-01  0.1036328E-16  0.1803156E-01
      1         -1.041964   1.000000
      2         18.151915   0.000000
      3         22.321236   0.000000
      4         28.525302   0.000000
      5         29.610437   0.000000
      6         32.043544   0.000000
      7         32.306989   0.000000
      8         32.909469   0.000000
 
 -0.9090909E-01  0.9090909E-01 -0.5812450E-17  0.9015778E-02
      1         -2.111990   1.000000
      2         22.322400   0.000000
      3         23.656058   0.000000
      4         28.791035   0.000000
      5         30.251666   0.000000
      6         31.948455   0.000000
      7         32.804507   0.000000
      8         33.240478   0.000000
 
  0.1818182E+00  0.1818182E+00 -0.5238668E-17  0.4507889E-02
      1         -1.333086   1.000000
      2         22.915907   0.000000
      3         22.915956   0.000000
      4         23.246780   0.000000
      5         26.873531   0.000000
      6         27.687379   0.000000
      7         37.076745   0.000000
      8         37.076754   0.000000
 
  0.2727273E+00  0.1818182E+00 -0.4032669E-17  0.1803156E-01
      1         -0.267934   1.000000
      2         18.778389   0.000000
      3         22.010799   0.000000
      4         23.897756   0.000000
      5         24.183270   0.000000
      6         28.262790   0.000000
      7         36.964587   0.000000
      8         38.006941   0.000000
 
  0.3636364E+00  0.1818182E+00  0.1969024E-16  0.1803156E-01
      1          1.364242   1.000000
      2         14.556717   0.879792
      3         21.609145   0.000000
      4         21.744272   0.000000
      5         24.051136   0.000000
      6         30.943556   0.000000
      7         35.296943   0.000000
      8         38.130114   0.000000
 
  0.4545455E+00  0.1818182E+00 -0.1383273E-16  0.1803156E-01
      1          3.545932   1.000000
      2         10.699869   1.000000
      3         19.902437   0.000000
      4         21.696573   0.000000
      5         24.270583   0.000000
      6         33.679306   0.000000
      7         34.165604   0.000000
      8         38.054409   0.000000
 
 -0.4545455E+00  0.1818182E+00  0.1955506E-16  0.1803156E-01
      1          6.215859   1.000000
      2          7.350603   1.000000
      3         18.587597   0.000000
      4         22.290813   0.000000
      5         24.967631   0.000000
      6         32.497813   0.000000
      7         35.917907   0.000000
      8         39.040857   0.000000
 
 -0.3636364E+00  0.1818182E+00  0.1378767E-16  0.1803156E-01
      1          4.393950   1.000000
      2          9.494643   1.000000
      3         17.819380   0.000000
      4         23.380022   0.000000
      5         26.174511   0.000000
      6         31.755884   0.000000
      7         35.470742   0.000000
      8         39.027465   0.000000
 
 -0.2727273E+00  0.1818182E+00 -0.5857508E-17  0.1803156E-01
      1          2.032868   1.000000
      2         13.118618   1.000000
      3         17.648351   0.000000
      4         24.961605   0.000000
      5         27.856590   0.000000
      6         31.456757   0.000000
      7         34.848449   0.000000
      8         35.297216   0.000000
 
 -0.1818182E+00  0.1818182E+00  0.9191782E-17  0.9015778E-02
      1          0.213799   1.000000
      2         16.581312   0.000000
      3         18.627507   0.000000
      4         27.006840   0.000000
      5         29.922037   0.000000
      6         31.070953   0.000000
      7         32.561181   0.000000
      8         33.975365   0.000000
 
  0.2727273E+00  0.2727273E+00 -0.2653831E-17  0.4507889E-02
      1          0.597790   1.000000
      2         20.931724   0.000000
      3         20.931769   0.000000
      4         20.969173   0.000000
      5         21.060118   0.000000
      6         25.986645   0.000000
      7         39.944443   0.000000
      8         40.982901   0.000000
 
  0.3636364E+00  0.2727273E+00  0.2198818E-16  0.1803156E-01
      1          2.029655   1.000000
      2         16.965864   0.000000
      3         18.511085   0.000000
      4         20.350514   0.000000
      5         22.221219   0.000000
      6         26.793296   0.000000
      7         39.083721   0.000000
      8         41.769586   0.000000
 
  0.4545455E+00  0.2727273E+00 -0.2861167E-17  0.1803156E-01
      1          4.009895   1.000000
      2         13.081229   1.000000
      3         16.472455   0.000000
      4         20.272938   0.000000
      5         22.650612   0.000000
      6         29.775528   0.000000
      7         37.597954   0.000000
      8         41.247941   0.000000
 
 -0.4545455E+00  0.2727273E+00  0.4505775E-17  0.1803156E-01
      1          6.500267   1.000000
      2          9.597883   1.000000
      3         14.973386   0.000001
      4         20.697638   0.000000
      5         23.263303   0.000000
      6         33.511856   0.000000
      7         36.378784   0.000000
      8         40.159230   0.000000
 
 -0.3636364E+00  0.2727273E+00  0.5677277E-17  0.1803156E-01
      1          6.528839   1.000000
      2          9.479750   1.000000
      3         14.091276   1.000000
      4         21.622469   0.000000
      5         24.338049   0.000000
      6         35.523021   0.000000
      7         37.158389   0.000000
      8         38.973620   0.000000
 
 -0.2727273E+00  0.2727273E+00  0.2072657E-16  0.9015778E-02
      1          4.019056   1.000000
      2         12.222688   1.000000
      3         14.447108   0.996776
      4         23.044249   0.000000
      5         25.899193   0.000000
      6         34.834978   0.000000
      7         35.416697   0.000000
      8         37.093321   0.000000
 
  0.3636364E+00  0.3636364E+00  0.2421713E-16  0.4507889E-02
      1          3.255940   1.000000
      2         15.712485   0.000000
      3         19.408152   0.000000
      4         19.605575   0.000000
      5         19.605617   0.000000
      6         24.733095   0.000000
      7         42.132114   0.000000
      8         44.068468   0.000000
 
  0.4545455E+00  0.3636364E+00  0.1591665E-16  0.1803156E-01
      1          5.019602   1.000000
      2         13.444586   1.000000
      3         15.941208   0.000000
      4         19.359901   0.000000
      5         21.123531   0.000000
      6         25.840319   0.000000
      7         41.618244   0.000000
      8         44.368193   0.000000
 
 -0.4545455E+00  0.3636364E+00 -0.3604620E-17  0.1803156E-01
      1          7.246929   1.000000
      2         11.668929   1.000000
      3         12.559173   1.000000
      4         19.611099   0.000000
      5         21.915111   0.000000
      6         29.150017   0.000000
      7         40.418937   0.000000
      8         43.138374   0.000000
 
 -0.3636364E+00  0.3636364E+00 -0.2433119E-17  0.9015778E-02
      1          9.145561   1.000000
      2          9.324444   1.000000
      3         11.545211   1.000000
      4         20.360989   0.000000
      5         22.898811   0.000000
      6         33.227521   0.000000
      7         39.319439   0.000000
      8         39.842107   0.000000
 
  0.4545455E+00  0.4545455E+00  0.1639363E-16  0.4507889E-02
      1          6.514016   1.000000
      2         11.084298   1.000000
      3         18.626390   0.000000
      4         18.946095   0.000000
      5         18.946136   0.000000
      6         24.048459   0.000000
      7         44.098769   0.000000
      8         46.099727   0.000000
 
 -0.4545455E+00  0.4545455E+00 -0.1171502E-16  0.9015778E-02
      1          7.885872   1.000000
      2          9.908039   1.000000
      3         15.571981   0.000000
      4         19.030184   0.000000
      5         20.753352   0.000000
      6         25.509932   0.000000
      7         43.554200   0.000000
      8         45.181333   0.000000
 
  0.2727273E+00  0.1818182E+00  0.9090909E-01  0.1803156E-01
      1         -0.945097   1.000000
      2         19.469517   0.000000
      3         21.158296   0.000000
      4         27.124972   0.000000
      5         27.252077   0.000000
      6         29.807815   0.000000
      7         34.559689   0.000000
      8         35.403582   0.000000
 
  0.3636364E+00  0.1818182E+00  0.9090909E-01  0.3606311E-01
      1          0.502451   1.000000
      2         15.645956   0.000000
      3         20.008952   0.000000
      4         24.720274   0.000000
      5         27.634618   0.000000
      6         31.643617   0.000000
      7         32.830195   0.000000
      8         35.975858   0.000000
 
  0.4545455E+00  0.1818182E+00  0.9090909E-01  0.3606311E-01
      1          2.507513   1.000000
      2         11.684394   1.000000
      3         19.855470   0.000000
      4         22.750965   0.000000
      5         27.738987   0.000000
      6         30.695228   0.000000
      7         34.835021   0.000000
      8         36.635378   0.000000
 
 -0.4545455E+00  0.1818182E+00  0.9090909E-01  0.3606311E-01
      1          5.043690   1.000000
      2          8.145232   1.000000
      3         20.243951   0.000000
      4         21.314125   0.000000
      5         28.203876   0.000000
      6         29.327820   0.000000
      7         36.069545   0.000000
      8         38.495498   0.000000
 
  0.3636364E+00  0.2727273E+00  0.9090909E-01  0.1803156E-01
      1          0.981399   1.000000
      2         17.305458   0.000000
      3         19.116078   0.000000
      4         21.459033   0.000000
      5         25.259158   0.000000
      6         28.226949   0.000000
      7         36.277913   0.000000
      8         39.965758   0.000000
 
  0.4545455E+00  0.2727273E+00  0.9090909E-01  0.3606311E-01
      1          2.789592   1.000000
      2         13.830233   1.000000
      3         18.191134   0.000000
      4         19.340598   0.000000
      5         26.065587   0.000000
      6         30.503684   0.000000
      7         34.613772   0.000000
      8         40.563216   0.000000
 
 -0.4545455E+00  0.2727273E+00  0.9090909E-01  0.3606311E-01
      1          5.133269   1.000000
      2         10.219980   1.000000
      3         17.439876   0.000000
      4         18.605449   0.000000
      5         26.562508   0.000000
      6         32.770598   0.000000
      7         34.355229   0.000000
      8         40.191274   0.000000
 
 -0.3636364E+00  0.2727273E+00  0.9090909E-01  0.3606311E-01
      1          6.953556   1.000000
      2          8.057604   1.000000
      3         16.373658   0.000000
      4         19.309363   0.000000
      5         27.411169   0.000000
      6         31.850286   0.000000
      7         37.674805   0.000000
      8         38.375567   0.000000
 
 -0.2727273E+00  0.2727273E+00  0.9090909E-01  0.3606311E-01
      1          4.298943   1.000000
      2         11.296152   1.000000
      3         15.870448   0.000000
      4         20.605136   0.000000
      5         28.707739   0.000000
      6         31.157266   0.000000
      7         35.058844   0.000000
      8         39.021554   0.000000
 
 -0.1818182E+00  0.2727273E+00  0.9090909E-01  0.1803156E-01
      1          2.127212   1.000000
      2         14.395745   0.999720
      3         16.554458   0.000000
      4         22.418085   0.000000
      5         30.200950   0.000000
      6         30.362618   0.000000
      7         32.427579   0.000000
      8         38.046557   0.000000
 
  0.4545455E+00  0.3636364E+00  0.9090909E-01  0.1803156E-01
      1          3.633372   1.000000
      2         15.862286   0.000000
      3         16.004606   0.000000
      4         17.888478   0.000000
      5         23.860086   0.000000
      6         27.048980   0.000000
      7         38.561773   0.000000
      8         43.797111   0.000000
 
 -0.4545455E+00  0.3636364E+00  0.9090909E-01  0.3606311E-01
      1          5.764112   1.000000
      2         12.700413   1.000000
      3         14.232843   1.000000
      4         17.315368   0.000000
      5         25.040402   0.000000
      6         29.644371   0.000000
      7         37.189972   0.000000
      8         42.685320   0.000000
 
 -0.3636364E+00  0.3636364E+00  0.9090909E-01  0.3606311E-01
      1          8.318970   1.000000
      2          9.484214   1.000000
      3         12.989708   1.000000
      4         17.831163   0.000000
      5         25.896893   0.000000
      6         33.387194   0.000000
      7         36.024682   0.000000
      8         39.393148   0.000000
 
 -0.2727273E+00  0.3636364E+00  0.9090909E-01  0.1803156E-01
      1          6.619318   1.000000
      2         10.775835   1.000000
      3         12.978103   1.000000
      4         18.948066   0.000000
      5         27.109657   0.000000
      6         34.496216   0.000000
      7         35.579395   0.000000
      8         38.076746   0.000000
 
 -0.4545455E+00  0.4545455E+00  0.9090909E-01  0.1803156E-01
      1          6.881300   1.000000
      2         11.441839   1.000000
      3         15.137291   0.000000
      4         17.147993   0.000000
      5         23.150705   0.000000
      6         26.406460   0.000000
      7         41.285665   0.000000
      8         43.889748   0.000000
 
 -0.3636364E+00  0.4545455E+00  0.9090909E-01  0.1803156E-01
      1          8.605010   1.000000
      2         10.601942   1.000000
      3         12.457177   1.000000
      4         16.943638   0.000000
      5         24.683976   0.000000
      6         29.334737   0.000000
      7         39.902027   0.000000
      8         40.473694   0.000000
 
 -0.4545455E+00  0.3636364E+00  0.1818182E+00  0.1803156E-01
      1          4.760627   1.000000
      2         12.947799   1.000000
      3         15.049186   0.000000
      4         17.314290   0.000000
      5         28.903523   0.000000
      6         30.990497   0.000000
      7         33.149281   0.000000
      8         42.061723   0.000000
 
 -0.3636364E+00  0.3636364E+00  0.1818182E+00  0.3606311E-01
      1          7.239127   1.000000
      2         10.201715   1.000000
      3         14.625928   0.577366
      4         15.923046   0.000000
      5         30.155742   0.000000
      6         31.350488   0.000000
      7         34.393595   0.000000
      8         38.701580   0.000000
 
 -0.3636364E+00  0.4545455E+00  0.1818182E+00  0.1803156E-01
      1          7.978962   1.000000
      2         12.226750   1.000000
      3         12.440255   1.000000
      4         14.647085   0.458563
      5         28.226199   0.000000
      6         30.590655   0.000000
      7         35.806094   0.000000
      8         39.457787   0.000000
 
 -0.2727273E+00  0.4545455E+00  0.1818182E+00  0.1803156E-01
      1          9.775817   1.000000
      2         10.046159   1.000000
      3         12.135181   1.000000
      4         14.630758   0.550469
      5         29.890289   0.000000
      6         33.517819   0.000000
      7         33.864097   0.000000
      8         36.484663   0.000000
