       N       E                     dE             d eps       ncg     rms          rms(c)
DAV:   1    -0.363070965354E+01   -0.36307E+01   -0.13514E+03  1072   0.220E+02
DAV:   2    -0.446443733415E+01   -0.83373E+00   -0.81100E+00  1304   0.166E+01
DAV:   3    -0.446617586457E+01   -0.17385E-02   -0.17385E-02  1016   0.688E-01
DAV:   4    -0.446617628380E+01   -0.41923E-06   -0.41973E-06  1464   0.943E-03
DAV:   5    -0.446617628270E+01    0.11023E-08   -0.27651E-11   936   0.196E-05    0.515E+00
DAV:   6    -0.444095910179E+01    0.25217E-01   -0.34768E-03  1120   0.283E-01    0.289E+00
DAV:   7    -0.442578127293E+01    0.15178E-01   -0.75378E-03  1128   0.422E-01    0.181E-01
DAV:   8    -0.442569094144E+01    0.90331E-04   -0.19689E-05   920   0.296E-02
   1 F= -.44256909E+01 E0= -.44234194E+01  d E =-.454310E-02
