 vasp.6.3.0 20Jan22 (build Feb 01 2022 16:52:37) complex                        
  
 executed on           TETRA_NSC1 date 2022.02.22  16:07:10
 running    4 mpi-ranks, with    1 threads/rank
 distrk:  each k-point on    4 cores,    1 groups
 distr:  one band on NCORE=   1 cores,    4 groups


--------------------------------------------------------------------------------------------------------


 INCAR:
   SYSTEM = fcc Si
   ISTART = 0
   ICHARG = 2
   ENCUT = 240
   ISMEAR = 0
   SIGMA = 0.1

 POTCAR:    PAW_PBE Si 05Jan2001                  
 POTCAR:    PAW_PBE Si 05Jan2001                  
   VRHFIN =Si: s2p2                                                                                 
   LEXCH  = PE                                                                                      
   EATOM  =   103.0669 eV,    7.5752 Ry                                                             
                                                                                                    
   TITEL  = PAW_PBE Si 05Jan2001                                                                    
   LULTRA =        F    use ultrasoft PP ?                                                          
   IUNSCR =        1    unscreen: 0-lin 1-nonlin 2-no                                               
   RPACOR =    1.500    partial core radius                                                         
   POMASS =   28.085; ZVAL   =    4.000    mass and valenz                                          
   RCORE  =    1.900    outmost cutoff radius                                                       
   RWIGS  =    2.480; RWIGS  =    1.312    wigner-seitz radius (au A)                               
   ENMAX  =  245.345; ENMIN  =  184.009 eV                                                          
   ICORE  =        2    local potential                                                             
   LCOR   =        T    correct aug charges                                                         
   LPAW   =        T    paw PP                                                                      
   EAUG   =  322.069                                                                                
   DEXC   =    0.000                                                                                
   RMAX   =    1.950    core radius for proj-oper                                                   
   RAUG   =    1.300    factor for augmentation sphere                                              
   RDEP   =    1.993    radius for radial grids                                                     
   RDEPT  =    1.837    core radius for aug-charge                                                  
                                                                                                    
   Atomic configuration                                                                             
    6 entries                                                                                       
     n  l   j            E        occ.                                                              
     1  0  0.50     -1785.8828   2.0000                                                             
     2  0  0.50      -139.4969   2.0000                                                             
     2  1  1.50       -95.5546   6.0000                                                             
     3  0  0.50       -10.8127   2.0000                                                             
     3  1  0.50        -4.0811   2.0000                                                             
     3  2  1.50        -4.0817   0.0000                                                             
   Description                                                                                      
     l       E           TYP  RCUT    TYP  RCUT                                                     
     0    -10.8127223     23  1.900                                                                 
     0     -7.6451159     23  1.900                                                                 
     1     -4.0811372     23  1.900                                                                 
     1      2.4879257     23  1.900                                                                 
     2     -4.0817478      7  1.900                                                                 
  local pseudopotential read in
  partial core-charges read in
  partial kinetic energy density read in
  atomic valenz-charges read in
  non local Contribution for L=           0  read in
    real space projection operators read in
  non local Contribution for L=           0  read in
    real space projection operators read in
  non local Contribution for L=           1  read in
    real space projection operators read in
  non local Contribution for L=           1  read in
    real space projection operators read in
    PAW grid and wavefunctions read in
 
   number of l-projection  operators is LMAX  =           4
   number of lm-projection operators is LMMAX =           8
 
  PAW_PBE Si 05Jan2001                  :
 energy of atom  1       EATOM= -103.0669
 kinetic energy error for atom=    0.0061 (will be added to EATOM!!)
 
 
 POSCAR: fcc:
  positions in cartesian coordinates
  No initial velocities read in
 exchange correlation table for  LEXCH =        8
   RHO(1)=    0.500       N(1)  =     2000
   RHO(2)=  100.500       N(2)  =     4000
 


--------------------------------------------------------------------------------------------------------


 ion  position               nearest neighbor table
   1  0.000  0.000  0.000-
 
  LATTYP: Found a face centered cubic cell.
 ALAT       =     3.5000000000
  
  Lattice vectors:
  
 A1 = (   1.7500000000,   1.7500000000,   0.0000000000)
 A2 = (   0.0000000000,   1.7500000000,   1.7500000000)
 A3 = (   1.7500000000,   0.0000000000,   1.7500000000)


Analysis of symmetry for initial positions (statically):
=====================================================================
 Subroutine PRICEL returns:
 Original cell was already a primitive cell.
 

 Routine SETGRP: Setting up the symmetry group for a 
 face centered cubic supercell.


 Subroutine GETGRP returns: Found 48 space group operations
 (whereof 48 operations were pure point group operations)
 out of a pool of 48 trial point group operations.


The static configuration has the point symmetry O_h .


Analysis of symmetry for dynamics (positions and initial velocities):
=====================================================================
 Subroutine PRICEL returns:
 Original cell was already a primitive cell.
 

 Routine SETGRP: Setting up the symmetry group for a 
 face centered cubic supercell.


 Subroutine GETGRP returns: Found 48 space group operations
 (whereof 48 operations were pure point group operations)
 out of a pool of 48 trial point group operations.


The dynamic configuration has the point symmetry O_h .


 Subroutine INISYM returns: Found 48 space group operations
 (whereof 48 operations are pure point group operations),
 and found     1 'primitive' translations


----------------------------------------------------------------------------------------

                                     Primitive cell                                     

  volume of cell :      10.7188

  direct lattice vectors                    reciprocal lattice vectors
     1.750000000  1.750000000  0.000000000     0.285714286  0.285714286 -0.285714286
     0.000000000  1.750000000  1.750000000    -0.285714286  0.285714286  0.285714286
     1.750000000  0.000000000  1.750000000     0.285714286 -0.285714286  0.285714286

  length of vectors
     2.474873734  2.474873734  2.474873734     0.494871659  0.494871659  0.494871659

  position of ions in fractional coordinates (direct lattice)
     0.000000000  0.000000000  0.000000000

  ion indices of the primitive-cell ions
   primitive index   ion index
                 1           1

----------------------------------------------------------------------------------------

 
 
 KPOINTS: k-points                                

Automatic generation of k-mesh.
 Grid dimensions read from file:
 generate k-points for:   11   11   11

 Generating k-lattice:

  Cartesian coordinates                     Fractional coordinates (reciprocal lattice)
     0.025974026  0.025974026 -0.025974026     0.090909091 -0.000000000 -0.000000000
    -0.025974026  0.025974026  0.025974026    -0.000000000  0.090909091  0.000000000
     0.025974026 -0.025974026  0.025974026     0.000000000  0.000000000  0.090909091

  Length of vectors
     0.044988333  0.044988333  0.044988333

  Shift w.r.t. Gamma in fractional coordinates (k-lattice)
     0.000000000  0.000000000  0.000000000

 
 Subroutine IBZKPT returns following result:
 ===========================================
 
 Found     56 irreducible k-points:
 
 Following reciprocal coordinates:
            Coordinates               Weight
  0.000000  0.000000  0.000000      1.000000
  0.090909  0.000000 -0.000000      8.000000
  0.181818  0.000000 -0.000000      8.000000
  0.272727 -0.000000 -0.000000      8.000000
  0.363636  0.000000  0.000000      8.000000
  0.454545  0.000000  0.000000      8.000000
  0.090909  0.090909  0.000000      6.000000
  0.181818  0.090909 -0.000000     24.000000
  0.272727  0.090909 -0.000000     24.000000
  0.363636  0.090909  0.000000     24.000000
  0.454545  0.090909  0.000000     24.000000
 -0.454545  0.090909  0.000000     24.000000
 -0.363636  0.090909  0.000000     24.000000
 -0.272727  0.090909  0.000000     24.000000
 -0.181818  0.090909  0.000000     24.000000
 -0.090909  0.090909 -0.000000     12.000000
  0.181818  0.181818 -0.000000      6.000000
  0.272727  0.181818 -0.000000     24.000000
  0.363636  0.181818  0.000000     24.000000
  0.454545  0.181818 -0.000000     24.000000
 -0.454545  0.181818  0.000000     24.000000
 -0.363636  0.181818  0.000000     24.000000
 -0.272727  0.181818 -0.000000     24.000000
 -0.181818  0.181818  0.000000     12.000000
  0.272727  0.272727 -0.000000      6.000000
  0.363636  0.272727  0.000000     24.000000
  0.454545  0.272727 -0.000000     24.000000
 -0.454545  0.272727  0.000000     24.000000
 -0.363636  0.272727  0.000000     24.000000
 -0.272727  0.272727  0.000000     12.000000
  0.363636  0.363636  0.000000      6.000000
  0.454545  0.363636  0.000000     24.000000
 -0.454545  0.363636 -0.000000     24.000000
 -0.363636  0.363636 -0.000000     12.000000
  0.454545  0.454545  0.000000      6.000000
 -0.454545  0.454545 -0.000000     12.000000
  0.272727  0.181818  0.090909     24.000000
  0.363636  0.181818  0.090909     48.000000
  0.454545  0.181818  0.090909     48.000000
 -0.454545  0.181818  0.090909     48.000000
  0.363636  0.272727  0.090909     24.000000
  0.454545  0.272727  0.090909     48.000000
 -0.454545  0.272727  0.090909     48.000000
 -0.363636  0.272727  0.090909     48.000000
 -0.272727  0.272727  0.090909     48.000000
 -0.181818  0.272727  0.090909     24.000000
  0.454545  0.363636  0.090909     24.000000
 -0.454545  0.363636  0.090909     48.000000
 -0.363636  0.363636  0.090909     48.000000
 -0.272727  0.363636  0.090909     24.000000
 -0.454545  0.454545  0.090909     24.000000
 -0.363636  0.454545  0.090909     24.000000
 -0.454545  0.363636  0.181818     24.000000
 -0.363636  0.363636  0.181818     48.000000
 -0.363636  0.454545  0.181818     24.000000
 -0.272727  0.454545  0.181818     24.000000
 
 Following cartesian coordinates:
            Coordinates               Weight
  0.000000  0.000000  0.000000      1.000000
  0.090909  0.090909 -0.090909      8.000000
  0.181818  0.181818 -0.181818      8.000000
  0.272727  0.272727 -0.272727      8.000000
  0.363636  0.363636 -0.363636      8.000000
  0.454545  0.454545 -0.454545      8.000000
  0.000000  0.181818  0.000000      6.000000
  0.090909  0.272727 -0.090909     24.000000
  0.181818  0.363636 -0.181818     24.000000
  0.272727  0.454545 -0.272727     24.000000
  0.363636  0.545455 -0.363636     24.000000
 -0.545455 -0.363636  0.545455     24.000000
 -0.454545 -0.272727  0.454545     24.000000
 -0.363636 -0.181818  0.363636     24.000000
 -0.272727 -0.090909  0.272727     24.000000
 -0.181818  0.000000  0.181818     12.000000
 -0.000000  0.363636 -0.000000      6.000000
  0.090909  0.454545 -0.090909     24.000000
  0.181818  0.545455 -0.181818     24.000000
  0.272727  0.636364 -0.272727     24.000000
 -0.636364 -0.272727  0.636364     24.000000
 -0.545455 -0.181818  0.545455     24.000000
 -0.454545 -0.090909  0.454545     24.000000
 -0.363636 -0.000000  0.363636     12.000000
 -0.000000  0.545455 -0.000000      6.000000
  0.090909  0.636364 -0.090909     24.000000
  0.181818  0.727273 -0.181818     24.000000
 -0.727273 -0.181818  0.727273     24.000000
 -0.636364 -0.090909  0.636364     24.000000
 -0.545455 -0.000000  0.545455     12.000000
  0.000000  0.727273  0.000000      6.000000
  0.090909  0.818182 -0.090909     24.000000
 -0.818182 -0.090909  0.818182     24.000000
 -0.727273  0.000000  0.727273     12.000000
  0.000000  0.909091 -0.000000      6.000000
 -0.909091 -0.000000  0.909091     12.000000
  0.181818  0.363636  0.000000     24.000000
  0.272727  0.454545 -0.090909     48.000000
  0.363636  0.545455 -0.181818     48.000000
 -0.545455 -0.363636  0.727273     48.000000
  0.181818  0.545455  0.000000     24.000000
  0.272727  0.636364 -0.090909     48.000000
 -0.636364 -0.272727  0.818182     48.000000
 -0.545455 -0.181818  0.727273     48.000000
 -0.454545 -0.090909  0.636364     48.000000
 -0.363636 -0.000000  0.545455     24.000000
  0.181818  0.727273  0.000000     24.000000
 -0.727273 -0.181818  0.909091     48.000000
 -0.636364 -0.090909  0.818182     48.000000
 -0.545455 -0.000000  0.727273     24.000000
 -0.818182 -0.090909  1.000000     24.000000
 -0.727273 -0.000000  0.909091     24.000000
 -0.636364 -0.272727  1.000000     24.000000
 -0.545455 -0.181818  0.909091     48.000000
 -0.636364 -0.090909  1.000000     24.000000
 -0.545455 -0.000000  0.909091     24.000000
 


--------------------------------------------------------------------------------------------------------




 Dimension of arrays:
   k-points           NKPTS =     56   k-points in BZ     NKDIM =     56   number of bands    NBANDS=      8
   number of dos      NEDOS =    301   number of ions     NIONS =      1
   non local maximal  LDIM  =      4   non local SUM 2l+1 LMDIM =      8
   total plane-waves  NPLWV =   1000
   max r-space proj   IRMAX =      1   max aug-charges    IRDMAX=   3318
   dimension x,y,z NGX =    10 NGY =   10 NGZ =   10
   dimension x,y,z NGXF=    20 NGYF=   20 NGZF=   20
   support grid    NGXF=    20 NGYF=   20 NGZF=   20
   ions per type =               1
   NGX,Y,Z   is equivalent  to a cutoff of   6.72,  6.72,  6.72 a.u.
   NGXF,Y,Z  is equivalent  to a cutoff of  13.43, 13.43, 13.43 a.u.

 SYSTEM =  fcc Si                                  
 POSCAR =  fcc:                                    

 Startparameter for this run:
   NWRITE =      2    write-flag & timer
   PREC   = normal    normal or accurate (medium, high low for compatibility)
   ISTART =      0    job   : 0-new  1-cont  2-samecut
   ICHARG =      2    charge: 1-file 2-atom 10-const
   ISPIN  =      1    spin polarized calculation?
   LNONCOLLINEAR =      F non collinear calculations
   LSORBIT =      F    spin-orbit coupling
   INIWAV =      1    electr: 0-lowe 1-rand  2-diag
   LASPH  =      F    aspherical Exc in radial PAW
 Electronic Relaxation 1
   ENCUT  =  240.0 eV  17.64 Ry    4.20 a.u.   3.13  3.13  3.13*2*pi/ulx,y,z
   ENINI  =  240.0     initial cutoff
   ENAUG  =  322.1 eV  augmentation charge cutoff
   NELM   =     60;   NELMIN=  2; NELMDL= -5     # of ELM steps 
   EDIFF  = 0.1E-03   stopping-criterion for ELM
   LREAL  =      F    real-space projection
   NLSPLINE    = F    spline interpolate recip. space projectors
   LCOMPAT=      F    compatible to vasp.4.4
   GGA_COMPAT  = T    GGA compatible to vasp.4.4-vasp.4.6
   LMAXPAW     = -100 max onsite density
   LMAXMIX     =    2 max onsite mixed and CHGCAR
   VOSKOWN=      0    Vosko Wilk Nusair interpolation
   ROPT   =    0.00000
 Ionic relaxation
   EDIFFG = 0.1E-02   stopping-criterion for IOM
   NSW    =      0    number of steps for IOM
   NBLOCK =      1;   KBLOCK =      1    inner block; outer block 
   IBRION =     -1    ionic relax: 0-MD 1-quasi-New 2-CG
   NFREE  =      0    steps in history (QN), initial steepest desc. (CG)
   ISIF   =      2    stress and relaxation
   IWAVPR =     10    prediction:  0-non 1-charg 2-wave 3-comb
   ISYM   =      2    0-nonsym 1-usesym 2-fastsym
   LCORR  =      T    Harris-Foulkes like correction to forces

   POTIM  = 0.5000    time-step for ionic-motion
   TEIN   =    0.0    initial temperature
   TEBEG  =    0.0;   TEEND  =   0.0 temperature during run
   SMASS  =  -3.00    Nose mass-parameter (am)
   estimated Nose-frequenzy (Omega)   =  0.10E-29 period in steps = 0.13E+47 mass=  -0.140E-27a.u.
   SCALEE = 1.0000    scale energy and forces
   NPACO  =    256;   APACO  = 10.0  distance and # of slots for P.C.
   PSTRESS=    0.0 pullay stress

  Mass of Ions in am
   POMASS =  28.09
  Ionic Valenz
   ZVAL   =   4.00
  Atomic Wigner-Seitz radii
   RWIGS  =  -1.00
  virtual crystal weights 
   VCA    =   1.00
   NELECT =       4.0000    total number of electrons
   NUPDOWN=      -1.0000    fix difference up-down

 DOS related values:
   EMIN   =  10.00;   EMAX   =-10.00  energy-range for DOS
   EFERMI =   0.00
   ISMEAR =     0;   SIGMA  =   0.10  broadening in eV -4-tet -1-fermi 0-gaus

 Electronic relaxation 2 (details)
   IALGO  =     38    algorithm
   LDIAG  =      T    sub-space diagonalisation (order eigenvalues)
   LSUBROT=      F    optimize rotation matrix (better conditioning)
   TURBO    =      0    0=normal 1=particle mesh
   IRESTART =      0    0=no restart 2=restart with 2 vectors
   NREBOOT  =      0    no. of reboots
   NMIN     =      0    reboot dimension
   EREF     =   0.00    reference energy to select bands
   IMIX   =      4    mixing-type and parameters
     AMIX     =   0.40;   BMIX     =  1.00
     AMIX_MAG =   1.60;   BMIX_MAG =  1.00
     AMIN     =   0.10
     WC   =   100.;   INIMIX=   1;  MIXPRE=   1;  MAXMIX= -45

 Intra band minimization:
   WEIMIN = 0.0000     energy-eigenvalue tresh-hold
   EBREAK =  0.31E-05  absolut break condition
   DEPER  =   0.30     relativ break condition  

   TIME   =   0.40     timestep for ELM

  volume/ion in A,a.u.               =      10.72        72.33
  Fermi-wavevector in a.u.,A,eV,Ry     =   1.178637  2.227301 18.901016  1.389185
  Thomas-Fermi vector in A             =   2.314962
 
 Write flags
   LWAVE        =      T    write WAVECAR
   LDOWNSAMPLE  =      F    k-point downsampling of WAVECAR
   LCHARG       =      T    write CHGCAR
   LVTOT        =      F    write LOCPOT, total local potential
   LVHAR        =      F    write LOCPOT, Hartree potential only
   LELF         =      F    write electronic localiz. function (ELF)
   LORBIT       =      0    0 simple, 1 ext, 2 COOP (PROOUT), +10 PAW based schemes


 Dipole corrections
   LMONO  =      F    monopole corrections only (constant potential shift)
   LDIPOL =      F    correct potential (dipole corrections)
   IDIPOL =      0    1-x, 2-y, 3-z, 4-all directions 
   EPSILON=  1.0000000 bulk dielectric constant

 Exchange correlation treatment:
   GGA     =    --    GGA type
   LEXCH   =     8    internal setting for exchange type
   LIBXC   =     F    Libxc                    
   VOSKOWN =     0    Vosko Wilk Nusair interpolation
   LHFCALC =     F    Hartree Fock is set to
   LHFONE  =     F    Hartree Fock one center treatment
   AEXX    =    0.0000 exact exchange contribution

 Linear response parameters
   LEPSILON=     F    determine dielectric tensor
   LRPA    =     F    only Hartree local field effects (RPA)
   LNABLA  =     F    use nabla operator in PAW spheres
   LVEL    =     F    velocity operator in full k-point grid
   CSHIFT  =0.1000    complex shift for real part using Kramers Kronig
   OMEGAMAX=  -1.0    maximum frequency
   DEG_THRESHOLD= 0.2000000E-02 threshold for treating states as degnerate
   RTIME   =   -0.100 relaxation time in fs
  (WPLASMAI=    0.000 imaginary part of plasma frequency in eV, 0.658/RTIME)
   DFIELD  = 0.0000000 0.0000000 0.0000000 field for delta impulse in time
 
  Optional k-point grid parameters
   LKPOINTS_OPT  =     F    use optional k-point grid
   KPOINTS_OPT_MODE=     1    mode for optional k-point grid
 
 Orbital magnetization related:
   ORBITALMAG=     F  switch on orbital magnetization
   LCHIMAG   =     F  perturbation theory with respect to B field
   DQ        =  0.001000  dq finite difference perturbation B field
   LLRAUG    =     F  two centre corrections for induced B field



--------------------------------------------------------------------------------------------------------


 Static calculation
 charge density and potential will be updated during run
 non-spin polarized calculation
 Variant of blocked Davidson
 Davidson routine will perform the subspace rotation
 perform sub-space diagonalisation
    after iterative eigenvector-optimisation
 modified Broyden-mixing scheme, WC =      100.0
 initial mixing is a Kerker type mixing with AMIX =  0.4000 and BMIX =      1.0000
 Hartree-type preconditioning will be used
 using additional bands            6
 reciprocal scheme for non local part
 use partial core corrections
 calculate Harris-corrections to forces 
   (improved forces if not selfconsistent)
 use gradient corrections 
 use of overlap-Matrix (Vanderbilt PP)
 Gauss-broadening in eV      SIGMA  =   0.10


--------------------------------------------------------------------------------------------------------


  energy-cutoff  :      240.00
  volume of cell :       10.72
      direct lattice vectors                 reciprocal lattice vectors
     1.750000000  1.750000000  0.000000000     0.285714286  0.285714286 -0.285714286
     0.000000000  1.750000000  1.750000000    -0.285714286  0.285714286  0.285714286
     1.750000000  0.000000000  1.750000000     0.285714286 -0.285714286  0.285714286

  length of vectors
     2.474873734  2.474873734  2.474873734     0.494871659  0.494871659  0.494871659


 
 k-points in units of 2pi/SCALE and weight: k-points                                
   0.00000000  0.00000000  0.00000000       0.001
   0.09090909  0.09090909 -0.09090909       0.006
   0.18181818  0.18181818 -0.18181818       0.006
   0.27272727  0.27272727 -0.27272727       0.006
   0.36363636  0.36363636 -0.36363636       0.006
   0.45454545  0.45454545 -0.45454545       0.006
   0.00000000  0.18181818  0.00000000       0.005
   0.09090909  0.27272727 -0.09090909       0.018
   0.18181818  0.36363636 -0.18181818       0.018
   0.27272727  0.45454545 -0.27272727       0.018
   0.36363636  0.54545455 -0.36363636       0.018
  -0.54545455 -0.36363636  0.54545455       0.018
  -0.45454545 -0.27272727  0.45454545       0.018
  -0.36363636 -0.18181818  0.36363636       0.018
  -0.27272727 -0.09090909  0.27272727       0.018
  -0.18181818  0.00000000  0.18181818       0.009
  -0.00000000  0.36363636 -0.00000000       0.005
   0.09090909  0.45454545 -0.09090909       0.018
   0.18181818  0.54545455 -0.18181818       0.018
   0.27272727  0.63636364 -0.27272727       0.018
  -0.63636364 -0.27272727  0.63636364       0.018
  -0.54545455 -0.18181818  0.54545455       0.018
  -0.45454545 -0.09090909  0.45454545       0.018
  -0.36363636 -0.00000000  0.36363636       0.009
  -0.00000000  0.54545455 -0.00000000       0.005
   0.09090909  0.63636364 -0.09090909       0.018
   0.18181818  0.72727273 -0.18181818       0.018
  -0.72727273 -0.18181818  0.72727273       0.018
  -0.63636364 -0.09090909  0.63636364       0.018
  -0.54545455 -0.00000000  0.54545455       0.009
   0.00000000  0.72727273  0.00000000       0.005
   0.09090909  0.81818182 -0.09090909       0.018
  -0.81818182 -0.09090909  0.81818182       0.018
  -0.72727273  0.00000000  0.72727273       0.009
   0.00000000  0.90909091 -0.00000000       0.005
  -0.90909091 -0.00000000  0.90909091       0.009
   0.18181818  0.36363636  0.00000000       0.018
   0.27272727  0.45454545 -0.09090909       0.036
   0.36363636  0.54545455 -0.18181818       0.036
  -0.54545455 -0.36363636  0.72727273       0.036
   0.18181818  0.54545455  0.00000000       0.018
   0.27272727  0.63636364 -0.09090909       0.036
  -0.63636364 -0.27272727  0.81818182       0.036
  -0.54545455 -0.18181818  0.72727273       0.036
  -0.45454545 -0.09090909  0.63636364       0.036
  -0.36363636 -0.00000000  0.54545455       0.018
   0.18181818  0.72727273  0.00000000       0.018
  -0.72727273 -0.18181818  0.90909091       0.036
  -0.63636364 -0.09090909  0.81818182       0.036
  -0.54545455 -0.00000000  0.72727273       0.018
  -0.81818182 -0.09090909  1.00000000       0.018
  -0.72727273 -0.00000000  0.90909091       0.018
  -0.63636364 -0.27272727  1.00000000       0.018
  -0.54545455 -0.18181818  0.90909091       0.036
  -0.63636364 -0.09090909  1.00000000       0.018
  -0.54545455 -0.00000000  0.90909091       0.018
 
 k-points in reciprocal lattice and weights: k-points                                
   0.00000000  0.00000000  0.00000000       0.001
   0.09090909  0.00000000 -0.00000000       0.006
   0.18181818  0.00000000 -0.00000000       0.006
   0.27272727 -0.00000000 -0.00000000       0.006
   0.36363636  0.00000000  0.00000000       0.006
   0.45454545  0.00000000  0.00000000       0.006
   0.09090909  0.09090909  0.00000000       0.005
   0.18181818  0.09090909 -0.00000000       0.018
   0.27272727  0.09090909 -0.00000000       0.018
   0.36363636  0.09090909  0.00000000       0.018
   0.45454545  0.09090909  0.00000000       0.018
  -0.45454545  0.09090909  0.00000000       0.018
  -0.36363636  0.09090909  0.00000000       0.018
  -0.27272727  0.09090909  0.00000000       0.018
  -0.18181818  0.09090909  0.00000000       0.018
  -0.09090909  0.09090909 -0.00000000       0.009
   0.18181818  0.18181818 -0.00000000       0.005
   0.27272727  0.18181818 -0.00000000       0.018
   0.36363636  0.18181818  0.00000000       0.018
   0.45454545  0.18181818 -0.00000000       0.018
  -0.45454545  0.18181818  0.00000000       0.018
  -0.36363636  0.18181818  0.00000000       0.018
  -0.27272727  0.18181818 -0.00000000       0.018
  -0.18181818  0.18181818  0.00000000       0.009
   0.27272727  0.27272727 -0.00000000       0.005
   0.36363636  0.27272727  0.00000000       0.018
   0.45454545  0.27272727 -0.00000000       0.018
  -0.45454545  0.27272727  0.00000000       0.018
  -0.36363636  0.27272727  0.00000000       0.018
  -0.27272727  0.27272727  0.00000000       0.009
   0.36363636  0.36363636  0.00000000       0.005
   0.45454545  0.36363636  0.00000000       0.018
  -0.45454545  0.36363636 -0.00000000       0.018
  -0.36363636  0.36363636 -0.00000000       0.009
   0.45454545  0.45454545  0.00000000       0.005
  -0.45454545  0.45454545 -0.00000000       0.009
   0.27272727  0.18181818  0.09090909       0.018
   0.36363636  0.18181818  0.09090909       0.036
   0.45454545  0.18181818  0.09090909       0.036
  -0.45454545  0.18181818  0.09090909       0.036
   0.36363636  0.27272727  0.09090909       0.018
   0.45454545  0.27272727  0.09090909       0.036
  -0.45454545  0.27272727  0.09090909       0.036
  -0.36363636  0.27272727  0.09090909       0.036
  -0.27272727  0.27272727  0.09090909       0.036
  -0.18181818  0.27272727  0.09090909       0.018
   0.45454545  0.36363636  0.09090909       0.018
  -0.45454545  0.36363636  0.09090909       0.036
  -0.36363636  0.36363636  0.09090909       0.036
  -0.27272727  0.36363636  0.09090909       0.018
  -0.45454545  0.45454545  0.09090909       0.018
  -0.36363636  0.45454545  0.09090909       0.018
  -0.45454545  0.36363636  0.18181818       0.018
  -0.36363636  0.36363636  0.18181818       0.036
  -0.36363636  0.45454545  0.18181818       0.018
  -0.27272727  0.45454545  0.18181818       0.018
 
 position of ions in fractional coordinates (direct lattice) 
   0.00000000  0.00000000  0.00000000
 
 position of ions in cartesian coordinates  (Angst):
   0.00000000  0.00000000  0.00000000
 


--------------------------------------------------------------------------------------------------------


 k-point   1 :   0.0000 0.0000 0.0000  plane waves:      89
 k-point   2 :   0.0909 0.0000-0.0000  plane waves:      89
 k-point   3 :   0.1818 0.0000-0.0000  plane waves:      95
 k-point   4 :   0.2727-0.0000-0.0000  plane waves:      89
 k-point   5 :   0.3636 0.0000 0.0000  plane waves:      92
 k-point   6 :   0.4545 0.0000 0.0000  plane waves:      90
 k-point   7 :   0.0909 0.0909 0.0000  plane waves:      89
 k-point   8 :   0.1818 0.0909-0.0000  plane waves:      85
 k-point   9 :   0.2727 0.0909-0.0000  plane waves:      87
 k-point  10 :   0.3636 0.0909 0.0000  plane waves:      89
 k-point  11 :   0.4545 0.0909 0.0000  plane waves:      89
 k-point  12 :  -0.4545 0.0909 0.0000  plane waves:      86
 k-point  13 :  -0.3636 0.0909 0.0000  plane waves:      88
 k-point  14 :  -0.2727 0.0909 0.0000  plane waves:      89
 k-point  15 :  -0.1818 0.0909 0.0000  plane waves:      89
 k-point  16 :  -0.0909 0.0909-0.0000  plane waves:      91
 k-point  17 :   0.1818 0.1818-0.0000  plane waves:      85
 k-point  18 :   0.2727 0.1818-0.0000  plane waves:      87
 k-point  19 :   0.3636 0.1818 0.0000  plane waves:      85
 k-point  20 :   0.4545 0.1818-0.0000  plane waves:      91
 k-point  21 :  -0.4545 0.1818 0.0000  plane waves:      91
 k-point  22 :  -0.3636 0.1818 0.0000  plane waves:      90
 k-point  23 :  -0.2727 0.1818-0.0000  plane waves:      91
 k-point  24 :  -0.1818 0.1818 0.0000  plane waves:      91
 k-point  25 :   0.2727 0.2727-0.0000  plane waves:      84
 k-point  26 :   0.3636 0.2727 0.0000  plane waves:      89
 k-point  27 :   0.4545 0.2727-0.0000  plane waves:      91
 k-point  28 :  -0.4545 0.2727 0.0000  plane waves:      90
 k-point  29 :  -0.3636 0.2727 0.0000  plane waves:      90
 k-point  30 :  -0.2727 0.2727 0.0000  plane waves:      89
 k-point  31 :   0.3636 0.3636 0.0000  plane waves:      88
 k-point  32 :   0.4545 0.3636 0.0000  plane waves:      91
 k-point  33 :  -0.4545 0.3636-0.0000  plane waves:      96
 k-point  34 :  -0.3636 0.3636-0.0000  plane waves:      97
 k-point  35 :   0.4545 0.4545 0.0000  plane waves:      92
 k-point  36 :  -0.4545 0.4545-0.0000  plane waves:      92
 k-point  37 :   0.2727 0.1818 0.0909  plane waves:      90
 k-point  38 :   0.3636 0.1818 0.0909  plane waves:      88
 k-point  39 :   0.4545 0.1818 0.0909  plane waves:      90
 k-point  40 :  -0.4545 0.1818 0.0909  plane waves:      89
 k-point  41 :   0.3636 0.2727 0.0909  plane waves:      89
 k-point  42 :   0.4545 0.2727 0.0909  plane waves:      89
 k-point  43 :  -0.4545 0.2727 0.0909  plane waves:      90
 k-point  44 :  -0.3636 0.2727 0.0909  plane waves:      93
 k-point  45 :  -0.2727 0.2727 0.0909  plane waves:      92
 k-point  46 :  -0.1818 0.2727 0.0909  plane waves:      91
 k-point  47 :   0.4545 0.3636 0.0909  plane waves:      90
 k-point  48 :  -0.4545 0.3636 0.0909  plane waves:      92
 k-point  49 :  -0.3636 0.3636 0.0909  plane waves:      95
 k-point  50 :  -0.2727 0.3636 0.0909  plane waves:      93
 k-point  51 :  -0.4545 0.4545 0.0909  plane waves:      94
 k-point  52 :  -0.3636 0.4545 0.0909  plane waves:      97
 k-point  53 :  -0.4545 0.3636 0.1818  plane waves:      90
 k-point  54 :  -0.3636 0.3636 0.1818  plane waves:      92
 k-point  55 :  -0.3636 0.4545 0.1818  plane waves:      92
 k-point  56 :  -0.2727 0.4545 0.1818  plane waves:      96

 maximum and minimum number of plane-waves per node :        97       84

 maximum number of plane-waves:        97
 maximum index in each direction: 
   IXMAX=    3   IYMAX=    3   IZMAX=    3
   IXMIN=   -3   IYMIN=   -3   IZMIN=   -3


 serial   3D FFT for wavefunctions
 parallel 3D FFT for charge:
    minimum data exchange during FFTs selected (reduces bandwidth)


 total amount of memory used by VASP MPI-rank0    30771. kBytes
=======================================================================

   base      :      30000. kBytes
   nonl-proj :        360. kBytes
   fftplans  :         71. kBytes
   grid      :        144. kBytes
   one-center:          3. kBytes
   wavefun   :        193. kBytes
 
     INWAV:  cpu time      0.0000: real time      0.0001
 Broyden mixing: mesh for mixing (old mesh)
   NGX =  7   NGY =  7   NGZ =  7
  (NGX  = 20   NGY  = 20   NGZ  = 20)
  gives a total of    343 points

 initial charge density was supplied:
 charge density of overlapping atoms calculated
 number of electron       4.0000000 magnetization 
 keeping initial charge density in first step


--------------------------------------------------------------------------------------------------------


 Maximum index for augmentation-charges          769 (set IRDMAX)


--------------------------------------------------------------------------------------------------------


 First call to EWALD:  gamma=   0.804
 Maximum number of real-space cells 3x 3x 3
 Maximum number of reciprocal cells 3x 3x 3

    FEWALD:  cpu time      0.0011: real time      0.0011


--------------------------------------- Iteration      1(   1)  ---------------------------------------


    POTLOK:  cpu time      0.0010: real time      0.0012
    SETDIJ:  cpu time      0.0009: real time      0.0009
     EDDAV:  cpu time      0.0391: real time      0.0392
       DOS:  cpu time      0.0003: real time      0.0003
    --------------------------------------------
      LOOP:  cpu time      0.0414: real time      0.0416

 eigenvalue-minimisations  :  1072
 total energy-change (2. order) :-0.3630710E+01  (-0.1351432E+03)
 number of electron       4.0000000 magnetization 
 augmentation part        4.0000000 magnetization 

 Free energy of the ion-electron system (eV)
  ---------------------------------------------------
  alpha Z        PSCENC =         3.14058363
  Ewald energy   TEWEN  =      -150.90522982
  -Hartree energ DENC   =        -0.20645387
  -exchange      EXHF   =         0.00000000
  -V(xc)+E(xc)   XCENC  =        -7.94482406
  PAW double counting   =        88.12379961      -70.53051779
  entropy T*S    EENTRO =        -0.00284085
  eigenvalues    EBANDS =        31.63399691
  atomic energy  EATOM  =       103.06077658
  Solvation  Ediel_sol  =         0.00000000
  ---------------------------------------------------
  free energy    TOTEN  =        -3.63070965 eV

  energy without entropy =       -3.62786881  energy(sigma->0) =       -3.62928923


--------------------------------------------------------------------------------------------------------




--------------------------------------- Iteration      1(   2)  ---------------------------------------


     EDDAV:  cpu time      0.0462: real time      0.0464
       DOS:  cpu time      0.0003: real time      0.0003
    --------------------------------------------
      LOOP:  cpu time      0.0465: real time      0.0467

 eigenvalue-minimisations  :  1304
 total energy-change (2. order) :-0.8337277E+00  (-0.8109993E+00)
 number of electron       4.0000000 magnetization 
 augmentation part        4.0000000 magnetization 

 Free energy of the ion-electron system (eV)
  ---------------------------------------------------
  alpha Z        PSCENC =         3.14058363
  Ewald energy   TEWEN  =      -150.90522982
  -Hartree energ DENC   =        -0.20645387
  -exchange      EXHF   =         0.00000000
  -V(xc)+E(xc)   XCENC  =        -7.94482406
  PAW double counting   =        88.12379961      -70.53051779
  entropy T*S    EENTRO =        -0.00404787
  eigenvalues    EBANDS =        30.80147625
  atomic energy  EATOM  =       103.06077658
  Solvation  Ediel_sol  =         0.00000000
  ---------------------------------------------------
  free energy    TOTEN  =        -4.46443733 eV

  energy without entropy =       -4.46038947  energy(sigma->0) =       -4.46241340


--------------------------------------------------------------------------------------------------------




--------------------------------------- Iteration      1(   3)  ---------------------------------------


     EDDAV:  cpu time      0.0324: real time      0.0325
       DOS:  cpu time      0.0003: real time      0.0003
    --------------------------------------------
      LOOP:  cpu time      0.0327: real time      0.0329

 eigenvalue-minimisations  :  1016
 total energy-change (2. order) :-0.1738530E-02  (-0.1738525E-02)
 number of electron       4.0000000 magnetization 
 augmentation part        4.0000000 magnetization 

 Free energy of the ion-electron system (eV)
  ---------------------------------------------------
  alpha Z        PSCENC =         3.14058363
  Ewald energy   TEWEN  =      -150.90522982
  -Hartree energ DENC   =        -0.20645387
  -exchange      EXHF   =         0.00000000
  -V(xc)+E(xc)   XCENC  =        -7.94482406
  PAW double counting   =        88.12379961      -70.53051779
  entropy T*S    EENTRO =        -0.00404655
  eigenvalues    EBANDS =        30.79973640
  atomic energy  EATOM  =       103.06077658
  Solvation  Ediel_sol  =         0.00000000
  ---------------------------------------------------
  free energy    TOTEN  =        -4.46617586 eV

  energy without entropy =       -4.46212932  energy(sigma->0) =       -4.46415259


--------------------------------------------------------------------------------------------------------




--------------------------------------- Iteration      1(   4)  ---------------------------------------


     EDDAV:  cpu time      0.0521: real time      0.0522
       DOS:  cpu time      0.0003: real time      0.0003
    --------------------------------------------
      LOOP:  cpu time      0.0524: real time      0.0525

 eigenvalue-minimisations  :  1464
 total energy-change (2. order) :-0.4192314E-06  (-0.4197320E-06)
 number of electron       4.0000000 magnetization 
 augmentation part        4.0000000 magnetization 

 Free energy of the ion-electron system (eV)
  ---------------------------------------------------
  alpha Z        PSCENC =         3.14058363
  Ewald energy   TEWEN  =      -150.90522982
  -Hartree energ DENC   =        -0.20645387
  -exchange      EXHF   =         0.00000000
  -V(xc)+E(xc)   XCENC  =        -7.94482406
  PAW double counting   =        88.12379961      -70.53051779
  entropy T*S    EENTRO =        -0.00404655
  eigenvalues    EBANDS =        30.79973598
  atomic energy  EATOM  =       103.06077658
  Solvation  Ediel_sol  =         0.00000000
  ---------------------------------------------------
  free energy    TOTEN  =        -4.46617628 eV

  energy without entropy =       -4.46212974  energy(sigma->0) =       -4.46415301


--------------------------------------------------------------------------------------------------------




--------------------------------------- Iteration      1(   5)  ---------------------------------------


     EDDAV:  cpu time      0.0305: real time      0.0306
       DOS:  cpu time      0.0003: real time      0.0003
    CHARGE:  cpu time      0.0007: real time      0.0007
    MIXING:  cpu time      0.0002: real time      0.0002
    --------------------------------------------
      LOOP:  cpu time      0.0316: real time      0.0318

 eigenvalue-minimisations  :   936
 total energy-change (2. order) : 0.1102265E-08  (-0.2765097E-11)
 number of electron       4.0000006 magnetization 
 augmentation part       -0.2286080 magnetization 

 Broyden mixing:
  rms(total) = 0.51469E+00    rms(broyden)= 0.51469E+00
  rms(prec ) = 0.65710E+00
  weight for this iteration     100.00

 Free energy of the ion-electron system (eV)
  ---------------------------------------------------
  alpha Z        PSCENC =         3.14058363
  Ewald energy   TEWEN  =      -150.90522982
  -Hartree energ DENC   =        -0.20645387
  -exchange      EXHF   =         0.00000000
  -V(xc)+E(xc)   XCENC  =        -7.94482406
  PAW double counting   =        88.12379961      -70.53051779
  entropy T*S    EENTRO =        -0.00404655
  eigenvalues    EBANDS =        30.79973598
  atomic energy  EATOM  =       103.06077658
  Solvation  Ediel_sol  =         0.00000000
  ---------------------------------------------------
  free energy    TOTEN  =        -4.46617628 eV

  energy without entropy =       -4.46212974  energy(sigma->0) =       -4.46415301


--------------------------------------------------------------------------------------------------------




--------------------------------------- Iteration      1(   6)  ---------------------------------------


    POTLOK:  cpu time      0.0011: real time      0.0011
    SETDIJ:  cpu time      0.0008: real time      0.0009
     EDDAV:  cpu time      0.0385: real time      0.0385
       DOS:  cpu time      0.0003: real time      0.0003
    CHARGE:  cpu time      0.0006: real time      0.0006
    MIXING:  cpu time      0.0002: real time      0.0002
    --------------------------------------------
      LOOP:  cpu time      0.0415: real time      0.0416

 eigenvalue-minimisations  :  1120
 total energy-change (2. order) : 0.2521718E-01  (-0.3476814E-03)
 number of electron       4.0000006 magnetization 
 augmentation part       -0.2309416 magnetization 

 Broyden mixing:
  rms(total) = 0.28944E+00    rms(broyden)= 0.28944E+00
  rms(prec ) = 0.37993E+00
  weight for this iteration     100.00

 eigenvalues of (default mixing * dielectric matrix)
  average eigenvalue GAMMA=   2.2790
  2.2790

 Free energy of the ion-electron system (eV)
  ---------------------------------------------------
  alpha Z        PSCENC =         3.14058363
  Ewald energy   TEWEN  =      -150.90522982
  -Hartree energ DENC   =        -0.21003797
  -exchange      EXHF   =         0.00000000
  -V(xc)+E(xc)   XCENC  =        -7.88391102
  PAW double counting   =       279.61707188     -262.05388978
  entropy T*S    EENTRO =        -0.00429714
  eigenvalues    EBANDS =        30.79797453
  atomic energy  EATOM  =       103.06077658
  Solvation  Ediel_sol  =         0.00000000
  ---------------------------------------------------
  free energy    TOTEN  =        -4.44095910 eV

  energy without entropy =       -4.43666197  energy(sigma->0) =       -4.43881053


--------------------------------------------------------------------------------------------------------




--------------------------------------- Iteration      1(   7)  ---------------------------------------


    POTLOK:  cpu time      0.0009: real time      0.0010
    SETDIJ:  cpu time      0.0006: real time      0.0006
     EDDAV:  cpu time      0.0366: real time      0.0367
       DOS:  cpu time      0.0003: real time      0.0003
    CHARGE:  cpu time      0.0006: real time      0.0006
    MIXING:  cpu time      0.0001: real time      0.0001
    --------------------------------------------
      LOOP:  cpu time      0.0392: real time      0.0393

 eigenvalue-minimisations  :  1128
 total energy-change (2. order) : 0.1517783E-01  (-0.7537804E-03)
 number of electron       4.0000006 magnetization 
 augmentation part       -0.2344357 magnetization 

 Broyden mixing:
  rms(total) = 0.18143E-01    rms(broyden)= 0.18143E-01
  rms(prec ) = 0.24545E-01
  weight for this iteration     100.00

 eigenvalues of (default mixing * dielectric matrix)
  average eigenvalue GAMMA=   2.4849
  2.4849  2.4849

 Free energy of the ion-electron system (eV)
  ---------------------------------------------------
  alpha Z        PSCENC =         3.14058363
  Ewald energy   TEWEN  =      -150.90522982
  -Hartree energ DENC   =        -0.25623246
  -exchange      EXHF   =         0.00000000
  -V(xc)+E(xc)   XCENC  =        -7.78905339
  PAW double counting   =       734.86705620     -717.35211272
  entropy T*S    EENTRO =        -0.00453568
  eigenvalues    EBANDS =        30.81296639
  atomic energy  EATOM  =       103.06077658
  Solvation  Ediel_sol  =         0.00000000
  ---------------------------------------------------
  free energy    TOTEN  =        -4.42578127 eV

  energy without entropy =       -4.42124559  energy(sigma->0) =       -4.42351343


--------------------------------------------------------------------------------------------------------




--------------------------------------- Iteration      1(   8)  ---------------------------------------


    POTLOK:  cpu time      0.0010: real time      0.0010
    SETDIJ:  cpu time      0.0006: real time      0.0006
     EDDAV:  cpu time      0.0299: real time      0.0299
       DOS:  cpu time      0.0003: real time      0.0003
    --------------------------------------------
      LOOP:  cpu time      0.0317: real time      0.0318

 eigenvalue-minimisations  :   920
 total energy-change (2. order) : 0.9033149E-04  (-0.1968891E-05)
 number of electron       4.0000006 magnetization 
 augmentation part       -0.2344357 magnetization 

 Free energy of the ion-electron system (eV)
  ---------------------------------------------------
  alpha Z        PSCENC =         3.14058363
  Ewald energy   TEWEN  =      -150.90522982
  -Hartree energ DENC   =        -0.26409590
  -exchange      EXHF   =         0.00000000
  -V(xc)+E(xc)   XCENC  =        -7.78063440
  PAW double counting   =       709.52717143     -692.02130505
  entropy T*S    EENTRO =        -0.00454310
  eigenvalues    EBANDS =        30.82158570
  atomic energy  EATOM  =       103.06077658
  Solvation  Ediel_sol  =         0.00000000
  ---------------------------------------------------
  free energy    TOTEN  =        -4.42569094 eV

  energy without entropy =       -4.42114784  energy(sigma->0) =       -4.42341939


--------------------------------------------------------------------------------------------------------




 average (electrostatic) potential at core
  the test charge radii are     0.9892
  (the norm of the test charge is              1.0000)
       1 -75.4257
 
 
 
 E-fermi :  14.6397     XC(G=0): -12.4516     alpha+bet :-22.3762

 Fermi energy:        14.6397277587

 k-point     1 :       0.0000    0.0000    0.0000
  band No.  band energies     occupation 
      1      -2.8948      2.00000
      2      27.9978      0.00000
      3      27.9978      0.00000
      4      27.9978      0.00000
      5      29.9219      0.00000
      6      29.9220      0.00000
      7      29.9220      0.00000
      8      33.8928      0.00000

 k-point     2 :       0.0909    0.0000   -0.0000
  band No.  band energies     occupation 
      1      -2.6007      2.00000
      2      24.2656      0.00000
      3      27.1704      0.00000
      4      27.1705      0.00000
      5      31.0647      0.00000
      6      31.1892      0.00000
      7      31.1893      0.00000
      8      35.4571      0.00000

 k-point     3 :       0.1818    0.0000   -0.0000
  band No.  band energies     occupation 
      1      -1.7222      2.00000
      2      19.5216      0.00000
      3      26.2020      0.00000
      4      26.2023      0.00000
      5      30.9679      0.00000
      6      32.1615      0.00000
      7      32.1621      0.00000
      8      34.3907      0.00000

 k-point     4 :       0.2727   -0.0000   -0.0000
  band No.  band energies     occupation 
      1      -0.2680      2.00000
      2      15.0599      0.00000
      3      25.6911      0.00000
      4      25.6913      0.00000
      5      30.2525      0.00000
      6      30.2528      0.00000
      7      30.8130      0.00000
      8      36.2072      0.00000

 k-point     5 :       0.3636    0.0000    0.0000
  band No.  band energies     occupation 
      1       1.7469      2.00000
      2      10.9947      2.00000
      3      25.6337      0.00000
      4      25.6339      0.00000
      5      28.4015      0.00000
      6      28.4018      0.00000
      7      30.9546      0.00000
      8      34.2494      0.00000

 k-point     6 :       0.4545    0.0000    0.0000
  band No.  band energies     occupation 
      1       4.2983      2.00000
      2       7.4166      2.00000
      3      26.0615      0.00000
      4      26.0618      0.00000
      5      27.0146      0.00000
      6      27.0150      0.00000
      7      31.5515      0.00000
      8      32.6874      0.00000

 k-point     7 :       0.0909    0.0909    0.0000
  band No.  band energies     occupation 
      1      -2.5028      2.00000
      2      25.5271      0.00000
      3      25.5271      0.00000
      4      26.0342      0.00000
      5      29.1810      0.00000
      6      32.9717      0.00000
      7      32.9718      0.00000
      8      33.0389      0.00000

 k-point     8 :       0.1818    0.0909   -0.0000
  band No.  band energies     occupation 
      1      -1.8194      2.00000
      2      21.2483      0.00000
      3      24.3264      0.00000
      4      26.2346      0.00000
      5      29.4728      0.00000
      6      30.5892      0.00000
      7      33.6889      0.00000
      8      34.7526      0.00000

 k-point     9 :       0.2727    0.0909   -0.0000
  band No.  band energies     occupation 
      1      -0.5578      2.00000
      2      16.7179      0.00000
      3      23.6030      0.00000
      4      25.8340      0.00000
      5      27.4094      0.00000
      6      32.4054      0.00000
      7      33.5238      0.00000
      8      33.7767      0.00000

 k-point    10 :       0.3636    0.0909    0.0000
  band No.  band energies     occupation 
      1       1.2694      2.00000
      2      12.5266      2.00000
      3      23.3708      0.00000
      4      25.3102      0.00000
      5      25.7014      0.00000
      6      31.6485      0.00000
      7      33.3647      0.00000
      8      35.6513      0.00000

 k-point    11 :       0.4545    0.0909    0.0000
  band No.  band energies     occupation 
      1       3.6423      2.00000
      2       8.7971      2.00000
      3      23.6323      0.00000
      4      23.6893      0.00000
      5      26.0203      0.00000
      6      30.1261      0.00000
      7      33.6936      0.00000
      8      35.0676      0.00000

 k-point    12 :      -0.4545    0.0909    0.0000
  band No.  band energies     occupation 
      1       5.4851      2.00000
      2       6.6101      2.00000
      3      22.5747      0.00000
      4      24.3983      0.00000
      5      26.8428      0.00000
      6      29.0734      0.00000
      7      33.3446      0.00000
      8      35.1013      0.00000

 k-point    13 :      -0.3636    0.0909    0.0000
  band No.  band energies     occupation 
      1       2.7929      2.00000
      2       9.9839      2.00000
      3      21.9634      0.00000
      4      25.6403      0.00000
      5      28.1521      0.00000
      6      28.4754      0.00000
      7      32.6899      0.00000
      8      36.2766      0.00000

 k-point    14 :      -0.2727    0.0909    0.0000
  band No.  band energies     occupation 
      1       0.5984      2.00000
      2      13.8673      2.00000
      3      21.8762      0.00000
      4      27.3047      0.00000
      5      28.4137      0.00000
      6      29.9320      0.00000
      7      32.3670      0.00000
      8      35.8953      0.00000

 k-point    15 :      -0.1818    0.0909    0.0000
  band No.  band energies     occupation 
      1      -1.0420      2.00000
      2      18.1519      0.00000
      3      22.3212      0.00000
      4      28.5253      0.00000
      5      29.6104      0.00000
      6      32.0435      0.00000
      7      32.3070      0.00000
      8      32.9095      0.00000

 k-point    16 :      -0.0909    0.0909   -0.0000
  band No.  band energies     occupation 
      1      -2.1120      2.00000
      2      22.3224      0.00000
      3      23.6561      0.00000
      4      28.7910      0.00000
      5      30.2517      0.00000
      6      31.9485      0.00000
      7      32.8045      0.00000
      8      33.2405      0.00000

 k-point    17 :       0.1818    0.1818   -0.0000
  band No.  band energies     occupation 
      1      -1.3331      2.00000
      2      22.9159      0.00000
      3      22.9160      0.00000
      4      23.2468      0.00000
      5      26.8735      0.00000
      6      27.6874      0.00000
      7      37.0767      0.00000
      8      37.0768      0.00000

 k-point    18 :       0.2727    0.1818   -0.0000
  band No.  band energies     occupation 
      1      -0.2679      2.00000
      2      18.7784      0.00000
      3      22.0108      0.00000
      4      23.8978      0.00000
      5      24.1833      0.00000
      6      28.2628      0.00000
      7      36.9646      0.00000
      8      38.0069      0.00000

 k-point    19 :       0.3636    0.1818    0.0000
  band No.  band energies     occupation 
      1       1.3642      2.00000
      2      14.5567      1.75958
      3      21.6091      0.00000
      4      21.7443      0.00000
      5      24.0511      0.00000
      6      30.9436      0.00000
      7      35.2969      0.00000
      8      38.1301      0.00000

 k-point    20 :       0.4545    0.1818   -0.0000
  band No.  band energies     occupation 
      1       3.5459      2.00000
      2      10.6999      2.00000
      3      19.9024      0.00000
      4      21.6966      0.00000
      5      24.2706      0.00000
      6      33.6793      0.00000
      7      34.1656      0.00000
      8      38.0544      0.00000

 k-point    21 :      -0.4545    0.1818    0.0000
  band No.  band energies     occupation 
      1       6.2159      2.00000
      2       7.3506      2.00000
      3      18.5876      0.00000
      4      22.2908      0.00000
      5      24.9676      0.00000
      6      32.4978      0.00000
      7      35.9179      0.00000
      8      39.0409      0.00000

 k-point    22 :      -0.3636    0.1818    0.0000
  band No.  band energies     occupation 
      1       4.3939      2.00000
      2       9.4946      2.00000
      3      17.8194      0.00000
      4      23.3800      0.00000
      5      26.1745      0.00000
      6      31.7559      0.00000
      7      35.4707      0.00000
      8      39.0275      0.00000

 k-point    23 :      -0.2727    0.1818   -0.0000
  band No.  band energies     occupation 
      1       2.0329      2.00000
      2      13.1186      2.00000
      3      17.6484      0.00000
      4      24.9616      0.00000
      5      27.8566      0.00000
      6      31.4568      0.00000
      7      34.8484      0.00000
      8      35.2972      0.00000

 k-point    24 :      -0.1818    0.1818    0.0000
  band No.  band energies     occupation 
      1       0.2138      2.00000
      2      16.5813      0.00000
      3      18.6275      0.00000
      4      27.0068      0.00000
      5      29.9220      0.00000
      6      31.0710      0.00000
      7      32.5612      0.00000
      8      33.9754      0.00000

 k-point    25 :       0.2727    0.2727   -0.0000
  band No.  band energies     occupation 
      1       0.5978      2.00000
      2      20.9317      0.00000
      3      20.9318      0.00000
      4      20.9692      0.00000
      5      21.0601      0.00000
      6      25.9866      0.00000
      7      39.9444      0.00000
      8      40.9829      0.00000

 k-point    26 :       0.3636    0.2727    0.0000
  band No.  band energies     occupation 
      1       2.0297      2.00000
      2      16.9659      0.00000
      3      18.5111      0.00000
      4      20.3505      0.00000
      5      22.2212      0.00000
      6      26.7933      0.00000
      7      39.0837      0.00000
      8      41.7696      0.00000

 k-point    27 :       0.4545    0.2727   -0.0000
  band No.  band energies     occupation 
      1       4.0099      2.00000
      2      13.0812      2.00000
      3      16.4725      0.00000
      4      20.2729      0.00000
      5      22.6506      0.00000
      6      29.7755      0.00000
      7      37.5980      0.00000
      8      41.2479      0.00000

 k-point    28 :      -0.4545    0.2727    0.0000
  band No.  band energies     occupation 
      1       6.5003      2.00000
      2       9.5979      2.00000
      3      14.9734      0.00000
      4      20.6976      0.00000
      5      23.2633      0.00000
      6      33.5119      0.00000
      7      36.3788      0.00000
      8      40.1592      0.00000

 k-point    29 :      -0.3636    0.2727    0.0000
  band No.  band energies     occupation 
      1       6.5288      2.00000
      2       9.4798      2.00000
      3      14.0913      2.00000
      4      21.6225      0.00000
      5      24.3380      0.00000
      6      35.5230      0.00000
      7      37.1584      0.00000
      8      38.9736      0.00000

 k-point    30 :      -0.2727    0.2727    0.0000
  band No.  band energies     occupation 
      1       4.0191      2.00000
      2      12.2227      2.00000
      3      14.4471      1.99355
      4      23.0442      0.00000
      5      25.8992      0.00000
      6      34.8350      0.00000
      7      35.4167      0.00000
      8      37.0933      0.00000

 k-point    31 :       0.3636    0.3636    0.0000
  band No.  band energies     occupation 
      1       3.2559      2.00000
      2      15.7125      0.00000
      3      19.4082      0.00000
      4      19.6056      0.00000
      5      19.6056      0.00000
      6      24.7331      0.00000
      7      42.1321      0.00000
      8      44.0685      0.00000

 k-point    32 :       0.4545    0.3636    0.0000
  band No.  band energies     occupation 
      1       5.0196      2.00000
      2      13.4446      2.00000
      3      15.9412      0.00000
      4      19.3599      0.00000
      5      21.1235      0.00000
      6      25.8403      0.00000
      7      41.6182      0.00000
      8      44.3682      0.00000

 k-point    33 :      -0.4545    0.3636   -0.0000
  band No.  band energies     occupation 
      1       7.2469      2.00000
      2      11.6689      2.00000
      3      12.5592      2.00000
      4      19.6111      0.00000
      5      21.9151      0.00000
      6      29.1500      0.00000
      7      40.4189      0.00000
      8      43.1384      0.00000

 k-point    34 :      -0.3636    0.3636   -0.0000
  band No.  band energies     occupation 
      1       9.1456      2.00000
      2       9.3244      2.00000
      3      11.5452      2.00000
      4      20.3610      0.00000
      5      22.8988      0.00000
      6      33.2275      0.00000
      7      39.3194      0.00000
      8      39.8421      0.00000

 k-point    35 :       0.4545    0.4545    0.0000
  band No.  band energies     occupation 
      1       6.5140      2.00000
      2      11.0843      2.00000
      3      18.6264      0.00000
      4      18.9461      0.00000
      5      18.9461      0.00000
      6      24.0485      0.00000
      7      44.0988      0.00000
      8      46.0997      0.00000

 k-point    36 :      -0.4545    0.4545   -0.0000
  band No.  band energies     occupation 
      1       7.8859      2.00000
      2       9.9080      2.00000
      3      15.5720      0.00000
      4      19.0302      0.00000
      5      20.7534      0.00000
      6      25.5099      0.00000
      7      43.5542      0.00000
      8      45.1813      0.00000

 k-point    37 :       0.2727    0.1818    0.0909
  band No.  band energies     occupation 
      1      -0.9451      2.00000
      2      19.4695      0.00000
      3      21.1583      0.00000
      4      27.1250      0.00000
      5      27.2521      0.00000
      6      29.8078      0.00000
      7      34.5597      0.00000
      8      35.4036      0.00000

 k-point    38 :       0.3636    0.1818    0.0909
  band No.  band energies     occupation 
      1       0.5025      2.00000
      2      15.6460      0.00000
      3      20.0090      0.00000
      4      24.7203      0.00000
      5      27.6346      0.00000
      6      31.6436      0.00000
      7      32.8302      0.00000
      8      35.9759      0.00000

 k-point    39 :       0.4545    0.1818    0.0909
  band No.  band energies     occupation 
      1       2.5075      2.00000
      2      11.6844      2.00000
      3      19.8555      0.00000
      4      22.7510      0.00000
      5      27.7390      0.00000
      6      30.6952      0.00000
      7      34.8350      0.00000
      8      36.6354      0.00000

 k-point    40 :      -0.4545    0.1818    0.0909
  band No.  band energies     occupation 
      1       5.0437      2.00000
      2       8.1452      2.00000
      3      20.2440      0.00000
      4      21.3141      0.00000
      5      28.2039      0.00000
      6      29.3278      0.00000
      7      36.0695      0.00000
      8      38.4955      0.00000

 k-point    41 :       0.3636    0.2727    0.0909
  band No.  band energies     occupation 
      1       0.9814      2.00000
      2      17.3055      0.00000
      3      19.1161      0.00000
      4      21.4590      0.00000
      5      25.2592      0.00000
      6      28.2269      0.00000
      7      36.2779      0.00000
      8      39.9658      0.00000

 k-point    42 :       0.4545    0.2727    0.0909
  band No.  band energies     occupation 
      1       2.7896      2.00000
      2      13.8302      2.00000
      3      18.1911      0.00000
      4      19.3406      0.00000
      5      26.0656      0.00000
      6      30.5037      0.00000
      7      34.6138      0.00000
      8      40.5632      0.00000

 k-point    43 :      -0.4545    0.2727    0.0909
  band No.  band energies     occupation 
      1       5.1333      2.00000
      2      10.2200      2.00000
      3      17.4399      0.00000
      4      18.6054      0.00000
      5      26.5625      0.00000
      6      32.7706      0.00000
      7      34.3552      0.00000
      8      40.1913      0.00000

 k-point    44 :      -0.3636    0.2727    0.0909
  band No.  band energies     occupation 
      1       6.9536      2.00000
      2       8.0576      2.00000
      3      16.3737      0.00000
      4      19.3094      0.00000
      5      27.4112      0.00000
      6      31.8503      0.00000
      7      37.6748      0.00000
      8      38.3756      0.00000

 k-point    45 :      -0.2727    0.2727    0.0909
  band No.  band energies     occupation 
      1       4.2989      2.00000
      2      11.2962      2.00000
      3      15.8704      0.00000
      4      20.6051      0.00000
      5      28.7077      0.00000
      6      31.1573      0.00000
      7      35.0588      0.00000
      8      39.0216      0.00000

 k-point    46 :      -0.1818    0.2727    0.0909
  band No.  band energies     occupation 
      1       2.1272      2.00000
      2      14.3957      1.99944
      3      16.5545      0.00000
      4      22.4181      0.00000
      5      30.2010      0.00000
      6      30.3626      0.00000
      7      32.4276      0.00000
      8      38.0466      0.00000

 k-point    47 :       0.4545    0.3636    0.0909
  band No.  band energies     occupation 
      1       3.6334      2.00000
      2      15.8623      0.00000
      3      16.0046      0.00000
      4      17.8885      0.00000
      5      23.8601      0.00000
      6      27.0490      0.00000
      7      38.5618      0.00000
      8      43.7971      0.00000

 k-point    48 :      -0.4545    0.3636    0.0909
  band No.  band energies     occupation 
      1       5.7641      2.00000
      2      12.7004      2.00000
      3      14.2328      2.00000
      4      17.3154      0.00000
      5      25.0404      0.00000
      6      29.6444      0.00000
      7      37.1900      0.00000
      8      42.6853      0.00000

 k-point    49 :      -0.3636    0.3636    0.0909
  band No.  band energies     occupation 
      1       8.3190      2.00000
      2       9.4842      2.00000
      3      12.9897      2.00000
      4      17.8312      0.00000
      5      25.8969      0.00000
      6      33.3872      0.00000
      7      36.0247      0.00000
      8      39.3931      0.00000

 k-point    50 :      -0.2727    0.3636    0.0909
  band No.  band energies     occupation 
      1       6.6193      2.00000
      2      10.7758      2.00000
      3      12.9781      2.00000
      4      18.9481      0.00000
      5      27.1097      0.00000
      6      34.4962      0.00000
      7      35.5794      0.00000
      8      38.0767      0.00000

 k-point    51 :      -0.4545    0.4545    0.0909
  band No.  band energies     occupation 
      1       6.8813      2.00000
      2      11.4418      2.00000
      3      15.1373      0.00000
      4      17.1480      0.00000
      5      23.1507      0.00000
      6      26.4065      0.00000
      7      41.2857      0.00000
      8      43.8897      0.00000

 k-point    52 :      -0.3636    0.4545    0.0909
  band No.  band energies     occupation 
      1       8.6050      2.00000
      2      10.6019      2.00000
      3      12.4572      2.00000
      4      16.9436      0.00000
      5      24.6840      0.00000
      6      29.3347      0.00000
      7      39.9020      0.00000
      8      40.4737      0.00000

 k-point    53 :      -0.4545    0.3636    0.1818
  band No.  band energies     occupation 
      1       4.7606      2.00000
      2      12.9478      2.00000
      3      15.0492      0.00000
      4      17.3143      0.00000
      5      28.9035      0.00000
      6      30.9905      0.00000
      7      33.1493      0.00000
      8      42.0617      0.00000

 k-point    54 :      -0.3636    0.3636    0.1818
  band No.  band energies     occupation 
      1       7.2391      2.00000
      2      10.2017      2.00000
      3      14.6259      1.15473
      4      15.9230      0.00000
      5      30.1557      0.00000
      6      31.3505      0.00000
      7      34.3936      0.00000
      8      38.7016      0.00000

 k-point    55 :      -0.3636    0.4545    0.1818
  band No.  band energies     occupation 
      1       7.9790      2.00000
      2      12.2268      2.00000
      3      12.4403      2.00000
      4      14.6471      0.91713
      5      28.2262      0.00000
      6      30.5907      0.00000
      7      35.8061      0.00000
      8      39.4578      0.00000

 k-point    56 :      -0.2727    0.4545    0.1818
  band No.  band energies     occupation 
      1       9.7758      2.00000
      2      10.0462      2.00000
      3      12.1352      2.00000
      4      14.6308      1.10094
      5      29.8903      0.00000
      6      33.5178      0.00000
      7      33.8641      0.00000
      8      36.4847      0.00000


--------------------------------------------------------------------------------------------------------


 soft charge-density along one line, spin component           1
         0         1         2         3         4         5         6         7         8         9
 total charge-density along one line
 
 pseudopotential strength for first ion, spin component:           1
 17.474  24.374   0.000   0.000   0.000   0.000   0.000   0.000
 24.374  34.003   0.000   0.000   0.000   0.000   0.000   0.000
  0.000   0.000   4.033  -0.000  -0.000   7.508  -0.000  -0.000
  0.000   0.000  -0.000   4.033  -0.000  -0.000   7.508  -0.000
  0.000   0.000  -0.000  -0.000   4.033  -0.000  -0.000   7.508
  0.000   0.000   7.508  -0.000  -0.000  13.989  -0.000  -0.000
  0.000   0.000  -0.000   7.508  -0.000  -0.000  13.989  -0.000
  0.000   0.000  -0.000  -0.000   7.508  -0.000  -0.000  13.989
 total augmentation occupancy for first ion, spin component:           1
  8.454  -4.156   0.000   0.000   0.000   0.000   0.000   0.000
 -4.156   2.426   0.000   0.000   0.000   0.000   0.000   0.000
  0.000   0.000   3.958  -0.000   0.000  -1.127   0.000  -0.000
  0.000   0.000  -0.000   3.958  -0.000   0.000  -1.127   0.000
  0.000   0.000   0.000  -0.000   3.958  -0.000   0.000  -1.127
  0.000   0.000  -1.127   0.000  -0.000   0.341  -0.000   0.000
  0.000   0.000   0.000  -1.127   0.000  -0.000   0.341   0.000
  0.000   0.000  -0.000   0.000  -1.127   0.000   0.000   0.341


------------------------ aborting loop because EDIFF is reached ----------------------------------------


    CHARGE:  cpu time      0.0006: real time      0.0006
    FORLOC:  cpu time      0.0000: real time      0.0000
    FORNL :  cpu time      0.0006: real time      0.0006
    STRESS:  cpu time      0.0131: real time      0.0132
    FORCOR:  cpu time      0.0007: real time      0.0007
    FORHAR:  cpu time      0.0002: real time      0.0002
    MIXING:  cpu time      0.0001: real time      0.0001
    OFIELD:  cpu time      0.0000: real time      0.0000

  FORCE on cell =-STRESS in cart. coord.  units (eV):
  Direction    XX          YY          ZZ          XY          YZ          ZX
  --------------------------------------------------------------------------------------
  Alpha Z     3.14058     3.14058     3.14058
  Ewald     -50.30174   -50.30174   -50.30174     0.00000    -0.00000     0.00000
  Hartree     0.08841     0.08841     0.08841     0.00000     0.00000     0.00000
  E(xc)     -13.83330   -13.83330   -13.83330    -0.00000    -0.00000    -0.00000
  Local      -2.84513    -2.84514    -2.84513     0.00003     0.00003     0.00003
  n-local    39.73924    36.66804    40.55890    -1.98223     1.53501     2.72453
  augment    -5.92765    -5.92765    -5.92765    -0.00004    -0.00004    -0.00004
  Kinetic    24.60478    47.43551    29.46290    12.79088   -10.59034   -19.38908
  Fock        0.00000     0.00000     0.00000     0.00000     0.00000     0.00000
  -------------------------------------------------------------------------------------
  Total       3.14428     3.14428     3.14428    -0.00000     0.00000    -0.00000
  in kB     469.98942   469.98942   469.98942    -0.00000     0.00000    -0.00000
  external pressure =      469.99 kB  Pullay stress =        0.00 kB


 VOLUME and BASIS-vectors are now :
 -----------------------------------------------------------------------------
  energy-cutoff  :      240.00
  volume of cell :       10.72
      direct lattice vectors                 reciprocal lattice vectors
     1.750000000  1.750000000  0.000000000     0.285714286  0.285714286 -0.285714286
     0.000000000  1.750000000  1.750000000    -0.285714286  0.285714286  0.285714286
     1.750000000  0.000000000  1.750000000     0.285714286 -0.285714286  0.285714286

  length of vectors
     2.474873734  2.474873734  2.474873734     0.494871659  0.494871659  0.494871659


 FORCES acting on ions
    electron-ion (+dipol)            ewald-force                    non-local-force                 convergence-correction
 -----------------------------------------------------------------------------------------------
   0.395E-15 0.317E-14 -.143E-15   -.227E-15 0.433E-15 0.617E-17   -.620E-24 -.290E-23 0.931E-23   0.268E-17 0.126E-18 -.111E-16
 -----------------------------------------------------------------------------------------------
   0.395E-15 0.317E-14 -.143E-15   -.227E-15 0.433E-15 0.617E-17   -.620E-24 -.290E-23 0.931E-23   0.268E-17 0.126E-18 -.111E-16
 
 
 POSITION                                       TOTAL-FORCE (eV/Angst)
 -----------------------------------------------------------------------------------
      0.00000      0.00000      0.00000         0.000000     -0.000000     -0.000000
 -----------------------------------------------------------------------------------
    total drift:                                0.000000      0.000000     -0.000000


--------------------------------------------------------------------------------------------------------



  FREE ENERGIE OF THE ION-ELECTRON SYSTEM (eV)
  ---------------------------------------------------
  free  energy   TOTEN  =        -4.42569094 eV

  energy  without entropy=       -4.42114784  energy(sigma->0) =       -4.42341939
 


--------------------------------------------------------------------------------------------------------


    POTLOK:  cpu time      0.0017: real time      0.0017


--------------------------------------------------------------------------------------------------------


 writing wavefunctions
     LOOP+:  cpu time      0.3483: real time      0.3522
    4ORBIT:  cpu time      0.0000: real time      0.0000

 total amount of memory used by VASP MPI-rank0    30771. kBytes
=======================================================================

   base      :      30000. kBytes
   nonl-proj :        360. kBytes
   fftplans  :         71. kBytes
   grid      :        144. kBytes
   one-center:          3. kBytes
   wavefun   :        193. kBytes
 
  
  
 General timing and accounting informations for this job:
 ========================================================
  
                  Total CPU time used (sec):        0.471
                            User time (sec):        0.418
                          System time (sec):        0.053
                         Elapsed time (sec):        0.458
  
                   Maximum memory used (kb):       52440.
                   Average memory used (kb):          N/A
  
                          Minor page faults:         8632
                          Major page faults:            0
                 Voluntary context switches:          241
