<?xml version="1.0" encoding="ISO-8859-1"?>
<modeling>
 <generator>
  <i name="program" type="string">vasp </i>
  <i name="version" type="string">6.3.0  </i>
  <i name="subversion" type="string">20Jan22 (build Feb 01 2022 16:52:37) complex                          parallel </i>
  <i name="platform" type="string">TETRA_NSC1 </i>
  <i name="date" type="string">2022 02 22 </i>
  <i name="time" type="string">16:07:10 </i>
 </generator>
 <incar>
  <i type="string" name="SYSTEM">fcc Si</i>
  <i type="int" name="ISTART">     0</i>
  <i type="int" name="ICHARG">     2</i>
  <i name="ENCUT">    240.00000000</i>
  <i type="int" name="ISMEAR">     0</i>
  <i name="SIGMA">      0.10000000</i>
 </incar>
 <primitive_cell>
  <structure name="primitive_cell" >
   <crystal>
    <varray name="basis" >
     <v>       1.75000000       1.75000000       0.00000000 </v>
     <v>       0.00000000       1.75000000       1.75000000 </v>
     <v>       1.75000000       0.00000000       1.75000000 </v>
    </varray>
    <i name="volume">     10.71875000 </i>
    <varray name="rec_basis" >
     <v>       0.28571429       0.28571429      -0.28571429 </v>
     <v>      -0.28571429       0.28571429       0.28571429 </v>
     <v>       0.28571429      -0.28571429       0.28571429 </v>
    </varray>
   </crystal>
   <varray name="positions" >
    <v>       0.00000000       0.00000000       0.00000000 </v>
   </varray>
  </structure>
  <varray name="primitive_index" >
   <v type="int" >        1 </v>
  </varray>
 </primitive_cell>
 <kpoints>
  <generation param="Monkhorst-Pack">
   <v type="int" name="divisions">      11       11       11 </v>
   <v name="usershift">      0.00000000       0.00000000       0.00000000 </v>
   <v name="genvec1">      0.09090909      -0.00000000      -0.00000000 </v>
   <v name="genvec2">     -0.00000000       0.09090909       0.00000000 </v>
   <v name="genvec3">      0.00000000       0.00000000       0.09090909 </v>
   <v name="shift">      0.00000000       0.00000000       0.00000000 </v>
  </generation>
  <varray name="kpointlist" >
   <v>       0.00000000       0.00000000       0.00000000 </v>
   <v>       0.09090909       0.00000000      -0.00000000 </v>
   <v>       0.18181818       0.00000000      -0.00000000 </v>
   <v>       0.27272727      -0.00000000      -0.00000000 </v>
   <v>       0.36363636       0.00000000       0.00000000 </v>
   <v>       0.45454545       0.00000000       0.00000000 </v>
   <v>       0.09090909       0.09090909       0.00000000 </v>
   <v>       0.18181818       0.09090909      -0.00000000 </v>
   <v>       0.27272727       0.09090909      -0.00000000 </v>
   <v>       0.36363636       0.09090909       0.00000000 </v>
   <v>       0.45454545       0.09090909       0.00000000 </v>
   <v>      -0.45454545       0.09090909       0.00000000 </v>
   <v>      -0.36363636       0.09090909       0.00000000 </v>
   <v>      -0.27272727       0.09090909       0.00000000 </v>
   <v>      -0.18181818       0.09090909       0.00000000 </v>
   <v>      -0.09090909       0.09090909      -0.00000000 </v>
   <v>       0.18181818       0.18181818      -0.00000000 </v>
   <v>       0.27272727       0.18181818      -0.00000000 </v>
   <v>       0.36363636       0.18181818       0.00000000 </v>
   <v>       0.45454545       0.18181818      -0.00000000 </v>
   <v>      -0.45454545       0.18181818       0.00000000 </v>
   <v>      -0.36363636       0.18181818       0.00000000 </v>
   <v>      -0.27272727       0.18181818      -0.00000000 </v>
   <v>      -0.18181818       0.18181818       0.00000000 </v>
   <v>       0.27272727       0.27272727      -0.00000000 </v>
   <v>       0.36363636       0.27272727       0.00000000 </v>
   <v>       0.45454545       0.27272727      -0.00000000 </v>
   <v>      -0.45454545       0.27272727       0.00000000 </v>
   <v>      -0.36363636       0.27272727       0.00000000 </v>
   <v>      -0.27272727       0.27272727       0.00000000 </v>
   <v>       0.36363636       0.36363636       0.00000000 </v>
   <v>       0.45454545       0.36363636       0.00000000 </v>
   <v>      -0.45454545       0.36363636      -0.00000000 </v>
   <v>      -0.36363636       0.36363636      -0.00000000 </v>
   <v>       0.45454545       0.45454545       0.00000000 </v>
   <v>      -0.45454545       0.45454545      -0.00000000 </v>
   <v>       0.27272727       0.18181818       0.09090909 </v>
   <v>       0.36363636       0.18181818       0.09090909 </v>
   <v>       0.45454545       0.18181818       0.09090909 </v>
   <v>      -0.45454545       0.18181818       0.09090909 </v>
   <v>       0.36363636       0.27272727       0.09090909 </v>
   <v>       0.45454545       0.27272727       0.09090909 </v>
   <v>      -0.45454545       0.27272727       0.09090909 </v>
   <v>      -0.36363636       0.27272727       0.09090909 </v>
   <v>      -0.27272727       0.27272727       0.09090909 </v>
   <v>      -0.18181818       0.27272727       0.09090909 </v>
   <v>       0.45454545       0.36363636       0.09090909 </v>
   <v>      -0.45454545       0.36363636       0.09090909 </v>
   <v>      -0.36363636       0.36363636       0.09090909 </v>
   <v>      -0.27272727       0.36363636       0.09090909 </v>
   <v>      -0.45454545       0.45454545       0.09090909 </v>
   <v>      -0.36363636       0.45454545       0.09090909 </v>
   <v>      -0.45454545       0.36363636       0.18181818 </v>
   <v>      -0.36363636       0.36363636       0.18181818 </v>
   <v>      -0.36363636       0.45454545       0.18181818 </v>
   <v>      -0.27272727       0.45454545       0.18181818 </v>
  </varray>
  <varray name="weights" >
   <v>       0.00075131 </v>
   <v>       0.00601052 </v>
   <v>       0.00601052 </v>
   <v>       0.00601052 </v>
   <v>       0.00601052 </v>
   <v>       0.00601052 </v>
   <v>       0.00450789 </v>
   <v>       0.01803156 </v>
   <v>       0.01803156 </v>
   <v>       0.01803156 </v>
   <v>       0.01803156 </v>
   <v>       0.01803156 </v>
   <v>       0.01803156 </v>
   <v>       0.01803156 </v>
   <v>       0.01803156 </v>
   <v>       0.00901578 </v>
   <v>       0.00450789 </v>
   <v>       0.01803156 </v>
   <v>       0.01803156 </v>
   <v>       0.01803156 </v>
   <v>       0.01803156 </v>
   <v>       0.01803156 </v>
   <v>       0.01803156 </v>
   <v>       0.00901578 </v>
   <v>       0.00450789 </v>
   <v>       0.01803156 </v>
   <v>       0.01803156 </v>
   <v>       0.01803156 </v>
   <v>       0.01803156 </v>
   <v>       0.00901578 </v>
   <v>       0.00450789 </v>
   <v>       0.01803156 </v>
   <v>       0.01803156 </v>
   <v>       0.00901578 </v>
   <v>       0.00450789 </v>
   <v>       0.00901578 </v>
   <v>       0.01803156 </v>
   <v>       0.03606311 </v>
   <v>       0.03606311 </v>
   <v>       0.03606311 </v>
   <v>       0.01803156 </v>
   <v>       0.03606311 </v>
   <v>       0.03606311 </v>
   <v>       0.03606311 </v>
   <v>       0.03606311 </v>
   <v>       0.01803156 </v>
   <v>       0.01803156 </v>
   <v>       0.03606311 </v>
   <v>       0.03606311 </v>
   <v>       0.01803156 </v>
   <v>       0.01803156 </v>
   <v>       0.01803156 </v>
   <v>       0.01803156 </v>
   <v>       0.03606311 </v>
   <v>       0.01803156 </v>
   <v>       0.01803156 </v>
  </varray>
 </kpoints>
 <parameters>
  <separator name="general" >
   <i type="string" name="SYSTEM">fcc Si</i>
   <i type="logical" name="LCOMPAT"> F  </i>
  </separator>
  <separator name="electronic" >
   <i type="string" name="PREC">normal</i>
   <i name="ENMAX">    240.00000000</i>
   <i name="ENAUG">    322.06900000</i>
   <i name="EDIFF">      0.00010000</i>
   <i type="int" name="IALGO">    38</i>
   <i type="int" name="IWAVPR">    10</i>
   <i type="int" name="NBANDS">     8</i>
   <i type="int" name="NBANDSLOW">    -1</i>
   <i type="int" name="NBANDSHIGH">    -1</i>
   <i name="NELECT">      4.00000000</i>
   <i type="int" name="TURBO">     0</i>
   <i type="int" name="IRESTART">     0</i>
   <i type="int" name="NREBOOT">     0</i>
   <i type="int" name="NMIN">     0</i>
   <i name="EREF">      0.00000000</i>
   <separator name="electronic smearing" >
    <i type="int" name="ISMEAR">     0</i>
    <i name="SIGMA">      0.10000000</i>
    <i name="KSPACING">      0.50000000</i>
    <i type="logical" name="KGAMMA"> T  </i>
    <i type="logical" name="KBLOWUP"> T  </i>
   </separator>
   <separator name="electronic projectors" >
    <i type="logical" name="LREAL"> F  </i>
    <v name="ROPT">      0.00000000</v>
    <i type="int" name="LMAXPAW">  -100</i>
    <i type="int" name="LMAXMIX">     2</i>
    <i type="logical" name="NLSPLINE"> F  </i>
   </separator>
   <separator name="electronic startup" >
    <i type="int" name="ISTART">     0</i>
    <i type="int" name="ICHARG">     2</i>
    <i type="int" name="INIWAV">     1</i>
   </separator>
   <separator name="electronic spin" >
    <i type="int" name="ISPIN">     1</i>
    <i type="logical" name="LNONCOLLINEAR"> F  </i>
    <v name="MAGMOM">      1.00000000</v>
    <i name="NUPDOWN">     -1.00000000</i>
    <i type="logical" name="LSORBIT"> F  </i>
    <v name="SAXIS">      0.00000000      0.00000000      1.00000000</v>
    <i type="logical" name="LSPIRAL"> F  </i>
    <v name="QSPIRAL">      0.00000000      0.00000000      0.00000000</v>
    <i type="logical" name="LZEROZ"> F  </i>
   </separator>
   <separator name="electronic exchange-correlation" >
    <i type="logical" name="LASPH"> F  </i>
    <i type="logical" name="LMETAGGA"> F  </i>
   </separator>
   <separator name="electronic convergence" >
    <i type="int" name="NELM">    60</i>
    <i type="int" name="NELMDL">    -5</i>
    <i type="int" name="NELMIN">     2</i>
    <i name="ENINI">    240.00000000</i>
    <separator name="electronic convergence detail" >
     <i type="logical" name="LDIAG"> T  </i>
     <i type="logical" name="LSUBROT"> F  </i>
     <i name="WEIMIN">      0.00000000</i>
     <i name="EBREAK">      0.00000313</i>
     <i name="DEPER">      0.30000000</i>
     <i type="int" name="NRMM">     4</i>
     <i name="TIME">      0.40000000</i>
    </separator>
   </separator>
   <separator name="electronic mixer" >
    <i name="AMIX">      0.40000000</i>
    <i name="BMIX">      1.00000000</i>
    <i name="AMIN">      0.10000000</i>
    <i name="AMIX_MAG">      1.60000000</i>
    <i name="BMIX_MAG">      1.00000000</i>
    <separator name="electronic mixer details" >
     <i type="int" name="IMIX">     4</i>
     <i type="logical" name="MIXFIRST"> F  </i>
     <i type="int" name="MAXMIX">   -45</i>
     <i name="WC">    100.00000000</i>
     <i type="int" name="INIMIX">     1</i>
     <i type="int" name="MIXPRE">     1</i>
     <i type="int" name="MREMOVE">     5</i>
    </separator>
   </separator>
   <separator name="electronic dipolcorrection" >
    <i type="logical" name="LDIPOL"> F  </i>
    <i type="logical" name="LMONO"> F  </i>
    <i type="int" name="IDIPOL">     0</i>
    <i name="EPSILON">      1.00000000</i>
    <v name="DIPOL">   -100.00000000   -100.00000000   -100.00000000</v>
    <i name="EFIELD">      0.00000000</i>
   </separator>
  </separator>
  <separator name="grids" >
   <i type="int" name="NGX">    10</i>
   <i type="int" name="NGY">    10</i>
   <i type="int" name="NGZ">    10</i>
   <i type="int" name="NGXF">    20</i>
   <i type="int" name="NGYF">    20</i>
   <i type="int" name="NGZF">    20</i>
   <i type="logical" name="ADDGRID"> F  </i>
  </separator>
  <separator name="ionic" >
   <i type="int" name="NSW">     0</i>
   <i type="int" name="IBRION">    -1</i>
   <i type="int" name="MDALGO">     0</i>
   <i type="int" name="ISIF">     2</i>
   <i name="PSTRESS">      0.00000000</i>
   <i name="EDIFFG">      0.00100000</i>
   <i type="int" name="NFREE">     0</i>
   <i name="POTIM">      0.50000000</i>
   <i name="SMASS">     -3.00000000</i>
   <i name="SCALEE">      1.00000000</i>
  </separator>
  <separator name="ionic md" >
   <i name="TEBEG">      0.00010000</i>
   <i name="TEEND">      0.00010000</i>
   <i type="int" name="NBLOCK">     1</i>
   <i type="int" name="KBLOCK">     1</i>
   <i type="int" name="NPACO">   256</i>
   <i name="APACO">     10.00000000</i>
  </separator>
  <separator name="symmetry" >
   <i type="int" name="ISYM">     2</i>
   <i name="SYMPREC">      0.00001000</i>
  </separator>
  <separator name="dos" >
   <i type="int" name="LORBIT">     0</i>
   <v name="RWIGS">     -1.00000000</v>
   <i type="int" name="NEDOS">   301</i>
   <i name="EMIN">     10.00000000</i>
   <i name="EMAX">    -10.00000000</i>
   <i name="EFERMI">      0.00000000</i>
  </separator>
  <separator name="writing" >
   <i type="int" name="NWRITE">     2</i>
   <i type="logical" name="LWAVE"> T  </i>
   <i type="logical" name="LDOWNSAMPLE"> F  </i>
   <i type="logical" name="LCHARG"> T  </i>
   <i type="logical" name="LPARD"> F  </i>
   <i type="logical" name="LVTOT"> F  </i>
   <i type="logical" name="LVHAR"> F  </i>
   <i type="logical" name="LELF"> F  </i>
   <i type="logical" name="LOPTICS"> F  </i>
   <v name="STM">      0.00000000      0.00000000      0.00000000      0.00000000      0.00000000      0.00000000      0.00000000</v>
  </separator>
  <separator name="performance" >
   <i type="int" name="NPAR">     4</i>
   <i type="int" name="NSIM">     4</i>
   <i type="int" name="NBLK">    -1</i>
   <i type="logical" name="LPLANE"> T  </i>
   <i type="logical" name="LSCALAPACK"> T  </i>
   <i type="logical" name="LSCAAWARE"> F  </i>
   <i type="logical" name="LSCALU"> F  </i>
   <i type="logical" name="LASYNC"> F  </i>
   <i type="logical" name="LORBITALREAL"> F  </i>
  </separator>
  <separator name="miscellaneous" >
   <i type="int" name="IDIOT">     3</i>
   <i type="int" name="PHON_NSTRUCT">    -1</i>
   <i type="logical" name="LMUSIC"> F  </i>
   <v name="POMASS">     28.08500000</v>
   <v name="DARWINR">      0.00000000</v>
   <v name="DARWINV">      1.00000000</v>
   <i type="logical" name="LCORR"> T  </i>
  </separator>
  <i type="logical" name="GGA_COMPAT"> T  </i>
  <i type="logical" name="LBERRY"> F  </i>
  <i type="int" name="ICORELEVEL">     0</i>
  <i type="logical" name="LDAU"> F  </i>
  <i type="int" name="I_CONSTRAINED_M">     0</i>
  <separator name="electronic exchange-correlation" >
   <i type="string" name="GGA">--</i>
   <i type="int" name="VOSKOWN">     0</i>
   <i type="logical" name="LHFCALC"> F  </i>
   <i type="string" name="PRECFOCK"></i>
   <i type="logical" name="LSYMGRAD"> F  </i>
   <i type="logical" name="LHFONE"> F  </i>
   <i type="logical" name="LRHFCALC"> F  </i>
   <i type="logical" name="LTHOMAS"> F  </i>
   <i type="logical" name="LMODELHF"> F  </i>
   <i type="logical" name="LFOCKACE"> F  </i>
   <i name="ENCUT4O">     -1.00000000</i>
   <i type="int" name="EXXOEP">     0</i>
   <i type="int" name="FOURORBIT">     0</i>
   <i name="AEXX">      0.00000000</i>
   <i name="HFALPHA">      0.00000000</i>
   <i name="MCALPHA">      0.00000000</i>
   <i name="ALDAX">      1.00000000</i>
   <i name="AGGAX">      1.00000000</i>
   <i name="ALDAC">      1.00000000</i>
   <i name="AGGAC">      1.00000000</i>
   <i type="int" name="NKREDX">     1</i>
   <i type="int" name="NKREDY">     1</i>
   <i type="int" name="NKREDZ">     1</i>
   <i type="logical" name="SHIFTRED"> F  </i>
   <i type="logical" name="ODDONLY"> F  </i>
   <i type="logical" name="EVENONLY"> F  </i>
   <i type="int" name="LMAXFOCK">     0</i>
   <i type="int" name="NMAXFOCKAE">     0</i>
   <i type="logical" name="LFOCKAEDFT"> F  </i>
   <i name="HFSCREEN">      0.00000000</i>
   <i name="HFSCREENC">      0.00000000</i>
   <i type="int" name="NBANDSGWLOW">     0</i>
  </separator>
  <separator name="vdW DFT" >
   <i type="logical" name="LUSE_VDW"> F  </i>
   <i name="Zab_VDW">     -0.84910000</i>
   <i name="PARAM1">      0.12340000</i>
   <i name="PARAM2">      1.00000000</i>
   <i name="PARAM3">      0.00000000</i>
  </separator>
  <separator name="model GW" >
   <i type="int" name="MODEL_GW">     0</i>
   <i name="MODEL_EPS0">      6.43125000</i>
   <i name="MODEL_ALPHA">      1.00000000</i>
  </separator>
  <separator name="linear response parameters" >
   <i type="logical" name="LEPSILON"> F  </i>
   <i type="logical" name="LRPA"> F  </i>
   <i type="logical" name="LNABLA"> F  </i>
   <i type="logical" name="LVEL"> F  </i>
   <i name="CSHIFT">      0.10000000</i>
   <i name="OMEGAMAX">     -1.00000000</i>
   <i name="DEG_THRESHOLD">      0.00200000</i>
   <i name="RTIME">     -0.10000000</i>
   <i name="WPLASMAI">      0.00000000</i>
   <v name="DFIELD">      0.00000000      0.00000000      0.00000000</v>
   <v name="WPLASMA">      0.00000000      0.00000000      0.00000000      0.00000000      0.00000000      0.00000000      0.00000000      0.00000000      0.00000000</v>
  </separator>
  <separator name="orbital magnetization" >
   <i type="logical" name="NUCIND"> F  </i>
   <v name="MAGPOS">      0.00000000      0.00000000      0.00000000</v>
   <i type="logical" name="LNICSALL"> T  </i>
   <i type="logical" name="ORBITALMAG"> F  </i>
   <i type="logical" name="LMAGBLOCH"> F  </i>
   <i type="logical" name="LCHIMAG"> F  </i>
   <i type="logical" name="LGAUGE"> T  </i>
   <i type="int" name="MAGATOM">     0</i>
   <v name="MAGDIPOL">      0.00000000      0.00000000      0.00000000</v>
   <v name="AVECCONST">      0.00000000      0.00000000      0.00000000</v>
  </separator>
  <separator name="response functions" >
   <i type="logical" name="LFINITE_TEMPERATURE"> F  </i>
   <i type="logical" name="LADDER"> F  </i>
   <i type="logical" name="LRPAFORCE"> F  </i>
   <i type="logical" name="LFXC"> F  </i>
   <i type="logical" name="LHARTREE"> T  </i>
   <i type="int" name="IBSE">     0</i>
   <v type="int" name="KPOINT">    -1     0     0     0</v>
   <i type="logical" name="LTCTC"> F  </i>
   <i type="logical" name="LTCTE"> F  </i>
   <i type="logical" name="LTETE"> F  </i>
   <i type="logical" name="LTRIPLET"> F  </i>
   <i type="logical" name="LFXCEPS"> F  </i>
   <i type="logical" name="LFXHEG"> F  </i>
   <i type="int" name="NATURALO">     2</i>
   <i type="logical" name="LHOLEGF"> F  </i>
   <i type="logical" name="L2ORDER"> F  </i>
   <i type="logical" name="LDMP1"> F  </i>
   <i type="logical" name="LMP2LT"> F  </i>
   <i type="logical" name="LSMP2LT"> F  </i>
   <i type="logical" name="LGWLF"> F  </i>
   <i name="ENCUTGW">     -2.00000000</i>
   <i name="ENCUTGWSOFT">     -2.00000000</i>
   <i name="ENCUTLF">     -1.00000000</i>
   <i type="logical" name="LESF_SPLINES"> F  </i>
   <i type="int" name="LMAXMP2">    -1</i>
   <i name="SCISSOR">      0.00000000</i>
   <i type="int" name="NOMEGA">     0</i>
   <i type="int" name="NOMEGAR">     0</i>
   <i type="int" name="NBANDSGW">    -1</i>
   <i type="int" name="NBANDSO">    -1</i>
   <i type="int" name="NBANDSV">    -1</i>
   <i type="int" name="NELMGW">     1</i>
   <i type="int" name="NELMHF">     1</i>
   <i type="int" name="DIM">     3</i>
   <i type="int" name="IESPILON">     4</i>
   <i type="int" name="ANTIRES">     0</i>
   <i name="OMEGAMAX">    -30.00000000</i>
   <i name="OMEGAMIN">    -30.00000000</i>
   <i name="OMEGATL">   -200.00000000</i>
   <i type="int" name="OMEGAGRID">     0</i>
   <i name="CSHIFT">     -0.10000000</i>
   <i type="logical" name="LSELFENERGY"> F  </i>
   <i type="logical" name="LSPECTRAL"> F  </i>
   <i type="logical" name="LSPECTRALGW"> F  </i>
   <i type="logical" name="LSINGLES"> F  </i>
   <i type="logical" name="LFERMIGW"> F  </i>
   <i type="logical" name="ODDONLYGW"> F  </i>
   <i type="logical" name="EVENONLYGW"> F  </i>
   <i type="int" name="NKREDLFX">     1</i>
   <i type="int" name="NKREDLFY">     1</i>
   <i type="int" name="NKREDLFZ">     1</i>
   <i type="int" name="MAXMEM">  2800</i>
   <i type="int" name="TELESCOPE">     0</i>
   <i type="int" name="NTAUPAR">    -1</i>
   <i type="int" name="NOMEGAPAR">    -1</i>
   <i name="DAMP_NEWTON">      0.80000001</i>
   <i name="LAMBDA">      1.00000000</i>
  </separator>
  <separator name="External order field" >
   <i name="OFIELD_KAPPA">      0.00000000</i>
   <v name="OFIELD_K">      0.00000000      0.00000000      0.00000000</v>
   <i name="OFIELD_Q6_NEAR">      0.00000000</i>
   <i name="OFIELD_Q6_FAR">      0.00000000</i>
   <i name="OFIELD_A">      0.00000000</i>
  </separator>
  <separator name="optional k-points parameters" >
   <i type="int" name="KPOINTS_OPT_MODE">     1</i>
   <i type="logical" name="LKPOINTS_OPT"> F  </i>
  </separator>
 </parameters>
 <atominfo>
  <atoms>       1 </atoms>
  <types>       1 </types>
  <array name="atoms" >
   <dimension dim="1">ion</dimension>
   <field type="string">element</field>
   <field type="int">atomtype</field>
   <set>
    <rc><c>Si</c><c>   1</c></rc>
   </set>
  </array>
  <array name="atomtypes" >
   <dimension dim="1">type</dimension>
   <field type="int">atomspertype</field>
   <field type="string">element</field>
   <field>mass</field>
   <field>valence</field>
   <field type="string">pseudopotential</field>
   <set>
    <rc><c>   1</c><c>Si</c><c>     28.08500000</c><c>      4.00000000</c><c>  PAW_PBE Si 05Jan2001                  </c></rc>
   </set>
  </array>
 </atominfo>
 <structure name="initialpos" >
  <crystal>
   <varray name="basis" >
    <v>       1.75000000       1.75000000       0.00000000 </v>
    <v>       0.00000000       1.75000000       1.75000000 </v>
    <v>       1.75000000       0.00000000       1.75000000 </v>
   </varray>
   <i name="volume">     10.71875000 </i>
   <varray name="rec_basis" >
    <v>       0.28571429       0.28571429      -0.28571429 </v>
    <v>      -0.28571429       0.28571429       0.28571429 </v>
    <v>       0.28571429      -0.28571429       0.28571429 </v>
   </varray>
  </crystal>
  <varray name="positions" >
   <v>       0.00000000       0.00000000       0.00000000 </v>
  </varray>
 </structure>
 <calculation>
  <scstep>
   <time name="dav">    0.04    0.04</time>
   <time name="total">    0.04    0.04</time>
   <energy>
    <i name="alphaZ">      3.14058363 </i>
    <i name="ewald">   -150.90522982 </i>
    <i name="hartreedc">     -0.20645387 </i>
    <i name="XCdc">     -7.94482406 </i>
    <i name="pawpsdc">     88.12379961 </i>
    <i name="pawaedc">    -70.53051779 </i>
    <i name="eentropy">     -0.00284085 </i>
    <i name="bandstr">     31.63399691 </i>
    <i name="atom">    103.06077658 </i>
    <i name="e_fr_energy">     -3.63070965 </i>
    <i name="e_wo_entrp">     -3.62786881 </i>
    <i name="e_0_energy">     -3.62928923 </i>
   </energy>
  </scstep>
  <scstep>
   <time name="dav">    0.05    0.05</time>
   <time name="total">    0.05    0.05</time>
   <energy>
    <i name="e_fr_energy">     -4.46443733 </i>
    <i name="e_wo_entrp">     -4.46038947 </i>
    <i name="e_0_energy">     -4.46241340 </i>
   </energy>
  </scstep>
  <scstep>
   <time name="dav">    0.03    0.03</time>
   <time name="total">    0.03    0.03</time>
   <energy>
    <i name="e_fr_energy">     -4.46617586 </i>
    <i name="e_wo_entrp">     -4.46212932 </i>
    <i name="e_0_energy">     -4.46415259 </i>
   </energy>
  </scstep>
  <scstep>
   <time name="dav">    0.05    0.05</time>
   <time name="total">    0.05    0.05</time>
   <energy>
    <i name="e_fr_energy">     -4.46617628 </i>
    <i name="e_wo_entrp">     -4.46212974 </i>
    <i name="e_0_energy">     -4.46415301 </i>
   </energy>
  </scstep>
  <scstep>
   <time name="dav">    0.03    0.03</time>
   <time name="total">    0.03    0.03</time>
   <energy>
    <i name="e_fr_energy">     -4.46617628 </i>
    <i name="e_wo_entrp">     -4.46212974 </i>
    <i name="e_0_energy">     -4.46415301 </i>
   </energy>
  </scstep>
  <scstep>
   <time name="dav">    0.04    0.04</time>
   <time name="total">    0.04    0.04</time>
   <energy>
    <i name="e_fr_energy">     -4.44095910 </i>
    <i name="e_wo_entrp">     -4.43666197 </i>
    <i name="e_0_energy">     -4.43881053 </i>
   </energy>
  </scstep>
  <scstep>
   <time name="dav">    0.04    0.04</time>
   <time name="total">    0.04    0.04</time>
   <energy>
    <i name="e_fr_energy">     -4.42578127 </i>
    <i name="e_wo_entrp">     -4.42124559 </i>
    <i name="e_0_energy">     -4.42351343 </i>
   </energy>
  </scstep>
  <scstep>
   <time name="dav">    0.03    0.03</time>
   <time name="total">    0.03    0.03</time>
   <energy>
    <i name="alphaZ">      3.14058363 </i>
    <i name="ewald">   -150.90522982 </i>
    <i name="hartreedc">     -0.26409590 </i>
    <i name="XCdc">     -7.78063440 </i>
    <i name="pawpsdc">    709.52717143 </i>
    <i name="pawaedc">   -692.02130505 </i>
    <i name="eentropy">     -0.00454310 </i>
    <i name="bandstr">     30.82158570 </i>
    <i name="atom">    103.06077658 </i>
    <i name="e_fr_energy">     -4.42569094 </i>
    <i name="e_wo_entrp">     -4.42114784 </i>
    <i name="e_0_energy">     -4.42341939 </i>
   </energy>
  </scstep>
  <structure>
   <crystal>
    <varray name="basis" >
     <v>       1.75000000       1.75000000       0.00000000 </v>
     <v>       0.00000000       1.75000000       1.75000000 </v>
     <v>       1.75000000       0.00000000       1.75000000 </v>
    </varray>
    <i name="volume">     10.71875000 </i>
    <varray name="rec_basis" >
     <v>       0.28571429       0.28571429      -0.28571429 </v>
     <v>      -0.28571429       0.28571429       0.28571429 </v>
     <v>       0.28571429      -0.28571429       0.28571429 </v>
    </varray>
   </crystal>
   <varray name="positions" >
    <v>       0.00000000       0.00000000       0.00000000 </v>
   </varray>
  </structure>
  <varray name="forces" >
   <v>       0.00000000      -0.00000000      -0.00000000 </v>
  </varray>
  <varray name="stress" >
   <v>     469.98941624      -0.00000000      -0.00000000 </v>
   <v>      -0.00000000     469.98941624       0.00000000 </v>
   <v>       0.00000000       0.00000000     469.98941624 </v>
  </varray>
  <energy>
   <i name="e_fr_energy">     -4.42569094 </i>
   <i name="e_wo_entrp">     -4.42114784 </i>
   <i name="e_0_energy">     -4.42341939 </i>
  </energy>
  <time name="totalsc">    0.35    0.35</time>
  <eigenvalues>
   <array>
    <dimension dim="1">band</dimension>
    <dimension dim="2">kpoint</dimension>
    <dimension dim="3">spin</dimension>
    <field>eigene</field>
    <field>occ</field>
    <set>
     <set comment="spin 1">
      <set comment="kpoint 1">
       <r>   -2.8948    1.0000 </r>
       <r>   27.9978    0.0000 </r>
       <r>   27.9978    0.0000 </r>
       <r>   27.9978    0.0000 </r>
       <r>   29.9219    0.0000 </r>
       <r>   29.9220    0.0000 </r>
       <r>   29.9220    0.0000 </r>
       <r>   33.8928    0.0000 </r>
      </set>
      <set comment="kpoint 2">
       <r>   -2.6007    1.0000 </r>
       <r>   24.2656    0.0000 </r>
       <r>   27.1704    0.0000 </r>
       <r>   27.1705    0.0000 </r>
       <r>   31.0647    0.0000 </r>
       <r>   31.1892    0.0000 </r>
       <r>   31.1893    0.0000 </r>
       <r>   35.4571    0.0000 </r>
      </set>
      <set comment="kpoint 3">
       <r>   -1.7222    1.0000 </r>
       <r>   19.5216    0.0000 </r>
       <r>   26.2020    0.0000 </r>
       <r>   26.2023    0.0000 </r>
       <r>   30.9679    0.0000 </r>
       <r>   32.1615    0.0000 </r>
       <r>   32.1621    0.0000 </r>
       <r>   34.3907    0.0000 </r>
      </set>
      <set comment="kpoint 4">
       <r>   -0.2680    1.0000 </r>
       <r>   15.0599    0.0000 </r>
       <r>   25.6911    0.0000 </r>
       <r>   25.6913    0.0000 </r>
       <r>   30.2525    0.0000 </r>
       <r>   30.2528    0.0000 </r>
       <r>   30.8130    0.0000 </r>
       <r>   36.2072    0.0000 </r>
      </set>
      <set comment="kpoint 5">
       <r>    1.7469    1.0000 </r>
       <r>   10.9947    1.0000 </r>
       <r>   25.6337    0.0000 </r>
       <r>   25.6339    0.0000 </r>
       <r>   28.4015    0.0000 </r>
       <r>   28.4018    0.0000 </r>
       <r>   30.9546    0.0000 </r>
       <r>   34.2494    0.0000 </r>
      </set>
      <set comment="kpoint 6">
       <r>    4.2983    1.0000 </r>
       <r>    7.4166    1.0000 </r>
       <r>   26.0615    0.0000 </r>
       <r>   26.0618    0.0000 </r>
       <r>   27.0146    0.0000 </r>
       <r>   27.0150    0.0000 </r>
       <r>   31.5515    0.0000 </r>
       <r>   32.6874    0.0000 </r>
      </set>
      <set comment="kpoint 7">
       <r>   -2.5028    1.0000 </r>
       <r>   25.5271    0.0000 </r>
       <r>   25.5271    0.0000 </r>
       <r>   26.0342    0.0000 </r>
       <r>   29.1810    0.0000 </r>
       <r>   32.9717    0.0000 </r>
       <r>   32.9718    0.0000 </r>
       <r>   33.0389    0.0000 </r>
      </set>
      <set comment="kpoint 8">
       <r>   -1.8194    1.0000 </r>
       <r>   21.2483    0.0000 </r>
       <r>   24.3264    0.0000 </r>
       <r>   26.2346    0.0000 </r>
       <r>   29.4728    0.0000 </r>
       <r>   30.5892    0.0000 </r>
       <r>   33.6889    0.0000 </r>
       <r>   34.7526    0.0000 </r>
      </set>
      <set comment="kpoint 9">
       <r>   -0.5578    1.0000 </r>
       <r>   16.7179    0.0000 </r>
       <r>   23.6030    0.0000 </r>
       <r>   25.8340    0.0000 </r>
       <r>   27.4094    0.0000 </r>
       <r>   32.4054    0.0000 </r>
       <r>   33.5238    0.0000 </r>
       <r>   33.7767    0.0000 </r>
      </set>
      <set comment="kpoint 10">
       <r>    1.2694    1.0000 </r>
       <r>   12.5266    1.0000 </r>
       <r>   23.3708    0.0000 </r>
       <r>   25.3102    0.0000 </r>
       <r>   25.7014    0.0000 </r>
       <r>   31.6485    0.0000 </r>
       <r>   33.3647    0.0000 </r>
       <r>   35.6513    0.0000 </r>
      </set>
      <set comment="kpoint 11">
       <r>    3.6423    1.0000 </r>
       <r>    8.7971    1.0000 </r>
       <r>   23.6323    0.0000 </r>
       <r>   23.6893    0.0000 </r>
       <r>   26.0203    0.0000 </r>
       <r>   30.1261    0.0000 </r>
       <r>   33.6936    0.0000 </r>
       <r>   35.0676    0.0000 </r>
      </set>
      <set comment="kpoint 12">
       <r>    5.4851    1.0000 </r>
       <r>    6.6101    1.0000 </r>
       <r>   22.5747    0.0000 </r>
       <r>   24.3983    0.0000 </r>
       <r>   26.8428    0.0000 </r>
       <r>   29.0734    0.0000 </r>
       <r>   33.3446    0.0000 </r>
       <r>   35.1013    0.0000 </r>
      </set>
      <set comment="kpoint 13">
       <r>    2.7929    1.0000 </r>
       <r>    9.9839    1.0000 </r>
       <r>   21.9634    0.0000 </r>
       <r>   25.6403    0.0000 </r>
       <r>   28.1521    0.0000 </r>
       <r>   28.4754    0.0000 </r>
       <r>   32.6899    0.0000 </r>
       <r>   36.2766    0.0000 </r>
      </set>
      <set comment="kpoint 14">
       <r>    0.5984    1.0000 </r>
       <r>   13.8673    1.0000 </r>
       <r>   21.8762    0.0000 </r>
       <r>   27.3047    0.0000 </r>
       <r>   28.4137    0.0000 </r>
       <r>   29.9320    0.0000 </r>
       <r>   32.3670    0.0000 </r>
       <r>   35.8953    0.0000 </r>
      </set>
      <set comment="kpoint 15">
       <r>   -1.0420    1.0000 </r>
       <r>   18.1519    0.0000 </r>
       <r>   22.3212    0.0000 </r>
       <r>   28.5253    0.0000 </r>
       <r>   29.6104    0.0000 </r>
       <r>   32.0435    0.0000 </r>
       <r>   32.3070    0.0000 </r>
       <r>   32.9095    0.0000 </r>
      </set>
      <set comment="kpoint 16">
       <r>   -2.1120    1.0000 </r>
       <r>   22.3224    0.0000 </r>
       <r>   23.6561    0.0000 </r>
       <r>   28.7910    0.0000 </r>
       <r>   30.2517    0.0000 </r>
       <r>   31.9485    0.0000 </r>
       <r>   32.8045    0.0000 </r>
       <r>   33.2405    0.0000 </r>
      </set>
      <set comment="kpoint 17">
       <r>   -1.3331    1.0000 </r>
       <r>   22.9159    0.0000 </r>
       <r>   22.9160    0.0000 </r>
       <r>   23.2468    0.0000 </r>
       <r>   26.8735    0.0000 </r>
       <r>   27.6874    0.0000 </r>
       <r>   37.0767    0.0000 </r>
       <r>   37.0768    0.0000 </r>
      </set>
      <set comment="kpoint 18">
       <r>   -0.2679    1.0000 </r>
       <r>   18.7784    0.0000 </r>
       <r>   22.0108    0.0000 </r>
       <r>   23.8978    0.0000 </r>
       <r>   24.1833    0.0000 </r>
       <r>   28.2628    0.0000 </r>
       <r>   36.9646    0.0000 </r>
       <r>   38.0069    0.0000 </r>
      </set>
      <set comment="kpoint 19">
       <r>    1.3642    1.0000 </r>
       <r>   14.5567    0.8798 </r>
       <r>   21.6091    0.0000 </r>
       <r>   21.7443    0.0000 </r>
       <r>   24.0511    0.0000 </r>
       <r>   30.9436    0.0000 </r>
       <r>   35.2969    0.0000 </r>
       <r>   38.1301    0.0000 </r>
      </set>
      <set comment="kpoint 20">
       <r>    3.5459    1.0000 </r>
       <r>   10.6999    1.0000 </r>
       <r>   19.9024    0.0000 </r>
       <r>   21.6966    0.0000 </r>
       <r>   24.2706    0.0000 </r>
       <r>   33.6793    0.0000 </r>
       <r>   34.1656    0.0000 </r>
       <r>   38.0544    0.0000 </r>
      </set>
      <set comment="kpoint 21">
       <r>    6.2159    1.0000 </r>
       <r>    7.3506    1.0000 </r>
       <r>   18.5876    0.0000 </r>
       <r>   22.2908    0.0000 </r>
       <r>   24.9676    0.0000 </r>
       <r>   32.4978    0.0000 </r>
       <r>   35.9179    0.0000 </r>
       <r>   39.0409    0.0000 </r>
      </set>
      <set comment="kpoint 22">
       <r>    4.3939    1.0000 </r>
       <r>    9.4946    1.0000 </r>
       <r>   17.8194    0.0000 </r>
       <r>   23.3800    0.0000 </r>
       <r>   26.1745    0.0000 </r>
       <r>   31.7559    0.0000 </r>
       <r>   35.4707    0.0000 </r>
       <r>   39.0275    0.0000 </r>
      </set>
      <set comment="kpoint 23">
       <r>    2.0329    1.0000 </r>
       <r>   13.1186    1.0000 </r>
       <r>   17.6484    0.0000 </r>
       <r>   24.9616    0.0000 </r>
       <r>   27.8566    0.0000 </r>
       <r>   31.4568    0.0000 </r>
       <r>   34.8484    0.0000 </r>
       <r>   35.2972    0.0000 </r>
      </set>
      <set comment="kpoint 24">
       <r>    0.2138    1.0000 </r>
       <r>   16.5813    0.0000 </r>
       <r>   18.6275    0.0000 </r>
       <r>   27.0068    0.0000 </r>
       <r>   29.9220    0.0000 </r>
       <r>   31.0710    0.0000 </r>
       <r>   32.5612    0.0000 </r>
       <r>   33.9754    0.0000 </r>
      </set>
      <set comment="kpoint 25">
       <r>    0.5978    1.0000 </r>
       <r>   20.9317    0.0000 </r>
       <r>   20.9318    0.0000 </r>
       <r>   20.9692    0.0000 </r>
       <r>   21.0601    0.0000 </r>
       <r>   25.9866    0.0000 </r>
       <r>   39.9444    0.0000 </r>
       <r>   40.9829    0.0000 </r>
      </set>
      <set comment="kpoint 26">
       <r>    2.0297    1.0000 </r>
       <r>   16.9659    0.0000 </r>
       <r>   18.5111    0.0000 </r>
       <r>   20.3505    0.0000 </r>
       <r>   22.2212    0.0000 </r>
       <r>   26.7933    0.0000 </r>
       <r>   39.0837    0.0000 </r>
       <r>   41.7696    0.0000 </r>
      </set>
      <set comment="kpoint 27">
       <r>    4.0099    1.0000 </r>
       <r>   13.0812    1.0000 </r>
       <r>   16.4725    0.0000 </r>
       <r>   20.2729    0.0000 </r>
       <r>   22.6506    0.0000 </r>
       <r>   29.7755    0.0000 </r>
       <r>   37.5980    0.0000 </r>
       <r>   41.2479    0.0000 </r>
      </set>
      <set comment="kpoint 28">
       <r>    6.5003    1.0000 </r>
       <r>    9.5979    1.0000 </r>
       <r>   14.9734    0.0000 </r>
       <r>   20.6976    0.0000 </r>
       <r>   23.2633    0.0000 </r>
       <r>   33.5119    0.0000 </r>
       <r>   36.3788    0.0000 </r>
       <r>   40.1592    0.0000 </r>
      </set>
      <set comment="kpoint 29">
       <r>    6.5288    1.0000 </r>
       <r>    9.4798    1.0000 </r>
       <r>   14.0913    1.0000 </r>
       <r>   21.6225    0.0000 </r>
       <r>   24.3380    0.0000 </r>
       <r>   35.5230    0.0000 </r>
       <r>   37.1584    0.0000 </r>
       <r>   38.9736    0.0000 </r>
      </set>
      <set comment="kpoint 30">
       <r>    4.0191    1.0000 </r>
       <r>   12.2227    1.0000 </r>
       <r>   14.4471    0.9968 </r>
       <r>   23.0442    0.0000 </r>
       <r>   25.8992    0.0000 </r>
       <r>   34.8350    0.0000 </r>
       <r>   35.4167    0.0000 </r>
       <r>   37.0933    0.0000 </r>
      </set>
      <set comment="kpoint 31">
       <r>    3.2559    1.0000 </r>
       <r>   15.7125    0.0000 </r>
       <r>   19.4082    0.0000 </r>
       <r>   19.6056    0.0000 </r>
       <r>   19.6056    0.0000 </r>
       <r>   24.7331    0.0000 </r>
       <r>   42.1321    0.0000 </r>
       <r>   44.0685    0.0000 </r>
      </set>
      <set comment="kpoint 32">
       <r>    5.0196    1.0000 </r>
       <r>   13.4446    1.0000 </r>
       <r>   15.9412    0.0000 </r>
       <r>   19.3599    0.0000 </r>
       <r>   21.1235    0.0000 </r>
       <r>   25.8403    0.0000 </r>
       <r>   41.6182    0.0000 </r>
       <r>   44.3682    0.0000 </r>
      </set>
      <set comment="kpoint 33">
       <r>    7.2469    1.0000 </r>
       <r>   11.6689    1.0000 </r>
       <r>   12.5592    1.0000 </r>
       <r>   19.6111    0.0000 </r>
       <r>   21.9151    0.0000 </r>
       <r>   29.1500    0.0000 </r>
       <r>   40.4189    0.0000 </r>
       <r>   43.1384    0.0000 </r>
      </set>
      <set comment="kpoint 34">
       <r>    9.1456    1.0000 </r>
       <r>    9.3244    1.0000 </r>
       <r>   11.5452    1.0000 </r>
       <r>   20.3610    0.0000 </r>
       <r>   22.8988    0.0000 </r>
       <r>   33.2275    0.0000 </r>
       <r>   39.3194    0.0000 </r>
       <r>   39.8421    0.0000 </r>
      </set>
      <set comment="kpoint 35">
       <r>    6.5140    1.0000 </r>
       <r>   11.0843    1.0000 </r>
       <r>   18.6264    0.0000 </r>
       <r>   18.9461    0.0000 </r>
       <r>   18.9461    0.0000 </r>
       <r>   24.0485    0.0000 </r>
       <r>   44.0988    0.0000 </r>
       <r>   46.0997    0.0000 </r>
      </set>
      <set comment="kpoint 36">
       <r>    7.8859    1.0000 </r>
       <r>    9.9080    1.0000 </r>
       <r>   15.5720    0.0000 </r>
       <r>   19.0302    0.0000 </r>
       <r>   20.7534    0.0000 </r>
       <r>   25.5099    0.0000 </r>
       <r>   43.5542    0.0000 </r>
       <r>   45.1813    0.0000 </r>
      </set>
      <set comment="kpoint 37">
       <r>   -0.9451    1.0000 </r>
       <r>   19.4695    0.0000 </r>
       <r>   21.1583    0.0000 </r>
       <r>   27.1250    0.0000 </r>
       <r>   27.2521    0.0000 </r>
       <r>   29.8078    0.0000 </r>
       <r>   34.5597    0.0000 </r>
       <r>   35.4036    0.0000 </r>
      </set>
      <set comment="kpoint 38">
       <r>    0.5025    1.0000 </r>
       <r>   15.6460    0.0000 </r>
       <r>   20.0090    0.0000 </r>
       <r>   24.7203    0.0000 </r>
       <r>   27.6346    0.0000 </r>
       <r>   31.6436    0.0000 </r>
       <r>   32.8302    0.0000 </r>
       <r>   35.9759    0.0000 </r>
      </set>
      <set comment="kpoint 39">
       <r>    2.5075    1.0000 </r>
       <r>   11.6844    1.0000 </r>
       <r>   19.8555    0.0000 </r>
       <r>   22.7510    0.0000 </r>
       <r>   27.7390    0.0000 </r>
       <r>   30.6952    0.0000 </r>
       <r>   34.8350    0.0000 </r>
       <r>   36.6354    0.0000 </r>
      </set>
      <set comment="kpoint 40">
       <r>    5.0437    1.0000 </r>
       <r>    8.1452    1.0000 </r>
       <r>   20.2440    0.0000 </r>
       <r>   21.3141    0.0000 </r>
       <r>   28.2039    0.0000 </r>
       <r>   29.3278    0.0000 </r>
       <r>   36.0695    0.0000 </r>
       <r>   38.4955    0.0000 </r>
      </set>
      <set comment="kpoint 41">
       <r>    0.9814    1.0000 </r>
       <r>   17.3055    0.0000 </r>
       <r>   19.1161    0.0000 </r>
       <r>   21.4590    0.0000 </r>
       <r>   25.2592    0.0000 </r>
       <r>   28.2269    0.0000 </r>
       <r>   36.2779    0.0000 </r>
       <r>   39.9658    0.0000 </r>
      </set>
      <set comment="kpoint 42">
       <r>    2.7896    1.0000 </r>
       <r>   13.8302    1.0000 </r>
       <r>   18.1911    0.0000 </r>
       <r>   19.3406    0.0000 </r>
       <r>   26.0656    0.0000 </r>
       <r>   30.5037    0.0000 </r>
       <r>   34.6138    0.0000 </r>
       <r>   40.5632    0.0000 </r>
      </set>
      <set comment="kpoint 43">
       <r>    5.1333    1.0000 </r>
       <r>   10.2200    1.0000 </r>
       <r>   17.4399    0.0000 </r>
       <r>   18.6054    0.0000 </r>
       <r>   26.5625    0.0000 </r>
       <r>   32.7706    0.0000 </r>
       <r>   34.3552    0.0000 </r>
       <r>   40.1913    0.0000 </r>
      </set>
      <set comment="kpoint 44">
       <r>    6.9536    1.0000 </r>
       <r>    8.0576    1.0000 </r>
       <r>   16.3737    0.0000 </r>
       <r>   19.3094    0.0000 </r>
       <r>   27.4112    0.0000 </r>
       <r>   31.8503    0.0000 </r>
       <r>   37.6748    0.0000 </r>
       <r>   38.3756    0.0000 </r>
      </set>
      <set comment="kpoint 45">
       <r>    4.2989    1.0000 </r>
       <r>   11.2962    1.0000 </r>
       <r>   15.8704    0.0000 </r>
       <r>   20.6051    0.0000 </r>
       <r>   28.7077    0.0000 </r>
       <r>   31.1573    0.0000 </r>
       <r>   35.0588    0.0000 </r>
       <r>   39.0216    0.0000 </r>
      </set>
      <set comment="kpoint 46">
       <r>    2.1272    1.0000 </r>
       <r>   14.3957    0.9997 </r>
       <r>   16.5545    0.0000 </r>
       <r>   22.4181    0.0000 </r>
       <r>   30.2010    0.0000 </r>
       <r>   30.3626    0.0000 </r>
       <r>   32.4276    0.0000 </r>
       <r>   38.0466    0.0000 </r>
      </set>
      <set comment="kpoint 47">
       <r>    3.6334    1.0000 </r>
       <r>   15.8623    0.0000 </r>
       <r>   16.0046    0.0000 </r>
       <r>   17.8885    0.0000 </r>
       <r>   23.8601    0.0000 </r>
       <r>   27.0490    0.0000 </r>
       <r>   38.5618    0.0000 </r>
       <r>   43.7971    0.0000 </r>
      </set>
      <set comment="kpoint 48">
       <r>    5.7641    1.0000 </r>
       <r>   12.7004    1.0000 </r>
       <r>   14.2328    1.0000 </r>
       <r>   17.3154    0.0000 </r>
       <r>   25.0404    0.0000 </r>
       <r>   29.6444    0.0000 </r>
       <r>   37.1900    0.0000 </r>
       <r>   42.6853    0.0000 </r>
      </set>
      <set comment="kpoint 49">
       <r>    8.3190    1.0000 </r>
       <r>    9.4842    1.0000 </r>
       <r>   12.9897    1.0000 </r>
       <r>   17.8312    0.0000 </r>
       <r>   25.8969    0.0000 </r>
       <r>   33.3872    0.0000 </r>
       <r>   36.0247    0.0000 </r>
       <r>   39.3931    0.0000 </r>
      </set>
      <set comment="kpoint 50">
       <r>    6.6193    1.0000 </r>
       <r>   10.7758    1.0000 </r>
       <r>   12.9781    1.0000 </r>
       <r>   18.9481    0.0000 </r>
       <r>   27.1097    0.0000 </r>
       <r>   34.4962    0.0000 </r>
       <r>   35.5794    0.0000 </r>
       <r>   38.0767    0.0000 </r>
      </set>
      <set comment="kpoint 51">
       <r>    6.8813    1.0000 </r>
       <r>   11.4418    1.0000 </r>
       <r>   15.1373    0.0000 </r>
       <r>   17.1480    0.0000 </r>
       <r>   23.1507    0.0000 </r>
       <r>   26.4065    0.0000 </r>
       <r>   41.2857    0.0000 </r>
       <r>   43.8897    0.0000 </r>
      </set>
      <set comment="kpoint 52">
       <r>    8.6050    1.0000 </r>
       <r>   10.6019    1.0000 </r>
       <r>   12.4572    1.0000 </r>
       <r>   16.9436    0.0000 </r>
       <r>   24.6840    0.0000 </r>
       <r>   29.3347    0.0000 </r>
       <r>   39.9020    0.0000 </r>
       <r>   40.4737    0.0000 </r>
      </set>
      <set comment="kpoint 53">
       <r>    4.7606    1.0000 </r>
       <r>   12.9478    1.0000 </r>
       <r>   15.0492    0.0000 </r>
       <r>   17.3143    0.0000 </r>
       <r>   28.9035    0.0000 </r>
       <r>   30.9905    0.0000 </r>
       <r>   33.1493    0.0000 </r>
       <r>   42.0617    0.0000 </r>
      </set>
      <set comment="kpoint 54">
       <r>    7.2391    1.0000 </r>
       <r>   10.2017    1.0000 </r>
       <r>   14.6259    0.5774 </r>
       <r>   15.9230    0.0000 </r>
       <r>   30.1557    0.0000 </r>
       <r>   31.3505    0.0000 </r>
       <r>   34.3936    0.0000 </r>
       <r>   38.7016    0.0000 </r>
      </set>
      <set comment="kpoint 55">
       <r>    7.9790    1.0000 </r>
       <r>   12.2268    1.0000 </r>
       <r>   12.4403    1.0000 </r>
       <r>   14.6471    0.4586 </r>
       <r>   28.2262    0.0000 </r>
       <r>   30.5907    0.0000 </r>
       <r>   35.8061    0.0000 </r>
       <r>   39.4578    0.0000 </r>
      </set>
      <set comment="kpoint 56">
       <r>    9.7758    1.0000 </r>
       <r>   10.0462    1.0000 </r>
       <r>   12.1352    1.0000 </r>
       <r>   14.6308    0.5505 </r>
       <r>   29.8903    0.0000 </r>
       <r>   33.5178    0.0000 </r>
       <r>   33.8641    0.0000 </r>
       <r>   36.4847    0.0000 </r>
      </set>
     </set>
    </set>
   </array>
  </eigenvalues>
  <separator name="orbital magnetization" >
   <v name="MAGDIPOLOUT">      0.00000000      0.00000000      0.00000000</v>
  </separator>
  <dos>
   <i name="efermi">     14.63972776 </i>
   <total>
    <array>
     <dimension dim="1">gridpoints</dimension>
     <dimension dim="2">spin</dimension>
     <field>energy</field>
     <field>total</field>
     <field>integrated</field>
     <set>
      <set comment="spin 1">
       <r>    -5.3445     0.0000     0.0000 </r>
       <r>    -5.1648     0.0000     0.0000 </r>
       <r>    -4.9852     0.0000     0.0000 </r>
       <r>    -4.8055     0.0000     0.0000 </r>
       <r>    -4.6259     0.0000     0.0000 </r>
       <r>    -4.4463     0.0000     0.0000 </r>
       <r>    -4.2666     0.0000     0.0000 </r>
       <r>    -4.0870     0.0000     0.0000 </r>
       <r>    -3.9073     0.0000     0.0000 </r>
       <r>    -3.7277     0.0000     0.0000 </r>
       <r>    -3.5480     0.0000     0.0000 </r>
       <r>    -3.3684     0.0000     0.0000 </r>
       <r>    -3.1887     0.0000     0.0000 </r>
       <r>    -3.0091     0.0004     0.0001 </r>
       <r>    -2.8294     0.0065     0.0012 </r>
       <r>    -2.6498     0.0187     0.0046 </r>
       <r>    -2.4701     0.0815     0.0192 </r>
       <r>    -2.2905     0.0188     0.0226 </r>
       <r>    -2.1109     0.0503     0.0317 </r>
       <r>    -1.9312     0.0605     0.0425 </r>
       <r>    -1.7516     0.1786     0.0746 </r>
       <r>    -1.5719     0.0770     0.0884 </r>
       <r>    -1.3923     0.0113     0.0905 </r>
       <r>    -1.2126     0.0395     0.0976 </r>
       <r>    -1.0330     0.1326     0.1214 </r>
       <r>    -0.8533     0.2492     0.1662 </r>
       <r>    -0.6737     0.0304     0.1716 </r>
       <r>    -0.4940     0.1539     0.1993 </r>
       <r>    -0.3144     0.1050     0.2181 </r>
       <r>    -0.1347     0.1913     0.2525 </r>
       <r>     0.0449     0.0088     0.2541 </r>
       <r>     0.2246     0.0554     0.2641 </r>
       <r>     0.4042     0.0776     0.2780 </r>
       <r>     0.5838     0.4231     0.3540 </r>
       <r>     0.7635     0.1936     0.3888 </r>
       <r>     0.9431     0.0613     0.3998 </r>
       <r>     1.1228     0.1410     0.4251 </r>
       <r>     1.3024     0.1755     0.4566 </r>
       <r>     1.4821     0.2168     0.4956 </r>
       <r>     1.6617     0.0175     0.4987 </r>
       <r>     1.8414     0.0547     0.5086 </r>
       <r>     2.0210     0.1956     0.5437 </r>
       <r>     2.2007     0.3779     0.6116 </r>
       <r>     2.3803     0.0478     0.6202 </r>
       <r>     2.5600     0.2954     0.6732 </r>
       <r>     2.7396     0.2330     0.7151 </r>
       <r>     2.9193     0.4401     0.7942 </r>
       <r>     3.0989     0.0215     0.7980 </r>
       <r>     3.2785     0.0307     0.8035 </r>
       <r>     3.4582     0.0425     0.8112 </r>
       <r>     3.6378     0.3584     0.8756 </r>
       <r>     3.8175     0.2187     0.9149 </r>
       <r>     3.9971     0.1254     0.9374 </r>
       <r>     4.1768     0.1940     0.9722 </r>
       <r>     4.3564     0.4140     1.0466 </r>
       <r>     4.5361     0.2338     1.0886 </r>
       <r>     4.7157     0.0572     1.0989 </r>
       <r>     4.8954     0.1576     1.1272 </r>
       <r>     5.0750     0.4994     1.2169 </r>
       <r>     5.2547     0.4769     1.3026 </r>
       <r>     5.4343     0.0652     1.3143 </r>
       <r>     5.6139     0.1532     1.3418 </r>
       <r>     5.7936     0.2657     1.3896 </r>
       <r>     5.9732     0.1353     1.4139 </r>
       <r>     6.1529     0.0380     1.4207 </r>
       <r>     6.3325     0.1560     1.4487 </r>
       <r>     6.5122     0.2571     1.4949 </r>
       <r>     6.6918     0.5456     1.5929 </r>
       <r>     6.8715     0.1963     1.6282 </r>
       <r>     7.0511     0.4305     1.7055 </r>
       <r>     7.2308     0.3065     1.7606 </r>
       <r>     7.4104     0.5156     1.8532 </r>
       <r>     7.5901     0.0803     1.8677 </r>
       <r>     7.7697     0.0059     1.8687 </r>
       <r>     7.9494     0.1706     1.8994 </r>
       <r>     8.1290     0.6262     2.0119 </r>
       <r>     8.3086     0.4751     2.0972 </r>
       <r>     8.4883     0.2349     2.1394 </r>
       <r>     8.6679     0.1635     2.1688 </r>
       <r>     8.8476     0.1837     2.2018 </r>
       <r>     9.0272     0.0524     2.2112 </r>
       <r>     9.2069     0.0813     2.2258 </r>
       <r>     9.3865     0.1611     2.2547 </r>
       <r>     9.5662     0.7197     2.3840 </r>
       <r>     9.7458     0.3027     2.4384 </r>
       <r>     9.9255     0.2423     2.4819 </r>
       <r>    10.1051     0.4014     2.5540 </r>
       <r>    10.2848     0.6766     2.6756 </r>
       <r>    10.4644     0.1256     2.6981 </r>
       <r>    10.6440     0.1897     2.7322 </r>
       <r>    10.8237     0.3497     2.7950 </r>
       <r>    11.0033     0.1006     2.8131 </r>
       <r>    11.1830     0.0919     2.8296 </r>
       <r>    11.3626     0.3410     2.8909 </r>
       <r>    11.5423     0.2927     2.9435 </r>
       <r>    11.7219     0.4878     3.0311 </r>
       <r>    11.9016     0.1653     3.0608 </r>
       <r>    12.0812     0.0514     3.0700 </r>
       <r>    12.2609     0.3523     3.1333 </r>
       <r>    12.4405     0.3125     3.1894 </r>
       <r>    12.6202     0.5798     3.2936 </r>
       <r>    12.7998     0.3850     3.3627 </r>
       <r>    12.9795     0.4604     3.4455 </r>
       <r>    13.1591     0.6812     3.5678 </r>
       <r>    13.3387     0.1020     3.5862 </r>
       <r>    13.5184     0.1577     3.6145 </r>
       <r>    13.6980     0.0438     3.6223 </r>
       <r>    13.8777     0.3991     3.6940 </r>
       <r>    14.0573     0.2542     3.7397 </r>
       <r>    14.2370     0.3445     3.8016 </r>
       <r>    14.4166     0.3537     3.8651 </r>
       <r>    14.5963     0.5266     3.9597 </r>
       <r>    14.7759     0.5999     4.0675 </r>
       <r>    14.9556     0.1221     4.0894 </r>
       <r>    15.1352     0.4274     4.1662 </r>
       <r>    15.3149     0.1358     4.1906 </r>
       <r>    15.4945     0.0214     4.1945 </r>
       <r>    15.6741     0.3524     4.2578 </r>
       <r>    15.8538     0.5225     4.3516 </r>
       <r>    16.0334     0.9447     4.5213 </r>
       <r>    16.2131     0.1218     4.5432 </r>
       <r>    16.3927     0.2678     4.5913 </r>
       <r>    16.5724     0.4829     4.6781 </r>
       <r>    16.7520     0.2855     4.7294 </r>
       <r>    16.9317     0.2136     4.7677 </r>
       <r>    17.1113     0.3082     4.8231 </r>
       <r>    17.2910     0.4519     4.9043 </r>
       <r>    17.4706     0.7543     5.0398 </r>
       <r>    17.6503     0.2482     5.0844 </r>
       <r>    17.8299     0.4450     5.1643 </r>
       <r>    18.0096     0.4477     5.2447 </r>
       <r>    18.1892     0.3424     5.3062 </r>
       <r>    18.3688     0.2674     5.3543 </r>
       <r>    18.5485     0.3014     5.4084 </r>
       <r>    18.7281     0.6650     5.5279 </r>
       <r>    18.9078     0.2700     5.5764 </r>
       <r>    19.0874     0.3582     5.6407 </r>
       <r>    19.2671     0.3473     5.7031 </r>
       <r>    19.4467     0.8804     5.8613 </r>
       <r>    19.6264     0.4259     5.9378 </r>
       <r>    19.8060     0.2435     5.9815 </r>
       <r>    19.9857     0.5995     6.0892 </r>
       <r>    20.1653     0.3517     6.1524 </r>
       <r>    20.3450     0.6139     6.2627 </r>
       <r>    20.5246     0.2777     6.3125 </r>
       <r>    20.7042     0.4514     6.3936 </r>
       <r>    20.8839     0.2281     6.4346 </r>
       <r>    21.0635     0.2007     6.4707 </r>
       <r>    21.2432     0.5002     6.5605 </r>
       <r>    21.4228     0.5126     6.6526 </r>
       <r>    21.6025     0.3541     6.7162 </r>
       <r>    21.7821     0.5530     6.8156 </r>
       <r>    21.9618     0.5354     6.9118 </r>
       <r>    22.1414     0.3512     6.9749 </r>
       <r>    22.3211     0.4619     7.0579 </r>
       <r>    22.5007     0.4249     7.1342 </r>
       <r>    22.6804     0.3775     7.2020 </r>
       <r>    22.8600     0.4450     7.2820 </r>
       <r>    23.0397     0.2276     7.3228 </r>
       <r>    23.2193     0.2906     7.3750 </r>
       <r>    23.3989     0.4554     7.4569 </r>
       <r>    23.5786     0.2973     7.5103 </r>
       <r>    23.7582     0.5287     7.6053 </r>
       <r>    23.9379     0.3619     7.6703 </r>
       <r>    24.1175     0.3183     7.7274 </r>
       <r>    24.2972     0.5080     7.8187 </r>
       <r>    24.4768     0.5308     7.9141 </r>
       <r>    24.6565     0.1857     7.9474 </r>
       <r>    24.8361     0.4894     8.0353 </r>
       <r>    25.0158     0.4657     8.1190 </r>
       <r>    25.1954     0.3911     8.1893 </r>
       <r>    25.3751     0.3183     8.2464 </r>
       <r>    25.5547     0.2288     8.2875 </r>
       <r>    25.7344     0.5879     8.3932 </r>
       <r>    25.9140     0.7700     8.5315 </r>
       <r>    26.0936     0.8759     8.6888 </r>
       <r>    26.2733     0.6333     8.8026 </r>
       <r>    26.4529     0.2644     8.8501 </r>
       <r>    26.6326     0.3666     8.9160 </r>
       <r>    26.8122     0.2608     8.9628 </r>
       <r>    26.9919     0.3968     9.0341 </r>
       <r>    27.1715     0.6915     9.1583 </r>
       <r>    27.3512     0.5888     9.2641 </r>
       <r>    27.5308     0.5528     9.3634 </r>
       <r>    27.7105     0.5149     9.4559 </r>
       <r>    27.8901     0.4672     9.5398 </r>
       <r>    28.0698     0.1319     9.5635 </r>
       <r>    28.2494     0.7841     9.7044 </r>
       <r>    28.4290     0.6530     9.8217 </r>
       <r>    28.6087     0.4677     9.9057 </r>
       <r>    28.7883     0.4073     9.9789 </r>
       <r>    28.9680     0.2709    10.0276 </r>
       <r>    29.1476     0.3101    10.0833 </r>
       <r>    29.3273     0.4570    10.1654 </r>
       <r>    29.5069     0.4676    10.2494 </r>
       <r>    29.6866     0.5354    10.3456 </r>
       <r>    29.8662     0.5850    10.4507 </r>
       <r>    30.0459     0.4869    10.5381 </r>
       <r>    30.2255     0.7023    10.6643 </r>
       <r>    30.4052     0.4768    10.7499 </r>
       <r>    30.5848     0.5882    10.8556 </r>
       <r>    30.7645     0.5902    10.9616 </r>
       <r>    30.9441     0.3288    11.0207 </r>
       <r>    31.1237     0.5978    11.1281 </r>
       <r>    31.3034     0.5182    11.2212 </r>
       <r>    31.4830     0.4470    11.3015 </r>
       <r>    31.6627     0.5086    11.3928 </r>
       <r>    31.8423     0.5931    11.4994 </r>
       <r>    32.0220     0.3973    11.5708 </r>
       <r>    32.2016     0.2483    11.6154 </r>
       <r>    32.3813     0.4479    11.6958 </r>
       <r>    32.5609     0.5939    11.8025 </r>
       <r>    32.7406     0.4874    11.8901 </r>
       <r>    32.9202     0.8562    12.0439 </r>
       <r>    33.0999     0.3065    12.0990 </r>
       <r>    33.2795     0.3866    12.1684 </r>
       <r>    33.4591     0.8095    12.3138 </r>
       <r>    33.6388     0.6977    12.4392 </r>
       <r>    33.8184     0.6547    12.5568 </r>
       <r>    33.9981     0.2877    12.6085 </r>
       <r>    34.1777     0.1695    12.6389 </r>
       <r>    34.3574     0.4901    12.7270 </r>
       <r>    34.5370     0.7837    12.8678 </r>
       <r>    34.7167     0.5988    12.9753 </r>
       <r>    34.8963     0.6993    13.1009 </r>
       <r>    35.0760     0.5661    13.2026 </r>
       <r>    35.2556     0.4941    13.2914 </r>
       <r>    35.4353     0.5877    13.3970 </r>
       <r>    35.6149     0.6465    13.5131 </r>
       <r>    35.7946     0.3347    13.5733 </r>
       <r>    35.9742     0.7505    13.7081 </r>
       <r>    36.1538     0.9160    13.8726 </r>
       <r>    36.3335     0.4673    13.9566 </r>
       <r>    36.5131     0.3759    14.0241 </r>
       <r>    36.6928     0.3756    14.0916 </r>
       <r>    36.8724     0.1034    14.1102 </r>
       <r>    37.0521     0.2478    14.1547 </r>
       <r>    37.2317     0.5910    14.2609 </r>
       <r>    37.4114     0.1459    14.2871 </r>
       <r>    37.5910     0.1394    14.3121 </r>
       <r>    37.7707     0.4258    14.3886 </r>
       <r>    37.9503     0.1191    14.4100 </r>
       <r>    38.1300     0.7146    14.5384 </r>
       <r>    38.3096     0.2775    14.5882 </r>
       <r>    38.4892     0.5267    14.6829 </r>
       <r>    38.6689     0.5195    14.7762 </r>
       <r>    38.8485     0.2930    14.8288 </r>
       <r>    39.0282     0.5981    14.9363 </r>
       <r>    39.2078     0.5964    15.0434 </r>
       <r>    39.3875     0.3087    15.0989 </r>
       <r>    39.5671     0.3840    15.1678 </r>
       <r>    39.7468     0.0271    15.1727 </r>
       <r>    39.9264     0.2823    15.2234 </r>
       <r>    40.1061     0.3432    15.2851 </r>
       <r>    40.2857     0.4797    15.3712 </r>
       <r>    40.4654     0.3108    15.4271 </r>
       <r>    40.6450     0.4779    15.5129 </r>
       <r>    40.8247     0.0519    15.5223 </r>
       <r>    41.0043     0.0305    15.5278 </r>
       <r>    41.1839     0.0707    15.5405 </r>
       <r>    41.3636     0.3125    15.5966 </r>
       <r>    41.5432     0.0664    15.6085 </r>
       <r>    41.7229     0.2088    15.6460 </r>
       <r>    41.9025     0.1600    15.6748 </r>
       <r>    42.0822     0.1388    15.6997 </r>
       <r>    42.2618     0.1135    15.7201 </r>
       <r>    42.4415     0.0023    15.7205 </r>
       <r>    42.6211     0.0729    15.7336 </r>
       <r>    42.8008     0.3079    15.7889 </r>
       <r>    42.9804     0.0231    15.7931 </r>
       <r>    43.1601     0.1220    15.8150 </r>
       <r>    43.3397     0.0759    15.8286 </r>
       <r>    43.5194     0.0316    15.8343 </r>
       <r>    43.6990     0.0844    15.8495 </r>
       <r>    43.8786     0.2486    15.8941 </r>
       <r>    44.0583     0.1724    15.9251 </r>
       <r>    44.2379     0.0706    15.9378 </r>
       <r>    44.4176     0.1472    15.9642 </r>
       <r>    44.5972     0.0485    15.9729 </r>
       <r>    44.7769     0.0001    15.9730 </r>
       <r>    44.9565     0.0001    15.9730 </r>
       <r>    45.1362     0.0262    15.9777 </r>
       <r>    45.3158     0.0713    15.9905 </r>
       <r>    45.4955     0.0029    15.9910 </r>
       <r>    45.6751     0.0000    15.9910 </r>
       <r>    45.8548     0.0000    15.9910 </r>
       <r>    46.0344     0.0089    15.9926 </r>
       <r>    46.2140     0.0386    15.9995 </r>
       <r>    46.3937     0.0027    16.0000 </r>
       <r>    46.5733     0.0000    16.0000 </r>
       <r>    46.7530     0.0000    16.0000 </r>
       <r>    46.9326     0.0000    16.0000 </r>
       <r>    47.1123     0.0000    16.0000 </r>
       <r>    47.2919     0.0000    16.0000 </r>
       <r>    47.4716     0.0000    16.0000 </r>
       <r>    47.6512     0.0000    16.0000 </r>
       <r>    47.8309     0.0000    16.0000 </r>
       <r>    48.0105     0.0000    16.0000 </r>
       <r>    48.1902     0.0000    16.0000 </r>
       <r>    48.3698     0.0000    16.0000 </r>
       <r>    48.5495     0.0000    16.0000 </r>
      </set>
     </set>
    </array>
   </total>
  </dos>
 </calculation>
 <structure name="finalpos" >
  <crystal>
   <varray name="basis" >
    <v>       1.75000000       1.75000000       0.00000000 </v>
    <v>       0.00000000       1.75000000       1.75000000 </v>
    <v>       1.75000000       0.00000000       1.75000000 </v>
   </varray>
   <i name="volume">     10.71875000 </i>
   <varray name="rec_basis" >
    <v>       0.28571429       0.28571429      -0.28571429 </v>
    <v>      -0.28571429       0.28571429       0.28571429 </v>
    <v>       0.28571429      -0.28571429       0.28571429 </v>
   </varray>
  </crystal>
  <varray name="positions" >
   <v>       0.00000000       0.00000000       0.00000000 </v>
  </varray>
 </structure>
</modeling>
