mpprun info: Starting impi run on 1 node ( 4 rank X 1 th ) for job ID 18764728
 ----------------------------------------------------
    OOO  PPPP  EEEEE N   N M   M PPPP
   O   O P   P E     NN  N MM MM P   P
   O   O PPPP  EEEEE N N N M M M PPPP   -- VERSION
   O   O P     E     N  NN M   M P
    OOO  P     EEEEE N   N M   M P
 ----------------------------------------------------
 running    4 mpi-ranks, with    1 threads/rank
 distrk:  each k-point on    4 cores,    1 groups
 distr:  one band on    1 cores,    4 groups
 vasp.6.3.0 20Jan22 (build Feb 01 2022 16:52:37) complex                        
  
 POSCAR found type information on POSCAR Si
 POSCAR found :  1 types and       1 ions
 scaLAPACK will be used
 LDA part: xc-table for Pade appr. of Perdew
 POSCAR, INCAR and KPOINTS ok, starting setup
 FFT: planning ... GRIDC
 FFT: planning ... GRID_SOFT
 FFT: planning ... GRID
 WAVECAR not read
 entering main loop
       N       E                     dE             d eps       ncg     rms          rms(c)
DAV:   1    -0.363070965354E+01   -0.36307E+01   -0.13514E+03  1072   0.220E+02
DAV:   2    -0.446443733415E+01   -0.83373E+00   -0.81100E+00  1304   0.166E+01
DAV:   3    -0.446617586457E+01   -0.17385E-02   -0.17385E-02  1016   0.688E-01
DAV:   4    -0.446617628380E+01   -0.41923E-06   -0.41973E-06  1464   0.943E-03
DAV:   5    -0.446617628270E+01    0.11023E-08   -0.27651E-11   936   0.196E-05    0.515E+00
DAV:   6    -0.444095910179E+01    0.25217E-01   -0.34768E-03  1120   0.283E-01    0.289E+00
DAV:   7    -0.442578127293E+01    0.15178E-01   -0.75378E-03  1128   0.422E-01    0.181E-01
DAV:   8    -0.442569094144E+01    0.90331E-04   -0.19689E-05   920   0.296E-02
   1 F= -.44256909E+01 E0= -.44234194E+01  d E =-.454310E-02
 writing wavefunctions
mpprun info: Elapsed time (h:m:s):  0:00:00.687423
mpprun info: Starting impi run on 1 node ( 4 rank X 1 th ) for job ID 18764728
 ----------------------------------------------------
    OOO  PPPP  EEEEE N   N M   M PPPP
   O   O P   P E     NN  N MM MM P   P
   O   O PPPP  EEEEE N N N M M M PPPP   -- VERSION
   O   O P     E     N  NN M   M P
    OOO  P     EEEEE N   N M   M P
 ----------------------------------------------------
 running    4 mpi-ranks, with    1 threads/rank
 distrk:  each k-point on    4 cores,    1 groups
 distr:  one band on    1 cores,    4 groups
 vasp.6.3.0 20Jan22 (build Feb 01 2022 16:52:37) complex                        
  
 POSCAR found type information on POSCAR Si
 POSCAR found :  1 types and       1 ions
 scaLAPACK will be used
 LDA part: xc-table for Pade appr. of Perdew
 POSCAR, INCAR and KPOINTS ok, starting setup
 FFT: planning ... GRIDC
 FFT: planning ... GRID_SOFT
 FFT: planning ... GRID
 WAVECAR not read
 entering main loop
       N       E                     dE             d eps       ncg     rms          rms(c)
DAV:   1    -0.398814855098E+01   -0.39881E+01   -0.13752E+03  1032   0.220E+02
DAV:   2    -0.469223289795E+01   -0.70408E+00   -0.69248E+00  1344   0.165E+01
DAV:   3    -0.469350313236E+01   -0.12702E-02   -0.12702E-02  1080   0.661E-01
DAV:   4    -0.469350341629E+01   -0.28393E-06   -0.28511E-06  1376   0.907E-03
DAV:   5    -0.469350341711E+01   -0.81637E-09   -0.17357E-09   952   0.538E-05    0.443E+00
DAV:   6    -0.467358851690E+01    0.19915E-01   -0.33994E-03  1096   0.272E-01    0.249E+00
DAV:   7    -0.466156397261E+01    0.12025E-01   -0.73616E-03  1112   0.403E-01    0.164E-01
DAV:   8    -0.466149312708E+01    0.70846E-04   -0.20837E-05   896   0.303E-02
   1 F= -.46614931E+01 E0= -.46600638E+01  d E =-.285864E-02
 writing wavefunctions
mpprun info: Elapsed time (h:m:s):  0:00:00.714514
mpprun info: Starting impi run on 1 node ( 4 rank X 1 th ) for job ID 18764728
 ----------------------------------------------------
    OOO  PPPP  EEEEE N   N M   M PPPP
   O   O P   P E     NN  N MM MM P   P
   O   O PPPP  EEEEE N N N M M M PPPP   -- VERSION
   O   O P     E     N  NN M   M P
    OOO  P     EEEEE N   N M   M P
 ----------------------------------------------------
 running    4 mpi-ranks, with    1 threads/rank
 distrk:  each k-point on    4 cores,    1 groups
 distr:  one band on    1 cores,    4 groups
 vasp.6.3.0 20Jan22 (build Feb 01 2022 16:52:37) complex                        
  
 POSCAR found type information on POSCAR Si
 POSCAR found :  1 types and       1 ions
 scaLAPACK will be used
 LDA part: xc-table for Pade appr. of Perdew
 POSCAR, INCAR and KPOINTS ok, starting setup
 FFT: planning ... GRIDC
 FFT: planning ... GRID_SOFT
 FFT: planning ... GRID
 WAVECAR not read
 entering main loop
       N       E                     dE             d eps       ncg     rms          rms(c)
DAV:   1    -0.415045838088E+01   -0.41505E+01   -0.12138E+03  1080   0.215E+02
DAV:   2    -0.482383996151E+01   -0.67338E+00   -0.66887E+00  1392   0.160E+01
DAV:   3    -0.482509595123E+01   -0.12560E-02   -0.12556E-02   952   0.631E-01
DAV:   4    -0.482509638440E+01   -0.43317E-06   -0.43329E-06  1480   0.113E-02
DAV:   5    -0.482509638420E+01    0.19524E-09   -0.40630E-10   856   0.625E-05    0.384E+00
DAV:   6    -0.480810795529E+01    0.16988E-01   -0.37597E-03  1096   0.275E-01    0.214E+00
DAV:   7    -0.479807131151E+01    0.10037E-01   -0.77769E-03  1104   0.397E-01    0.149E-01
DAV:   8    -0.479801215826E+01    0.59153E-04   -0.19957E-05  1000   0.311E-02
   1 F= -.47980122E+01 E0= -.47959555E+01  d E =-.411323E-02
 writing wavefunctions
mpprun info: Elapsed time (h:m:s):  0:00:00.696038
mpprun info: Starting impi run on 1 node ( 4 rank X 1 th ) for job ID 18764728
 ----------------------------------------------------
    OOO  PPPP  EEEEE N   N M   M PPPP
   O   O P   P E     NN  N MM MM P   P
   O   O PPPP  EEEEE N N N M M M PPPP   -- VERSION
   O   O P     E     N  NN M   M P
    OOO  P     EEEEE N   N M   M P
 ----------------------------------------------------
 running    4 mpi-ranks, with    1 threads/rank
 distrk:  each k-point on    4 cores,    1 groups
 distr:  one band on    1 cores,    4 groups
 vasp.6.3.0 20Jan22 (build Feb 01 2022 16:52:37) complex                        
  
 POSCAR found type information on POSCAR Si
 POSCAR found :  1 types and       1 ions
 scaLAPACK will be used
 LDA part: xc-table for Pade appr. of Perdew
 POSCAR, INCAR and KPOINTS ok, starting setup
 FFT: planning ... GRIDC
 FFT: planning ... GRID_SOFT
 FFT: planning ... GRID
 WAVECAR not read
 entering main loop
       N       E                     dE             d eps       ncg     rms          rms(c)
DAV:   1    -0.404665220225E+01   -0.40467E+01   -0.12482E+03  1016   0.215E+02
DAV:   2    -0.488455376559E+01   -0.83790E+00   -0.79909E+00  1360   0.168E+01
DAV:   3    -0.488742589941E+01   -0.28721E-02   -0.28717E-02   976   0.909E-01
DAV:   4    -0.488742715637E+01   -0.12570E-05   -0.12579E-05  1448   0.175E-02
DAV:   5    -0.488742715578E+01    0.58520E-09   -0.45365E-10   912   0.778E-05    0.335E+00
DAV:   6    -0.487296407268E+01    0.14463E-01   -0.38946E-03  1032   0.274E-01    0.186E+00
DAV:   7    -0.486458054756E+01    0.83835E-02   -0.78079E-03  1064   0.388E-01    0.138E-01
DAV:   8    -0.486453234811E+01    0.48199E-04   -0.21370E-05  1000   0.331E-02
   1 F= -.48645323E+01 E0= -.48630343E+01  d E =-.299612E-02
 writing wavefunctions
mpprun info: Elapsed time (h:m:s):  0:00:00.739077
mpprun info: Starting impi run on 1 node ( 4 rank X 1 th ) for job ID 18764728
 ----------------------------------------------------
    OOO  PPPP  EEEEE N   N M   M PPPP
   O   O P   P E     NN  N MM MM P   P
   O   O PPPP  EEEEE N N N M M M PPPP   -- VERSION
   O   O P     E     N  NN M   M P
    OOO  P     EEEEE N   N M   M P
 ----------------------------------------------------
 running    4 mpi-ranks, with    1 threads/rank
 distrk:  each k-point on    4 cores,    1 groups
 distr:  one band on    1 cores,    4 groups
 vasp.6.3.0 20Jan22 (build Feb 01 2022 16:52:37) complex                        
  
 POSCAR found type information on POSCAR Si
 POSCAR found :  1 types and       1 ions
 scaLAPACK will be used
 LDA part: xc-table for Pade appr. of Perdew
 POSCAR, INCAR and KPOINTS ok, starting setup
 FFT: planning ... GRIDC
 FFT: planning ... GRID_SOFT
 FFT: planning ... GRID
 WAVECAR not read
 entering main loop
       N       E                     dE             d eps       ncg     rms          rms(c)
DAV:   1    -0.416449900356E+01   -0.41645E+01   -0.11528E+03  1040   0.208E+02
DAV:   2    -0.489481127312E+01   -0.73031E+00   -0.69707E+00  1416   0.154E+01
DAV:   3    -0.489754152321E+01   -0.27303E-02   -0.27266E-02   968   0.802E-01
DAV:   4    -0.489754261694E+01   -0.10937E-05   -0.10932E-05  1488   0.158E-02
DAV:   5    -0.489754261614E+01    0.80726E-09   -0.12962E-09   864   0.103E-04    0.295E+00
DAV:   6    -0.488471122271E+01    0.12831E-01   -0.40804E-03  1024   0.277E-01    0.163E+00
DAV:   7    -0.487745208430E+01    0.72591E-02   -0.79763E-03  1056   0.387E-01    0.131E-01
DAV:   8    -0.487741439672E+01    0.37688E-04   -0.22579E-05  1040   0.351E-02
   1 F= -.48774144E+01 E0= -.48758835E+01  d E =-.306173E-02
 writing wavefunctions
mpprun info: Elapsed time (h:m:s):  0:00:00.799337
mpprun info: Starting impi run on 1 node ( 4 rank X 1 th ) for job ID 18764728
 ----------------------------------------------------
    OOO  PPPP  EEEEE N   N M   M PPPP
   O   O P   P E     NN  N MM MM P   P
   O   O PPPP  EEEEE N N N M M M PPPP   -- VERSION
   O   O P     E     N  NN M   M P
    OOO  P     EEEEE N   N M   M P
 ----------------------------------------------------
 running    4 mpi-ranks, with    1 threads/rank
 distrk:  each k-point on    4 cores,    1 groups
 distr:  one band on    1 cores,    4 groups
 vasp.6.3.0 20Jan22 (build Feb 01 2022 16:52:37) complex                        
  
 POSCAR found type information on POSCAR Si
 POSCAR found :  1 types and       1 ions
 scaLAPACK will be used
 LDA part: xc-table for Pade appr. of Perdew
 POSCAR, INCAR and KPOINTS ok, starting setup
 FFT: planning ... GRIDC
 FFT: planning ... GRID_SOFT
 FFT: planning ... GRID
 WAVECAR not read
 entering main loop
       N       E                     dE             d eps       ncg     rms          rms(c)
DAV:   1    -0.392614542902E+01   -0.39261E+01   -0.11774E+03   992   0.214E+02
DAV:   2    -0.486262788799E+01   -0.93648E+00   -0.91030E+00  1416   0.173E+01
DAV:   3    -0.486626095742E+01   -0.36331E-02   -0.36322E-02   944   0.102E+00
DAV:   4    -0.486626326161E+01   -0.23042E-05   -0.23052E-05  1504   0.258E-02
DAV:   5    -0.486626326234E+01   -0.72971E-09   -0.27086E-09   856   0.121E-04    0.259E+00
DAV:   6    -0.485503535430E+01    0.11228E-01   -0.41198E-03   984   0.276E-01    0.143E+00
DAV:   7    -0.484880170364E+01    0.62337E-02   -0.79469E-03  1008   0.382E-01    0.126E-01
DAV:   8    -0.484877530874E+01    0.26395E-04   -0.26345E-05  1096   0.384E-02
   1 F= -.48487753E+01 E0= -.48481407E+01  d E =-.126921E-02
 writing wavefunctions
mpprun info: Elapsed time (h:m:s):  0:00:00.780737
mpprun info: Starting impi run on 1 node ( 4 rank X 1 th ) for job ID 18764728
 ----------------------------------------------------
    OOO  PPPP  EEEEE N   N M   M PPPP
   O   O P   P E     NN  N MM MM P   P
   O   O PPPP  EEEEE N N N M M M PPPP   -- VERSION
   O   O P     E     N  NN M   M P
    OOO  P     EEEEE N   N M   M P
 ----------------------------------------------------
 running    4 mpi-ranks, with    1 threads/rank
 distrk:  each k-point on    4 cores,    1 groups
 distr:  one band on    1 cores,    4 groups
 vasp.6.3.0 20Jan22 (build Feb 01 2022 16:52:37) complex                        
  
 POSCAR found type information on POSCAR Si
 POSCAR found :  1 types and       1 ions
 scaLAPACK will be used
 LDA part: xc-table for Pade appr. of Perdew
 POSCAR, INCAR and KPOINTS ok, starting setup
 FFT: planning ... GRIDC
 FFT: planning ... GRID_SOFT
 FFT: planning ... GRID
 WAVECAR not read
 entering main loop
       N       E                     dE             d eps       ncg     rms          rms(c)
DAV:   1    -0.386837752917E+01   -0.38684E+01   -0.10692E+03   968   0.206E+02
DAV:   2    -0.479777324697E+01   -0.92940E+00   -0.89002E+00  1400   0.168E+01
DAV:   3    -0.480165974411E+01   -0.38865E-02   -0.38858E-02   984   0.108E+00
DAV:   4    -0.480166209422E+01   -0.23501E-05   -0.23493E-05  1440   0.264E-02
DAV:   5    -0.480166209448E+01   -0.26611E-09   -0.26334E-09   936   0.172E-04    0.226E+00
DAV:   6    -0.479106930554E+01    0.10593E-01   -0.44213E-03   992   0.285E-01    0.124E+00
DAV:   7    -0.478531410843E+01    0.57552E-02   -0.84512E-03  1008   0.392E-01    0.126E-01
DAV:   8    -0.478529712508E+01    0.16983E-04   -0.32458E-05  1096   0.426E-02
   1 F= -.47852971E+01 E0= -.47845193E+01  d E =-.155573E-02
 writing wavefunctions
mpprun info: Elapsed time (h:m:s):  0:00:00.810438
mpprun info: Starting impi run on 1 node ( 4 rank X 1 th ) for job ID 18764728
 ----------------------------------------------------
    OOO  PPPP  EEEEE N   N M   M PPPP
   O   O P   P E     NN  N MM MM P   P
   O   O PPPP  EEEEE N N N M M M PPPP   -- VERSION
   O   O P     E     N  NN M   M P
    OOO  P     EEEEE N   N M   M P
 ----------------------------------------------------
 running    4 mpi-ranks, with    1 threads/rank
 distrk:  each k-point on    4 cores,    1 groups
 distr:  one band on    1 cores,    4 groups
 vasp.6.3.0 20Jan22 (build Feb 01 2022 16:52:37) complex                        
  
 POSCAR found type information on POSCAR Si
 POSCAR found :  1 types and       1 ions
 scaLAPACK will be used
 LDA part: xc-table for Pade appr. of Perdew
 POSCAR, INCAR and KPOINTS ok, starting setup
 FFT: planning ... GRIDC
 FFT: planning ... GRID_SOFT
 FFT: planning ... GRID
 WAVECAR not read
 entering main loop
       N       E                     dE             d eps       ncg     rms          rms(c)
DAV:   1    -0.355010418413E+01   -0.35501E+01   -0.10799E+03  1008   0.208E+02
DAV:   2    -0.470238743356E+01   -0.11523E+01   -0.10986E+01  1432   0.176E+01
DAV:   3    -0.470912540169E+01   -0.67380E-02   -0.67354E-02  1000   0.128E+00
DAV:   4    -0.470913061729E+01   -0.52156E-05   -0.52160E-05  1464   0.331E-02
DAV:   5    -0.470913061877E+01   -0.14815E-08   -0.17845E-08   992   0.412E-04    0.198E+00
DAV:   6    -0.469903693256E+01    0.10094E-01   -0.47175E-03   960   0.293E-01    0.107E+00
DAV:   7    -0.469373656258E+01    0.53004E-02   -0.88646E-03   952   0.400E-01    0.123E-01
DAV:   8    -0.469373004579E+01    0.65168E-05   -0.41808E-05  1208   0.477E-02
   1 F= -.46937300E+01 E0= -.46922884E+01  d E =-.288335E-02
 writing wavefunctions
mpprun info: Elapsed time (h:m:s):  0:00:00.802227
mpprun info: Starting impi run on 1 node ( 4 rank X 1 th ) for job ID 18764728
 ----------------------------------------------------
    OOO  PPPP  EEEEE N   N M   M PPPP
   O   O P   P E     NN  N MM MM P   P
   O   O PPPP  EEEEE N N N M M M PPPP   -- VERSION
   O   O P     E     N  NN M   M P
    OOO  P     EEEEE N   N M   M P
 ----------------------------------------------------
 running    4 mpi-ranks, with    1 threads/rank
 distrk:  each k-point on    4 cores,    1 groups
 distr:  one band on    1 cores,    4 groups
 vasp.6.3.0 20Jan22 (build Feb 01 2022 16:52:37) complex                        
  
 POSCAR found type information on POSCAR Si
 POSCAR found :  1 types and       1 ions
 scaLAPACK will be used
 LDA part: xc-table for Pade appr. of Perdew
 POSCAR, INCAR and KPOINTS ok, starting setup
 FFT: planning ... GRIDC
 FFT: planning ... GRID_SOFT
 FFT: planning ... GRID
 WAVECAR not read
 entering main loop
       N       E                     dE             d eps       ncg     rms          rms(c)
DAV:   1    -0.367072675199E+01   -0.36707E+01   -0.10445E+03   984   0.201E+02
DAV:   2    -0.459163571443E+01   -0.92091E+00   -0.85828E+00  1392   0.164E+01
DAV:   3    -0.459706317965E+01   -0.54275E-02   -0.54082E-02   960   0.114E+00
DAV:   4    -0.459706910209E+01   -0.59224E-05   -0.59227E-05  1544   0.382E-02
DAV:   5    -0.459706910259E+01   -0.49805E-09   -0.20097E-09   904   0.193E-04    0.173E+00
DAV:   6    -0.458781256073E+01    0.92565E-02   -0.48056E-03   984   0.296E-01    0.937E-01
DAV:   7    -0.458314810393E+01    0.46645E-02   -0.88411E-03   928   0.400E-01    0.117E-01
DAV:   8    -0.458315356223E+01   -0.54583E-05   -0.52460E-05  1160   0.523E-02
   1 F= -.45831536E+01 E0= -.45812206E+01  d E =-.386597E-02
 writing wavefunctions
mpprun info: Elapsed time (h:m:s):  0:00:00.790848
