diamond Si                              
   5.20000000000000     
     0.000000    0.500000    0.500000
     0.500000    0.000000    0.500000
     0.500000    0.500000    0.000000
   Si
     2
Direct
  0.875000  0.875000  0.875000
  0.125000  0.125000  0.125000
 
   28   28   28
  22.648      22.484      21.918      20.705      18.756      16.444      14.534      13.789      14.533      16.444    
  18.756      20.705      21.918      22.484      22.648      22.484      21.918      20.705      18.756      16.444    
  14.533      13.789      14.534      16.444      18.756      20.705      21.918      22.484      22.484      22.502    
  21.697      19.754      16.905      13.998      12.150      12.150      13.998      16.905      19.754      21.697    
  22.502      22.484      22.043      21.310      20.280      18.881      17.175      15.541      14.523      14.523    
  15.541      17.176      18.882      20.280      21.309      22.043      21.918      21.697      20.095      17.077    
  13.377      10.299      9.1000      10.299      13.377      17.077      20.095      21.697      21.918      21.309    
  20.350      19.195      17.895      16.501      15.151      14.129      13.745      14.129      15.151      16.501    
  17.895      19.196      20.350      21.309      20.705      19.754      17.077      13.110      9.0865      6.5427    
  6.5427      9.0864      13.110      17.077      19.754      20.706      20.280      19.195      17.889      16.515    
  15.154      13.899      12.900      12.336      12.336      12.900      13.899      15.154      16.515      17.890    
  19.196      20.280      18.756      16.905      13.377      9.0865      5.5461      4.1731      5.5462      9.0865    
  13.377      16.905      18.756      18.882      17.895      16.515      15.055      13.654      12.399      11.379    
  10.700      10.460      10.700      11.379      12.399      13.654      15.055      16.515      17.895      18.882    
  16.444      13.998      10.299      6.5427      4.1731      4.1731      6.5428      10.299      13.998      16.444    
  17.175      16.501      15.154      13.654      12.204      10.917      9.8644      9.1090      8.7110      8.7108    
  9.1089      9.8646      10.917      12.204      13.654      15.154      16.501      17.176      14.534      12.150    
  9.1000      6.5427      5.5462      6.5428      9.1001      12.150      14.534      15.541      15.151      13.899    
  12.399      10.917      9.5910      8.4974      7.6810      7.1742      7.0020      7.1742      7.6810      8.4974    
  9.5909      10.917      12.399      13.899      15.151      15.541      13.789      12.150      10.299      9.0864    
  9.0865      10.299      12.150      13.789      14.523      14.130      12.900      11.378      9.8644      8.4976    
  7.3596      6.4889      5.9014      5.6054      5.6055      5.9016      6.4888      7.3593      8.4974      9.8646    
  11.379      12.900      14.129      14.523      14.533      13.998      13.377      13.110      13.377      13.998    
  14.534      14.523      13.745      12.336      10.700      9.1089      7.6810      6.4887      5.5639      4.9109    
  4.5232      4.3947      4.5232      4.9109      5.5640      6.4888      7.6810      9.1089      10.700      12.336    
  13.745      14.523      16.444      16.905      17.077      17.077      16.905      16.444      15.541      14.130    
  12.336      10.460      8.7109      7.1742      5.9014      4.9106      4.1945      3.7334      3.5082      3.5081    
  3.7333      4.1946      4.9109      5.9016      7.1742      8.7108      10.460      12.336      14.129      15.541    
  18.756      19.754      20.095      19.754      18.756      17.175      15.151      12.900      10.700      8.7109    
  7.0020      5.6055      4.5232      3.7332      3.2024      2.8986      2.7999      2.8986      3.2024      3.7333    
  4.5232      5.6055      7.0020      8.7110      10.700      12.900      15.151      17.175      20.705      21.697    
  21.697      20.706      18.882      16.501      13.899      11.378      9.1089      7.1742      5.6055      4.3949    
  3.5082      2.8986      2.5209      2.3409      2.3410      2.5210      2.8986      3.5081      4.3947      5.6054    
  7.1742      9.1090      11.379      13.899      16.501      18.881      21.918      22.502      21.918      20.280    
  17.895      15.154      12.399      9.8644      7.6810      5.9014      4.5232      3.5082      2.8000      2.3410    
  2.0850      2.0029      2.0850      2.3410      2.7999      3.5082      4.5232      5.9014      7.6810      9.8644    
  12.399      15.154      17.895      20.280      22.484      22.484      21.309      19.195      16.515      13.654    
  10.917      8.4976      6.4887      4.9106      3.7332      2.8986      2.3410      2.0029      1.8440      1.8440    
  2.0029      2.3409      2.8986      3.7334      4.9109      6.4889      8.4974      10.917      13.654      16.515    
  19.195      21.310      22.648      22.043      20.350      17.889      15.055      12.204      9.5910      7.3596    
  5.5639      4.1945      3.2024      2.5209      2.0850      1.8440      1.7670      1.8440      2.0850      2.5209    
  3.2024      4.1945      5.5639      7.3596      9.5910      12.204      15.055      17.889      20.350      22.043    
  22.484      21.310      19.195      16.515      13.654      10.917      8.4974      6.4889      4.9109      3.7334    
  2.8986      2.3409      2.0029      1.8440      1.8440      2.0029      2.3410      2.8986      3.7332      4.9106    
  6.4887      8.4976      10.917      13.654      16.515      19.195      21.309      22.484      21.918      20.280    
  17.895      15.154      12.399      9.8644      7.6810      5.9014      4.5232      3.5082      2.7999      2.3410    
  2.0850      2.0029      2.0850      2.3410      2.8000      3.5082      4.5232      5.9014      7.6810      9.8644    
  12.399      15.154      17.895      20.280      21.918      22.502      20.705      18.881      16.501      13.899    
  11.379      9.1090      7.1742      5.6054      4.3947      3.5081      2.8986      2.5210      2.3410      2.3409    
  2.5209      2.8986      3.5082      4.3949      5.6055      7.1742      9.1089      11.378      13.899      16.501    
  18.882      20.706      21.697      21.697      18.756      17.175      15.151      12.900      10.700      8.7110    
  7.0020      5.6055      4.5232      3.7333      3.2024      2.8986      2.7999      2.8986      3.2024      3.7332    
  4.5232      5.6055      7.0020      8.7109      10.700      12.900      15.151      17.175      18.756      19.754    
  20.095      19.754      16.444      15.541      14.129      12.336      10.460      8.7108      7.1742      5.9016    
  4.9109      4.1946      3.7333      3.5081      3.5082      3.7334      4.1945      4.9106      5.9014      7.1742    
  8.7109      10.460      12.336      14.130      15.541      16.444      16.905      17.077      17.077      16.905    
  14.533      14.523      13.745      12.336      10.700      9.1089      7.6810      6.4888      5.5640      4.9109    
  4.5232      4.3947      4.5232      4.9109      5.5639      6.4887      7.6810      9.1089      10.700      12.336    
  13.745      14.523      14.534      13.998      13.377      13.110      13.377      13.998      13.789      14.523    
  14.129      12.900      11.379      9.8646      8.4974      7.3593      6.4888      5.9016      5.6055      5.6054    
  5.9014      6.4889      7.3596      8.4976      9.8644      11.378      12.900      14.130      14.523      13.789    
  12.150      10.299      9.0865      9.0864      10.299      12.150      14.534      15.541      15.151      13.899    
  12.399      10.917      9.5909      8.4974      7.6810      7.1742      7.0020      7.1742      7.6810      8.4974    
  9.5910      10.917      12.399      13.899      15.151      15.541      14.534      12.150      9.1001      6.5428    
  5.5462      6.5427      9.1000      12.150      16.444      17.176      16.501      15.154      13.654      12.204    
  10.917      9.8646      9.1089      8.7108      8.7110      9.1090      9.8644      10.917      12.204      13.654    
  15.154      16.501      17.175      16.444      13.998      10.299      6.5428      4.1731      4.1731      6.5427    
  10.299      13.998      18.756      18.882      17.895      16.515      15.055      13.654      12.399      11.379    
  10.700      10.460      10.700      11.379      12.399      13.654      15.055      16.515      17.895      18.882    
  18.756      16.905      13.377      9.0865      5.5462      4.1731      5.5461      9.0865      13.377      16.905    
  20.705      20.280      19.196      17.890      16.515      15.154      13.899      12.900      12.336      12.336    
  12.900      13.899      15.154      16.515      17.889      19.195      20.280      20.706      19.754      17.077    
  13.110      9.0864      6.5427      6.5427      9.0865      13.110      17.077      19.754      21.918      21.309    
  20.350      19.196      17.895      16.501      15.151      14.129      13.745      14.129      15.151      16.501    
  17.895      19.195      20.350      21.309      21.918      21.697      20.095      17.077      13.377      10.299    
  9.1000      10.299      13.377      17.077      20.095      21.697      22.484      22.043      21.309      20.280    
  18.882      17.176      15.541      14.523      14.523      15.541      17.175      18.881      20.280      21.310    
  22.043      22.484      22.502      21.697      19.754      16.905      13.998      12.150      12.150      13.998    
  16.905      19.754      21.697      22.502      22.484      22.502      21.697      19.754      16.905      13.998    
  12.150      12.150      13.998      16.905      19.754      21.697      22.502      22.484      22.043      21.310    
  20.280      18.881      17.175      15.541      14.523      14.523      15.541      17.176      18.882      20.280    
  21.309      22.043      22.502      22.228      20.483      17.243      13.290      10.010      8.7339      10.011    
  13.291      17.243      20.483      22.228      22.502      21.883      20.895      19.705      18.363      16.917    
  15.505      14.433      14.028      14.433      15.505      16.917      18.363      19.705      20.895      21.883    
  21.697      20.483      17.337      12.768      8.1724      5.2778      5.2782      8.1731      12.769      17.337    
  20.483      21.697      21.340      20.204      18.824      17.370      15.925      14.587      13.515      12.905    
  12.905      13.515      14.587      15.925      17.370      18.825      20.204      21.340      19.754      17.243    
  12.768      7.4517      3.1085      1.4306      3.1083      7.4516      12.768      17.243      19.754      20.195    
  19.241      17.766      16.193      14.677      13.312      12.197      11.451      11.186      11.450      12.196    
  13.312      14.677      16.193      17.766      19.241      20.195      16.905      13.290      8.1724      3.1085    
 -.50458E-01 -.50623E-01  3.1083      8.1726      13.291      16.905      18.361      17.963      16.581      14.962    
  13.377      11.960      10.794      9.9528      9.5075      9.5073      9.9525      10.794      11.961      13.377    
  14.962      16.581      17.963      18.361      13.998      10.010      5.2778      1.4306     -.50623E-01  1.4308    
  5.2781      10.010      13.998      16.186      16.428      15.330      13.752      12.143      10.680      9.4614    
  8.5449      7.9730      7.7780      7.9730      8.5450      9.4615      10.680      12.143      13.752      15.330    
  16.428      16.186      12.150      8.7339      5.2782      3.1083      3.1083      5.2781      8.7337      12.150    
  14.387      14.965      14.145      12.648      11.048      9.5584      8.2953      7.3175      6.6526      6.3160    
  6.3161      6.6528      7.3175      8.2950      9.5582      11.048      12.648      14.144      14.965      14.387    
  12.150      10.011      8.1731      7.4516      8.1726      10.010      12.150      13.687      14.057      13.259    
  11.778      10.166      8.6508      7.3478      6.3182      5.5825      5.1425      4.9962      5.1425      5.5825    
  6.3181      7.3478      8.6508      10.167      11.778      13.259      14.056      13.686      13.998      13.291    
  12.769      12.768      13.291      13.998      14.387      14.057      12.927      11.291      9.5849      8.0057    
  6.6486      5.5651      4.7688      4.2506      3.9960      3.9959      4.2504      4.7689      5.5654      6.6486    
  8.0055      9.5848      11.291      12.927      14.056      14.387      16.905      17.243      17.337      17.243    
  16.905      16.186      14.965      13.259      11.291      9.3803      7.6680      6.2181      5.0628      4.2024    
  3.6164      3.2784      3.1682      3.2784      3.6164      4.2025      5.0629      6.2182      7.6680      9.3803    
  11.291      13.259      14.965      16.186      19.754      20.483      20.483      19.754      18.361      16.428    
  14.145      11.778      9.5849      7.6680      6.0724      4.8113      3.8695      3.2128      2.8020      2.6054    
  2.6055      2.8021      3.2127      3.8694      4.8113      6.0725      7.6681      9.5848      11.778      14.145    
  16.428      18.361      21.697      22.228      21.697      20.195      17.963      15.330      12.648      10.166    
  8.0057      6.2181      4.8113      3.7597      3.0170      2.5316      2.2594      2.1719      2.2594      2.5316    
  3.0170      3.7596      4.8112      6.2180      8.0057      10.167      12.648      15.330      17.963      20.195    
  22.502      22.502      21.340      19.241      16.581      13.752      11.048      8.6508      6.6486      5.0628    
  3.8695      3.0170      2.4441      2.0953      1.9310      1.9310      2.0953      2.4440      3.0170      3.8695    
  5.0628      6.6485      8.6508      11.048      13.752      16.581      19.241      21.340      22.484      21.883    
  20.204      17.766      14.962      12.143      9.5584      7.3478      5.5651      4.2024      3.2128      2.5316    
  2.0953      1.8539      1.7768      1.8539      2.0953      2.5316      3.2128      4.2025      5.5653      7.3479    
  9.5582      12.143      14.962      17.766      20.204      21.883      22.043      20.895      18.824      16.193    
  13.377      10.680      8.2953      6.3182      4.7688      3.6164      2.8020      2.2594      1.9310      1.7768    
  1.7768      1.9311      2.2594      2.8020      3.6164      4.7688      6.3182      8.2953      10.680      13.377    
  16.193      18.824      20.895      22.043      21.310      19.705      17.370      14.677      11.960      9.4614    
  7.3175      5.5825      4.2506      3.2784      2.6054      2.1719      1.9310      1.8539      1.9311      2.1720    
  2.6055      3.2784      4.2504      5.5822      7.3174      9.4617      11.961      14.677      17.370      19.705    
  21.309      21.883      20.280      18.363      15.925      13.312      10.794      8.5449      6.6526      5.1425    
  3.9960      3.1682      2.6055      2.2594      2.0953      2.0953      2.2594      2.6055      3.1682      3.9960    
  5.1425      6.6526      8.5449      10.794      13.312      15.926      18.363      20.280      21.340      21.340    
  18.881      16.917      14.587      12.197      9.9528      7.9730      6.3160      4.9962      3.9959      3.2784    
  2.8021      2.5316      2.4440      2.5316      2.8020      3.2784      3.9960      4.9965      6.3162      7.9729    
  9.9524      12.196      14.587      16.917      18.882      20.195      20.658      20.195      17.175      15.505    
  13.515      11.451      9.5075      7.7780      6.3161      5.1425      4.2504      3.6164      3.2127      3.0170    
  3.0170      3.2128      3.6164      4.2504      5.1425      6.3162      7.7780      9.5074      11.450      13.515    
  15.505      17.176      18.361      18.972      18.972      18.361      15.541      14.433      12.905      11.186    
  9.5073      7.9730      6.6528      5.5825      4.7689      4.2025      3.8694      3.7596      3.8695      4.2025    
  4.7688      5.5822      6.6526      7.9729      9.5074      11.187      12.906      14.433      15.541      16.186    
  16.476      16.552      16.476      16.186      14.523      14.028      12.905      11.450      9.9525      8.5450    
  7.3175      6.3181      5.5654      5.0629      4.8113      4.8112      5.0628      5.5653      6.3182      7.3174    
  8.5449      9.9524      11.450      12.906      14.028      14.523      14.387      13.917      13.532      13.532    
  13.916      14.387      14.523      14.433      13.515      12.196      10.794      9.4615      8.2950      7.3478    
  6.6486      6.2182      6.0725      6.2180      6.6485      7.3479      8.2953      9.4617      10.794      12.196    
  13.515      14.433      14.523      13.687      12.286      11.001      10.484      11.001      12.285      13.686    
  15.541      15.505      14.587      13.312      11.961      10.680      9.5582      8.6508      8.0055      7.6680    
  7.6681      8.0057      8.6508      9.5582      10.680      11.961      13.312      14.587      15.505      15.541    
  14.387      12.286      10.012      8.5396      8.5395      10.012      12.285      14.387      17.176      16.917    
  15.925      14.677      13.377      12.143      11.048      10.167      9.5848      9.3803      9.5848      10.167    
  11.048      12.143      13.377      14.677      15.926      16.917      17.176      16.186      13.917      11.001    
  8.5396      7.5762      8.5392      11.001      13.917      16.186      18.882      18.363      17.370      16.193    
  14.962      13.752      12.648      11.778      11.291      11.291      11.778      12.648      13.752      14.962    
  16.193      17.370      18.363      18.882      18.361      16.476      13.532      10.484      8.5395      8.5392    
  10.483      13.532      16.476      18.361      20.280      19.705      18.825      17.766      16.581      15.330    
  14.144      13.259      12.927      13.259      14.145      15.330      16.581      17.766      18.824      19.705    
  20.280      20.195      18.972      16.552      13.532      11.001      10.012      11.001      13.532      16.552    
  18.972      20.195      21.309      20.895      20.204      19.241      17.963      16.428      14.965      14.056    
  14.056      14.965      16.428      17.963      19.241      20.204      20.895      21.309      21.340      20.658    
  18.972      16.476      13.916      12.285      12.285      13.917      16.476      18.972      20.657      21.340    
  22.043      21.883      21.340      20.195      18.361      16.186      14.387      13.686      14.387      16.186    
  18.361      20.195      21.340      21.883      22.043      21.883      21.340      20.195      18.361      16.186    
  14.387      13.686      14.387      16.186      18.361      20.195      21.340      21.883      21.918      21.697    
  20.095      17.077      13.377      10.299      9.1000      10.299      13.377      17.077      20.095      21.697    
  21.918      21.309      20.350      19.196      17.895      16.501      15.151      14.129      13.745      14.129    
  15.151      16.501      17.895      19.196      20.350      21.309      21.697      20.483      17.337      12.768    
  8.1724      5.2778      5.2782      8.1731      12.769      17.336      20.483      21.697      21.340      20.204    
  18.824      17.370      15.925      14.587      13.515      12.905      12.905      13.515      14.587      15.925    
  17.370      18.824      20.204      21.339      20.095      17.337      12.510      6.8132      2.1720     0.38116    
  2.1721      6.8132      12.511      17.337      20.095      20.657      19.720      18.211      16.597      15.039    
  13.636      12.486      11.716      11.443      11.716      12.486      13.636      15.039      16.597      18.211    
  19.720      20.657      17.077      12.768      6.8132     0.97903     -2.6449     -2.6454     0.97816      6.8128    
  12.769      17.077      18.972      18.754      17.365      15.678      14.018      12.529      11.301      10.412    
  9.9405      9.9402      10.411      11.301      12.530      14.018      15.678      17.365      18.755      18.972    
  13.377      8.1724      2.1720     -2.6449     -4.4903     -2.6448      2.1721      8.1725      13.377      16.476    
  17.228      16.287      14.663      12.967      11.410      10.107      9.1224      8.5064      8.2960      8.5063    
  9.1224      10.107      11.410      12.967      14.663      16.287      17.228      16.476      10.299      5.2778    
 0.38116     -2.6454     -2.6448     0.38218      5.2783      10.299      13.916      15.420      15.038      13.610    
  11.949      10.366      9.0070      7.9468      7.2224      6.8546      6.8548      7.2228      7.9468      9.0066    
  10.366      11.949      13.610      15.038      15.420      13.917      9.1000      5.2782      2.1721     0.97816    
  2.1721      5.2783      9.1000      12.285      13.923      13.865      12.641      11.036      9.4550      8.0621    
  6.9453      6.1403      5.6564      5.4950      5.6564      6.1403      6.9453      8.0621      9.4550      11.036    
  12.641      13.865      13.923      12.285      10.299      8.1731      6.8132      6.8128      8.1725      10.299    
  12.285      13.340      13.141      11.936      10.326      8.7329      7.3104      6.1475      5.2801      4.7108    
  4.4298      4.4296      4.7105      5.2801      6.1477      7.3105      8.7327      10.326      11.936      13.141    
  13.340      12.285      13.377      12.769      12.511      12.769      13.377      13.916      13.923      13.141    
  11.674      9.9327      8.2620      6.7833      5.5678      4.6437      4.0062      3.6359      3.5147      3.6359    
  4.0062      4.6437      5.5678      6.7833      8.2621      9.9327      11.674      13.141      13.923      13.916    
  17.077      17.336      17.337      17.077      16.476      15.420      13.865      11.936      9.9327      8.0976    
  6.5098      5.2148      4.2247      3.5232      3.0802      2.8671      2.8672      3.0804      3.5233      4.2246    
  5.2148      6.5099      8.0978      9.9328      11.936      13.865      15.420      16.476      20.095      20.483    
  20.095      18.972      17.228      15.038      12.641      10.326      8.2620      6.5098      5.0960      4.0166    
  3.2421      2.7304      2.4417      2.3487      2.4417      2.7304      3.2421      4.0166      5.0961      6.5098    
  8.2621      10.326      12.641      15.038      17.228      18.972      21.697      21.697      20.657      18.754    
  16.287      13.610      11.036      8.7329      6.7833      5.2148      4.0166      3.1498      2.5618      2.2018    
  2.0316      2.0316      2.2017      2.5618      3.1498      4.0167      5.2148      6.7831      8.7328      11.036    
  13.610      16.288      18.755      20.658      21.918      21.340      19.720      17.365      14.663      11.949    
  9.4550      7.3104      5.5678      4.2247      3.2421      2.5618      2.1243      1.8816      1.8041      1.8816    
  2.1243      2.5618      3.2421      4.2247      5.5678      7.3104      9.4551      11.949      14.663      17.365    
  19.720      21.340      21.309      20.204      18.211      15.678      12.967      10.366      8.0621      6.1475    
  4.6437      3.5232      2.7304      2.2018      1.8816      1.7313      1.7313      1.8816      2.2017      2.7304    
  3.5232      4.6438      6.1477      8.0622      10.366      12.967      15.678      18.211      20.204      21.309    
  20.350      18.824      16.597      14.018      11.410      9.0070      6.9453      5.2801      4.0062      3.0802    
  2.4417      2.0316      1.8041      1.7313      1.8041      2.0317      2.4418      3.0802      4.0062      5.2801    
  6.9453      9.0070      11.410      14.018      16.597      18.824      20.350      20.895      19.196      17.370    
  15.039      12.529      10.107      7.9468      6.1403      4.7108      3.6359      2.8671      2.3487      2.0316    
  1.8816      1.8816      2.0317      2.3488      2.8672      3.6358      4.7105      6.1400      7.9468      10.107    
  12.530      15.039      17.370      19.195      20.204      20.204      17.895      15.925      13.636      11.301    
  9.1224      7.2224      5.6564      4.4298      3.5147      2.8672      2.4417      2.2017      2.1243      2.2017    
  2.4418      2.8672      3.5148      4.4298      5.6564      7.2224      9.1224      11.301      13.636      15.926    
  17.895      19.241      19.720      19.241      16.501      14.587      12.486      10.412      8.5064      6.8546    
  5.4950      4.4296      3.6359      3.0804      2.7304      2.5618      2.5618      2.7304      3.0802      3.6358    
  4.4298      5.4954      6.8548      8.5062      10.411      12.486      14.587      16.502      17.963      18.755    
  18.754      17.963      15.151      13.515      11.716      9.9405      8.2960      6.8548      5.6564      4.7105    
  4.0062      3.5233      3.2421      3.1498      3.2421      3.5232      4.0062      4.7105      5.6564      6.8548    
  8.2960      9.9405      11.716      13.515      15.151      16.428      17.228      17.499      17.228      16.428    
  14.129      12.905      11.443      9.9402      8.5063      7.2228      6.1403      5.2801      4.6437      4.2246    
  4.0166      4.0167      4.2247      4.6438      5.2801      6.1400      7.2224      8.5062      9.9405      11.444    
  12.905      14.129      14.965      15.420      15.601      15.601      15.420      14.965      13.745      12.905    
  11.716      10.411      9.1224      7.9468      6.9453      6.1477      5.5678      5.2148      5.0961      5.2148    
  5.5678      6.1477      6.9453      7.9468      9.1224      10.411      11.716      12.905      13.745      14.056    
  13.923      13.633      13.493      13.633      13.923      14.056      14.129      13.515      12.486      11.301    
  10.107      9.0066      8.0621      7.3105      6.7833      6.5099      6.5098      6.7831      7.3104      8.0622    
  9.0070      10.107      11.301      12.486      13.515      14.129      14.056      13.340      12.373      11.697    
  11.697      12.373      13.340      14.056      15.151      14.587      13.636      12.530      11.410      10.366    
  9.4550      8.7327      8.2621      8.0978      8.2621      8.7328      9.4551      10.366      11.410      12.530    
  13.636      14.587      15.151      14.965      13.923      12.373      10.991      10.438      10.991      12.373    
  13.923      14.965      16.501      15.925      15.039      14.018      12.967      11.949      11.036      10.326    
  9.9327      9.9328      10.326      11.036      11.949      12.967      14.018      15.039      15.926      16.502    
  16.428      15.420      13.633      11.697      10.438      10.439      11.697      13.633      15.420      16.428    
  17.895      17.370      16.597      15.678      14.663      13.610      12.641      11.936      11.674      11.936    
  12.641      13.610      14.663      15.678      16.597      17.370      17.895      17.963      17.228      15.601    
  13.493      11.697      10.991      11.697      13.493      15.601      17.228      17.963      19.196      18.824    
  18.211      17.365      16.287      15.038      13.865      13.141      13.141      13.865      15.038      16.288    
  17.365      18.211      18.824      19.195      19.241      18.755      17.499      15.601      13.633      12.373    
  12.373      13.633      15.601      17.499      18.755      19.241      20.350      20.204      19.720      18.755    
  17.228      15.420      13.923      13.340      13.923      15.420      17.228      18.755      19.720      20.204    
  20.350      20.204      19.720      18.754      17.228      15.420      13.923      13.340      13.923      15.420    
  17.228      18.755      19.720      20.204      21.309      21.339      20.657      18.972      16.476      13.917    
  12.285      12.285      13.916      16.476      18.972      20.658      21.340      21.309      20.895      20.204    
  19.241      17.963      16.428      14.965      14.056      14.056      14.965      16.428      17.963      19.241    
  20.204      20.895      20.705      19.754      17.077      13.110      9.0865      6.5427      6.5427      9.0864    
  13.110      17.077      19.754      20.706      20.280      19.195      17.889      16.515      15.154      13.899    
  12.900      12.336      12.336      12.900      13.899      15.154      16.515      17.889      19.196      20.280    
  19.754      17.243      12.768      7.4518      3.1085      1.4306      3.1083      7.4516      12.768      17.243    
  19.754      20.195      19.241      17.766      16.193      14.677      13.312      12.197      11.451      11.186    
  11.450      12.196      13.312      14.677      16.193      17.766      19.241      20.195      17.077      12.768    
  6.8132     0.97905     -2.6449     -2.6454     0.97817      6.8128      12.769      17.077      18.972      18.754    
  17.365      15.678      14.018      12.529      11.301      10.412      9.9405      9.9402      10.411      11.301    
  12.530      14.018      15.678      17.365      18.755      18.972      13.110      7.4518     0.97905     -4.1993    
 -6.1809     -4.2002     0.97806      7.4514      13.111      16.552      17.499      16.624      14.985      13.258    