diamond Si                              
   5.20000000000000     
     0.000000    0.500000    0.500000
     0.500000    0.000000    0.500000
     0.500000    0.500000    0.000000
   Si
     2
Direct
  0.875000  0.875000  0.875000
  0.125000  0.125000  0.125000
 
   28   28   28
 0.22648125413E+02 0.22483602311E+02 0.21917763645E+02 0.20705121751E+02 0.18755508355E+02
 0.16444354689E+02 0.14533521631E+02 0.13789319720E+02 0.14533490256E+02 0.16444326480E+02
 0.18755508444E+02 0.20705147574E+02 0.21917807622E+02 0.22483663867E+02 0.22648195932E+02
 0.22483663867E+02 0.21917807622E+02 0.20705147574E+02 0.18755508444E+02 0.16444326480E+02
 0.14533490256E+02 0.13789319720E+02 0.14533521631E+02 0.16444354689E+02 0.18755508355E+02
 0.20705121751E+02 0.21917763645E+02 0.22483602311E+02 0.22483602311E+02 0.22502378885E+02
 0.21697126716E+02 0.19753729536E+02 0.16904895866E+02 0.13998016795E+02 0.12149773308E+02
 0.12149791699E+02 0.13998148419E+02 0.16905172267E+02 0.19753924827E+02 0.21696999691E+02
 0.22502064715E+02 0.22483513260E+02 0.22042993925E+02 0.21309645279E+02 0.20280016450E+02
 0.18881356780E+02 0.17175447361E+02 0.15540576381E+02 0.14523225597E+02 0.14523256229E+02
 0.15540729064E+02 0.17175748200E+02 0.18881600774E+02 0.20279926311E+02 0.21309253076E+02
 0.22042691096E+02 0.21917763645E+02 0.21697126716E+02 0.20094958374E+02 0.17076974119E+02
 0.13376968183E+02 0.10299093439E+02 0.91000254589E+01 0.10299059116E+02 0.13376951902E+02
 0.17076997911E+02 0.20095003166E+02 0.21697191746E+02 0.21917851438E+02 0.21309309859E+02
 0.20350418977E+02 0.19195486092E+02 0.17894595788E+02 0.16501290907E+02 0.15151081560E+02
 0.14129418424E+02 0.13744579555E+02 0.14129437662E+02 0.15151084494E+02 0.16501295330E+02
 0.17894656020E+02 0.19195580493E+02 0.20350454673E+02 0.21309253076E+02 0.20705121751E+02
 0.19753729536E+02 0.17076974119E+02 0.13110414951E+02 0.90864766437E+01 0.65427458564E+01
 0.65427231012E+01 0.90863573101E+01 0.13110196609E+02 0.17076870752E+02 0.19753965257E+02
 0.20705549863E+02 0.20280081054E+02 0.19195240401E+02 0.17889054113E+02 0.16514966295E+02
 0.15154007599E+02 0.13899022884E+02 0.12900300607E+02 0.12336225556E+02 0.12336281238E+02
 0.12900283560E+02 0.13898735008E+02 0.15153693419E+02 0.16515056713E+02 0.17889527612E+02
 0.19195580493E+02 0.20279926311E+02 0.18755508355E+02 0.16904895866E+02 0.13376968183E+02
 0.90864766437E+01 0.55461459625E+01 0.41730987368E+01 0.55461619427E+01 0.90865145148E+01
 0.13377026748E+02 0.16904960197E+02 0.18755558528E+02 0.18881625157E+02 0.17894655635E+02
 0.16515042697E+02 0.15054637901E+02 0.13653768973E+02 0.12399189060E+02 0.11378727999E+02
 0.10699604015E+02 0.10459744195E+02 0.10699572509E+02 0.11378684043E+02 0.12399156721E+02
 0.13653760761E+02 0.15054648794E+02 0.16515056713E+02 0.17894656020E+02 0.18881600774E+02
 0.16444354689E+02 0.13998016795E+02 0.10299093439E+02 0.65427458564E+01 0.41730987368E+01
 0.41730660204E+01 0.65427751948E+01 0.10299318884E+02 0.13998256727E+02 0.16444307402E+02
 0.17175479093E+02 0.16501236138E+02 0.15154045145E+02 0.13654152370E+02 0.12203885024E+02
 0.10916869163E+02 0.98644466649E+01 0.91090297090E+01 0.87109781145E+01 0.87108326085E+01
 0.91088626264E+01 0.98646219612E+01 0.10917220693E+02 0.12203913713E+02 0.13653760761E+02
 0.15153693419E+02 0.16501295330E+02 0.17175748200E+02 0.14533521631E+02 0.12149773308E+02
 0.91000254589E+01 0.65427231012E+01 0.55461619427E+01 0.65427751948E+01 0.91000996818E+01
 0.12149850677E+02 0.14533595006E+02 0.15540775570E+02 0.15151088891E+02 0.13898731505E+02
 0.12399192938E+02 0.10917285765E+02 0.95909800581E+01 0.84974194926E+01 0.76809874682E+01
 0.71742197063E+01 0.70019783888E+01 0.71742019526E+01 0.76809771293E+01 0.84974091902E+01
 0.95909370622E+01 0.10917220693E+02 0.12399156721E+02 0.13898735008E+02 0.15151084494E+02
 0.15540729064E+02 0.13789319720E+02 0.12149791699E+02 0.10299059116E+02 0.90863573101E+01
 0.90865145148E+01 0.10299318884E+02 0.12149850677E+02 0.13789240538E+02 0.14523314077E+02
 0.14129622366E+02 0.12900287449E+02 0.11378415668E+02 0.98644192698E+01 0.84975760483E+01
 0.73596212032E+01 0.64888946289E+01 0.59013773757E+01 0.56053582164E+01 0.56055083855E+01
 0.59015838685E+01 0.64887899117E+01 0.73592716180E+01 0.84974091902E+01 0.98646219612E+01
 0.11378684043E+02 0.12900283560E+02 0.14129437662E+02 0.14523256229E+02 0.14533490256E+02
 0.13998148419E+02 0.13376951902E+02 0.13110196609E+02 0.13377026748E+02 0.13998256727E+02
 0.14533595006E+02 0.14523314077E+02 0.13744643344E+02 0.12336310825E+02 0.10699574343E+02
 0.91088527138E+01 0.76809541711E+01 0.64887416599E+01 0.55639177332E+01 0.49108810299E+01
 0.45232251897E+01 0.43947440726E+01 0.45232478556E+01 0.49109318046E+01 0.55639818693E+01
 0.64887899117E+01 0.76809771293E+01 0.91088626264E+01 0.10699572509E+02 0.12336281238E+02
 0.13744579555E+02 0.14523225597E+02 0.16444326480E+02 0.16905172267E+02 0.17076997911E+02
 0.17076870752E+02 0.16904960197E+02 0.16444307402E+02 0.15540775570E+02 0.14129622366E+02
 0.12336310825E+02 0.10459806596E+02 0.87109435394E+01 0.71742209573E+01 0.59013681987E+01
 0.49106223853E+01 0.41945030912E+01 0.37333884813E+01 0.35081894367E+01 0.35080858902E+01
 0.37332574262E+01 0.41946135412E+01 0.49109318046E+01 0.59015838685E+01 0.71742019526E+01
 0.87108326085E+01 0.10459744195E+02 0.12336225556E+02 0.14129418424E+02 0.15540576381E+02
 0.18755508444E+02 0.19753924827E+02 0.20095003166E+02 0.19753965257E+02 0.18755558528E+02
 0.17175479093E+02 0.15151088891E+02 0.12900287449E+02 0.10699574343E+02 0.87109435394E+01
 0.70019557827E+01 0.56055023686E+01 0.45232457006E+01 0.37332473156E+01 0.32023568134E+01
 0.28986074875E+01 0.27999458803E+01 0.28986182284E+01 0.32023722075E+01 0.37332574262E+01
 0.45232478556E+01 0.56055083855E+01 0.70019783888E+01 0.87109781145E+01 0.10699604015E+02
 0.12900300607E+02 0.15151081560E+02 0.17175447361E+02 0.20705147574E+02 0.21696999691E+02
 0.21697191746E+02 0.20705549863E+02 0.18881625157E+02 0.16501236138E+02 0.13898731505E+02
 0.11378415668E+02 0.91088527138E+01 0.71742209573E+01 0.56055023686E+01 0.43949423153E+01
 0.35082237733E+01 0.28986286861E+01 0.25208765337E+01 0.23409478221E+01 0.23409923963E+01
 0.25209500627E+01 0.28986182284E+01 0.35080858902E+01 0.43947440726E+01 0.56053582164E+01
 0.71742197063E+01 0.91090297090E+01 0.11378727999E+02 0.13899022884E+02 0.16501290907E+02
 0.18881356780E+02 0.21917807622E+02 0.22502064715E+02 0.21917851438E+02 0.20280081054E+02
 0.17894655635E+02 0.15154045145E+02 0.12399192938E+02 0.98644192698E+01 0.76809541711E+01
 0.59013681987E+01 0.45232457006E+01 0.35082237733E+01 0.27999828993E+01 0.23410297160E+01
 0.20849891160E+01 0.20028739587E+01 0.20849622720E+01 0.23409923963E+01 0.27999458803E+01
 0.35081894367E+01 0.45232251897E+01 0.59013773757E+01 0.76809874682E+01 0.98644466649E+01
 0.12399189060E+02 0.15154007599E+02 0.17894595788E+02 0.20280016450E+02 0.22483663867E+02
 0.22483513260E+02 0.21309309859E+02 0.19195240401E+02 0.16515042697E+02 0.13654152370E+02
 0.10917285765E+02 0.84975760483E+01 0.64887416599E+01 0.49106223853E+01 0.37332473156E+01
 0.28986286861E+01 0.23410297160E+01 0.20029258348E+01 0.18439890584E+01 0.18439763187E+01
 0.20028739587E+01 0.23409478221E+01 0.28986074875E+01 0.37333884813E+01 0.49108810299E+01
 0.64888946289E+01 0.84974194926E+01 0.10916869163E+02 0.13653768973E+02 0.16514966295E+02
 0.19195486092E+02 0.21309645279E+02 0.22648195932E+02 0.22042993925E+02 0.20350418977E+02
 0.17889054113E+02 0.15054637901E+02 0.12203885024E+02 0.95909800581E+01 0.73596212032E+01
 0.55639177332E+01 0.41945030912E+01 0.32023568134E+01 0.25208765337E+01 0.20849891160E+01
 0.18439890584E+01 0.17670487708E+01 0.18439890584E+01 0.20849891160E+01 0.25208765337E+01
 0.32023568134E+01 0.41945030912E+01 0.55639177332E+01 0.73596212032E+01 0.95909800581E+01
 0.12203885024E+02 0.15054637901E+02 0.17889054113E+02 0.20350418977E+02 0.22042993925E+02
 0.22483663867E+02 0.21309645279E+02 0.19195486092E+02 0.16514966295E+02 0.13653768973E+02
 0.10916869163E+02 0.84974194926E+01 0.64888946289E+01 0.49108810299E+01 0.37333884813E+01
 0.28986074875E+01 0.23409478221E+01 0.20028739587E+01 0.18439763187E+01 0.18439890584E+01
 0.20029258348E+01 0.23410297160E+01 0.28986286861E+01 0.37332473156E+01 0.49106223853E+01
 0.64887416599E+01 0.84975760483E+01 0.10917285765E+02 0.13654152370E+02 0.16515042697E+02
 0.19195240401E+02 0.21309309859E+02 0.22483513260E+02 0.21917807622E+02 0.20280016450E+02
 0.17894595788E+02 0.15154007599E+02 0.12399189060E+02 0.98644466649E+01 0.76809874682E+01
 0.59013773757E+01 0.45232251897E+01 0.35081894367E+01 0.27999458803E+01 0.23409923963E+01
 0.20849622720E+01 0.20028739587E+01 0.20849891160E+01 0.23410297160E+01 0.27999828993E+01
 0.35082237733E+01 0.45232457006E+01 0.59013681987E+01 0.76809541711E+01 0.98644192698E+01
 0.12399192938E+02 0.15154045145E+02 0.17894655635E+02 0.20280081054E+02 0.21917851438E+02
 0.22502064715E+02 0.20705147574E+02 0.18881356780E+02 0.16501290907E+02 0.13899022884E+02
 0.11378727999E+02 0.91090297090E+01 0.71742197063E+01 0.56053582164E+01 0.43947440726E+01
 0.35080858902E+01 0.28986182284E+01 0.25209500627E+01 0.23409923963E+01 0.23409478221E+01
 0.25208765337E+01 0.28986286861E+01 0.35082237733E+01 0.43949423153E+01 0.56055023686E+01
 0.71742209573E+01 0.91088527138E+01 0.11378415668E+02 0.13898731505E+02 0.16501236138E+02
 0.18881625157E+02 0.20705549863E+02 0.21697191746E+02 0.21696999691E+02 0.18755508444E+02
 0.17175447361E+02 0.15151081560E+02 0.12900300607E+02 0.10699604015E+02 0.87109781145E+01
 0.70019783888E+01 0.56055083855E+01 0.45232478556E+01 0.37332574262E+01 0.32023722075E+01
 0.28986182284E+01 0.27999458803E+01 0.28986074875E+01 0.32023568134E+01 0.37332473156E+01
 0.45232457006E+01 0.56055023686E+01 0.70019557827E+01 0.87109435394E+01 0.10699574343E+02
 0.12900287449E+02 0.15151088891E+02 0.17175479093E+02 0.18755558528E+02 0.19753965257E+02
 0.20095003166E+02 0.19753924827E+02 0.16444326480E+02 0.15540576381E+02 0.14129418424E+02
 0.12336225556E+02 0.10459744195E+02 0.87108326085E+01 0.71742019526E+01 0.59015838685E+01
 0.49109318046E+01 0.41946135412E+01 0.37332574262E+01 0.35080858902E+01 0.35081894367E+01
 0.37333884813E+01 0.41945030912E+01 0.49106223853E+01 0.59013681987E+01 0.71742209573E+01
 0.87109435394E+01 0.10459806596E+02 0.12336310825E+02 0.14129622366E+02 0.15540775570E+02
 0.16444307402E+02 0.16904960197E+02 0.17076870752E+02 0.17076997911E+02 0.16905172267E+02
 0.14533490256E+02 0.14523225597E+02 0.13744579555E+02 0.12336281238E+02 0.10699572509E+02
 0.91088626264E+01 0.76809771293E+01 0.64887899117E+01 0.55639818693E+01 0.49109318046E+01
 0.45232478556E+01 0.43947440726E+01 0.45232251897E+01 0.49108810299E+01 0.55639177332E+01
 0.64887416599E+01 0.76809541711E+01 0.91088527138E+01 0.10699574343E+02 0.12336310825E+02
 0.13744643344E+02 0.14523314077E+02 0.14533595006E+02 0.13998256727E+02 0.13377026748E+02
 0.13110196609E+02 0.13376951902E+02 0.13998148419E+02 0.13789319720E+02 0.14523256229E+02
 0.14129437662E+02 0.12900283560E+02 0.11378684043E+02 0.98646219612E+01 0.84974091902E+01
 0.73592716180E+01 0.64887899117E+01 0.59015838685E+01 0.56055083855E+01 0.56053582164E+01
 0.59013773757E+01 0.64888946289E+01 0.73596212032E+01 0.84975760483E+01 0.98644192698E+01
 0.11378415668E+02 0.12900287449E+02 0.14129622366E+02 0.14523314077E+02 0.13789240538E+02
 0.12149850677E+02 0.10299318884E+02 0.90865145148E+01 0.90863573101E+01 0.10299059116E+02
 0.12149791699E+02 0.14533521631E+02 0.15540729064E+02 0.15151084494E+02 0.13898735008E+02
 0.12399156721E+02 0.10917220693E+02 0.95909370622E+01 0.84974091902E+01 0.76809771293E+01
 0.71742019526E+01 0.70019783888E+01 0.71742197063E+01 0.76809874682E+01 0.84974194926E+01
 0.95909800581E+01 0.10917285765E+02 0.12399192938E+02 0.13898731505E+02 0.15151088891E+02
 0.15540775570E+02 0.14533595006E+02 0.12149850677E+02 0.91000996818E+01 0.65427751948E+01
 0.55461619427E+01 0.65427231012E+01 0.91000254589E+01 0.12149773308E+02 0.16444354689E+02
 0.17175748200E+02 0.16501295330E+02 0.15153693419E+02 0.13653760761E+02 0.12203913713E+02
 0.10917220693E+02 0.98646219612E+01 0.91088626264E+01 0.87108326085E+01 0.87109781145E+01
 0.91090297090E+01 0.98644466649E+01 0.10916869163E+02 0.12203885024E+02 0.13654152370E+02
 0.15154045145E+02 0.16501236138E+02 0.17175479093E+02 0.16444307402E+02 0.13998256727E+02
 0.10299318884E+02 0.65427751948E+01 0.41730660204E+01 0.41730987368E+01 0.65427458564E+01
 0.10299093439E+02 0.13998016795E+02 0.18755508355E+02 0.18881600774E+02 0.17894656020E+02
 0.16515056713E+02 0.15054648794E+02 0.13653760761E+02 0.12399156721E+02 0.11378684043E+02
 0.10699572509E+02 0.10459744195E+02 0.10699604015E+02 0.11378727999E+02 0.12399189060E+02
 0.13653768973E+02 0.15054637901E+02 0.16515042697E+02 0.17894655635E+02 0.18881625157E+02
 0.18755558528E+02 0.16904960197E+02 0.13377026748E+02 0.90865145148E+01 0.55461619427E+01
 0.41730987368E+01 0.55461459625E+01 0.90864766437E+01 0.13376968183E+02 0.16904895866E+02
 0.20705121751E+02 0.20279926311E+02 0.19195580493E+02 0.17889527612E+02 0.16515056713E+02
 0.15153693419E+02 0.13898735008E+02 0.12900283560E+02 0.12336281238E+02 0.12336225556E+02
 0.12900300607E+02 0.13899022884E+02 0.15154007599E+02 0.16514966295E+02 0.17889054113E+02
 0.19195240401E+02 0.20280081054E+02 0.20705549863E+02 0.19753965257E+02 0.17076870752E+02
 0.13110196609E+02 0.90863573101E+01 0.65427231012E+01 0.65427458564E+01 0.90864766437E+01
 0.13110414951E+02 0.17076974119E+02 0.19753729536E+02 0.21917763645E+02 0.21309253076E+02
 0.20350454673E+02 0.19195580493E+02 0.17894656020E+02 0.16501295330E+02 0.15151084494E+02
 0.14129437662E+02 0.13744579555E+02 0.14129418424E+02 0.15151081560E+02 0.16501290907E+02
 0.17894595788E+02 0.19195486092E+02 0.20350418977E+02 0.21309309859E+02 0.21917851438E+02
 0.21697191746E+02 0.20095003166E+02 0.17076997911E+02 0.13376951902E+02 0.10299059116E+02
 0.91000254589E+01 0.10299093439E+02 0.13376968183E+02 0.17076974119E+02 0.20094958374E+02
 0.21697126716E+02 0.22483602311E+02 0.22042691096E+02 0.21309253076E+02 0.20279926311E+02
 0.18881600774E+02 0.17175748200E+02 0.15540729064E+02 0.14523256229E+02 0.14523225597E+02
 0.15540576381E+02 0.17175447361E+02 0.18881356780E+02 0.20280016450E+02 0.21309645279E+02
 0.22042993925E+02 0.22483513260E+02 0.22502064715E+02 0.21696999691E+02 0.19753924827E+02
 0.16905172267E+02 0.13998148419E+02 0.12149791699E+02 0.12149773308E+02 0.13998016795E+02
 0.16904895866E+02 0.19753729536E+02 0.21697126716E+02 0.22502378885E+02 0.22483585805E+02
 0.22502348590E+02 0.21697103834E+02 0.19753716800E+02 0.16904879281E+02 0.13997999680E+02
 0.12149772982E+02 0.12149804636E+02 0.13998154017E+02 0.16905169242E+02 0.19753929358E+02
 0.21697010367E+02 0.22502064692E+02 0.22483504669E+02 0.22042994729E+02 0.21309654120E+02
 0.20280015646E+02 0.18881347912E+02 0.17175448957E+02 0.15540588776E+02 0.14523233005E+02
 0.14523260843E+02 0.15540747507E+02 0.17175776288E+02 0.18881616977E+02 0.20279928161E+02
 0.21309255619E+02 0.22042692325E+02 0.22502348590E+02 0.22228068939E+02 0.20483264142E+02
 0.17242591373E+02 0.13290216131E+02 0.10010215304E+02 0.87339407874E+01 0.10010986069E+02
 0.13291137877E+02 0.17243024653E+02 0.20483092311E+02 0.22227654039E+02 0.22502081783E+02
 0.21882740137E+02 0.20895019280E+02 0.19705375592E+02 0.18363278423E+02 0.16916949199E+02
 0.15505082175E+02 0.14432696178E+02 0.14028252984E+02 0.14433069229E+02 0.15505486198E+02
 0.16917073131E+02 0.18363107847E+02 0.19705094934E+02 0.20894809047E+02 0.21882732018E+02
 0.21697103834E+02 0.20483264142E+02 0.17336616758E+02 0.12768292429E+02 0.81724177099E+01
 0.52778275788E+01 0.52781913172E+01 0.81731119069E+01 0.12768643621E+02 0.17336501943E+02
 0.20483117448E+02 0.21697190939E+02 0.21339579803E+02 0.20204117362E+02 0.18824280421E+02
 0.17370229525E+02 0.15925472376E+02 0.14587034709E+02 0.13514938748E+02 0.12905268686E+02
 0.12905479575E+02 0.13515263253E+02 0.14587020604E+02 0.15925200322E+02 0.17370151840E+02
 0.18824511851E+02 0.20204303055E+02 0.21339502462E+02 0.19753716800E+02 0.17242591373E+02
 0.12768292429E+02 0.74517480482E+01 0.31085058461E+01 0.14306151315E+01 0.31083159473E+01
 0.74515970870E+01 0.12768375519E+02 0.17242859456E+02 0.19753947054E+02 0.20195299722E+02
 0.19240608453E+02 0.17766119989E+02 0.16192607877E+02 0.14676611748E+02 0.13312345319E+02
 0.12196607070E+02 0.11450514327E+02 0.11186230621E+02 0.11450368217E+02 0.12196427967E+02
 0.13312256512E+02 0.14676663321E+02 0.16192778518E+02 0.17766341689E+02 0.19240766562E+02
 0.20195271279E+02 0.16904879281E+02 0.13290216131E+02 0.81724177099E+01 0.31085058461E+01
 -.50457914809E-01 -.50623044003E-01 0.31083038866E+01 0.81726038253E+01 0.13290666890E+02
 0.16905055857E+02 0.18360638061E+02 0.17963063620E+02 0.16581335974E+02 0.14961938300E+02
 0.13377111620E+02 0.11960266091E+02 0.10794362943E+02 0.99527646744E+01 0.95074759967E+01
 0.95072689340E+01 0.99524629325E+01 0.10794418108E+02 0.11960555476E+02 0.13377158502E+02
 0.14961690085E+02 0.16581247702E+02 0.17963357380E+02 0.18360915775E+02 0.13997999680E+02
 0.10010215304E+02 0.52778275788E+01 0.14306151315E+01 -.50623044003E-01 0.14307840390E+01
 0.52780642050E+01 0.10010391757E+02 0.13998030258E+02 0.16185963178E+02 0.16427609043E+02
 0.15329977463E+02 0.13752231327E+02 0.12143151221E+02 0.10679956965E+02 0.94613983697E+01
 0.85449351381E+01 0.79729869666E+01 0.77780139319E+01 0.79730176366E+01 0.85450430533E+01
 0.94615226979E+01 0.10679943416E+02 0.12142970562E+02 0.13752055482E+02 0.15329972988E+02
 0.16427745110E+02 0.16186075724E+02 0.12149772982E+02 0.87339407874E+01 0.52781913172E+01
 0.31083159473E+01 0.31083038866E+01 0.52780642050E+01 0.87336545980E+01 0.12149575169E+02
 0.14387337079E+02 0.14964943173E+02 0.14144649306E+02 0.12647701964E+02 0.11048083069E+02
 0.95583804928E+01 0.82952911701E+01 0.73175001930E+01 0.66525938198E+01 0.63159601237E+01
 0.63161123382E+01 0.66528285380E+01 0.73174691356E+01 0.82950217324E+01 0.95582398881E+01
 0.11048241310E+02 0.12647869805E+02 0.14144492938E+02 0.14964580220E+02 0.14387182042E+02
 0.12149804636E+02 0.10010986069E+02 0.81731119069E+01 0.74515970870E+01 0.81726038253E+01
 0.10010391757E+02 0.12149575169E+02 0.13686599936E+02 0.14056556306E+02 0.13259250253E+02
 0.11777624464E+02 0.10166483623E+02 0.86507953958E+01 0.73478464669E+01 0.63182158585E+01
 0.55824898242E+01 0.51425290742E+01 0.49961781023E+01 0.51425267146E+01 0.55824638990E+01
 0.63181432421E+01 0.73477587549E+01 0.86507865317E+01 0.10166585132E+02 0.11777692033E+02
 0.13259089660E+02 0.14056204391E+02 0.13686385629E+02 0.13998154017E+02 0.13291137877E+02
 0.12768643621E+02 0.12768375519E+02 0.13290666890E+02 0.13998030258E+02 0.14387337079E+02
 0.14056556306E+02 0.12927346226E+02 0.11290765276E+02 0.95848580780E+01 0.80057130575E+01
 0.66485562783E+01 0.55651258022E+01 0.47688030647E+01 0.42505938792E+01 0.39959905976E+01
 0.39958707992E+01 0.42504420495E+01 0.47689008672E+01 0.55653614406E+01 0.66485931517E+01
 0.80055235464E+01 0.95847561071E+01 0.11290880669E+02 0.12927396390E+02 0.14056311755E+02
 0.14387060021E+02 0.16905169242E+02 0.17243024653E+02 0.17336501943E+02 0.17242859456E+02
 0.16905055857E+02 0.16185963178E+02 0.14964943173E+02 0.13259250253E+02 0.11290765276E+02
 0.93802692291E+01 0.76679950805E+01 0.62181480489E+01 0.50628257291E+01 0.42023724677E+01
 0.36163699328E+01 0.32783960734E+01 0.31681792638E+01 0.32783668606E+01 0.36164065174E+01
 0.42024966301E+01 0.50629320722E+01 0.62181593838E+01 0.76679727113E+01 0.93802928911E+01
 0.11290778772E+02 0.13259140696E+02 0.14964748439E+02 0.16185874234E+02 0.19753929358E+02
 0.20483092311E+02 0.20483117448E+02 0.19753947054E+02 0.18360638061E+02 0.16427609043E+02
 0.14144649306E+02 0.11777624464E+02 0.95848580780E+01 0.76679950805E+01 0.60723746032E+01
 0.48113444588E+01 0.38695213257E+01 0.32127553851E+01 0.28020193208E+01 0.26054216779E+01
 0.26054681787E+01 0.28020836741E+01 0.32127300841E+01 0.38694372533E+01 0.48113283816E+01
 0.60724581472E+01 0.76680679115E+01 0.95848359422E+01 0.11777573423E+02 0.14144681217E+02
 0.16427713029E+02 0.18360702799E+02 0.21697010367E+02 0.22227654039E+02 0.21697190939E+02
 0.20195299722E+02 0.17963063620E+02 0.15329977463E+02 0.12647701964E+02 0.10166483623E+02
 0.80057130575E+01 0.62181480489E+01 0.48113444588E+01 0.37596870948E+01 0.30170173854E+01
 0.25316314383E+01 0.22594369932E+01 0.21719395480E+01 0.22594229995E+01 0.25316050851E+01
 0.30169764114E+01 0.37596193524E+01 0.48112403753E+01 0.62180376177E+01 0.80056828328E+01
 0.10166616982E+02 0.12647972199E+02 0.15330220030E+02 0.17963105332E+02 0.20195135968E+02
 0.22502064692E+02 0.22502081783E+02 0.21339579803E+02 0.19240608453E+02 0.16581335974E+02
 0.13752231327E+02 0.11048083069E+02 0.86507953958E+01 0.66485562783E+01 0.50628257291E+01
 0.38695213257E+01 0.30170173854E+01 0.24440694603E+01 0.20953193236E+01 0.19310342087E+01
 0.19310075025E+01 0.20952683314E+01 0.24440391765E+01 0.30170076476E+01 0.38694994270E+01
 0.50627864550E+01 0.66485342538E+01 0.86508149237E+01 0.11048122838E+02 0.13752249374E+02
 0.16581313288E+02 0.19240560482E+02 0.21339536143E+02 0.22483504669E+02 0.21882740137E+02
 0.20204117362E+02 0.17766119989E+02 0.14961938300E+02 0.12143151221E+02 0.95583804928E+01
 0.73478464669E+01 0.55651258022E+01 0.42023724677E+01 0.32127553851E+01 0.25316314383E+01
 0.20953193236E+01 0.18538894939E+01 0.17767960605E+01 0.18538842837E+01 0.20952723068E+01
 0.25315602302E+01 0.32127614565E+01 0.42025255323E+01 0.55653317818E+01 0.73478935277E+01
 0.95581535560E+01 0.12142777649E+02 0.14961686599E+02 0.17766153857E+02 0.20204358934E+02
 0.21882955735E+02 0.22042994729E+02 0.20895019280E+02 0.18824280421E+02 0.16192607877E+02
 0.13377111620E+02 0.10679956965E+02 0.82952911701E+01 0.63182158585E+01 0.47688030647E+01
 0.36163699328E+01 0.28020193208E+01 0.22594369932E+01 0.19310342087E+01 0.17767960605E+01
 0.17768064985E+01 0.19310523220E+01 0.22594421310E+01 0.28020103670E+01 0.36163597459E+01
 0.47687942390E+01 0.63181986112E+01 0.82952642532E+01 0.10679935505E+02 0.13377109684E+02
 0.16192622666E+02 0.18824298014E+02 0.20895029992E+02 0.22042997839E+02 0.21309654120E+02
 0.19705375592E+02 0.17370229525E+02 0.14676611748E+02 0.11960266091E+02 0.94613983697E+01
 0.73175001930E+01 0.55824898242E+01 0.42505938792E+01 0.32783960734E+01 0.26054216779E+01
 0.21719395480E+01 0.19310075025E+01 0.18538842837E+01 0.19310523220E+01 0.21720369186E+01
 0.26055141642E+01 0.32783573353E+01 0.42503659713E+01 0.55822156725E+01 0.73174427587E+01
 0.94616770860E+01 0.11960702560E+02 0.14676881762E+02 0.17370162108E+02 0.19705084357E+02
 0.21309407394E+02 0.21882971696E+02 0.20280015646E+02 0.18363278423E+02 0.15925472376E+02
 0.13312345319E+02 0.10794362943E+02 0.85449351381E+01 0.66525938198E+01 0.51425290742E+01
 0.39959905976E+01 0.31681792638E+01 0.26054681787E+01 0.22594229995E+01 0.20952683314E+01
 0.20952723068E+01 0.22594421310E+01 0.26055141642E+01 0.31682447089E+01 0.39960396600E+01
 0.51425292725E+01 0.66525587437E+01 0.85449135618E+01 0.10794381814E+02 0.13312388582E+02
 0.15925520502E+02 0.18363333529E+02 0.20280072011E+02 0.21339559553E+02 0.21339533812E+02
 0.18881347912E+02 0.16916949199E+02 0.14587034709E+02 0.12196607070E+02 0.99527646744E+01
 0.79729869666E+01 0.63159601237E+01 0.49961781023E+01 0.39958707992E+01 0.32783668606E+01
 0.28020836741E+01 0.25316050851E+01 0.24440391765E+01 0.25315602302E+01 0.28020103670E+01
 0.32783573353E+01 0.39960396600E+01 0.49964904441E+01 0.63161829389E+01 0.79728960872E+01
 0.99523923909E+01 0.12196233568E+02 0.14586933535E+02 0.16917164970E+02 0.18881701743E+02
 0.20195367507E+02 0.20657516522E+02 0.20195114927E+02 0.17175448957E+02 0.15505082175E+02
 0.13514938748E+02 0.11450514327E+02 0.95074759967E+01 0.77780139319E+01 0.63161123382E+01
 0.51425267146E+01 0.42504420495E+01 0.36164065174E+01 0.32127300841E+01 0.30169764114E+01
 0.30170076476E+01 0.32127614565E+01 0.36163597459E+01 0.42503659713E+01 0.51425292725E+01
 0.63161829389E+01 0.77780270070E+01 0.95073836856E+01 0.11450432439E+02 0.13514986652E+02
 0.15505211921E+02 0.17175515677E+02 0.18360661181E+02 0.18971789979E+02 0.18971826277E+02
 0.18360697227E+02 0.15540588776E+02 0.14432696178E+02 0.12905268686E+02 0.11186230621E+02
 0.95072689340E+01 0.79730176366E+01 0.66528285380E+01 0.55824638990E+01 0.47689008672E+01
 0.42024966301E+01 0.38694372533E+01 0.37596193524E+01 0.38694994270E+01 0.42025255323E+01
 0.47687942390E+01 0.55822156725E+01 0.66525587437E+01 0.79728960872E+01 0.95073836856E+01
 0.11186510007E+02 0.12905535746E+02 0.14432811969E+02 0.15540547323E+02 0.16185780104E+02
 0.16475646404E+02 0.16551527083E+02 0.16475721877E+02 0.16185885918E+02 0.14523233005E+02
 0.14028252984E+02 0.12905479575E+02 0.11450368217E+02 0.99524629325E+01 0.85450430533E+01
 0.73174691356E+01 0.63181432421E+01 0.55653614406E+01 0.50629320722E+01 0.48113283816E+01
 0.48112403753E+01 0.50627864550E+01 0.55653317818E+01 0.63181986112E+01 0.73174427587E+01
 0.85449135618E+01 0.99523923909E+01 0.11450432439E+02 0.12905535746E+02 0.14028187782E+02
 0.14523205510E+02 0.14387303411E+02 0.13916643228E+02 0.13532199324E+02 0.13531978517E+02
 0.13916212091E+02 0.14387058269E+02 0.14523260843E+02 0.14433069229E+02 0.13515263253E+02
 0.12196427967E+02 0.10794418108E+02 0.94615226979E+01 0.82950217324E+01 0.73477587549E+01
 0.66485931517E+01 0.62181593838E+01 0.60724581472E+01 0.62180376177E+01 0.66485342538E+01
 0.73478935277E+01 0.82952642532E+01 0.94616770860E+01 0.10794381814E+02 0.12196233568E+02
 0.13514986652E+02 0.14432811969E+02 0.14523205510E+02 0.13686695210E+02 0.12285876761E+02
 0.11001221641E+02 0.10483869695E+02 0.11000710833E+02 0.12285258862E+02 0.13686373852E+02
 0.15540747507E+02 0.15505486198E+02 0.14587020604E+02 0.13312256512E+02 0.11960555476E+02
 0.10679943416E+02 0.95582398881E+01 0.86507865317E+01 0.80055235464E+01 0.76679727113E+01
 0.76680679115E+01 0.80056828328E+01 0.86508149237E+01 0.95581535560E+01 0.10679935505E+02
 0.11960702560E+02 0.13312388582E+02 0.14586933535E+02 0.15505211921E+02 0.15540547323E+02
 0.14387303411E+02 0.12285876761E+02 0.10012051211E+02 0.85396493474E+01 0.85394605368E+01
 0.10011610602E+02 0.12285477022E+02 0.14387196157E+02 0.17175776288E+02 0.16917073131E+02
 0.15925200322E+02 0.14676663321E+02 0.13377158502E+02 0.12142970562E+02 0.11048241310E+02
 0.10166585132E+02 0.95847561071E+01 0.93802928911E+01 0.95848359422E+01 0.10166616982E+02
 0.11048122838E+02 0.12142777649E+02 0.13377109684E+02 0.14676881762E+02 0.15925520502E+02
 0.16917164970E+02 0.17175515677E+02 0.16185780104E+02 0.13916643228E+02 0.11001221641E+02
 0.85396493474E+01 0.75761716136E+01 0.85392217078E+01 0.11000809981E+02 0.13916640546E+02
 0.16186115216E+02 0.18881616977E+02 0.18363107847E+02 0.17370151840E+02 0.16192778518E+02
 0.14961690085E+02 0.13752055482E+02 0.12647869805E+02 0.11777692033E+02 0.11290880669E+02
 0.11290778772E+02 0.11777573423E+02 0.12647972199E+02 0.13752249374E+02 0.14961686599E+02
 0.16192622666E+02 0.17370162108E+02 0.18363333529E+02 0.18881701743E+02 0.18360661181E+02
 0.16475646404E+02 0.13532199324E+02 0.10483869695E+02 0.85394605368E+01 0.85392217078E+01
 0.10483466266E+02 0.13532150048E+02 0.16475990930E+02 0.18360943450E+02 0.20279928161E+02
 0.19705094934E+02 0.18824511851E+02 0.17766341689E+02 0.16581247702E+02 0.15329972988E+02
 0.14144492938E+02 0.13259089660E+02 0.12927396390E+02 0.13259140696E+02 0.14144681217E+02
 0.15330220030E+02 0.16581313288E+02 0.17766153857E+02 0.18824298014E+02 0.19705084357E+02
 0.20280072011E+02 0.20195367507E+02 0.18971789979E+02 0.16551527083E+02 0.13531978517E+02
 0.11000710833E+02 0.10011610602E+02 0.11000809981E+02 0.13532150048E+02 0.16551704837E+02
 0.18971867491E+02 0.20195281879E+02 0.21309255619E+02 0.20894809047E+02 0.20204303055E+02
 0.19240766562E+02 0.17963357380E+02 0.16427745110E+02 0.14964580220E+02 0.14056204391E+02
 0.14056311755E+02 0.14964748439E+02 0.16427713029E+02 0.17963105332E+02 0.19240560482E+02
 0.20204358934E+02 0.20895029992E+02 0.21309407394E+02 0.21339559553E+02 0.20657516522E+02
 0.18971826277E+02 0.16475721877E+02 0.13916212091E+02 0.12285258862E+02 0.12285477022E+02
 0.13916640546E+02 0.16475990930E+02 0.18971867491E+02 0.20657497431E+02 0.21339524332E+02
 0.22042692325E+02 0.21882732018E+02 0.21339502462E+02 0.20195271279E+02 0.18360915775E+02
 0.16186075724E+02 0.14387182042E+02 0.13686385629E+02 0.14387060021E+02 0.16185874234E+02
 0.18360702799E+02 0.20195135968E+02 0.21339536143E+02 0.21882955735E+02 0.22042997839E+02
 0.21882971696E+02 0.21339533812E+02 0.20195114927E+02 0.18360697227E+02 0.16185885918E+02
 0.14387058269E+02 0.13686373852E+02 0.14387196157E+02 0.16186115216E+02 0.18360943450E+02
 0.20195281879E+02 0.21339524332E+02 0.21882760954E+02 0.21917730368E+02 0.21697081524E+02
 0.20094937698E+02 0.17076976365E+02 0.13376963392E+02 0.10299085583E+02 0.91000420730E+01
 0.10299089881E+02 0.13376961322E+02 0.17076989504E+02 0.20095008726E+02 0.21697207498E+02
 0.21917847672E+02 0.21309293110E+02 0.20350421103E+02 0.19195501717E+02 0.17894593696E+02
 0.16501277456E+02 0.15151089868E+02 0.14129444733E+02 0.13744592881E+02 0.14129441752E+02
 0.15151106930E+02 0.16501325654E+02 0.17894658317E+02 0.19195557900E+02 0.20350439189E+02
 0.21309242216E+02 0.21697081524E+02 0.20483242611E+02 0.17336613129E+02 0.12768302961E+02
 0.81724255129E+01 0.52778332778E+01 0.52782061928E+01 0.81731290144E+01 0.12768646698E+02
 0.17336495684E+02 0.20483118737E+02 0.21697197574E+02 0.21339577786E+02 0.20204111033E+02
 0.18824284784E+02 0.17370240446E+02 0.15925474932E+02 0.14587033483E+02 0.13514949467E+02
 0.12905287273E+02 0.12905489542E+02 0.13515265915E+02 0.14587027811E+02 0.15925205427E+02
 0.17370138790E+02 0.18824485863E+02 0.20204282202E+02 0.21339486545E+02 0.20094937698E+02
 0.17336613129E+02 0.12510497227E+02 0.68131679635E+01 0.21720441277E+01 0.38116482710E+00