   2   2   0   0
  0.1757600E+02  0.3676955E-09  0.3676955E-09  0.3676955E-09  0.5000000E-15
  1.000000000000000E-004
  CAR 
 diamond Si                              
     19.18762483     -6.86603614  301      7.38885237      1.00000000
     -6.866  0.0000E+00  0.0000E+00
     -6.779  0.0000E+00  0.0000E+00
     -6.692  0.0000E+00  0.0000E+00
     -6.605  0.0000E+00  0.0000E+00
     -6.519  0.0000E+00  0.0000E+00
     -6.432  0.0000E+00  0.0000E+00
     -6.345  0.0000E+00  0.0000E+00
     -6.258  0.2881E-17  0.2502E-18
     -6.171  0.3839E-13  0.3334E-14
     -6.084  0.1071E-09  0.9308E-11
     -5.998  0.6885E-07  0.5988E-08
     -5.911  0.1040E-04  0.9091E-06
     -5.824  0.3886E-03  0.3466E-04
     -5.737  0.4342E-02  0.4118E-03
     -5.650  0.2451E-01  0.2540E-02
     -5.563  0.8279E-01  0.9730E-02
     -5.477  0.1139E+00  0.1962E-01
     -5.390  0.1070E+00  0.2892E-01
     -5.303  0.1789E+00  0.4446E-01
     -5.216  0.2725E+00  0.6812E-01
     -5.129  0.2023E+00  0.8569E-01
     -5.042  0.1067E+00  0.9495E-01
     -4.955  0.2221E+00  0.1142E+00
     -4.869  0.3881E+00  0.1479E+00
     -4.782  0.3125E+00  0.1751E+00
     -4.695  0.2868E+00  0.2000E+00
     -4.608  0.3295E+00  0.2286E+00
     -4.521  0.2480E+00  0.2502E+00
     -4.434  0.1625E+00  0.2643E+00
     -4.348  0.3618E+00  0.2957E+00
     -4.261  0.6323E+00  0.3506E+00
     -4.174  0.4422E+00  0.3890E+00
     -4.087  0.3286E+00  0.4175E+00
     -4.000  0.4393E+00  0.4557E+00
     -3.913  0.3827E+00  0.4889E+00
     -3.826  0.2206E+00  0.5081E+00
     -3.740  0.3104E+00  0.5350E+00
     -3.653  0.6126E+00  0.5882E+00
     -3.566  0.6966E+00  0.6487E+00
     -3.479  0.6937E+00  0.7090E+00
     -3.392  0.6060E+00  0.7616E+00
     -3.305  0.4301E+00  0.7990E+00
     -3.219  0.3938E+00  0.8332E+00
     -3.132  0.4668E+00  0.8737E+00
     -3.045  0.4497E+00  0.9128E+00
     -2.958  0.7817E+00  0.9807E+00
     -2.871  0.1231E+01  0.1088E+01
     -2.784  0.9580E+00  0.1171E+01
     -2.697  0.5317E+00  0.1217E+01
     -2.611  0.6979E+00  0.1278E+01
     -2.524  0.6469E+00  0.1334E+01
     -2.437  0.3534E+00  0.1364E+01
     -2.350  0.3778E+00  0.1397E+01
     -2.263  0.8861E+00  0.1474E+01
     -2.176  0.1061E+01  0.1566E+01
     -2.090  0.5694E+00  0.1616E+01
     -2.003  0.2529E+00  0.1638E+01
     -1.916  0.3615E+00  0.1669E+01
     -1.829  0.3836E+00  0.1702E+01
     -1.742  0.4514E+00  0.1742E+01
     -1.655  0.7839E+00  0.1810E+01
     -1.568  0.5804E+00  0.1860E+01
     -1.482  0.3205E+00  0.1888E+01
     -1.395  0.2016E+00  0.1905E+01
     -1.308  0.1001E+00  0.1914E+01
     -1.221  0.1960E+00  0.1931E+01
     -1.134  0.3081E+00  0.1958E+01
     -1.047  0.3342E+00  0.1987E+01
     -0.961  0.2269E+00  0.2007E+01
     -0.874  0.1126E+00  0.2016E+01
     -0.787  0.9691E-01  0.2025E+01
     -0.700  0.1878E+00  0.2041E+01
     -0.613  0.1279E+00  0.2052E+01
     -0.526  0.6059E-01  0.2058E+01
     -0.439  0.1768E+00  0.2073E+01
     -0.353  0.3601E+00  0.2104E+01
     -0.266  0.7660E+00  0.2171E+01
     -0.179  0.1269E+01  0.2281E+01
     -0.092  0.1173E+01  0.2383E+01
     -0.005  0.1085E+01  0.2477E+01
      0.082  0.1128E+01  0.2575E+01
      0.168  0.9667E+00  0.2659E+01
      0.255  0.6555E+00  0.2716E+01
      0.342  0.6808E+00  0.2775E+01
      0.429  0.9714E+00  0.2859E+01
      0.516  0.7616E+00  0.2926E+01
      0.603  0.5234E+00  0.2971E+01
      0.690  0.4541E+00  0.3010E+01
      0.776  0.5005E+00  0.3054E+01
      0.863  0.5671E+00  0.3103E+01
      0.950  0.4460E+00  0.3142E+01
      1.037  0.4636E+00  0.3182E+01
      1.124  0.5999E+00  0.3234E+01
      1.211  0.4095E+00  0.3270E+01
      1.297  0.1834E+00  0.3286E+01
      1.384  0.2143E+00  0.3304E+01
      1.471  0.2677E+00  0.3328E+01
      1.558  0.5431E+00  0.3375E+01
      1.645  0.6677E+00  0.3433E+01
      1.732  0.3297E+00  0.3461E+01
      1.819  0.8269E-01  0.3469E+01
      1.905  0.1408E+00  0.3481E+01
      1.992  0.2561E+00  0.3503E+01
      2.079  0.3648E+00  0.3535E+01
      2.166  0.5004E+00  0.3578E+01
      2.253  0.5267E+00  0.3624E+01
      2.340  0.4858E+00  0.3666E+01
      2.426  0.6457E+00  0.3722E+01
      2.513  0.8473E+00  0.3796E+01
      2.600  0.9309E+00  0.3877E+01
      2.687  0.9834E+00  0.3962E+01
      2.774  0.9930E+00  0.4048E+01
      2.861  0.1078E+01  0.4142E+01
      2.948  0.9919E+00  0.4228E+01
      3.034  0.1274E+01  0.4339E+01
      3.121  0.9641E+00  0.4422E+01
      3.208  0.6072E+00  0.4475E+01
      3.295  0.9320E+00  0.4556E+01
      3.382  0.8862E+00  0.4633E+01
      3.469  0.5681E+00  0.4682E+01
      3.555  0.5837E+00  0.4733E+01
      3.642  0.1003E+01  0.4820E+01
      3.729  0.1636E+01  0.4962E+01
      3.816  0.1641E+01  0.5105E+01
      3.903  0.1057E+01  0.5197E+01
      3.990  0.6033E+00  0.5249E+01
      4.077  0.8238E+00  0.5321E+01
      4.163  0.1453E+01  0.5447E+01
      4.250  0.2117E+01  0.5631E+01
      4.337  0.1847E+01  0.5791E+01
      4.424  0.9206E+00  0.5871E+01
      4.511  0.7238E+00  0.5934E+01
      4.598  0.1301E+01  0.6047E+01
      4.684  0.1476E+01  0.6175E+01
      4.771  0.1313E+01  0.6289E+01
      4.858  0.7825E+00  0.6357E+01
      4.945  0.4788E+00  0.6399E+01
      5.032  0.1041E+01  0.6489E+01
      5.119  0.1733E+01  0.6639E+01
      5.205  0.1511E+01  0.6771E+01
      5.292  0.1238E+01  0.6878E+01
      5.379  0.1175E+01  0.6980E+01
      5.466  0.8320E+00  0.7052E+01
      5.553  0.1039E+01  0.7143E+01
      5.640  0.1272E+01  0.7253E+01
      5.727  0.9701E+00  0.7337E+01
      5.813  0.5680E+00  0.7387E+01
      5.900  0.5270E+00  0.7433E+01
      5.987  0.9165E+00  0.7512E+01
      6.074  0.1099E+01  0.7608E+01
      6.161  0.7084E+00  0.7669E+01
      6.248  0.4640E+00  0.7709E+01
      6.334  0.5198E+00  0.7755E+01
      6.421  0.5750E+00  0.7804E+01
      6.508  0.4927E+00  0.7847E+01
      6.595  0.3499E+00  0.7878E+01
      6.682  0.2936E+00  0.7903E+01
      6.769  0.2892E+00  0.7928E+01
      6.856  0.2144E+00  0.7947E+01
      6.942  0.9160E-01  0.7955E+01
      7.029  0.1335E+00  0.7966E+01
      7.116  0.2140E+00  0.7985E+01
      7.203  0.1203E+00  0.7995E+01
      7.290  0.3955E-01  0.7999E+01
      7.377  0.1181E-01  0.8000E+01
      7.463  0.1032E-01  0.8001E+01
      7.550  0.4670E-01  0.8005E+01
      7.637  0.9624E-01  0.8013E+01
      7.724  0.1466E+00  0.8026E+01
      7.811  0.2300E+00  0.8046E+01
      7.898  0.2897E+00  0.8071E+01
      7.985  0.2570E+00  0.8093E+01
      8.071  0.2504E+00  0.8115E+01
      8.158  0.2016E+00  0.8133E+01
      8.245  0.2473E+00  0.8154E+01
      8.332  0.3647E+00  0.8186E+01
      8.419  0.5954E+00  0.8238E+01
      8.506  0.6298E+00  0.8292E+01
      8.592  0.5679E+00  0.8342E+01
      8.679  0.6332E+00  0.8397E+01
      8.766  0.7692E+00  0.8463E+01
      8.853  0.8710E+00  0.8539E+01
      8.940  0.8533E+00  0.8613E+01
      9.027  0.6974E+00  0.8674E+01
      9.114  0.8355E+00  0.8746E+01
      9.200  0.7022E+00  0.8807E+01
      9.287  0.6835E+00  0.8867E+01
      9.374  0.9130E+00  0.8946E+01
      9.461  0.9947E+00  0.9032E+01
      9.548  0.1169E+01  0.9134E+01
      9.635  0.1342E+01  0.9250E+01
      9.721  0.1297E+01  0.9363E+01
      9.808  0.9896E+00  0.9449E+01
      9.895  0.7550E+00  0.9515E+01
      9.982  0.9363E+00  0.9596E+01
     10.069  0.1667E+01  0.9741E+01
     10.156  0.2073E+01  0.9921E+01
     10.243  0.1383E+01  0.1004E+02
     10.329  0.1220E+01  0.1015E+02
     10.416  0.1480E+01  0.1028E+02
     10.503  0.1392E+01  0.1040E+02
     10.590  0.1651E+01  0.1054E+02
     10.677  0.2056E+01  0.1072E+02
     10.764  0.1997E+01  0.1089E+02
     10.850  0.1826E+01  0.1105E+02
     10.937  0.1726E+01  0.1120E+02
     11.024  0.1296E+01  0.1131E+02
     11.111  0.1112E+01  0.1141E+02
     11.198  0.1366E+01  0.1153E+02
     11.285  0.1340E+01  0.1164E+02
     11.372  0.1082E+01  0.1174E+02
     11.458  0.9513E+00  0.1182E+02
     11.545  0.6866E+00  0.1188E+02
     11.632  0.7608E+00  0.1195E+02
     11.719  0.7764E+00  0.1201E+02
     11.806  0.5491E+00  0.1206E+02
     11.893  0.1048E+01  0.1215E+02
     11.979  0.1792E+01  0.1231E+02
     12.066  0.1921E+01  0.1247E+02
     12.153  0.1536E+01  0.1261E+02
     12.240  0.1069E+01  0.1270E+02
     12.327  0.1329E+01  0.1282E+02
     12.414  0.1472E+01  0.1294E+02
     12.501  0.9372E+00  0.1303E+02
     12.587  0.8980E+00  0.1310E+02
     12.674  0.1404E+01  0.1323E+02
     12.761  0.1512E+01  0.1336E+02
     12.848  0.9230E+00  0.1344E+02
     12.935  0.4484E+00  0.1348E+02
     13.022  0.4419E+00  0.1351E+02
     13.108  0.7253E+00  0.1358E+02
     13.195  0.9293E+00  0.1366E+02
     13.282  0.1077E+01  0.1375E+02
     13.369  0.1289E+01  0.1386E+02
     13.456  0.1154E+01  0.1396E+02
     13.543  0.6056E+00  0.1402E+02
     13.630  0.5864E+00  0.1407E+02
     13.716  0.9333E+00  0.1415E+02
     13.803  0.1280E+01  0.1426E+02
     13.890  0.1257E+01  0.1437E+02
     13.977  0.6831E+00  0.1443E+02
     14.064  0.6631E+00  0.1449E+02
     14.151  0.1448E+01  0.1461E+02
     14.237  0.1477E+01  0.1474E+02
     14.324  0.9202E+00  0.1482E+02
     14.411  0.5638E+00  0.1487E+02
     14.498  0.2952E+00  0.1489E+02
     14.585  0.5922E+00  0.1495E+02
     14.672  0.9668E+00  0.1503E+02
     14.759  0.7430E+00  0.1509E+02
     14.845  0.4129E+00  0.1513E+02
     14.932  0.6137E+00  0.1518E+02
     15.019  0.7324E+00  0.1525E+02
     15.106  0.6393E+00  0.1530E+02
     15.193  0.5277E+00  0.1535E+02
     15.280  0.4398E+00  0.1539E+02
     15.366  0.4568E+00  0.1543E+02
     15.453  0.4970E+00  0.1547E+02
     15.540  0.6937E+00  0.1553E+02
     15.627  0.7702E+00  0.1560E+02
     15.714  0.7888E+00  0.1567E+02
     15.801  0.5128E+00  0.1571E+02
     15.887  0.2304E+00  0.1573E+02
     15.974  0.2335E+00  0.1575E+02
     16.061  0.5433E+00  0.1580E+02
     16.148  0.7419E+00  0.1586E+02
     16.235  0.4411E+00  0.1590E+02
     16.322  0.1062E+00  0.1591E+02
     16.409  0.9072E-02  0.1591E+02
     16.495  0.2239E-03  0.1591E+02
     16.582  0.1397E-05  0.1591E+02
     16.669  0.2069E-08  0.1591E+02
     16.756  0.7079E-12  0.1591E+02
     16.843  0.4610E-16  0.1591E+02
     16.930  0.0000E+00  0.1591E+02
     17.016  0.0000E+00  0.1591E+02
     17.103  0.5170E-13  0.1591E+02
     17.190  0.2498E-09  0.1591E+02
     17.277  0.2792E-06  0.1591E+02
     17.364  0.7336E-04  0.1591E+02
     17.451  0.4652E-02  0.1591E+02
     17.538  0.7372E-01  0.1592E+02
     17.624  0.3043E+00  0.1594E+02
     17.711  0.3380E+00  0.1597E+02
     17.798  0.1019E+00  0.1598E+02
     17.885  0.1744E-01  0.1598E+02
     17.972  0.5842E-01  0.1599E+02
     18.059  0.9451E-01  0.1600E+02
     18.145  0.4049E-01  0.1600E+02
     18.232  0.4490E-02  0.1600E+02
     18.319  0.1242E-03  0.1600E+02
     18.406  0.8256E-06  0.1600E+02
     18.493  0.1286E-08  0.1600E+02
     18.580  0.4607E-12  0.1600E+02
     18.667  0.4610E-16  0.1600E+02
     18.753  0.0000E+00  0.1600E+02
     18.840  0.0000E+00  0.1600E+02
     18.927  0.0000E+00  0.1600E+02
     19.014  0.0000E+00  0.1600E+02
     19.101  0.0000E+00  0.1600E+02
     19.188  0.0000E+00  0.1600E+02
