    2    2    1    1
  0.1757600E+02  0.3676955E-09  0.3676955E-09  0.3676955E-09  0.5000000E-15
  1.000000000000000E-004
  CAR 
 diamond Si                              
      8     56      8
 
  0.0000000E+00  0.0000000E+00  0.0000000E+00  0.7513148E-03
      1         -5.681779   1.000000
      2          7.237403   0.983896
      3          7.237461   0.983863
      4          7.237461   0.983863
      5          9.849733   0.000000
      6          9.849791   0.000000
      7          9.849791   0.000000
      8         12.166007   0.000000
 
  0.9090909E-01  0.5022206E-17 -0.3647044E-17  0.6010518E-02
      1         -5.560590   1.000000
      2          6.216552   1.000000
      3          7.045824   0.999999
      4          7.045873   0.999999
      5         10.053966   0.000000
      6         10.138745   0.000000
      7         10.138784   0.000000
      8         12.778922   0.000000
 
  0.1818182E+00  0.4493298E-17 -0.5906309E-17  0.6010518E-02
      1         -5.201830   1.000000
      2          4.408141   1.000000
      3          6.663257   1.000000
      4          6.663311   1.000000
      5          9.920961   0.000000
      6         10.656779   0.000000
      7         10.656854   0.000000
      8         14.202163   0.000000
 
  0.2727273E+00  0.7433836E-17 -0.9553353E-17  0.6010518E-02
      1         -4.620312   1.000000
      2          2.583839   1.000000
      3          6.309861   1.000000
      4          6.309922   1.000000
      5          9.627730   0.000000
      6         10.848508   0.000000
      7         10.848652   0.000000
      8         14.720016   0.000000
 
  0.3636364E+00  0.6599228E-18 -0.3485945E-17  0.6010518E-02
      1         -3.864983   1.000000
      2          0.959351   1.000000
      3          6.062331   1.000000
      4          6.062390   1.000000
      5          9.391236   0.000000
      6         10.691084   0.000000
      7         10.691246   0.000000
      8         15.391444   0.000000
 
  0.4545455E+00 -0.1721622E-16 -0.1407188E-16  0.6010518E-02
      1         -3.137579   1.000000
      2         -0.212153   1.000000
      3          5.937160   1.000000
      4          5.937220   1.000000
      5          9.263480   0.000000
      6         10.528737   0.000000
      7         10.528901   0.000000
      8         15.149531   0.000000
 
  0.9090909E-01  0.9090909E-01 -0.4440498E-17  0.4507889E-02
      1         -5.520118   1.000000
      2          6.519476   1.000000
      3          6.657769   1.000000
      4          6.657803   1.000000
      5          9.492637   0.000000
      6         10.635350   0.000000
      7         10.635369   0.000000
      8         12.707479   0.000000
 
  0.1818182E+00  0.9090909E-01  0.1184950E-17  0.1803156E-01
      1         -5.239897   1.000000
      2          4.998497   1.000000
      3          6.208161   1.000000
      4          6.490024   1.000000
      5          9.550738   0.000000
      6         10.931875   0.000000
      7         11.296945   0.000000
      8         12.723703   0.000000
 
  0.2727273E+00  0.9090909E-01 -0.7319320E-17  0.1803156E-01
      1         -4.730393   1.000000
      2          3.205992   1.000000
      3          5.858070   1.000000
      4          6.085684   1.000000
      5          9.805757   0.000000
      6         10.875360   0.000000
      7         11.623031   0.000000
      8         12.723512   0.000000
 
  0.3636364E+00  0.9090909E-01 -0.1251912E-17  0.1803156E-01
      1         -4.023986   1.000000
      2          1.523534   1.000000
      3          5.660893   1.000000
      4          5.665324   1.000000
      5          9.757139   0.000000
      6         10.724176   0.000000
      7         11.446810   0.000000
      8         13.617709   0.000000
 
  0.4545455E+00  0.9090909E-01  0.6203274E-17  0.1803156E-01
      1         -3.240450   1.000000
      2          0.162829   1.000000
      3          5.330172   1.000000
      4          5.628746   1.000000
      5          9.669367   0.000000
      6         10.581653   0.000000
      7         11.122744   0.000000
      8         15.004990   0.000000
 
 -0.4545455E+00  0.9090909E-01  0.1769369E-16  0.1803156E-01
      1         -2.907727   1.000000
      2         -0.315169   1.000000
      3          5.119803   1.000000
      4          5.754258   1.000000
      5          9.702937   0.000000
      6         10.585763   0.000000
      7         10.897404   0.000000
      8         15.629432   0.000000
 
 -0.3636364E+00  0.9090909E-01  0.1543443E-16  0.1803156E-01
      1         -3.494245   1.000000
      2          0.564302   1.000000
      3          5.061990   1.000000
      4          6.016921   1.000000
      5          9.859831   0.000000
      6         10.772330   0.000000
      7         10.831208   0.000000
      8         15.470025   0.000000
 
 -0.2727273E+00  0.9090909E-01  0.2072934E-17  0.1803156E-01
      1         -4.278676   1.000000
      2          2.064666   1.000000
      3          5.174062   1.000000
      4          6.382653   1.000000
      5         10.099277   0.000000
      6         10.832910   0.000000
      7         11.052892   0.000000
      8         14.136249   0.000000
 
 -0.1818182E+00  0.9090909E-01  0.8140342E-17  0.1803156E-01
      1         -4.925433   1.000000
      2          3.792882   1.000000
      3          5.474245   1.000000
      4          6.790805   1.000000
      5         10.371539   0.000000
      6         10.606989   0.000000
      7         11.050956   0.000000
      8         13.583150   0.000000
 
 -0.9090909E-01  0.9090909E-01  0.5881077E-17  0.9015778E-02
      1         -5.360192   1.000000
      2          5.412897   1.000000
      3          6.076154   1.000000
      4          7.093997   0.999985
      5         10.177013   0.000000
      6         10.422658   0.000000
      7         10.571398   0.000000
      8         13.375747   0.000000
 
  0.1818182E+00  0.1818182E+00 -0.8880996E-17  0.4507889E-02
      1         -5.038621   1.000000
      2          5.014311   1.000000
      3          5.713129   1.000000
      4          5.713167   1.000000
      5          8.756386   0.000000
      6         11.569580   0.000000
      7         12.157645   0.000000
      8         12.157662   0.000000
 
  0.2727273E+00  0.1818182E+00 -0.3697508E-17  0.1803156E-01
      1         -4.604696   1.000000
      2          3.688245   1.000000
      3          5.299143   1.000000
      4          5.331523   1.000000
      5          8.817295   0.000000
      6         10.980924   0.000000
      7         12.527724   0.000000
      8         12.773616   0.000000
 
  0.3636364E+00  0.1818182E+00 -0.4620236E-16  0.1803156E-01
      1         -3.959369   1.000000
      2          2.121203   1.000000
      3          4.729148   1.000000
      4          5.119078   1.000000
      5          9.051094   0.000000
      6         11.353721   0.000000
      7         12.426573   0.000000
      8         12.760397   0.000000
 
  0.4545455E+00  0.1818182E+00 -0.1237937E-16  0.1803156E-01
      1         -3.175366   1.000000
      2          0.700602   1.000000
      3          4.201248   1.000000
      4          5.091637   1.000000
      5          9.079839   0.000000
      6         12.029579   0.000000
      7         12.397758   0.000000
      8         12.901253   0.000000
 
 -0.4545455E+00  0.1818182E+00 -0.8889548E-18  0.1803156E-01
      1         -2.590071   1.000000
      2         -0.143501   1.000000
      3          3.817318   1.000000
      4          5.247696   1.000000
      5          9.213955   0.000000
      6         11.949203   0.000000
      7         12.047916   0.000000
      8         14.624733   0.000000
 
 -0.3636364E+00  0.1818182E+00  0.1628068E-16  0.1803156E-01
      1         -2.937016   1.000000
      2          0.347361   1.000000
      3          3.623094   1.000000
      4          5.570107   1.000000
      5          9.547101   0.000000
      6         11.817162   0.000000
      7         11.907955   0.000000
      8         15.306110   0.000000
 
 -0.2727273E+00  0.1818182E+00  0.1124586E-16  0.1803156E-01
      1         -3.720903   1.000000
      2          1.643772   1.000000
      3          3.669982   1.000000
      4          6.015783   1.000000
      5         10.037547   0.000000
      6         11.631643   0.000000
      7         11.898016   0.000000
      8         13.809670   0.000000
 
 -0.1818182E+00  0.1818182E+00  0.8986595E-17  0.9015778E-02
      1         -4.421388   1.000000
      2          2.995928   1.000000
      3          4.163732   1.000000
      4          6.491782   1.000000
      5         10.526205   0.000000
      6         11.157107   0.000000
      7         11.548134   0.000000
      8         13.249673   0.000000
 
  0.2727273E+00  0.2727273E+00 -0.1332149E-16  0.4507889E-02
      1         -4.246109   1.000000
      2          3.282070   1.000000
      3          4.906892   1.000000
      4          4.906928   1.000000
      5          8.078004   0.000000
      6          9.890065   0.000000
      7         13.894037   0.000000
      8         13.894055   0.000000
 
  0.3636364E+00  0.2727273E+00 -0.2592720E-16  0.1803156E-01
      1         -3.668683   1.000000
      2          2.213884   1.000000
      3          4.292714   1.000000
      4          4.651293   1.000000
      5          8.211672   0.000000
      6          9.586104   0.000000
      7         14.308425   0.000000
      8         14.333138   0.000000
 
  0.4545455E+00  0.2727273E+00 -0.8757563E-17  0.1803156E-01
      1         -2.916743   1.000000
      2          1.036690   1.000000
      3          3.465961   1.000000
      4          4.586954   1.000000
      5          8.378751   0.000000
      6         10.489180   0.000000
      7         14.078879   0.000000
      8         14.223121   0.000000
 
 -0.4545455E+00  0.2727273E+00  0.1938620E-16  0.1803156E-01
      1         -2.188372   1.000000
      2          0.086078   1.000000
      3          2.819576   1.000000
      4          4.719290   1.000000
      5          8.525971   0.000000
      6         12.096206   0.000000
      7         13.685206   0.000000
      8         14.107443   0.000000
 
 -0.3636364E+00  0.2727273E+00 -0.1895531E-16  0.1803156E-01
      1         -2.244527   1.000000
      2          0.171982   1.000000
      3          2.479421   1.000000
      4          5.034227   1.000000
      5          8.873188   0.000000
      6         13.331880   0.000000
      7         13.337724   0.000000
      8         14.666607   0.000000
 
 -0.2727273E+00  0.2727273E+00  0.1486767E-16  0.9015778E-02
      1         -2.988018   1.000000
      2          1.051396   1.000000
      3          2.639896   1.000000
      4          5.495621   1.000000
      5          9.416120   0.000000
      6         12.768507   0.000000
      7         13.107611   0.000000
      8         13.963643   0.000000
 
  0.3636364E+00  0.3636364E+00 -0.1776199E-16  0.4507889E-02
      1         -3.159044   1.000000
      2          1.496701   1.000000
      3          4.343595   1.000000
      4          4.343635   1.000000
      5          7.647828   0.000125
      6          8.632508   0.000000
      7         15.726577   0.000000
      8         15.726596   0.000000
 
  0.4545455E+00  0.3636364E+00 -0.2178910E-16  0.1803156E-01
      1         -2.456627   1.000000
      2          0.591305   1.000000
      3          3.704515   1.000000
      4          4.228263   1.000000
      5          7.848481   0.000000
      6          8.714642   0.000000
      7         15.987611   0.000000
      8         16.176973   0.000000
 
 -0.4545455E+00  0.3636364E+00  0.3579111E-17  0.1803156E-01
      1         -1.674333   1.000000
      2         -0.214117   1.000000
      3          2.776688   1.000000
      4          4.313432   1.000000
      5          8.010511   0.000000
      6         10.083455   0.000000
      7         15.635077   0.000000
      8         16.080900   0.000000
 
 -0.3636364E+00  0.3636364E+00  0.1319846E-17  0.9015778E-02
      1         -1.559932   1.000000
      2         -0.281033   1.000000
      3          2.203398   1.000000
      4          4.591724   1.000000
      5          8.333795   0.000000
      6         11.952726   0.000000
      7         14.985449   0.000000
      8         15.645475   0.000000
 
  0.4545455E+00  0.4545455E+00 -0.2220249E-16  0.4507889E-02
      1         -1.805049   1.000000
      2         -0.230502   1.000000
      3          4.056490   1.000000
      4          4.056529   1.000000
      5          7.559287   0.007969
      6          7.869246   0.000000
      7         17.648472   0.000000
      8         17.648491   0.000000
 
 -0.4545455E+00  0.4545455E+00  0.2107871E-16  0.9015778E-02
      1         -1.064487   1.000000
      2         -0.956968   1.000000
      3          3.515348   1.000000
      4          4.085593   1.000000
      5          7.736997   0.000000
      6          8.412847   0.000000
      7         17.631707   0.000000
      8         18.003368   0.000000
 
  0.2727273E+00  0.1818182E+00  0.9090909E-01  0.1803156E-01
      1         -4.883122   1.000000
      2          4.136507   1.000000
      3          5.124636   1.000000
      4          6.347189   1.000000
      5          9.603039   0.000000
      6         11.355492   0.000000
      7         11.918829   0.000000
      8         12.071107   0.000000
 
  0.3636364E+00  0.1818182E+00  0.9090909E-01  0.3606311E-01
      1         -4.304963   1.000000
      2          2.653780   1.000000
      3          4.538155   1.000000
      4          5.975339   1.000000
      5          9.969798   0.000000
      6         11.150872   0.000000
      7         12.111391   0.000000
      8         12.359811   0.000000
 
  0.4545455E+00  0.1818182E+00  0.9090909E-01  0.3606311E-01
      1         -3.552350   1.000000
      2          1.124024   1.000000
      3          4.297240   1.000000
      4          5.569556   1.000000
      5         10.059432   0.000000
      6         10.724706   0.000000
      7         12.326707   0.000000
      8         13.240239   0.000000
 
 -0.4545455E+00  0.1818182E+00  0.9090909E-01  0.3606311E-01
      1         -2.822184   1.000000
      2         -0.019262   1.000000
      3          4.214232   1.000000
      4          5.315875   1.000000
      5         10.134606   0.000000
      6         10.357405   0.000000
      7         12.231004   0.000000
      8         14.890778   0.000000
 
  0.3636364E+00  0.2727273E+00  0.9090909E-01  0.1803156E-01
      1         -4.099923   1.000000
      2          2.809484   1.000000
      3          4.320532   1.000000
      4          5.170177   1.000000
      5          8.956194   0.000000
      6         10.471709   0.000000
      7         12.661873   0.000000
      8         13.752304   0.000000
 
  0.4545455E+00  0.2727273E+00  0.9090909E-01  0.3606311E-01
      1         -3.398863   1.000000
      2          1.584768   1.000000
      3          3.701822   1.000000
      4          4.789694   1.000000
      5          9.319716   0.000000
      6         10.934159   0.000000
      7         12.331827   0.000000
      8         14.169108   0.000000
 
 -0.4545455E+00  0.2727273E+00  0.9090909E-01  0.3606311E-01
      1         -2.614694   1.000000
      2          0.401325   1.000000
      3          3.301106   1.000000
      4          4.602086   1.000000
      5          9.443057   0.000000
      6         11.667910   0.000000
      7         12.654956   0.000000
      8         14.145799   0.000000
 
 -0.3636364E+00  0.2727273E+00  0.9090909E-01  0.3606311E-01
      1         -2.286225   1.000000
      2         -0.026137   1.000000
      3          3.037950   1.000000
      4          4.709622   1.000000
      5          9.690407   0.000000
      6         11.428719   0.000000
      7         13.840388   0.000000
      8         14.568637   0.000000
 
 -0.2727273E+00  0.2727273E+00  0.9090909E-01  0.3606311E-01
      1         -2.892140   1.000000
      2          0.800591   1.000000
      3          2.988246   1.000000
      4          5.058754   1.000000
      5         10.125345   0.000000
      6         11.215230   0.000000
      7         13.109879   0.000000
      8         13.848438   0.000000
 
 -0.1818182E+00  0.2727273E+00  0.9090909E-01  0.1803156E-01
      1         -3.670132   1.000000
      2          1.926672   1.000000
      3          3.375365   1.000000
      4          5.546554   1.000000
      5         10.684652   0.000000
      6         10.769062   0.000000
      7         12.068965   0.000000
      8         13.392540   0.000000
 
  0.4545455E+00  0.3636364E+00  0.9090909E-01  0.1803156E-01
      1         -3.030413   1.000000
      2          1.345304   1.000000
      3          3.784790   1.000000
      4          4.221481   1.000000
      5          8.529350   0.000000
      6          9.331782   0.000000
      7         14.135611   0.000000
      8         15.681132   0.000000
 
 -0.4545455E+00  0.3636364E+00  0.9090909E-01  0.3606311E-01
      1         -2.249919   1.000000
      2          0.424824   1.000000
      3          3.027687   1.000000
      4          4.014240   1.000000
      5          8.865725   0.000000
      6         10.302297   0.000000
      7         13.726087   0.000000
      8         16.100192   0.000000
 
 -0.3636364E+00  0.3636364E+00  0.9090909E-01  0.3606311E-01
      1         -1.680825   1.000000
      2         -0.168381   1.000000
      3          2.414692   1.000000
      4          4.153139   1.000000
      5          9.102596   0.000000
      6         11.992517   0.000000
      7         13.416089   0.000000
      8         15.118707   0.000000
 
 -0.2727273E+00  0.3636364E+00  0.9090909E-01  0.1803156E-01
      1         -2.127086   1.000000
      2          0.281149   1.000000
      3          2.292326   1.000000
      4          4.526953   1.000000
      5          9.530904   0.000000
      6         12.538866   0.000000
      7         13.409157   0.000000
      8         14.347113   0.000000
 
 -0.4545455E+00  0.4545455E+00  0.9090909E-01  0.1803156E-01
      1         -1.712418   1.000000
      2         -0.213804   1.000000
      3          3.563875   1.000000
      4          3.693551   1.000000
      5          8.411624   0.000000
      6          8.660656   0.000000
      7         15.785115   0.000000
      8         17.622815   0.000000
 
 -0.3636364E+00  0.4545455E+00  0.9090909E-01  0.1803156E-01
      1         -1.105937   1.000000
      2         -0.725709   1.000000
      3          2.760685   1.000000
      4          3.780775   1.000000
      5          8.705180   0.000000
      6         10.099731   0.000000
      7         15.283013   0.000000
      8         15.506097   0.000000
 
 -0.4545455E+00  0.3636364E+00  0.1818182E+00  0.1803156E-01
      1         -2.663789   1.000000
      2          0.889553   1.000000
      3          2.900580   1.000000
      4          4.230388   1.000000
      5         10.379112   0.000000
      6         10.858101   0.000000
      7         11.953898   0.000000
      8         15.505332   0.000000
 
 -0.3636364E+00  0.3636364E+00  0.1818182E+00  0.3606311E-01
      1         -1.921062   1.000000
      2          0.086784   1.000000
      3          2.586184   1.000000
      4          3.850982   1.000000
      5         10.650934   0.000000
      6         11.233370   0.000000
      7         12.634395   0.000000
      8         14.682132   0.000000
 
 -0.3636364E+00  0.4545455E+00  0.1818182E+00  0.1803156E-01
      1         -1.476098   1.000000
      2         -0.241319   1.000000
      3          2.822239   1.000000
      4          3.244817   1.000000
      5         10.245325   0.000000
      6         10.414053   0.000000
      7         13.267776   0.000000
      8         14.967172   0.000000
 
 -0.2727273E+00  0.4545455E+00  0.1818182E+00  0.1803156E-01
      1         -1.227039   1.000000
      2         -0.434368   1.000000
      3          2.478717   1.000000
      4          3.292431   1.000000
      5         10.588743   0.000000
      6         11.899892   0.000000
      7         13.000459   0.000000
      8         13.126242   0.000000
