       N       E                     dE             d eps       ncg     rms          rms(c)
DAV:   1    -0.240769803625E+01   -0.24077E+01   -0.21364E+03   912   0.431E+02
DAV:   2    -0.107283043188E+02   -0.83206E+01   -0.80329E+01  1448   0.554E+01
DAV:   3    -0.107941532549E+02   -0.65849E-01   -0.65849E-01  1048   0.596E+00
DAV:   4    -0.107943337993E+02   -0.18054E-03   -0.18054E-03  1448   0.326E-01
DAV:   5    -0.107943338460E+02   -0.46698E-07   -0.47792E-07  1096   0.517E-03    0.649E+00
DAV:   6    -0.106059621532E+02    0.18837E+00   -0.13313E-01   992   0.192E+00    0.403E+00
DAV:   7    -0.105273431790E+02    0.78619E-01   -0.23044E-01  1160   0.266E+00    0.369E-01
DAV:   8    -0.105280325406E+02   -0.68936E-03   -0.51983E-03   968   0.533E-01    0.774E-02
DAV:   9    -0.105281762740E+02   -0.14373E-03   -0.13281E-04  1336   0.957E-02    0.657E-02
DAV:  10    -0.105282002120E+02   -0.23938E-04   -0.28553E-05   608   0.406E-02
   1 F= -.10528200E+02 E0= -.10528187E+02  d E =-.271766E-04
