 vasp.6.3.0 20Jan22 (build Feb 01 2022 16:52:37) complex                        
  
 executed on           TETRA_NSC1 date 2022.02.23  07:07:26
 running    4 mpi-ranks, with    1 threads/rank
 distrk:  each k-point on    4 cores,    1 groups
 distr:  one band on NCORE=   1 cores,    4 groups


--------------------------------------------------------------------------------------------------------


 INCAR:
   SYSTEM = diamond Si
   ISTART = 0
   ICHARG = 2
   ENCUT = 240
   ISMEAR = 0
   SIGMA = 0.1

 POTCAR:    PAW_PBE Si 05Jan2001                  
 POTCAR:    PAW_PBE Si 05Jan2001                  
   VRHFIN =Si: s2p2                                                                                 
   LEXCH  = PE                                                                                      
   EATOM  =   103.0669 eV,    7.5752 Ry                                                             
                                                                                                    
   TITEL  = PAW_PBE Si 05Jan2001                                                                    
   LULTRA =        F    use ultrasoft PP ?                                                          
   IUNSCR =        1    unscreen: 0-lin 1-nonlin 2-no                                               
   RPACOR =    1.500    partial core radius                                                         
   POMASS =   28.085; ZVAL   =    4.000    mass and valenz                                          
   RCORE  =    1.900    outmost cutoff radius                                                       
   RWIGS  =    2.480; RWIGS  =    1.312    wigner-seitz radius (au A)                               
   ENMAX  =  245.345; ENMIN  =  184.009 eV                                                          
   ICORE  =        2    local potential                                                             
   LCOR   =        T    correct aug charges                                                         
   LPAW   =        T    paw PP                                                                      
   EAUG   =  322.069                                                                                
   DEXC   =    0.000                                                                                
   RMAX   =    1.950    core radius for proj-oper                                                   
   RAUG   =    1.300    factor for augmentation sphere                                              
   RDEP   =    1.993    radius for radial grids                                                     
   RDEPT  =    1.837    core radius for aug-charge                                                  
                                                                                                    
   Atomic configuration                                                                             
    6 entries                                                                                       
     n  l   j            E        occ.                                                              
     1  0  0.50     -1785.8828   2.0000                                                             
     2  0  0.50      -139.4969   2.0000                                                             
     2  1  1.50       -95.5546   6.0000                                                             
     3  0  0.50       -10.8127   2.0000                                                             
     3  1  0.50        -4.0811   2.0000                                                             
     3  2  1.50        -4.0817   0.0000                                                             
   Description                                                                                      
     l       E           TYP  RCUT    TYP  RCUT                                                     
     0    -10.8127223     23  1.900                                                                 
     0     -7.6451159     23  1.900                                                                 
     1     -4.0811372     23  1.900                                                                 
     1      2.4879257     23  1.900                                                                 
     2     -4.0817478      7  1.900                                                                 
  local pseudopotential read in
  partial core-charges read in
  partial kinetic energy density read in
  atomic valenz-charges read in
  non local Contribution for L=           0  read in
    real space projection operators read in
  non local Contribution for L=           0  read in
    real space projection operators read in
  non local Contribution for L=           1  read in
    real space projection operators read in
  non local Contribution for L=           1  read in
    real space projection operators read in
    PAW grid and wavefunctions read in
 
   number of l-projection  operators is LMAX  =           4
   number of lm-projection operators is LMMAX =           8
 
  PAW_PBE Si 05Jan2001                  :
 energy of atom  1       EATOM= -103.0669
 kinetic energy error for atom=    0.0061 (will be added to EATOM!!)
 
 
 POSCAR: cubic diamond Si
  positions in direct lattice
  No initial velocities read in
 exchange correlation table for  LEXCH =        8
   RHO(1)=    0.500       N(1)  =     2000
   RHO(2)=  100.500       N(2)  =     4000
 


--------------------------------------------------------------------------------------------------------


 ion  position               nearest neighbor table
   1  0.875  0.875  0.875-   2 2.25   2 2.25   2 2.25   2 2.25
   2  0.125  0.125  0.125-   1 2.25   1 2.25   1 2.25   1 2.25
 
  LATTYP: Found a face centered cubic cell.
 ALAT       =     5.2000000000
  
  Lattice vectors:
  
 A1 = (   0.0000000000,   2.6000000000,   2.6000000000)
 A2 = (   2.6000000000,   0.0000000000,   2.6000000000)
 A3 = (   2.6000000000,   2.6000000000,   0.0000000000)


Analysis of symmetry for initial positions (statically):
=====================================================================
 Subroutine PRICEL returns:
 Original cell was already a primitive cell.
 

 Routine SETGRP: Setting up the symmetry group for a 
 face centered cubic supercell.


 Subroutine GETGRP returns: Found 48 space group operations
 (whereof 12 operations were pure point group operations)
 out of a pool of 48 trial point group operations.


The static configuration has the point symmetry D_3d.
 The point group associated with its full space group is O_h .


Analysis of symmetry for dynamics (positions and initial velocities):
=====================================================================
 Subroutine PRICEL returns:
 Original cell was already a primitive cell.
 

 Routine SETGRP: Setting up the symmetry group for a 
 face centered cubic supercell.


 Subroutine GETGRP returns: Found 48 space group operations
 (whereof 12 operations were pure point group operations)
 out of a pool of 48 trial point group operations.


The dynamic configuration has the point symmetry D_3d.
 The point group associated with its full space group is O_h .


 Subroutine INISYM returns: Found 48 space group operations
 (whereof 12 operations are pure point group operations),
 and found     1 'primitive' translations


----------------------------------------------------------------------------------------

                                     Primitive cell                                     

  volume of cell :      35.1520

  direct lattice vectors                    reciprocal lattice vectors
     0.000000000  2.600000000  2.600000000    -0.192307692  0.192307692  0.192307692
     2.600000000  0.000000000  2.600000000     0.192307692 -0.192307692  0.192307692
     2.600000000  2.600000000  0.000000000     0.192307692  0.192307692 -0.192307692

  length of vectors
     3.676955262  3.676955262  3.676955262     0.333086694  0.333086694  0.333086694

  position of ions in fractional coordinates (direct lattice)
     0.875000000  0.875000000  0.875000000
     0.125000000  0.125000000  0.125000000

  ion indices of the primitive-cell ions
   primitive index   ion index
                 1           1
                 2           2

----------------------------------------------------------------------------------------

 
 
 KPOINTS: k-points                                

Automatic generation of k-mesh.
 Grid dimensions read from file:
 generate k-points for:   11   11   11

 Generating k-lattice:

  Cartesian coordinates                     Fractional coordinates (reciprocal lattice)
    -0.017482517  0.017482517  0.017482517     0.090909091  0.000000000 -0.000000000
     0.017482517 -0.017482517  0.017482517     0.000000000  0.090909091  0.000000000
     0.017482517  0.017482517 -0.017482517    -0.000000000 -0.000000000  0.090909091

  Length of vectors
     0.030280609  0.030280609  0.030280609

  Shift w.r.t. Gamma in fractional coordinates (k-lattice)
     0.000000000  0.000000000  0.000000000

 
 Subroutine IBZKPT returns following result:
 ===========================================
 
 Found     56 irreducible k-points:
 
 Following reciprocal coordinates:
            Coordinates               Weight
  0.000000  0.000000  0.000000      1.000000
  0.090909  0.000000 -0.000000      8.000000
  0.181818  0.000000 -0.000000      8.000000
  0.272727  0.000000 -0.000000      8.000000
  0.363636  0.000000 -0.000000      8.000000
  0.454545 -0.000000 -0.000000      8.000000
  0.090909  0.090909 -0.000000      6.000000
  0.181818  0.090909  0.000000     24.000000
  0.272727  0.090909 -0.000000     24.000000
  0.363636  0.090909 -0.000000     24.000000
  0.454545  0.090909  0.000000     24.000000
 -0.454545  0.090909  0.000000     24.000000
 -0.363636  0.090909  0.000000     24.000000
 -0.272727  0.090909  0.000000     24.000000
 -0.181818  0.090909  0.000000     24.000000
 -0.090909  0.090909  0.000000     12.000000
  0.181818  0.181818 -0.000000      6.000000
  0.272727  0.181818 -0.000000     24.000000
  0.363636  0.181818 -0.000000     24.000000
  0.454545  0.181818 -0.000000     24.000000
 -0.454545  0.181818 -0.000000     24.000000
 -0.363636  0.181818  0.000000     24.000000
 -0.272727  0.181818  0.000000     24.000000
 -0.181818  0.181818  0.000000     12.000000
  0.272727  0.272727 -0.000000      6.000000
  0.363636  0.272727 -0.000000     24.000000
  0.454545  0.272727 -0.000000     24.000000
 -0.454545  0.272727  0.000000     24.000000
 -0.363636  0.272727 -0.000000     24.000000
 -0.272727  0.272727  0.000000     12.000000
  0.363636  0.363636 -0.000000      6.000000
  0.454545  0.363636 -0.000000     24.000000
 -0.454545  0.363636  0.000000     24.000000
 -0.363636  0.363636  0.000000     12.000000
  0.454545  0.454545 -0.000000      6.000000
 -0.454545  0.454545  0.000000     12.000000
  0.272727  0.181818  0.090909     24.000000
  0.363636  0.181818  0.090909     48.000000
  0.454545  0.181818  0.090909     48.000000
 -0.454545  0.181818  0.090909     48.000000
  0.363636  0.272727  0.090909     24.000000
  0.454545  0.272727  0.090909     48.000000
 -0.454545  0.272727  0.090909     48.000000
 -0.363636  0.272727  0.090909     48.000000
 -0.272727  0.272727  0.090909     48.000000
 -0.181818  0.272727  0.090909     24.000000
  0.454545  0.363636  0.090909     24.000000
 -0.454545  0.363636  0.090909     48.000000
 -0.363636  0.363636  0.090909     48.000000
 -0.272727  0.363636  0.090909     24.000000
 -0.454545  0.454545  0.090909     24.000000
 -0.363636  0.454545  0.090909     24.000000
 -0.454545  0.363636  0.181818     24.000000
 -0.363636  0.363636  0.181818     48.000000
 -0.363636  0.454545  0.181818     24.000000
 -0.272727  0.454545  0.181818     24.000000
 
 Following cartesian coordinates:
            Coordinates               Weight
  0.000000  0.000000  0.000000      1.000000
 -0.090909  0.090909  0.090909      8.000000
 -0.181818  0.181818  0.181818      8.000000
 -0.272727  0.272727  0.272727      8.000000
 -0.363636  0.363636  0.363636      8.000000
 -0.454545  0.454545  0.454545      8.000000
  0.000000 -0.000000  0.181818      6.000000
 -0.090909  0.090909  0.272727     24.000000
 -0.181818  0.181818  0.363636     24.000000
 -0.272727  0.272727  0.454545     24.000000
 -0.363636  0.363636  0.545455     24.000000
  0.545455 -0.545455 -0.363636     24.000000
  0.454545 -0.454545 -0.272727     24.000000
  0.363636 -0.363636 -0.181818     24.000000
  0.272727 -0.272727 -0.090909     24.000000
  0.181818 -0.181818  0.000000     12.000000
 -0.000000  0.000000  0.363636      6.000000
 -0.090909  0.090909  0.454545     24.000000
 -0.181818  0.181818  0.545455     24.000000
 -0.272727  0.272727  0.636364     24.000000
  0.636364 -0.636364 -0.272727     24.000000
  0.545455 -0.545455 -0.181818     24.000000
  0.454545 -0.454545 -0.090909     24.000000
  0.363636 -0.363636 -0.000000     12.000000
 -0.000000 -0.000000  0.545455      6.000000
 -0.090909  0.090909  0.636364     24.000000
 -0.181818  0.181818  0.727273     24.000000
  0.727273 -0.727273 -0.181818     24.000000
  0.636364 -0.636364 -0.090909     24.000000
  0.545455 -0.545455 -0.000000     12.000000
  0.000000 -0.000000  0.727273      6.000000
 -0.090909  0.090909  0.818182     24.000000
  0.818182 -0.818182 -0.090909     24.000000
  0.727273 -0.727273  0.000000     12.000000
  0.000000 -0.000000  0.909091      6.000000
  0.909091 -0.909091  0.000000     12.000000
  0.000000  0.181818  0.363636     24.000000
 -0.090909  0.272727  0.454545     48.000000
 -0.181818  0.363636  0.545455     48.000000
  0.727273 -0.545455 -0.363636     48.000000
 -0.000000  0.181818  0.545455     24.000000
 -0.090909  0.272727  0.636364     48.000000
  0.818182 -0.636364 -0.272727     48.000000
  0.727273 -0.545455 -0.181818     48.000000
  0.636364 -0.454545 -0.090909     48.000000
  0.545455 -0.363636 -0.000000     24.000000
  0.000000  0.181818  0.727273     24.000000
  0.909091 -0.727273 -0.181818     48.000000
  0.818182 -0.636364 -0.090909     48.000000
  0.727273 -0.545455  0.000000     24.000000
  1.000000 -0.818182 -0.090909     24.000000
  0.909091 -0.727273 -0.000000     24.000000
  1.000000 -0.636364 -0.272727     24.000000
  0.909091 -0.545455 -0.181818     48.000000
  1.000000 -0.636364 -0.090909     24.000000
  0.909091 -0.545455 -0.000000     24.000000
 


--------------------------------------------------------------------------------------------------------




 Dimension of arrays:
   k-points           NKPTS =     56   k-points in BZ     NKDIM =     56   number of bands    NBANDS=      8
   number of dos      NEDOS =    301   number of ions     NIONS =      2
   non local maximal  LDIM  =      4   non local SUM 2l+1 LMDIM =      8
   total plane-waves  NPLWV =   2744
   max r-space proj   IRMAX =      1   max aug-charges    IRDMAX=   2809
   dimension x,y,z NGX =    14 NGY =   14 NGZ =   14
   dimension x,y,z NGXF=    28 NGYF=   28 NGZF=   28
   support grid    NGXF=    28 NGYF=   28 NGZF=   28
   ions per type =               2
   NGX,Y,Z   is equivalent  to a cutoff of   6.33,  6.33,  6.33 a.u.
   NGXF,Y,Z  is equivalent  to a cutoff of  12.66, 12.66, 12.66 a.u.

 SYSTEM =  diamond Si                              
 POSCAR =  cubic diamond Si                        

 Startparameter for this run:
   NWRITE =      2    write-flag & timer
   PREC   = normal    normal or accurate (medium, high low for compatibility)
   ISTART =      0    job   : 0-new  1-cont  2-samecut
   ICHARG =      2    charge: 1-file 2-atom 10-const
   ISPIN  =      1    spin polarized calculation?
   LNONCOLLINEAR =      F non collinear calculations
   LSORBIT =      F    spin-orbit coupling
   INIWAV =      1    electr: 0-lowe 1-rand  2-diag
   LASPH  =      F    aspherical Exc in radial PAW
 Electronic Relaxation 1
   ENCUT  =  240.0 eV  17.64 Ry    4.20 a.u.   4.64  4.64  4.64*2*pi/ulx,y,z
   ENINI  =  240.0     initial cutoff
   ENAUG  =  322.1 eV  augmentation charge cutoff
   NELM   =     60;   NELMIN=  2; NELMDL= -5     # of ELM steps 
   EDIFF  = 0.1E-03   stopping-criterion for ELM
   LREAL  =      F    real-space projection
   NLSPLINE    = F    spline interpolate recip. space projectors
   LCOMPAT=      F    compatible to vasp.4.4
   GGA_COMPAT  = T    GGA compatible to vasp.4.4-vasp.4.6
   LMAXPAW     = -100 max onsite density
   LMAXMIX     =    2 max onsite mixed and CHGCAR
   VOSKOWN=      0    Vosko Wilk Nusair interpolation
   ROPT   =    0.00000
 Ionic relaxation
   EDIFFG = 0.1E-02   stopping-criterion for IOM
   NSW    =      0    number of steps for IOM
   NBLOCK =      1;   KBLOCK =      1    inner block; outer block 
   IBRION =     -1    ionic relax: 0-MD 1-quasi-New 2-CG
   NFREE  =      0    steps in history (QN), initial steepest desc. (CG)
   ISIF   =      2    stress and relaxation
   IWAVPR =     10    prediction:  0-non 1-charg 2-wave 3-comb
   ISYM   =      2    0-nonsym 1-usesym 2-fastsym
   LCORR  =      T    Harris-Foulkes like correction to forces

   POTIM  = 0.5000    time-step for ionic-motion
   TEIN   =    0.0    initial temperature
   TEBEG  =    0.0;   TEEND  =   0.0 temperature during run
   SMASS  =  -3.00    Nose mass-parameter (am)
   estimated Nose-frequenzy (Omega)   =  0.10E-29 period in steps = 0.13E+47 mass=  -0.309E-27a.u.
   SCALEE = 1.0000    scale energy and forces
   NPACO  =    256;   APACO  = 10.0  distance and # of slots for P.C.
   PSTRESS=    0.0 pullay stress

  Mass of Ions in am
   POMASS =  28.09
  Ionic Valenz
   ZVAL   =   4.00
  Atomic Wigner-Seitz radii
   RWIGS  =  -1.00
  virtual crystal weights 
   VCA    =   1.00
   NELECT =       8.0000    total number of electrons
   NUPDOWN=      -1.0000    fix difference up-down

 DOS related values:
   EMIN   =  10.00;   EMAX   =-10.00  energy-range for DOS
   EFERMI =   0.00
   ISMEAR =     0;   SIGMA  =   0.10  broadening in eV -4-tet -1-fermi 0-gaus

 Electronic relaxation 2 (details)
   IALGO  =     38    algorithm
   LDIAG  =      T    sub-space diagonalisation (order eigenvalues)
   LSUBROT=      F    optimize rotation matrix (better conditioning)
   TURBO    =      0    0=normal 1=particle mesh
   IRESTART =      0    0=no restart 2=restart with 2 vectors
   NREBOOT  =      0    no. of reboots
   NMIN     =      0    reboot dimension
   EREF     =   0.00    reference energy to select bands
   IMIX   =      4    mixing-type and parameters
     AMIX     =   0.40;   BMIX     =  1.00
     AMIX_MAG =   1.60;   BMIX_MAG =  1.00
     AMIN     =   0.10
     WC   =   100.;   INIMIX=   1;  MIXPRE=   1;  MAXMIX= -45

 Intra band minimization:
   WEIMIN = 0.0000     energy-eigenvalue tresh-hold
   EBREAK =  0.31E-05  absolut break condition
   DEPER  =   0.30     relativ break condition  

   TIME   =   0.40     timestep for ELM

  volume/ion in A,a.u.               =      17.58       118.61
  Fermi-wavevector in a.u.,A,eV,Ry     =   0.999512  1.888804 13.592558  0.999025
  Thomas-Fermi vector in A             =   2.131807
 
 Write flags
   LWAVE        =      T    write WAVECAR
   LDOWNSAMPLE  =      F    k-point downsampling of WAVECAR
   LCHARG       =      T    write CHGCAR
   LVTOT        =      F    write LOCPOT, total local potential
   LVHAR        =      F    write LOCPOT, Hartree potential only
   LELF         =      F    write electronic localiz. function (ELF)
   LORBIT       =      0    0 simple, 1 ext, 2 COOP (PROOUT), +10 PAW based schemes


 Dipole corrections
   LMONO  =      F    monopole corrections only (constant potential shift)
   LDIPOL =      F    correct potential (dipole corrections)
   IDIPOL =      0    1-x, 2-y, 3-z, 4-all directions 
   EPSILON=  1.0000000 bulk dielectric constant

 Exchange correlation treatment:
   GGA     =    --    GGA type
   LEXCH   =     8    internal setting for exchange type
   LIBXC   =     F    Libxc                    
   VOSKOWN =     0    Vosko Wilk Nusair interpolation
   LHFCALC =     F    Hartree Fock is set to
   LHFONE  =     F    Hartree Fock one center treatment
   AEXX    =    0.0000 exact exchange contribution

 Linear response parameters
   LEPSILON=     F    determine dielectric tensor
   LRPA    =     F    only Hartree local field effects (RPA)
   LNABLA  =     F    use nabla operator in PAW spheres
   LVEL    =     F    velocity operator in full k-point grid
   CSHIFT  =0.1000    complex shift for real part using Kramers Kronig
   OMEGAMAX=  -1.0    maximum frequency
   DEG_THRESHOLD= 0.2000000E-02 threshold for treating states as degnerate
   RTIME   =   -0.100 relaxation time in fs
  (WPLASMAI=    0.000 imaginary part of plasma frequency in eV, 0.658/RTIME)
   DFIELD  = 0.0000000 0.0000000 0.0000000 field for delta impulse in time
 
  Optional k-point grid parameters
   LKPOINTS_OPT  =     F    use optional k-point grid
   KPOINTS_OPT_MODE=     1    mode for optional k-point grid
 
 Orbital magnetization related:
   ORBITALMAG=     F  switch on orbital magnetization
   LCHIMAG   =     F  perturbation theory with respect to B field
   DQ        =  0.001000  dq finite difference perturbation B field
   LLRAUG    =     F  two centre corrections for induced B field



--------------------------------------------------------------------------------------------------------


 Static calculation
 charge density and potential will be updated during run
 non-spin polarized calculation
 Variant of blocked Davidson
 Davidson routine will perform the subspace rotation
 perform sub-space diagonalisation
    after iterative eigenvector-optimisation
 modified Broyden-mixing scheme, WC =      100.0
 initial mixing is a Kerker type mixing with AMIX =  0.4000 and BMIX =      1.0000
 Hartree-type preconditioning will be used
 using additional bands            4
 reciprocal scheme for non local part
 use partial core corrections
 calculate Harris-corrections to forces 
   (improved forces if not selfconsistent)
 use gradient corrections 
 use of overlap-Matrix (Vanderbilt PP)
 Gauss-broadening in eV      SIGMA  =   0.10


--------------------------------------------------------------------------------------------------------


  energy-cutoff  :      240.00
  volume of cell :       35.15
      direct lattice vectors                 reciprocal lattice vectors
     0.000000000  2.600000000  2.600000000    -0.192307692  0.192307692  0.192307692
     2.600000000  0.000000000  2.600000000     0.192307692 -0.192307692  0.192307692
     2.600000000  2.600000000  0.000000000     0.192307692  0.192307692 -0.192307692

  length of vectors
     3.676955262  3.676955262  3.676955262     0.333086694  0.333086694  0.333086694


 
 k-points in units of 2pi/SCALE and weight: k-points                                
   0.00000000  0.00000000  0.00000000       0.001
  -0.09090909  0.09090909  0.09090909       0.006
  -0.18181818  0.18181818  0.18181818       0.006
  -0.27272727  0.27272727  0.27272727       0.006
  -0.36363636  0.36363636  0.36363636       0.006
  -0.45454545  0.45454545  0.45454545       0.006
   0.00000000 -0.00000000  0.18181818       0.005
  -0.09090909  0.09090909  0.27272727       0.018
  -0.18181818  0.18181818  0.36363636       0.018
  -0.27272727  0.27272727  0.45454545       0.018
  -0.36363636  0.36363636  0.54545455       0.018
   0.54545455 -0.54545455 -0.36363636       0.018
   0.45454545 -0.45454545 -0.27272727       0.018
   0.36363636 -0.36363636 -0.18181818       0.018
   0.27272727 -0.27272727 -0.09090909       0.018
   0.18181818 -0.18181818  0.00000000       0.009
  -0.00000000  0.00000000  0.36363636       0.005
  -0.09090909  0.09090909  0.45454545       0.018
  -0.18181818  0.18181818  0.54545455       0.018
  -0.27272727  0.27272727  0.63636364       0.018
   0.63636364 -0.63636364 -0.27272727       0.018
   0.54545455 -0.54545455 -0.18181818       0.018
   0.45454545 -0.45454545 -0.09090909       0.018
   0.36363636 -0.36363636 -0.00000000       0.009
  -0.00000000 -0.00000000  0.54545455       0.005
  -0.09090909  0.09090909  0.63636364       0.018
  -0.18181818  0.18181818  0.72727273       0.018
   0.72727273 -0.72727273 -0.18181818       0.018
   0.63636364 -0.63636364 -0.09090909       0.018
   0.54545455 -0.54545455 -0.00000000       0.009
   0.00000000 -0.00000000  0.72727273       0.005
  -0.09090909  0.09090909  0.81818182       0.018
   0.81818182 -0.81818182 -0.09090909       0.018
   0.72727273 -0.72727273  0.00000000       0.009
   0.00000000 -0.00000000  0.90909091       0.005
   0.90909091 -0.90909091  0.00000000       0.009
   0.00000000  0.18181818  0.36363636       0.018
  -0.09090909  0.27272727  0.45454545       0.036
  -0.18181818  0.36363636  0.54545455       0.036
   0.72727273 -0.54545455 -0.36363636       0.036
  -0.00000000  0.18181818  0.54545455       0.018
  -0.09090909  0.27272727  0.63636364       0.036
   0.81818182 -0.63636364 -0.27272727       0.036
   0.72727273 -0.54545455 -0.18181818       0.036
   0.63636364 -0.45454545 -0.09090909       0.036
   0.54545455 -0.36363636 -0.00000000       0.018
   0.00000000  0.18181818  0.72727273       0.018
   0.90909091 -0.72727273 -0.18181818       0.036
   0.81818182 -0.63636364 -0.09090909       0.036
   0.72727273 -0.54545455  0.00000000       0.018
   1.00000000 -0.81818182 -0.09090909       0.018
   0.90909091 -0.72727273 -0.00000000       0.018
   1.00000000 -0.63636364 -0.27272727       0.018
   0.90909091 -0.54545455 -0.18181818       0.036
   1.00000000 -0.63636364 -0.09090909       0.018
   0.90909091 -0.54545455 -0.00000000       0.018
 
 k-points in reciprocal lattice and weights: k-points                                
   0.00000000  0.00000000  0.00000000       0.001
   0.09090909  0.00000000 -0.00000000       0.006
   0.18181818  0.00000000 -0.00000000       0.006
   0.27272727  0.00000000 -0.00000000       0.006
   0.36363636  0.00000000 -0.00000000       0.006
   0.45454545 -0.00000000 -0.00000000       0.006
   0.09090909  0.09090909 -0.00000000       0.005
   0.18181818  0.09090909  0.00000000       0.018
   0.27272727  0.09090909 -0.00000000       0.018
   0.36363636  0.09090909 -0.00000000       0.018
   0.45454545  0.09090909  0.00000000       0.018
  -0.45454545  0.09090909  0.00000000       0.018
  -0.36363636  0.09090909  0.00000000       0.018
  -0.27272727  0.09090909  0.00000000       0.018
  -0.18181818  0.09090909  0.00000000       0.018
  -0.09090909  0.09090909  0.00000000       0.009
   0.18181818  0.18181818 -0.00000000       0.005
   0.27272727  0.18181818 -0.00000000       0.018
   0.36363636  0.18181818 -0.00000000       0.018
   0.45454545  0.18181818 -0.00000000       0.018
  -0.45454545  0.18181818 -0.00000000       0.018
  -0.36363636  0.18181818  0.00000000       0.018
  -0.27272727  0.18181818  0.00000000       0.018
  -0.18181818  0.18181818  0.00000000       0.009
   0.27272727  0.27272727 -0.00000000       0.005
   0.36363636  0.27272727 -0.00000000       0.018
   0.45454545  0.27272727 -0.00000000       0.018
  -0.45454545  0.27272727  0.00000000       0.018
  -0.36363636  0.27272727 -0.00000000       0.018
  -0.27272727  0.27272727  0.00000000       0.009
   0.36363636  0.36363636 -0.00000000       0.005
   0.45454545  0.36363636 -0.00000000       0.018
  -0.45454545  0.36363636  0.00000000       0.018
  -0.36363636  0.36363636  0.00000000       0.009
   0.45454545  0.45454545 -0.00000000       0.005
  -0.45454545  0.45454545  0.00000000       0.009
   0.27272727  0.18181818  0.09090909       0.018
   0.36363636  0.18181818  0.09090909       0.036
   0.45454545  0.18181818  0.09090909       0.036
  -0.45454545  0.18181818  0.09090909       0.036
   0.36363636  0.27272727  0.09090909       0.018
   0.45454545  0.27272727  0.09090909       0.036
  -0.45454545  0.27272727  0.09090909       0.036
  -0.36363636  0.27272727  0.09090909       0.036
  -0.27272727  0.27272727  0.09090909       0.036
  -0.18181818  0.27272727  0.09090909       0.018
   0.45454545  0.36363636  0.09090909       0.018
  -0.45454545  0.36363636  0.09090909       0.036
  -0.36363636  0.36363636  0.09090909       0.036
  -0.27272727  0.36363636  0.09090909       0.018
  -0.45454545  0.45454545  0.09090909       0.018
  -0.36363636  0.45454545  0.09090909       0.018
  -0.45454545  0.36363636  0.18181818       0.018
  -0.36363636  0.36363636  0.18181818       0.036
  -0.36363636  0.45454545  0.18181818       0.018
  -0.27272727  0.45454545  0.18181818       0.018
 
 position of ions in fractional coordinates (direct lattice) 
   0.87500000  0.87500000  0.87500000
   0.12500000  0.12500000  0.12500000
 
 position of ions in cartesian coordinates  (Angst):
   4.55000000  4.55000000  4.55000000
   0.65000000  0.65000000  0.65000000
 


--------------------------------------------------------------------------------------------------------


 k-point   1 :   0.0000 0.0000 0.0000  plane waves:     307
 k-point   2 :   0.0909 0.0000-0.0000  plane waves:     304
 k-point   3 :   0.1818 0.0000-0.0000  plane waves:     304
 k-point   4 :   0.2727 0.0000-0.0000  plane waves:     302
 k-point   5 :   0.3636 0.0000-0.0000  plane waves:     293
 k-point   6 :   0.4545-0.0000-0.0000  plane waves:     290
 k-point   7 :   0.0909 0.0909-0.0000  plane waves:     299
 k-point   8 :   0.1818 0.0909 0.0000  plane waves:     301
 k-point   9 :   0.2727 0.0909-0.0000  plane waves:     300
 k-point  10 :   0.3636 0.0909-0.0000  plane waves:     296
 k-point  11 :   0.4545 0.0909 0.0000  plane waves:     294
 k-point  12 :  -0.4545 0.0909 0.0000  plane waves:     290
 k-point  13 :  -0.3636 0.0909 0.0000  plane waves:     292
 k-point  14 :  -0.2727 0.0909 0.0000  plane waves:     297
 k-point  15 :  -0.1818 0.0909 0.0000  plane waves:     304
 k-point  16 :  -0.0909 0.0909 0.0000  plane waves:     307
 k-point  17 :   0.1818 0.1818-0.0000  plane waves:     303
 k-point  18 :   0.2727 0.1818-0.0000  plane waves:     302
 k-point  19 :   0.3636 0.1818-0.0000  plane waves:     297
 k-point  20 :   0.4545 0.1818-0.0000  plane waves:     301
 k-point  21 :  -0.4545 0.1818-0.0000  plane waves:     299
 k-point  22 :  -0.3636 0.1818 0.0000  plane waves:     293
 k-point  23 :  -0.2727 0.1818 0.0000  plane waves:     297
 k-point  24 :  -0.1818 0.1818 0.0000  plane waves:     297
 k-point  25 :   0.2727 0.2727-0.0000  plane waves:     303
 k-point  26 :   0.3636 0.2727-0.0000  plane waves:     303
 k-point  27 :   0.4545 0.2727-0.0000  plane waves:     303
 k-point  28 :  -0.4545 0.2727 0.0000  plane waves:     296
 k-point  29 :  -0.3636 0.2727-0.0000  plane waves:     291
 k-point  30 :  -0.2727 0.2727 0.0000  plane waves:     299
 k-point  31 :   0.3636 0.3636-0.0000  plane waves:     306
 k-point  32 :   0.4545 0.3636-0.0000  plane waves:     303
 k-point  33 :  -0.4545 0.3636 0.0000  plane waves:     292
 k-point  34 :  -0.3636 0.3636 0.0000  plane waves:     288
 k-point  35 :   0.4545 0.4545-0.0000  plane waves:     302
 k-point  36 :  -0.4545 0.4545 0.0000  plane waves:     302
 k-point  37 :   0.2727 0.1818 0.0909  plane waves:     298
 k-point  38 :   0.3636 0.1818 0.0909  plane waves:     298
 k-point  39 :   0.4545 0.1818 0.0909  plane waves:     301
 k-point  40 :  -0.4545 0.1818 0.0909  plane waves:     298
 k-point  41 :   0.3636 0.2727 0.0909  plane waves:     302
 k-point  42 :   0.4545 0.2727 0.0909  plane waves:     298
 k-point  43 :  -0.4545 0.2727 0.0909  plane waves:     295
 k-point  44 :  -0.3636 0.2727 0.0909  plane waves:     298
 k-point  45 :  -0.2727 0.2727 0.0909  plane waves:     292
 k-point  46 :  -0.1818 0.2727 0.0909  plane waves:     303
 k-point  47 :   0.4545 0.3636 0.0909  plane waves:     300
 k-point  48 :  -0.4545 0.3636 0.0909  plane waves:     296
 k-point  49 :  -0.3636 0.3636 0.0909  plane waves:     290
 k-point  50 :  -0.2727 0.3636 0.0909  plane waves:     293
 k-point  51 :  -0.4545 0.4545 0.0909  plane waves:     300
 k-point  52 :  -0.3636 0.4545 0.0909  plane waves:     290
 k-point  53 :  -0.4545 0.3636 0.1818  plane waves:     293
 k-point  54 :  -0.3636 0.3636 0.1818  plane waves:     296
 k-point  55 :  -0.3636 0.4545 0.1818  plane waves:     297
 k-point  56 :  -0.2727 0.4545 0.1818  plane waves:     290

 maximum and minimum number of plane-waves per node :       307      288

 maximum number of plane-waves:       307
 maximum index in each direction: 
   IXMAX=    5   IYMAX=    4   IZMAX=    4
   IXMIN=   -5   IYMIN=   -5   IZMIN=   -4


 serial   3D FFT for wavefunctions
 parallel 3D FFT for charge:
    minimum data exchange during FFTs selected (reduces bandwidth)


 total amount of memory used by VASP MPI-rank0    32291. kBytes
=======================================================================

   base      :      30000. kBytes
   nonl-proj :       1113. kBytes
   fftplans  :        204. kBytes
   grid      :        388. kBytes
   one-center:          6. kBytes
   wavefun   :        580. kBytes
 
     INWAV:  cpu time      0.0000: real time      0.0001
 Broyden mixing: mesh for mixing (old mesh)
   NGX =  9   NGY =  9   NGZ =  9
  (NGX  = 28   NGY  = 28   NGZ  = 28)
  gives a total of    729 points

 initial charge density was supplied:
 charge density of overlapping atoms calculated
 number of electron       8.0000000 magnetization 
 keeping initial charge density in first step


--------------------------------------------------------------------------------------------------------


 Maximum index for augmentation-charges          647 (set IRDMAX)


--------------------------------------------------------------------------------------------------------


 First call to EWALD:  gamma=   0.541
 Maximum number of real-space cells 3x 3x 3
 Maximum number of reciprocal cells 3x 3x 3

    FEWALD:  cpu time      0.0015: real time      0.0015


--------------------------------------- Iteration      1(   1)  ---------------------------------------


    POTLOK:  cpu time      0.0037: real time      0.0039
    SETDIJ:  cpu time      0.0014: real time      0.0014
     EDDAV:  cpu time      0.0677: real time      0.0690
       DOS:  cpu time      0.0007: real time      0.0007
    --------------------------------------------
      LOOP:  cpu time      0.0735: real time      0.0751

 eigenvalue-minimisations  :   912
 total energy-change (2. order) :-0.2407698E+01  (-0.2136385E+03)
 number of electron       8.0000000 magnetization 
 augmentation part        8.0000000 magnetization 

 Free energy of the ion-electron system (eV)
  ---------------------------------------------------
  alpha Z        PSCENC =         3.83057929
  Ewald energy   TEWEN  =      -238.67306545
  -Hartree energ DENC   =        -9.14047030
  -exchange      EXHF   =         0.00000000
  -V(xc)+E(xc)   XCENC  =       -18.07110313
  PAW double counting   =       176.24759923     -141.06103558
  entropy T*S    EENTRO =        -0.00390570
  eigenvalues    EBANDS =        18.34215045
  atomic energy  EATOM  =       206.12155316
  Solvation  Ediel_sol  =         0.00000000
  ---------------------------------------------------
  free energy    TOTEN  =        -2.40769804 eV

  energy without entropy =       -2.40379234  energy(sigma->0) =       -2.40574519


--------------------------------------------------------------------------------------------------------




--------------------------------------- Iteration      1(   2)  ---------------------------------------


     EDDAV:  cpu time      0.1104: real time      0.1125
       DOS:  cpu time      0.0005: real time      0.0005
    --------------------------------------------
      LOOP:  cpu time      0.1109: real time      0.1130

 eigenvalue-minimisations  :  1448
 total energy-change (2. order) :-0.8320606E+01  (-0.8032886E+01)
 number of electron       8.0000000 magnetization 
 augmentation part        8.0000000 magnetization 

 Free energy of the ion-electron system (eV)
  ---------------------------------------------------
  alpha Z        PSCENC =         3.83057929
  Ewald energy   TEWEN  =      -238.67306545
  -Hartree energ DENC   =        -9.14047030
  -exchange      EXHF   =         0.00000000
  -V(xc)+E(xc)   XCENC  =       -18.07110313
  PAW double counting   =       176.24759923     -141.06103558
  entropy T*S    EENTRO =        -0.00000000
  eigenvalues    EBANDS =        10.01763847
  atomic energy  EATOM  =       206.12155316
  Solvation  Ediel_sol  =         0.00000000
  ---------------------------------------------------
  free energy    TOTEN  =       -10.72830432 eV

  energy without entropy =      -10.72830431  energy(sigma->0) =      -10.72830432


--------------------------------------------------------------------------------------------------------




--------------------------------------- Iteration      1(   3)  ---------------------------------------


     EDDAV:  cpu time      0.0756: real time      0.0771
       DOS:  cpu time      0.0005: real time      0.0005
    --------------------------------------------
      LOOP:  cpu time      0.0761: real time      0.0775

 eigenvalue-minimisations  :  1048
 total energy-change (2. order) :-0.6584894E-01  (-0.6584894E-01)
 number of electron       8.0000000 magnetization 
 augmentation part        8.0000000 magnetization 

 Free energy of the ion-electron system (eV)
  ---------------------------------------------------
  alpha Z        PSCENC =         3.83057929
  Ewald energy   TEWEN  =      -238.67306545
  -Hartree energ DENC   =        -9.14047030
  -exchange      EXHF   =         0.00000000
  -V(xc)+E(xc)   XCENC  =       -18.07110313
  PAW double counting   =       176.24759923     -141.06103558
  entropy T*S    EENTRO =        -0.00000000
  eigenvalues    EBANDS =         9.95178953
  atomic energy  EATOM  =       206.12155316
  Solvation  Ediel_sol  =         0.00000000
  ---------------------------------------------------
  free energy    TOTEN  =       -10.79415325 eV

  energy without entropy =      -10.79415325  energy(sigma->0) =      -10.79415325


--------------------------------------------------------------------------------------------------------




--------------------------------------- Iteration      1(   4)  ---------------------------------------


     EDDAV:  cpu time      0.1096: real time      0.1114
       DOS:  cpu time      0.0005: real time      0.0005
    --------------------------------------------
      LOOP:  cpu time      0.1101: real time      0.1119

 eigenvalue-minimisations  :  1448
 total energy-change (2. order) :-0.1805444E-03  (-0.1805437E-03)
 number of electron       8.0000000 magnetization 
 augmentation part        8.0000000 magnetization 

 Free energy of the ion-electron system (eV)
  ---------------------------------------------------
  alpha Z        PSCENC =         3.83057929
  Ewald energy   TEWEN  =      -238.67306545
  -Hartree energ DENC   =        -9.14047030
  -exchange      EXHF   =         0.00000000
  -V(xc)+E(xc)   XCENC  =       -18.07110313
  PAW double counting   =       176.24759923     -141.06103558
  entropy T*S    EENTRO =        -0.00000000
  eigenvalues    EBANDS =         9.95160899
  atomic energy  EATOM  =       206.12155316
  Solvation  Ediel_sol  =         0.00000000
  ---------------------------------------------------
  free energy    TOTEN  =       -10.79433380 eV

  energy without entropy =      -10.79433380  energy(sigma->0) =      -10.79433380


--------------------------------------------------------------------------------------------------------




--------------------------------------- Iteration      1(   5)  ---------------------------------------


     EDDAV:  cpu time      0.0799: real time      0.0817
       DOS:  cpu time      0.0005: real time      0.0005
    CHARGE:  cpu time      0.0027: real time      0.0027
    MIXING:  cpu time      0.0004: real time      0.0004
    --------------------------------------------
      LOOP:  cpu time      0.0834: real time      0.0853

 eigenvalue-minimisations  :  1096
 total energy-change (2. order) :-0.4669789E-07  (-0.4779169E-07)
 number of electron       8.0000026 magnetization 
 augmentation part       -0.4791832 magnetization 

 Broyden mixing:
  rms(total) = 0.64887E+00    rms(broyden)= 0.64886E+00
  rms(prec ) = 0.11454E+01
  weight for this iteration     100.00

 Free energy of the ion-electron system (eV)
  ---------------------------------------------------
  alpha Z        PSCENC =         3.83057929
  Ewald energy   TEWEN  =      -238.67306545
  -Hartree energ DENC   =        -9.14047030
  -exchange      EXHF   =         0.00000000
  -V(xc)+E(xc)   XCENC  =       -18.07110313
  PAW double counting   =       176.24759923     -141.06103558
  entropy T*S    EENTRO =        -0.00000000
  eigenvalues    EBANDS =         9.95160894
  atomic energy  EATOM  =       206.12155316
  Solvation  Ediel_sol  =         0.00000000
  ---------------------------------------------------
  free energy    TOTEN  =       -10.79433385 eV

  energy without entropy =      -10.79433385  energy(sigma->0) =      -10.79433385


--------------------------------------------------------------------------------------------------------




--------------------------------------- Iteration      1(   6)  ---------------------------------------


    POTLOK:  cpu time      0.0032: real time      0.0033
    SETDIJ:  cpu time      0.0012: real time      0.0012
     EDDAV:  cpu time      0.0714: real time      0.0726
       DOS:  cpu time      0.0005: real time      0.0005
    CHARGE:  cpu time      0.0024: real time      0.0024
    MIXING:  cpu time      0.0004: real time      0.0004
    --------------------------------------------
      LOOP:  cpu time      0.0790: real time      0.0805

 eigenvalue-minimisations  :   992
 total energy-change (2. order) : 0.1883717E+00  (-0.1331254E-01)
 number of electron       8.0000026 magnetization 
 augmentation part       -0.4714511 magnetization 

 Broyden mixing:
  rms(total) = 0.40347E+00    rms(broyden)= 0.40347E+00
  rms(prec ) = 0.67505E+00
  weight for this iteration     100.00

 eigenvalues of (default mixing * dielectric matrix)
  average eigenvalue GAMMA=   2.6278
  2.6278

 Free energy of the ion-electron system (eV)
  ---------------------------------------------------
  alpha Z        PSCENC =         3.83057929
  Ewald energy   TEWEN  =      -238.67306545
  -Hartree energ DENC   =       -10.81738925
  -exchange      EXHF   =         0.00000000
  -V(xc)+E(xc)   XCENC  =       -17.79246912
  PAW double counting   =       500.63634854     -465.62125941
  entropy T*S    EENTRO =        -0.00000030
  eigenvalues    EBANDS =        11.70974039
  atomic energy  EATOM  =       206.12155316
  Solvation  Ediel_sol  =         0.00000000
  ---------------------------------------------------
  free energy    TOTEN  =       -10.60596215 eV

  energy without entropy =      -10.60596185  energy(sigma->0) =      -10.60596200


--------------------------------------------------------------------------------------------------------




--------------------------------------- Iteration      1(   7)  ---------------------------------------


    POTLOK:  cpu time      0.0033: real time      0.0033
    SETDIJ:  cpu time      0.0011: real time      0.0011
     EDDAV:  cpu time      0.0844: real time      0.0857
       DOS:  cpu time      0.0006: real time      0.0006
    CHARGE:  cpu time      0.0024: real time      0.0025
    MIXING:  cpu time      0.0003: real time      0.0003
    --------------------------------------------
      LOOP:  cpu time      0.0921: real time      0.0935

 eigenvalue-minimisations  :  1160
 total energy-change (2. order) : 0.7861897E-01  (-0.2304390E-01)
 number of electron       8.0000025 magnetization 
 augmentation part       -0.4621437 magnetization 

 Broyden mixing:
  rms(total) = 0.36853E-01    rms(broyden)= 0.36852E-01
  rms(prec ) = 0.59137E-01
  weight for this iteration     100.00

 eigenvalues of (default mixing * dielectric matrix)
  average eigenvalue GAMMA=   2.1322
  1.8823  2.3820

 Free energy of the ion-electron system (eV)
  ---------------------------------------------------
  alpha Z        PSCENC =         3.83057929
  Ewald energy   TEWEN  =      -238.67306545
  -Hartree energ DENC   =       -13.47026739
  -exchange      EXHF   =         0.00000000
  -V(xc)+E(xc)   XCENC  =       -17.34676400
  PAW double counting   =      1365.11187532    -1330.32507885
  entropy T*S    EENTRO =        -0.00004556
  eigenvalues    EBANDS =        14.22387031
  atomic energy  EATOM  =       206.12155316
  Solvation  Ediel_sol  =         0.00000000
  ---------------------------------------------------
  free energy    TOTEN  =       -10.52734318 eV

  energy without entropy =      -10.52729762  energy(sigma->0) =      -10.52732040


--------------------------------------------------------------------------------------------------------




--------------------------------------- Iteration      1(   8)  ---------------------------------------


    POTLOK:  cpu time      0.0033: real time      0.0035
    SETDIJ:  cpu time      0.0011: real time      0.0011
     EDDAV:  cpu time      0.0689: real time      0.0699
       DOS:  cpu time      0.0006: real time      0.0007
    CHARGE:  cpu time      0.0024: real time      0.0024
    MIXING:  cpu time      0.0003: real time      0.0003
    --------------------------------------------
      LOOP:  cpu time      0.0767: real time      0.0778

 eigenvalue-minimisations  :   968
 total energy-change (2. order) :-0.6893616E-03  (-0.5198338E-03)
 number of electron       8.0000026 magnetization 
 augmentation part       -0.4633778 magnetization 

 Broyden mixing:
  rms(total) = 0.77424E-02    rms(broyden)= 0.77420E-02
  rms(prec ) = 0.13417E-01
  weight for this iteration     100.00

 eigenvalues of (default mixing * dielectric matrix)
  average eigenvalue GAMMA=   2.2373
  2.8325  1.9396  1.9396

 Free energy of the ion-electron system (eV)
  ---------------------------------------------------
  alpha Z        PSCENC =         3.83057929
  Ewald energy   TEWEN  =      -238.67306545
  -Hartree energ DENC   =       -13.35645061
  -exchange      EXHF   =         0.00000000
  -V(xc)+E(xc)   XCENC  =       -17.34680211
  PAW double counting   =      1425.93855397    -1391.11936929
  entropy T*S    EENTRO =        -0.00002875
  eigenvalues    EBANDS =        14.07699726
  atomic energy  EATOM  =       206.12155316
  Solvation  Ediel_sol  =         0.00000000
  ---------------------------------------------------
  free energy    TOTEN  =       -10.52803254 eV

  energy without entropy =      -10.52800379  energy(sigma->0) =      -10.52801817


--------------------------------------------------------------------------------------------------------




--------------------------------------- Iteration      1(   9)  ---------------------------------------


    POTLOK:  cpu time      0.0033: real time      0.0034
    SETDIJ:  cpu time      0.0011: real time      0.0011
     EDDAV:  cpu time      0.1009: real time      0.1024
       DOS:  cpu time      0.0006: real time      0.0006
    CHARGE:  cpu time      0.0024: real time      0.0024
    MIXING:  cpu time      0.0003: real time      0.0003
    --------------------------------------------
      LOOP:  cpu time      0.1086: real time      0.1102

 eigenvalue-minimisations  :  1336
 total energy-change (2. order) :-0.1437333E-03  (-0.1328066E-04)
 number of electron       8.0000026 magnetization 
 augmentation part       -0.4634833 magnetization 

 Broyden mixing:
  rms(total) = 0.65698E-02    rms(broyden)= 0.65698E-02
  rms(prec ) = 0.74710E-02
  weight for this iteration     100.00

 eigenvalues of (default mixing * dielectric matrix)
  average eigenvalue GAMMA=   2.1019
  0.9269  2.5530  2.5530  2.3749

 Free energy of the ion-electron system (eV)
  ---------------------------------------------------
  alpha Z        PSCENC =         3.83057929
  Ewald energy   TEWEN  =      -238.67306545
  -Hartree energ DENC   =       -13.39559516
  -exchange      EXHF   =         0.00000000
  -V(xc)+E(xc)   XCENC  =       -17.33806230
  PAW double counting   =      1438.35668354    -1403.53666040
  entropy T*S    EENTRO =        -0.00002797
  eigenvalues    EBANDS =        14.10641903
  atomic energy  EATOM  =       206.12155316
  Solvation  Ediel_sol  =         0.00000000
  ---------------------------------------------------
  free energy    TOTEN  =       -10.52817627 eV

  energy without entropy =      -10.52814830  energy(sigma->0) =      -10.52816229


--------------------------------------------------------------------------------------------------------




--------------------------------------- Iteration      1(  10)  ---------------------------------------


    POTLOK:  cpu time      0.0033: real time      0.0034
    SETDIJ:  cpu time      0.0011: real time      0.0011
     EDDAV:  cpu time      0.0475: real time      0.0485
       DOS:  cpu time      0.0006: real time      0.0006
    --------------------------------------------
      LOOP:  cpu time      0.0524: real time      0.0536

 eigenvalue-minimisations  :   608
 total energy-change (2. order) :-0.2393800E-04  (-0.2855335E-05)
 number of electron       8.0000026 magnetization 
 augmentation part       -0.4634833 magnetization 

 Free energy of the ion-electron system (eV)
  ---------------------------------------------------
  alpha Z        PSCENC =         3.83057929
  Ewald energy   TEWEN  =      -238.67306545
  -Hartree energ DENC   =       -13.40177627
  -exchange      EXHF   =         0.00000000
  -V(xc)+E(xc)   XCENC  =       -17.33758120
  PAW double counting   =      1419.45968746    -1384.63887855
  entropy T*S    EENTRO =        -0.00002718
  eigenvalues    EBANDS =        14.11130853
  atomic energy  EATOM  =       206.12155316
  Solvation  Ediel_sol  =         0.00000000
  ---------------------------------------------------
  free energy    TOTEN  =       -10.52820021 eV

  energy without entropy =      -10.52817304  energy(sigma->0) =      -10.52818662


--------------------------------------------------------------------------------------------------------




 average (electrostatic) potential at core
  the test charge radii are     0.9892
  (the norm of the test charge is              1.0000)
       1 -81.7279       2 -81.7279
 
 
 
 E-fermi :   7.3889     XC(G=0):  -9.9286     alpha+bet :-13.6462

 Fermi energy:         7.3888523674

 k-point     1 :       0.0000    0.0000    0.0000
  band No.  band energies     occupation 
      1      -5.6818      2.00000
      2       7.2374      1.96779
      3       7.2375      1.96773
      4       7.2375      1.96773
      5       9.8497      0.00000
      6       9.8498      0.00000
      7       9.8498      0.00000
      8      12.1660      0.00000

 k-point     2 :       0.0909    0.0000   -0.0000
  band No.  band energies     occupation 
      1      -5.5606      2.00000
      2       6.2166      2.00000
      3       7.0458      2.00000
      4       7.0459      2.00000
      5      10.0540      0.00000
      6      10.1387      0.00000
      7      10.1388      0.00000
      8      12.7789      0.00000

 k-point     3 :       0.1818    0.0000   -0.0000
  band No.  band energies     occupation 
      1      -5.2018      2.00000
      2       4.4081      2.00000
      3       6.6633      2.00000
      4       6.6633      2.00000
      5       9.9210      0.00000
      6      10.6568      0.00000
      7      10.6569      0.00000
      8      14.2022      0.00000

 k-point     4 :       0.2727    0.0000   -0.0000
  band No.  band energies     occupation 
      1      -4.6203      2.00000
      2       2.5838      2.00000
      3       6.3099      2.00000
      4       6.3099      2.00000
      5       9.6277      0.00000
      6      10.8485      0.00000
      7      10.8487      0.00000
      8      14.7200      0.00000

 k-point     5 :       0.3636    0.0000   -0.0000
  band No.  band energies     occupation 
      1      -3.8650      2.00000
      2       0.9594      2.00000
      3       6.0623      2.00000
      4       6.0624      2.00000
      5       9.3912      0.00000
      6      10.6911      0.00000
      7      10.6912      0.00000
      8      15.3914      0.00000

 k-point     6 :       0.4545   -0.0000   -0.0000
  band No.  band energies     occupation 
      1      -3.1376      2.00000
      2      -0.2122      2.00000
      3       5.9372      2.00000
      4       5.9372      2.00000
      5       9.2635      0.00000
      6      10.5287      0.00000
      7      10.5289      0.00000
      8      15.1495      0.00000

 k-point     7 :       0.0909    0.0909   -0.0000
  band No.  band energies     occupation 
      1      -5.5201      2.00000
      2       6.5195      2.00000
      3       6.6578      2.00000
      4       6.6578      2.00000
      5       9.4926      0.00000
      6      10.6353      0.00000
      7      10.6354      0.00000
      8      12.7075      0.00000

 k-point     8 :       0.1818    0.0909    0.0000
  band No.  band energies     occupation 
      1      -5.2399      2.00000
      2       4.9985      2.00000
      3       6.2082      2.00000
      4       6.4900      2.00000
      5       9.5507      0.00000
      6      10.9319      0.00000
      7      11.2969      0.00000
      8      12.7237      0.00000

 k-point     9 :       0.2727    0.0909   -0.0000
  band No.  band energies     occupation 
      1      -4.7304      2.00000
      2       3.2060      2.00000
      3       5.8581      2.00000
      4       6.0857      2.00000
      5       9.8058      0.00000
      6      10.8754      0.00000
      7      11.6230      0.00000
      8      12.7235      0.00000

 k-point    10 :       0.3636    0.0909   -0.0000
  band No.  band energies     occupation 
      1      -4.0240      2.00000
      2       1.5235      2.00000
      3       5.6609      2.00000
      4       5.6653      2.00000
      5       9.7571      0.00000
      6      10.7242      0.00000
      7      11.4468      0.00000
      8      13.6177      0.00000

 k-point    11 :       0.4545    0.0909    0.0000
  band No.  band energies     occupation 
      1      -3.2405      2.00000
      2       0.1628      2.00000
      3       5.3302      2.00000
      4       5.6287      2.00000
      5       9.6694      0.00000
      6      10.5817      0.00000
      7      11.1227      0.00000
      8      15.0050      0.00000

 k-point    12 :      -0.4545    0.0909    0.0000
  band No.  band energies     occupation 
      1      -2.9077      2.00000
      2      -0.3152      2.00000
      3       5.1198      2.00000
      4       5.7543      2.00000
      5       9.7029      0.00000
      6      10.5858      0.00000
      7      10.8974      0.00000
      8      15.6294      0.00000

 k-point    13 :      -0.3636    0.0909    0.0000
  band No.  band energies     occupation 
      1      -3.4942      2.00000
      2       0.5643      2.00000
      3       5.0620      2.00000
      4       6.0169      2.00000
      5       9.8598      0.00000
      6      10.7723      0.00000
      7      10.8312      0.00000
      8      15.4700      0.00000

 k-point    14 :      -0.2727    0.0909    0.0000
  band No.  band energies     occupation 
      1      -4.2787      2.00000
      2       2.0647      2.00000
      3       5.1741      2.00000
      4       6.3827      2.00000
      5      10.0993      0.00000
      6      10.8329      0.00000
      7      11.0529      0.00000
      8      14.1362      0.00000

 k-point    15 :      -0.1818    0.0909    0.0000
  band No.  band energies     occupation 
      1      -4.9254      2.00000
      2       3.7929      2.00000
      3       5.4742      2.00000
      4       6.7908      2.00000
      5      10.3715      0.00000
      6      10.6070      0.00000
      7      11.0510      0.00000
      8      13.5831      0.00000

 k-point    16 :      -0.0909    0.0909    0.0000
  band No.  band energies     occupation 
      1      -5.3602      2.00000
      2       5.4129      2.00000
      3       6.0762      2.00000
      4       7.0940      1.99997
      5      10.1770      0.00000
      6      10.4227      0.00000
      7      10.5714      0.00000
      8      13.3757      0.00000

 k-point    17 :       0.1818    0.1818   -0.0000
  band No.  band energies     occupation 
      1      -5.0386      2.00000
      2       5.0143      2.00000
      3       5.7131      2.00000
      4       5.7132      2.00000
      5       8.7564      0.00000
      6      11.5696      0.00000
      7      12.1576      0.00000
      8      12.1577      0.00000

 k-point    18 :       0.2727    0.1818   -0.0000
  band No.  band energies     occupation 
      1      -4.6047      2.00000
      2       3.6882      2.00000
      3       5.2991      2.00000
      4       5.3315      2.00000
      5       8.8173      0.00000
      6      10.9809      0.00000
      7      12.5277      0.00000
      8      12.7736      0.00000

 k-point    19 :       0.3636    0.1818   -0.0000
  band No.  band energies     occupation 
      1      -3.9594      2.00000
      2       2.1212      2.00000
      3       4.7291      2.00000
      4       5.1191      2.00000
      5       9.0511      0.00000
      6      11.3537      0.00000
      7      12.4266      0.00000
      8      12.7604      0.00000

 k-point    20 :       0.4545    0.1818   -0.0000
  band No.  band energies     occupation 
      1      -3.1754      2.00000
      2       0.7006      2.00000
      3       4.2012      2.00000
      4       5.0916      2.00000
      5       9.0798      0.00000
      6      12.0296      0.00000
      7      12.3978      0.00000
      8      12.9013      0.00000

 k-point    21 :      -0.4545    0.1818   -0.0000
  band No.  band energies     occupation 
      1      -2.5901      2.00000
      2      -0.1435      2.00000
      3       3.8173      2.00000
      4       5.2477      2.00000
      5       9.2140      0.00000
      6      11.9492      0.00000
      7      12.0479      0.00000
      8      14.6247      0.00000

 k-point    22 :      -0.3636    0.1818    0.0000
  band No.  band energies     occupation 
      1      -2.9370      2.00000
      2       0.3474      2.00000
      3       3.6231      2.00000
      4       5.5701      2.00000
      5       9.5471      0.00000
      6      11.8172      0.00000
      7      11.9080      0.00000
      8      15.3061      0.00000

 k-point    23 :      -0.2727    0.1818    0.0000
  band No.  band energies     occupation 
      1      -3.7209      2.00000
      2       1.6438      2.00000
      3       3.6700      2.00000
      4       6.0158      2.00000
      5      10.0375      0.00000
      6      11.6316      0.00000
      7      11.8980      0.00000
      8      13.8097      0.00000

 k-point    24 :      -0.1818    0.1818    0.0000
  band No.  band energies     occupation 
      1      -4.4214      2.00000
      2       2.9959      2.00000
      3       4.1637      2.00000
      4       6.4918      2.00000
      5      10.5262      0.00000
      6      11.1571      0.00000
      7      11.5481      0.00000
      8      13.2497      0.00000

 k-point    25 :       0.2727    0.2727   -0.0000
  band No.  band energies     occupation 
      1      -4.2461      2.00000
      2       3.2821      2.00000
      3       4.9069      2.00000
      4       4.9069      2.00000
      5       8.0780      0.00000
      6       9.8901      0.00000
      7      13.8940      0.00000
      8      13.8941      0.00000

 k-point    26 :       0.3636    0.2727   -0.0000
  band No.  band energies     occupation 
      1      -3.6687      2.00000
      2       2.2139      2.00000
      3       4.2927      2.00000
      4       4.6513      2.00000
      5       8.2117      0.00000
      6       9.5861      0.00000
      7      14.3084      0.00000
      8      14.3331      0.00000

 k-point    27 :       0.4545    0.2727   -0.0000
  band No.  band energies     occupation 
      1      -2.9167      2.00000
      2       1.0367      2.00000
      3       3.4660      2.00000
      4       4.5870      2.00000
      5       8.3788      0.00000
      6      10.4892      0.00000
      7      14.0789      0.00000
      8      14.2231      0.00000

 k-point    28 :      -0.4545    0.2727    0.0000
  band No.  band energies     occupation 
      1      -2.1884      2.00000
      2       0.0861      2.00000
      3       2.8196      2.00000
      4       4.7193      2.00000
      5       8.5260      0.00000
      6      12.0962      0.00000
      7      13.6852      0.00000
      8      14.1074      0.00000

 k-point    29 :      -0.3636    0.2727   -0.0000
  band No.  band energies     occupation 
      1      -2.2445      2.00000
      2       0.1720      2.00000
      3       2.4794      2.00000
      4       5.0342      2.00000
      5       8.8732      0.00000
      6      13.3319      0.00000
      7      13.3377      0.00000
      8      14.6666      0.00000

 k-point    30 :      -0.2727    0.2727    0.0000
  band No.  band energies     occupation 
      1      -2.9880      2.00000
      2       1.0514      2.00000
      3       2.6399      2.00000
      4       5.4956      2.00000
      5       9.4161      0.00000
      6      12.7685      0.00000
      7      13.1076      0.00000
      8      13.9636      0.00000

 k-point    31 :       0.3636    0.3636   -0.0000
  band No.  band energies     occupation 
      1      -3.1590      2.00000
      2       1.4967      2.00000
      3       4.3436      2.00000
      4       4.3436      2.00000
      5       7.6478      0.00025
      6       8.6325      0.00000
      7      15.7266      0.00000
      8      15.7266      0.00000

 k-point    32 :       0.4545    0.3636   -0.0000
  band No.  band energies     occupation 
      1      -2.4566      2.00000
      2       0.5913      2.00000
      3       3.7045      2.00000
      4       4.2283      2.00000
      5       7.8485      0.00000
      6       8.7146      0.00000
      7      15.9876      0.00000
      8      16.1770      0.00000

 k-point    33 :      -0.4545    0.3636    0.0000
  band No.  band energies     occupation 
      1      -1.6743      2.00000
      2      -0.2141      2.00000
      3       2.7767      2.00000
      4       4.3134      2.00000
      5       8.0105      0.00000
      6      10.0835      0.00000
      7      15.6351      0.00000
      8      16.0809      0.00000

 k-point    34 :      -0.3636    0.3636    0.0000
  band No.  band energies     occupation 
      1      -1.5599      2.00000
      2      -0.2810      2.00000
      3       2.2034      2.00000
      4       4.5917      2.00000
      5       8.3338      0.00000
      6      11.9527      0.00000
      7      14.9854      0.00000
      8      15.6455      0.00000

 k-point    35 :       0.4545    0.4545   -0.0000
  band No.  band energies     occupation 
      1      -1.8050      2.00000
      2      -0.2305      2.00000
      3       4.0565      2.00000
      4       4.0565      2.00000
      5       7.5593      0.01594
      6       7.8692      0.00000
      7      17.6485      0.00000
      8      17.6485      0.00000

 k-point    36 :      -0.4545    0.4545    0.0000
  band No.  band energies     occupation 
      1      -1.0645      2.00000
      2      -0.9570      2.00000
      3       3.5153      2.00000
      4       4.0856      2.00000
      5       7.7370      0.00000
      6       8.4128      0.00000
      7      17.6317      0.00000
      8      18.0034      0.00000

 k-point    37 :       0.2727    0.1818    0.0909
  band No.  band energies     occupation 
      1      -4.8831      2.00000
      2       4.1365      2.00000
      3       5.1246      2.00000
      4       6.3472      2.00000
      5       9.6030      0.00000
      6      11.3555      0.00000
      7      11.9188      0.00000
      8      12.0711      0.00000

 k-point    38 :       0.3636    0.1818    0.0909
  band No.  band energies     occupation 
      1      -4.3050      2.00000
      2       2.6538      2.00000
      3       4.5382      2.00000
      4       5.9753      2.00000
      5       9.9698      0.00000
      6      11.1509      0.00000
      7      12.1114      0.00000
      8      12.3598      0.00000

 k-point    39 :       0.4545    0.1818    0.0909
  band No.  band energies     occupation 
      1      -3.5524      2.00000
      2       1.1240      2.00000
      3       4.2972      2.00000
      4       5.5696      2.00000
      5      10.0594      0.00000
      6      10.7247      0.00000
      7      12.3267      0.00000
      8      13.2402      0.00000

 k-point    40 :      -0.4545    0.1818    0.0909
  band No.  band energies     occupation 
      1      -2.8222      2.00000
      2      -0.0193      2.00000
      3       4.2142      2.00000
      4       5.3159      2.00000
      5      10.1346      0.00000
      6      10.3574      0.00000
      7      12.2310      0.00000
      8      14.8908      0.00000

 k-point    41 :       0.3636    0.2727    0.0909
  band No.  band energies     occupation 
      1      -4.0999      2.00000
      2       2.8095      2.00000
      3       4.3205      2.00000
      4       5.1702      2.00000
      5       8.9562      0.00000
      6      10.4717      0.00000
      7      12.6619      0.00000
      8      13.7523      0.00000

 k-point    42 :       0.4545    0.2727    0.0909
  band No.  band energies     occupation 
      1      -3.3989      2.00000
      2       1.5848      2.00000
      3       3.7018      2.00000
      4       4.7897      2.00000
      5       9.3197      0.00000
      6      10.9342      0.00000
      7      12.3318      0.00000
      8      14.1691      0.00000

 k-point    43 :      -0.4545    0.2727    0.0909
  band No.  band energies     occupation 
      1      -2.6147      2.00000
      2       0.4013      2.00000
      3       3.3011      2.00000
      4       4.6021      2.00000
      5       9.4431      0.00000
      6      11.6679      0.00000
      7      12.6550      0.00000
      8      14.1458      0.00000

 k-point    44 :      -0.3636    0.2727    0.0909
  band No.  band energies     occupation 
      1      -2.2862      2.00000
      2      -0.0261      2.00000
      3       3.0380      2.00000
      4       4.7096      2.00000
      5       9.6904      0.00000
      6      11.4287      0.00000
      7      13.8404      0.00000
      8      14.5686      0.00000

 k-point    45 :      -0.2727    0.2727    0.0909
  band No.  band energies     occupation 
      1      -2.8921      2.00000
      2       0.8006      2.00000
      3       2.9882      2.00000
      4       5.0588      2.00000
      5      10.1253      0.00000
      6      11.2152      0.00000
      7      13.1099      0.00000
      8      13.8484      0.00000

 k-point    46 :      -0.1818    0.2727    0.0909
  band No.  band energies     occupation 
      1      -3.6701      2.00000
      2       1.9267      2.00000
      3       3.3754      2.00000
      4       5.5466      2.00000
      5      10.6847      0.00000
      6      10.7691      0.00000
      7      12.0690      0.00000
      8      13.3925      0.00000

 k-point    47 :       0.4545    0.3636    0.0909
  band No.  band energies     occupation 
      1      -3.0304      2.00000
      2       1.3453      2.00000
      3       3.7848      2.00000
      4       4.2215      2.00000
      5       8.5294      0.00000
      6       9.3318      0.00000
      7      14.1356      0.00000
      8      15.6811      0.00000

 k-point    48 :      -0.4545    0.3636    0.0909
  band No.  band energies     occupation 
      1      -2.2499      2.00000
      2       0.4248      2.00000
      3       3.0277      2.00000
      4       4.0142      2.00000
      5       8.8657      0.00000
      6      10.3023      0.00000
      7      13.7261      0.00000
      8      16.1002      0.00000

 k-point    49 :      -0.3636    0.3636    0.0909
  band No.  band energies     occupation 
      1      -1.6808      2.00000
      2      -0.1684      2.00000
      3       2.4147      2.00000
      4       4.1531      2.00000
      5       9.1026      0.00000
      6      11.9925      0.00000
      7      13.4161      0.00000
      8      15.1187      0.00000

 k-point    50 :      -0.2727    0.3636    0.0909
  band No.  band energies     occupation 
      1      -2.1271      2.00000
      2       0.2811      2.00000
      3       2.2923      2.00000
      4       4.5270      2.00000
      5       9.5309      0.00000
      6      12.5389      0.00000
      7      13.4092      0.00000
      8      14.3471      0.00000

 k-point    51 :      -0.4545    0.4545    0.0909
  band No.  band energies     occupation 
      1      -1.7124      2.00000
      2      -0.2138      2.00000
      3       3.5639      2.00000
      4       3.6936      2.00000
      5       8.4116      0.00000
      6       8.6607      0.00000
      7      15.7851      0.00000
      8      17.6228      0.00000

 k-point    52 :      -0.3636    0.4545    0.0909
  band No.  band energies     occupation 
      1      -1.1059      2.00000
      2      -0.7257      2.00000
      3       2.7607      2.00000
      4       3.7808      2.00000
      5       8.7052      0.00000
      6      10.0997      0.00000
      7      15.2830      0.00000
      8      15.5061      0.00000

 k-point    53 :      -0.4545    0.3636    0.1818
  band No.  band energies     occupation 
      1      -2.6638      2.00000
      2       0.8896      2.00000
      3       2.9006      2.00000
      4       4.2304      2.00000
      5      10.3791      0.00000
      6      10.8581      0.00000
      7      11.9539      0.00000
      8      15.5053      0.00000

 k-point    54 :      -0.3636    0.3636    0.1818
  band No.  band energies     occupation 
      1      -1.9211      2.00000
      2       0.0868      2.00000
      3       2.5862      2.00000
      4       3.8510      2.00000
      5      10.6509      0.00000
      6      11.2334      0.00000
      7      12.6344      0.00000
      8      14.6821      0.00000

 k-point    55 :      -0.3636    0.4545    0.1818
  band No.  band energies     occupation 
      1      -1.4761      2.00000
      2      -0.2413      2.00000
      3       2.8222      2.00000
      4       3.2448      2.00000
      5      10.2453      0.00000
      6      10.4141      0.00000
      7      13.2678      0.00000
      8      14.9672      0.00000

 k-point    56 :      -0.2727    0.4545    0.1818
  band No.  band energies     occupation 
      1      -1.2270      2.00000
      2      -0.4344      2.00000
      3       2.4787      2.00000
      4       3.2924      2.00000
      5      10.5887      0.00000
      6      11.8999      0.00000
      7      13.0005      0.00000
      8      13.1262      0.00000


--------------------------------------------------------------------------------------------------------


 soft charge-density along one line, spin component           1
         0         1         2         3         4         5         6         7         8         9
 total charge-density along one line
 
 pseudopotential strength for first ion, spin component:           1
 18.264  25.480   0.000   0.000   0.000   0.000   0.000   0.000
 25.480  35.552   0.000   0.000   0.000   0.000   0.000   0.000
  0.000   0.000   4.165  -0.000  -0.000   7.760  -0.000  -0.000
  0.000   0.000  -0.000   4.165  -0.000  -0.000   7.760  -0.000
  0.000   0.000  -0.000  -0.000   4.165  -0.000  -0.000   7.760
  0.000   0.000   7.760  -0.000  -0.000  14.468  -0.000  -0.000
  0.000   0.000  -0.000   7.760  -0.000  -0.000  14.468  -0.000
  0.000   0.000  -0.000  -0.000   7.760  -0.000  -0.000  14.468
 total augmentation occupancy for first ion, spin component:           1
  7.527  -3.171   0.000   0.000   0.000   0.000  -0.000   0.000
 -3.171   1.439   0.000   0.000  -0.000  -0.000  -0.000   0.000
  0.000   0.000   4.079   0.000  -0.000  -1.056  -0.000   0.000
  0.000   0.000   0.000   4.079  -0.000  -0.000  -1.056   0.000
 -0.000  -0.000  -0.000  -0.000   4.079   0.000   0.000  -1.056
  0.000   0.000  -1.056  -0.000   0.000   0.282   0.000  -0.000
 -0.000  -0.000  -0.000  -1.056   0.000   0.000   0.282  -0.000
  0.000   0.000   0.000   0.000  -1.056  -0.000  -0.000   0.282


------------------------ aborting loop because EDIFF is reached ----------------------------------------


    CHARGE:  cpu time      0.0024: real time      0.0024
    FORLOC:  cpu time      0.0002: real time      0.0002
    FORNL :  cpu time      0.0041: real time      0.0041
    STRESS:  cpu time      0.0651: real time      0.0660
    FORCOR:  cpu time      0.0031: real time      0.0032
    FORHAR:  cpu time      0.0007: real time      0.0007
    MIXING:  cpu time      0.0003: real time      0.0003
    OFIELD:  cpu time      0.0000: real time      0.0000

  FORCE on cell =-STRESS in cart. coord.  units (eV):
  Direction    XX          YY          ZZ          XY          YZ          ZX
  --------------------------------------------------------------------------------------
  Alpha Z     3.83058     3.83058     3.83058
  Ewald     -79.55772   -79.55772   -79.55772    -0.00000    -0.00000     0.00000
  Hartree     4.46689     4.46689     4.46689    -0.00000    -0.00000    -0.00000
  E(xc)     -26.20034   -26.20034   -26.20034    -0.00000    -0.00000    -0.00000
  Local     -27.70385   -27.70385   -27.70385     0.00006     0.00006     0.00006
  n-local    82.02700    83.46538    77.53083     2.54062    -1.53219     0.68125
  augment   -11.71587   -11.71587   -11.71587    -0.00007    -0.00007    -0.00007
  Kinetic    62.12769    58.18784    59.28792     3.59047    -0.40627     1.07115
  Fock        0.00000     0.00000     0.00000     0.00000     0.00000     0.00000
  -------------------------------------------------------------------------------------
  Total       3.99524     3.99524     3.99524     0.00000    -0.00000     0.00000
  in kB     182.09720   182.09720   182.09720     0.00000    -0.00000     0.00000
  external pressure =      182.10 kB  Pullay stress =        0.00 kB


 VOLUME and BASIS-vectors are now :
 -----------------------------------------------------------------------------
  energy-cutoff  :      240.00
  volume of cell :       35.15
      direct lattice vectors                 reciprocal lattice vectors
     0.000000000  2.600000000  2.600000000    -0.192307692  0.192307692  0.192307692
     2.600000000  0.000000000  2.600000000     0.192307692 -0.192307692  0.192307692
     2.600000000  2.600000000  0.000000000     0.192307692  0.192307692 -0.192307692

  length of vectors
     3.676955262  3.676955262  3.676955262     0.333086694  0.333086694  0.333086694


 FORCES acting on ions
    electron-ion (+dipol)            ewald-force                    non-local-force                 convergence-correction
 -----------------------------------------------------------------------------------------------
   0.905E-05 0.905E-05 0.850E-05   0.376E-14 0.115E-14 0.479E-14   0.443E-15 0.992E-16 0.285E-15   0.576E-06 0.576E-06 0.576E-06
   -.905E-05 -.905E-05 -.850E-05   -.371E-14 -.603E-15 -.478E-14   -.416E-15 -.173E-15 -.267E-15   -.576E-06 -.576E-06 -.576E-06
 -----------------------------------------------------------------------------------------------
   0.888E-13 -.418E-13 -.713E-14   0.473E-16 0.544E-15 0.150E-16   0.271E-16 -.736E-16 0.180E-16   -.313E-15 -.567E-16 -.167E-15
 
 
 POSITION                                       TOTAL-FORCE (eV/Angst)
 -----------------------------------------------------------------------------------
      4.55000      4.55000      4.55000        -0.000000     -0.000000     -0.000000
      0.65000      0.65000      0.65000         0.000000      0.000000      0.000000
 -----------------------------------------------------------------------------------
    total drift:                                0.000000     -0.000000     -0.000000


--------------------------------------------------------------------------------------------------------



  FREE ENERGIE OF THE ION-ELECTRON SYSTEM (eV)
  ---------------------------------------------------
  free  energy   TOTEN  =       -10.52820021 eV

  energy  without entropy=      -10.52817304  energy(sigma->0) =      -10.52818662
 


--------------------------------------------------------------------------------------------------------


    POTLOK:  cpu time      0.0047: real time      0.0048


--------------------------------------------------------------------------------------------------------


 writing wavefunctions
     LOOP+:  cpu time      0.9864: real time      1.0089
    4ORBIT:  cpu time      0.0000: real time      0.0000

 total amount of memory used by VASP MPI-rank0    32291. kBytes
=======================================================================

   base      :      30000. kBytes
   nonl-proj :       1113. kBytes
   fftplans  :        204. kBytes
   grid      :        388. kBytes
   one-center:          6. kBytes
   wavefun   :        580. kBytes
 
  
  
 General timing and accounting informations for this job:
 ========================================================
  
                  Total CPU time used (sec):        1.175
                            User time (sec):        1.101
                          System time (sec):        0.075
                         Elapsed time (sec):        1.185
  
                   Maximum memory used (kb):       48076.
                   Average memory used (kb):          N/A
  
                          Minor page faults:         9594
                          Major page faults:            0
                 Voluntary context switches:          134
