<?xml version="1.0" encoding="ISO-8859-1"?>
<modeling>
 <generator>
  <i name="program" type="string">vasp </i>
  <i name="version" type="string">6.3.0  </i>
  <i name="subversion" type="string">20Jan22 (build Feb 01 2022 16:52:37) complex                          parallel </i>
  <i name="platform" type="string">TETRA_NSC1 </i>
  <i name="date" type="string">2022 02 23 </i>
  <i name="time" type="string">07:07:26 </i>
 </generator>
 <incar>
  <i type="string" name="SYSTEM">diamond Si</i>
  <i type="int" name="ISTART">     0</i>
  <i type="int" name="ICHARG">     2</i>
  <i name="ENCUT">    240.00000000</i>
  <i type="int" name="ISMEAR">     0</i>
  <i name="SIGMA">      0.10000000</i>
 </incar>
 <primitive_cell>
  <structure name="primitive_cell" >
   <crystal>
    <varray name="basis" >
     <v>       0.00000000       2.60000000       2.60000000 </v>
     <v>       2.60000000       0.00000000       2.60000000 </v>
     <v>       2.60000000       2.60000000       0.00000000 </v>
    </varray>
    <i name="volume">     35.15200000 </i>
    <varray name="rec_basis" >
     <v>      -0.19230769       0.19230769       0.19230769 </v>
     <v>       0.19230769      -0.19230769       0.19230769 </v>
     <v>       0.19230769       0.19230769      -0.19230769 </v>
    </varray>
   </crystal>
   <varray name="positions" >
    <v>       0.87500000       0.87500000       0.87500000 </v>
    <v>       0.12500000       0.12500000       0.12500000 </v>
   </varray>
  </structure>
  <varray name="primitive_index" >
   <v type="int" >        1 </v>
   <v type="int" >        2 </v>
  </varray>
 </primitive_cell>
 <kpoints>
  <generation param="Monkhorst-Pack">
   <v type="int" name="divisions">      11       11       11 </v>
   <v name="usershift">      0.00000000       0.00000000       0.00000000 </v>
   <v name="genvec1">      0.09090909       0.00000000      -0.00000000 </v>
   <v name="genvec2">      0.00000000       0.09090909       0.00000000 </v>
   <v name="genvec3">     -0.00000000      -0.00000000       0.09090909 </v>
   <v name="shift">      0.00000000       0.00000000       0.00000000 </v>
  </generation>
  <varray name="kpointlist" >
   <v>       0.00000000       0.00000000       0.00000000 </v>
   <v>       0.09090909       0.00000000      -0.00000000 </v>
   <v>       0.18181818       0.00000000      -0.00000000 </v>
   <v>       0.27272727       0.00000000      -0.00000000 </v>
   <v>       0.36363636       0.00000000      -0.00000000 </v>
   <v>       0.45454545      -0.00000000      -0.00000000 </v>
   <v>       0.09090909       0.09090909      -0.00000000 </v>
   <v>       0.18181818       0.09090909       0.00000000 </v>
   <v>       0.27272727       0.09090909      -0.00000000 </v>
   <v>       0.36363636       0.09090909      -0.00000000 </v>
   <v>       0.45454545       0.09090909       0.00000000 </v>
   <v>      -0.45454545       0.09090909       0.00000000 </v>
   <v>      -0.36363636       0.09090909       0.00000000 </v>
   <v>      -0.27272727       0.09090909       0.00000000 </v>
   <v>      -0.18181818       0.09090909       0.00000000 </v>
   <v>      -0.09090909       0.09090909       0.00000000 </v>
   <v>       0.18181818       0.18181818      -0.00000000 </v>
   <v>       0.27272727       0.18181818      -0.00000000 </v>
   <v>       0.36363636       0.18181818      -0.00000000 </v>
   <v>       0.45454545       0.18181818      -0.00000000 </v>
   <v>      -0.45454545       0.18181818      -0.00000000 </v>
   <v>      -0.36363636       0.18181818       0.00000000 </v>
   <v>      -0.27272727       0.18181818       0.00000000 </v>
   <v>      -0.18181818       0.18181818       0.00000000 </v>
   <v>       0.27272727       0.27272727      -0.00000000 </v>
   <v>       0.36363636       0.27272727      -0.00000000 </v>
   <v>       0.45454545       0.27272727      -0.00000000 </v>
   <v>      -0.45454545       0.27272727       0.00000000 </v>
   <v>      -0.36363636       0.27272727      -0.00000000 </v>
   <v>      -0.27272727       0.27272727       0.00000000 </v>
   <v>       0.36363636       0.36363636      -0.00000000 </v>
   <v>       0.45454545       0.36363636      -0.00000000 </v>
   <v>      -0.45454545       0.36363636       0.00000000 </v>
   <v>      -0.36363636       0.36363636       0.00000000 </v>
   <v>       0.45454545       0.45454545      -0.00000000 </v>
   <v>      -0.45454545       0.45454545       0.00000000 </v>
   <v>       0.27272727       0.18181818       0.09090909 </v>
   <v>       0.36363636       0.18181818       0.09090909 </v>
   <v>       0.45454545       0.18181818       0.09090909 </v>
   <v>      -0.45454545       0.18181818       0.09090909 </v>
   <v>       0.36363636       0.27272727       0.09090909 </v>
   <v>       0.45454545       0.27272727       0.09090909 </v>
   <v>      -0.45454545       0.27272727       0.09090909 </v>
   <v>      -0.36363636       0.27272727       0.09090909 </v>
   <v>      -0.27272727       0.27272727       0.09090909 </v>
   <v>      -0.18181818       0.27272727       0.09090909 </v>
   <v>       0.45454545       0.36363636       0.09090909 </v>
   <v>      -0.45454545       0.36363636       0.09090909 </v>
   <v>      -0.36363636       0.36363636       0.09090909 </v>
   <v>      -0.27272727       0.36363636       0.09090909 </v>
   <v>      -0.45454545       0.45454545       0.09090909 </v>
   <v>      -0.36363636       0.45454545       0.09090909 </v>
   <v>      -0.45454545       0.36363636       0.18181818 </v>
   <v>      -0.36363636       0.36363636       0.18181818 </v>
   <v>      -0.36363636       0.45454545       0.18181818 </v>
   <v>      -0.27272727       0.45454545       0.18181818 </v>
  </varray>
  <varray name="weights" >
   <v>       0.00075131 </v>
   <v>       0.00601052 </v>
   <v>       0.00601052 </v>
   <v>       0.00601052 </v>
   <v>       0.00601052 </v>
   <v>       0.00601052 </v>
   <v>       0.00450789 </v>
   <v>       0.01803156 </v>
   <v>       0.01803156 </v>
   <v>       0.01803156 </v>
   <v>       0.01803156 </v>
   <v>       0.01803156 </v>
   <v>       0.01803156 </v>
   <v>       0.01803156 </v>
   <v>       0.01803156 </v>
   <v>       0.00901578 </v>
   <v>       0.00450789 </v>
   <v>       0.01803156 </v>
   <v>       0.01803156 </v>
   <v>       0.01803156 </v>
   <v>       0.01803156 </v>
   <v>       0.01803156 </v>
   <v>       0.01803156 </v>
   <v>       0.00901578 </v>
   <v>       0.00450789 </v>
   <v>       0.01803156 </v>
   <v>       0.01803156 </v>
   <v>       0.01803156 </v>
   <v>       0.01803156 </v>
   <v>       0.00901578 </v>
   <v>       0.00450789 </v>
   <v>       0.01803156 </v>
   <v>       0.01803156 </v>
   <v>       0.00901578 </v>
   <v>       0.00450789 </v>
   <v>       0.00901578 </v>
   <v>       0.01803156 </v>
   <v>       0.03606311 </v>
   <v>       0.03606311 </v>
   <v>       0.03606311 </v>
   <v>       0.01803156 </v>
   <v>       0.03606311 </v>
   <v>       0.03606311 </v>
   <v>       0.03606311 </v>
   <v>       0.03606311 </v>
   <v>       0.01803156 </v>
   <v>       0.01803156 </v>
   <v>       0.03606311 </v>
   <v>       0.03606311 </v>
   <v>       0.01803156 </v>
   <v>       0.01803156 </v>
   <v>       0.01803156 </v>
   <v>       0.01803156 </v>
   <v>       0.03606311 </v>
   <v>       0.01803156 </v>
   <v>       0.01803156 </v>
  </varray>
 </kpoints>
 <parameters>
  <separator name="general" >
   <i type="string" name="SYSTEM">diamond Si</i>
   <i type="logical" name="LCOMPAT"> F  </i>
  </separator>
  <separator name="electronic" >
   <i type="string" name="PREC">normal</i>
   <i name="ENMAX">    240.00000000</i>
   <i name="ENAUG">    322.06900000</i>
   <i name="EDIFF">      0.00010000</i>
   <i type="int" name="IALGO">    38</i>
   <i type="int" name="IWAVPR">    10</i>
   <i type="int" name="NBANDS">     8</i>
   <i type="int" name="NBANDSLOW">    -1</i>
   <i type="int" name="NBANDSHIGH">    -1</i>
   <i name="NELECT">      8.00000000</i>
   <i type="int" name="TURBO">     0</i>
   <i type="int" name="IRESTART">     0</i>
   <i type="int" name="NREBOOT">     0</i>
   <i type="int" name="NMIN">     0</i>
   <i name="EREF">      0.00000000</i>
   <separator name="electronic smearing" >
    <i type="int" name="ISMEAR">     0</i>
    <i name="SIGMA">      0.10000000</i>
    <i name="KSPACING">      0.50000000</i>
    <i type="logical" name="KGAMMA"> T  </i>
    <i type="logical" name="KBLOWUP"> T  </i>
   </separator>
   <separator name="electronic projectors" >
    <i type="logical" name="LREAL"> F  </i>
    <v name="ROPT">      0.00000000</v>
    <i type="int" name="LMAXPAW">  -100</i>
    <i type="int" name="LMAXMIX">     2</i>
    <i type="logical" name="NLSPLINE"> F  </i>
   </separator>
   <separator name="electronic startup" >
    <i type="int" name="ISTART">     0</i>
    <i type="int" name="ICHARG">     2</i>
    <i type="int" name="INIWAV">     1</i>
   </separator>
   <separator name="electronic spin" >
    <i type="int" name="ISPIN">     1</i>
    <i type="logical" name="LNONCOLLINEAR"> F  </i>
    <v name="MAGMOM">      1.00000000      1.00000000</v>
    <i name="NUPDOWN">     -1.00000000</i>
    <i type="logical" name="LSORBIT"> F  </i>
    <v name="SAXIS">      0.00000000      0.00000000      1.00000000</v>
    <i type="logical" name="LSPIRAL"> F  </i>
    <v name="QSPIRAL">      0.00000000      0.00000000      0.00000000</v>
    <i type="logical" name="LZEROZ"> F  </i>
   </separator>
   <separator name="electronic exchange-correlation" >
    <i type="logical" name="LASPH"> F  </i>
    <i type="logical" name="LMETAGGA"> F  </i>
   </separator>
   <separator name="electronic convergence" >
    <i type="int" name="NELM">    60</i>
    <i type="int" name="NELMDL">    -5</i>
    <i type="int" name="NELMIN">     2</i>
    <i name="ENINI">    240.00000000</i>
    <separator name="electronic convergence detail" >
     <i type="logical" name="LDIAG"> T  </i>
     <i type="logical" name="LSUBROT"> F  </i>
     <i name="WEIMIN">      0.00000000</i>
     <i name="EBREAK">      0.00000313</i>
     <i name="DEPER">      0.30000000</i>
     <i type="int" name="NRMM">     4</i>
     <i name="TIME">      0.40000000</i>
    </separator>
   </separator>
   <separator name="electronic mixer" >
    <i name="AMIX">      0.40000000</i>
    <i name="BMIX">      1.00000000</i>
    <i name="AMIN">      0.10000000</i>
    <i name="AMIX_MAG">      1.60000000</i>
    <i name="BMIX_MAG">      1.00000000</i>
    <separator name="electronic mixer details" >
     <i type="int" name="IMIX">     4</i>
     <i type="logical" name="MIXFIRST"> F  </i>
     <i type="int" name="MAXMIX">   -45</i>
     <i name="WC">    100.00000000</i>
     <i type="int" name="INIMIX">     1</i>
     <i type="int" name="MIXPRE">     1</i>
     <i type="int" name="MREMOVE">     5</i>
    </separator>
   </separator>
   <separator name="electronic dipolcorrection" >
    <i type="logical" name="LDIPOL"> F  </i>
    <i type="logical" name="LMONO"> F  </i>
    <i type="int" name="IDIPOL">     0</i>
    <i name="EPSILON">      1.00000000</i>
    <v name="DIPOL">   -100.00000000   -100.00000000   -100.00000000</v>
    <i name="EFIELD">      0.00000000</i>
   </separator>
  </separator>
  <separator name="grids" >
   <i type="int" name="NGX">    14</i>
   <i type="int" name="NGY">    14</i>
   <i type="int" name="NGZ">    14</i>
   <i type="int" name="NGXF">    28</i>
   <i type="int" name="NGYF">    28</i>
   <i type="int" name="NGZF">    28</i>
   <i type="logical" name="ADDGRID"> F  </i>
  </separator>
  <separator name="ionic" >
   <i type="int" name="NSW">     0</i>
   <i type="int" name="IBRION">    -1</i>
   <i type="int" name="MDALGO">     0</i>
   <i type="int" name="ISIF">     2</i>
   <i name="PSTRESS">      0.00000000</i>
   <i name="EDIFFG">      0.00100000</i>
   <i type="int" name="NFREE">     0</i>
   <i name="POTIM">      0.50000000</i>
   <i name="SMASS">     -3.00000000</i>
   <i name="SCALEE">      1.00000000</i>
  </separator>
  <separator name="ionic md" >
   <i name="TEBEG">      0.00010000</i>
   <i name="TEEND">      0.00010000</i>
   <i type="int" name="NBLOCK">     1</i>
   <i type="int" name="KBLOCK">     1</i>
   <i type="int" name="NPACO">   256</i>
   <i name="APACO">     10.00000000</i>
  </separator>
  <separator name="symmetry" >
   <i type="int" name="ISYM">     2</i>
   <i name="SYMPREC">      0.00001000</i>
  </separator>
  <separator name="dos" >
   <i type="int" name="LORBIT">     0</i>
   <v name="RWIGS">     -1.00000000</v>
   <i type="int" name="NEDOS">   301</i>
   <i name="EMIN">     10.00000000</i>
   <i name="EMAX">    -10.00000000</i>
   <i name="EFERMI">      0.00000000</i>
  </separator>
  <separator name="writing" >
   <i type="int" name="NWRITE">     2</i>
   <i type="logical" name="LWAVE"> T  </i>
   <i type="logical" name="LDOWNSAMPLE"> F  </i>
   <i type="logical" name="LCHARG"> T  </i>
   <i type="logical" name="LPARD"> F  </i>
   <i type="logical" name="LVTOT"> F  </i>
   <i type="logical" name="LVHAR"> F  </i>
   <i type="logical" name="LELF"> F  </i>
   <i type="logical" name="LOPTICS"> F  </i>
   <v name="STM">      0.00000000      0.00000000      0.00000000      0.00000000      0.00000000      0.00000000      0.00000000</v>
  </separator>
  <separator name="performance" >
   <i type="int" name="NPAR">     4</i>
   <i type="int" name="NSIM">     4</i>
   <i type="int" name="NBLK">    -1</i>
   <i type="logical" name="LPLANE"> T  </i>
   <i type="logical" name="LSCALAPACK"> T  </i>
   <i type="logical" name="LSCAAWARE"> F  </i>
   <i type="logical" name="LSCALU"> F  </i>
   <i type="logical" name="LASYNC"> F  </i>
   <i type="logical" name="LORBITALREAL"> F  </i>
  </separator>
  <separator name="miscellaneous" >
   <i type="int" name="IDIOT">     3</i>
   <i type="int" name="PHON_NSTRUCT">    -1</i>
   <i type="logical" name="LMUSIC"> F  </i>
   <v name="POMASS">     28.08500000</v>
   <v name="DARWINR">      0.00000000</v>
   <v name="DARWINV">      1.00000000</v>
   <i type="logical" name="LCORR"> T  </i>
  </separator>
  <i type="logical" name="GGA_COMPAT"> T  </i>
  <i type="logical" name="LBERRY"> F  </i>
  <i type="int" name="ICORELEVEL">     0</i>
  <i type="logical" name="LDAU"> F  </i>
  <i type="int" name="I_CONSTRAINED_M">     0</i>
  <separator name="electronic exchange-correlation" >
   <i type="string" name="GGA">--</i>
   <i type="int" name="VOSKOWN">     0</i>
   <i type="logical" name="LHFCALC"> F  </i>
   <i type="string" name="PRECFOCK"></i>
   <i type="logical" name="LSYMGRAD"> F  </i>
   <i type="logical" name="LHFONE"> F  </i>
   <i type="logical" name="LRHFCALC"> F  </i>
   <i type="logical" name="LTHOMAS"> F  </i>
   <i type="logical" name="LMODELHF"> F  </i>
   <i type="logical" name="LFOCKACE"> F  </i>
   <i name="ENCUT4O">     -1.00000000</i>
   <i type="int" name="EXXOEP">     0</i>
   <i type="int" name="FOURORBIT">     0</i>
   <i name="AEXX">      0.00000000</i>
   <i name="HFALPHA">      0.00000000</i>
   <i name="MCALPHA">      0.00000000</i>
   <i name="ALDAX">      1.00000000</i>
   <i name="AGGAX">      1.00000000</i>
   <i name="ALDAC">      1.00000000</i>
   <i name="AGGAC">      1.00000000</i>
   <i type="int" name="NKREDX">     1</i>
   <i type="int" name="NKREDY">     1</i>
   <i type="int" name="NKREDZ">     1</i>
   <i type="logical" name="SHIFTRED"> F  </i>
   <i type="logical" name="ODDONLY"> F  </i>
   <i type="logical" name="EVENONLY"> F  </i>
   <i type="int" name="LMAXFOCK">     0</i>
   <i type="int" name="NMAXFOCKAE">     0</i>
   <i type="logical" name="LFOCKAEDFT"> F  </i>
   <i name="HFSCREEN">      0.00000000</i>
   <i name="HFSCREENC">      0.00000000</i>
   <i type="int" name="NBANDSGWLOW">     0</i>
  </separator>
  <separator name="vdW DFT" >
   <i type="logical" name="LUSE_VDW"> F  </i>
   <i name="Zab_VDW">     -0.84910000</i>
   <i name="PARAM1">      0.12340000</i>
   <i name="PARAM2">      1.00000000</i>
   <i name="PARAM3">      0.00000000</i>
  </separator>
  <separator name="model GW" >
   <i type="int" name="MODEL_GW">     0</i>
   <i name="MODEL_EPS0">     10.54560000</i>
   <i name="MODEL_ALPHA">      1.00000000</i>
  </separator>
  <separator name="linear response parameters" >
   <i type="logical" name="LEPSILON"> F  </i>
   <i type="logical" name="LRPA"> F  </i>
   <i type="logical" name="LNABLA"> F  </i>
   <i type="logical" name="LVEL"> F  </i>
   <i name="CSHIFT">      0.10000000</i>
   <i name="OMEGAMAX">     -1.00000000</i>
   <i name="DEG_THRESHOLD">      0.00200000</i>
   <i name="RTIME">     -0.10000000</i>
   <i name="WPLASMAI">      0.00000000</i>
   <v name="DFIELD">      0.00000000      0.00000000      0.00000000</v>
   <v name="WPLASMA">      0.00000000      0.00000000      0.00000000      0.00000000      0.00000000      0.00000000      0.00000000      0.00000000      0.00000000</v>
  </separator>
  <separator name="orbital magnetization" >
   <i type="logical" name="NUCIND"> F  </i>
   <v name="MAGPOS">      0.00000000      0.00000000      0.00000000</v>
   <i type="logical" name="LNICSALL"> T  </i>
   <i type="logical" name="ORBITALMAG"> F  </i>
   <i type="logical" name="LMAGBLOCH"> F  </i>
   <i type="logical" name="LCHIMAG"> F  </i>
   <i type="logical" name="LGAUGE"> T  </i>
   <i type="int" name="MAGATOM">     0</i>
   <v name="MAGDIPOL">      0.00000000      0.00000000      0.00000000</v>
   <v name="AVECCONST">      0.00000000      0.00000000      0.00000000</v>
  </separator>
  <separator name="response functions" >
   <i type="logical" name="LFINITE_TEMPERATURE"> F  </i>
   <i type="logical" name="LADDER"> F  </i>
   <i type="logical" name="LRPAFORCE"> F  </i>
   <i type="logical" name="LFXC"> F  </i>
   <i type="logical" name="LHARTREE"> T  </i>
   <i type="int" name="IBSE">     0</i>
   <v type="int" name="KPOINT">    -1     0     0     0</v>
   <i type="logical" name="LTCTC"> F  </i>
   <i type="logical" name="LTCTE"> F  </i>
   <i type="logical" name="LTETE"> F  </i>
   <i type="logical" name="LTRIPLET"> F  </i>
   <i type="logical" name="LFXCEPS"> F  </i>
   <i type="logical" name="LFXHEG"> F  </i>
   <i type="int" name="NATURALO">     2</i>
   <i type="logical" name="LHOLEGF"> F  </i>
   <i type="logical" name="L2ORDER"> F  </i>
   <i type="logical" name="LDMP1"> F  </i>
   <i type="logical" name="LMP2LT"> F  </i>
   <i type="logical" name="LSMP2LT"> F  </i>
   <i type="logical" name="LGWLF"> F  </i>
   <i name="ENCUTGW">     -2.00000000</i>
   <i name="ENCUTGWSOFT">     -2.00000000</i>
   <i name="ENCUTLF">     -1.00000000</i>
   <i type="logical" name="LESF_SPLINES"> F  </i>
   <i type="int" name="LMAXMP2">    -1</i>
   <i name="SCISSOR">      0.00000000</i>
   <i type="int" name="NOMEGA">     0</i>
   <i type="int" name="NOMEGAR">     0</i>
   <i type="int" name="NBANDSGW">    -1</i>
   <i type="int" name="NBANDSO">    -1</i>
   <i type="int" name="NBANDSV">    -1</i>
   <i type="int" name="NELMGW">     1</i>
   <i type="int" name="NELMHF">     1</i>
   <i type="int" name="DIM">     3</i>
   <i type="int" name="IESPILON">     4</i>
   <i type="int" name="ANTIRES">     0</i>
   <i name="OMEGAMAX">    -30.00000000</i>
   <i name="OMEGAMIN">    -30.00000000</i>
   <i name="OMEGATL">   -200.00000000</i>
   <i type="int" name="OMEGAGRID">     0</i>
   <i name="CSHIFT">     -0.10000000</i>
   <i type="logical" name="LSELFENERGY"> F  </i>
   <i type="logical" name="LSPECTRAL"> F  </i>
   <i type="logical" name="LSPECTRALGW"> F  </i>
   <i type="logical" name="LSINGLES"> F  </i>
   <i type="logical" name="LFERMIGW"> F  </i>
   <i type="logical" name="ODDONLYGW"> F  </i>
   <i type="logical" name="EVENONLYGW"> F  </i>
   <i type="int" name="NKREDLFX">     1</i>
   <i type="int" name="NKREDLFY">     1</i>
   <i type="int" name="NKREDLFZ">     1</i>
   <i type="int" name="MAXMEM">  2800</i>
   <i type="int" name="TELESCOPE">     0</i>
   <i type="int" name="NTAUPAR">    -1</i>
   <i type="int" name="NOMEGAPAR">    -1</i>
   <i name="DAMP_NEWTON">      0.80000001</i>
   <i name="LAMBDA">      1.00000000</i>
  </separator>
  <separator name="External order field" >
   <i name="OFIELD_KAPPA">      0.00000000</i>
   <v name="OFIELD_K">      0.00000000      0.00000000      0.00000000</v>
   <i name="OFIELD_Q6_NEAR">      0.00000000</i>
   <i name="OFIELD_Q6_FAR">      0.00000000</i>
   <i name="OFIELD_A">      0.00000000</i>
  </separator>
  <separator name="optional k-points parameters" >
   <i type="int" name="KPOINTS_OPT_MODE">     1</i>
   <i type="logical" name="LKPOINTS_OPT"> F  </i>
  </separator>
 </parameters>
 <atominfo>
  <atoms>       2 </atoms>
  <types>       1 </types>
  <array name="atoms" >
   <dimension dim="1">ion</dimension>
   <field type="string">element</field>
   <field type="int">atomtype</field>
   <set>
    <rc><c>Si</c><c>   1</c></rc>
    <rc><c>Si</c><c>   1</c></rc>
   </set>
  </array>
  <array name="atomtypes" >
   <dimension dim="1">type</dimension>
   <field type="int">atomspertype</field>
   <field type="string">element</field>
   <field>mass</field>
   <field>valence</field>
   <field type="string">pseudopotential</field>
   <set>
    <rc><c>   2</c><c>Si</c><c>     28.08500000</c><c>      4.00000000</c><c>  PAW_PBE Si 05Jan2001                  </c></rc>
   </set>
  </array>
 </atominfo>
 <structure name="initialpos" >
  <crystal>
   <varray name="basis" >
    <v>       0.00000000       2.60000000       2.60000000 </v>
    <v>       2.60000000       0.00000000       2.60000000 </v>
    <v>       2.60000000       2.60000000       0.00000000 </v>
   </varray>
   <i name="volume">     35.15200000 </i>
   <varray name="rec_basis" >
    <v>      -0.19230769       0.19230769       0.19230769 </v>
    <v>       0.19230769      -0.19230769       0.19230769 </v>
    <v>       0.19230769       0.19230769      -0.19230769 </v>
   </varray>
  </crystal>
  <varray name="positions" >
   <v>       0.87500000       0.87500000       0.87500000 </v>
   <v>       0.12500000       0.12500000       0.12500000 </v>
  </varray>
 </structure>
 <calculation>
  <scstep>
   <time name="dav">    0.07    0.07</time>
   <time name="total">    0.07    0.08</time>
   <energy>
    <i name="alphaZ">      3.83057929 </i>
    <i name="ewald">   -238.67306545 </i>
    <i name="hartreedc">     -9.14047030 </i>
    <i name="XCdc">    -18.07110313 </i>
    <i name="pawpsdc">    176.24759923 </i>
    <i name="pawaedc">   -141.06103558 </i>
    <i name="eentropy">     -0.00390570 </i>
    <i name="bandstr">     18.34215045 </i>
    <i name="atom">    206.12155316 </i>
    <i name="e_fr_energy">     -2.40769804 </i>
    <i name="e_wo_entrp">     -2.40379234 </i>
    <i name="e_0_energy">     -2.40574519 </i>
   </energy>
  </scstep>
  <scstep>
   <time name="dav">    0.11    0.11</time>
   <time name="total">    0.11    0.11</time>
   <energy>
    <i name="e_fr_energy">    -10.72830432 </i>
    <i name="e_wo_entrp">    -10.72830431 </i>
    <i name="e_0_energy">    -10.72830432 </i>
   </energy>
  </scstep>
  <scstep>
   <time name="dav">    0.08    0.08</time>
   <time name="total">    0.08    0.08</time>
   <energy>
    <i name="e_fr_energy">    -10.79415325 </i>
    <i name="e_wo_entrp">    -10.79415325 </i>
    <i name="e_0_energy">    -10.79415325 </i>
   </energy>
  </scstep>
  <scstep>
   <time name="dav">    0.11    0.11</time>
   <time name="total">    0.11    0.11</time>
   <energy>
    <i name="e_fr_energy">    -10.79433380 </i>
    <i name="e_wo_entrp">    -10.79433380 </i>
    <i name="e_0_energy">    -10.79433380 </i>
   </energy>
  </scstep>
  <scstep>
   <time name="dav">    0.08    0.08</time>
   <time name="total">    0.08    0.09</time>
   <energy>
    <i name="e_fr_energy">    -10.79433385 </i>
    <i name="e_wo_entrp">    -10.79433385 </i>
    <i name="e_0_energy">    -10.79433385 </i>
   </energy>
  </scstep>
  <scstep>
   <time name="dav">    0.07    0.07</time>
   <time name="total">    0.08    0.08</time>
   <energy>
    <i name="e_fr_energy">    -10.60596215 </i>
    <i name="e_wo_entrp">    -10.60596185 </i>
    <i name="e_0_energy">    -10.60596200 </i>
   </energy>
  </scstep>
  <scstep>
   <time name="dav">    0.08    0.09</time>
   <time name="total">    0.09    0.09</time>
   <energy>
    <i name="e_fr_energy">    -10.52734318 </i>
    <i name="e_wo_entrp">    -10.52729762 </i>
    <i name="e_0_energy">    -10.52732040 </i>
   </energy>
  </scstep>
  <scstep>
   <time name="dav">    0.07    0.07</time>
   <time name="total">    0.08    0.08</time>
   <energy>
    <i name="e_fr_energy">    -10.52803254 </i>
    <i name="e_wo_entrp">    -10.52800379 </i>
    <i name="e_0_energy">    -10.52801817 </i>
   </energy>
  </scstep>
  <scstep>
   <time name="dav">    0.10    0.10</time>
   <time name="total">    0.11    0.11</time>
   <energy>
    <i name="e_fr_energy">    -10.52817627 </i>
    <i name="e_wo_entrp">    -10.52814830 </i>
    <i name="e_0_energy">    -10.52816229 </i>
   </energy>
  </scstep>
  <scstep>
   <time name="dav">    0.05    0.05</time>
   <time name="total">    0.05    0.05</time>
   <energy>
    <i name="alphaZ">      3.83057929 </i>
    <i name="ewald">   -238.67306545 </i>
    <i name="hartreedc">    -13.40177627 </i>
    <i name="XCdc">    -17.33758120 </i>
    <i name="pawpsdc">   1419.45968746 </i>
    <i name="pawaedc">  -1384.63887855 </i>
    <i name="eentropy">     -0.00002718 </i>
    <i name="bandstr">     14.11130853 </i>
    <i name="atom">    206.12155316 </i>
    <i name="e_fr_energy">    -10.52820021 </i>
    <i name="e_wo_entrp">    -10.52817304 </i>
    <i name="e_0_energy">    -10.52818662 </i>
   </energy>
  </scstep>
  <structure>
   <crystal>
    <varray name="basis" >
     <v>       0.00000000       2.60000000       2.60000000 </v>
     <v>       2.60000000       0.00000000       2.60000000 </v>
     <v>       2.60000000       2.60000000       0.00000000 </v>
    </varray>
    <i name="volume">     35.15200000 </i>
    <varray name="rec_basis" >
     <v>      -0.19230769       0.19230769       0.19230769 </v>
     <v>       0.19230769      -0.19230769       0.19230769 </v>
     <v>       0.19230769       0.19230769      -0.19230769 </v>
    </varray>
   </crystal>
   <varray name="positions" >
    <v>       0.87500000       0.87500000       0.87500000 </v>
    <v>       0.12500000       0.12500000       0.12500000 </v>
   </varray>
  </structure>
  <varray name="forces" >
   <v>      -0.00000000      -0.00000000      -0.00000000 </v>
   <v>       0.00000000       0.00000000       0.00000000 </v>
  </varray>
  <varray name="stress" >
   <v>     182.09719518      -0.00000000       0.00000000 </v>
   <v>       0.00000000     182.09719518       0.00000000 </v>
   <v>       0.00000000      -0.00000000     182.09719518 </v>
  </varray>
  <energy>
   <i name="e_fr_energy">    -10.52820021 </i>
   <i name="e_wo_entrp">    -10.52817304 </i>
   <i name="e_0_energy">    -10.52818662 </i>
  </energy>
  <time name="totalsc">    0.99    1.01</time>
  <eigenvalues>
   <array>
    <dimension dim="1">band</dimension>
    <dimension dim="2">kpoint</dimension>
    <dimension dim="3">spin</dimension>
    <field>eigene</field>
    <field>occ</field>
    <set>
     <set comment="spin 1">
      <set comment="kpoint 1">
       <r>   -5.6818    1.0000 </r>
       <r>    7.2374    0.9839 </r>
       <r>    7.2375    0.9839 </r>
       <r>    7.2375    0.9839 </r>
       <r>    9.8497    0.0000 </r>
       <r>    9.8498    0.0000 </r>
       <r>    9.8498    0.0000 </r>
       <r>   12.1660    0.0000 </r>
      </set>
      <set comment="kpoint 2">
       <r>   -5.5606    1.0000 </r>
       <r>    6.2166    1.0000 </r>
       <r>    7.0458    1.0000 </r>
       <r>    7.0459    1.0000 </r>
       <r>   10.0540    0.0000 </r>
       <r>   10.1387    0.0000 </r>
       <r>   10.1388    0.0000 </r>
       <r>   12.7789    0.0000 </r>
      </set>
      <set comment="kpoint 3">
       <r>   -5.2018    1.0000 </r>
       <r>    4.4081    1.0000 </r>
       <r>    6.6633    1.0000 </r>
       <r>    6.6633    1.0000 </r>
       <r>    9.9210    0.0000 </r>
       <r>   10.6568    0.0000 </r>
       <r>   10.6569    0.0000 </r>
       <r>   14.2022    0.0000 </r>
      </set>
      <set comment="kpoint 4">
       <r>   -4.6203    1.0000 </r>
       <r>    2.5838    1.0000 </r>
       <r>    6.3099    1.0000 </r>
       <r>    6.3099    1.0000 </r>
       <r>    9.6277    0.0000 </r>
       <r>   10.8485    0.0000 </r>
       <r>   10.8487    0.0000 </r>
       <r>   14.7200    0.0000 </r>
      </set>
      <set comment="kpoint 5">
       <r>   -3.8650    1.0000 </r>
       <r>    0.9594    1.0000 </r>
       <r>    6.0623    1.0000 </r>
       <r>    6.0624    1.0000 </r>
       <r>    9.3912    0.0000 </r>
       <r>   10.6911    0.0000 </r>
       <r>   10.6912    0.0000 </r>
       <r>   15.3914    0.0000 </r>
      </set>
      <set comment="kpoint 6">
       <r>   -3.1376    1.0000 </r>
       <r>   -0.2122    1.0000 </r>
       <r>    5.9372    1.0000 </r>
       <r>    5.9372    1.0000 </r>
       <r>    9.2635    0.0000 </r>
       <r>   10.5287    0.0000 </r>
       <r>   10.5289    0.0000 </r>
       <r>   15.1495    0.0000 </r>
      </set>
      <set comment="kpoint 7">
       <r>   -5.5201    1.0000 </r>
       <r>    6.5195    1.0000 </r>
       <r>    6.6578    1.0000 </r>
       <r>    6.6578    1.0000 </r>
       <r>    9.4926    0.0000 </r>
       <r>   10.6353    0.0000 </r>
       <r>   10.6354    0.0000 </r>
       <r>   12.7075    0.0000 </r>
      </set>
      <set comment="kpoint 8">
       <r>   -5.2399    1.0000 </r>
       <r>    4.9985    1.0000 </r>
       <r>    6.2082    1.0000 </r>
       <r>    6.4900    1.0000 </r>
       <r>    9.5507    0.0000 </r>
       <r>   10.9319    0.0000 </r>
       <r>   11.2969    0.0000 </r>
       <r>   12.7237    0.0000 </r>
      </set>
      <set comment="kpoint 9">
       <r>   -4.7304    1.0000 </r>
       <r>    3.2060    1.0000 </r>
       <r>    5.8581    1.0000 </r>
       <r>    6.0857    1.0000 </r>
       <r>    9.8058    0.0000 </r>
       <r>   10.8754    0.0000 </r>
       <r>   11.6230    0.0000 </r>
       <r>   12.7235    0.0000 </r>
      </set>
      <set comment="kpoint 10">
       <r>   -4.0240    1.0000 </r>
       <r>    1.5235    1.0000 </r>
       <r>    5.6609    1.0000 </r>
       <r>    5.6653    1.0000 </r>
       <r>    9.7571    0.0000 </r>
       <r>   10.7242    0.0000 </r>
       <r>   11.4468    0.0000 </r>
       <r>   13.6177    0.0000 </r>
      </set>
      <set comment="kpoint 11">
       <r>   -3.2405    1.0000 </r>
       <r>    0.1628    1.0000 </r>
       <r>    5.3302    1.0000 </r>
       <r>    5.6287    1.0000 </r>
       <r>    9.6694    0.0000 </r>
       <r>   10.5817    0.0000 </r>
       <r>   11.1227    0.0000 </r>
       <r>   15.0050    0.0000 </r>
      </set>
      <set comment="kpoint 12">
       <r>   -2.9077    1.0000 </r>
       <r>   -0.3152    1.0000 </r>
       <r>    5.1198    1.0000 </r>
       <r>    5.7543    1.0000 </r>
       <r>    9.7029    0.0000 </r>
       <r>   10.5858    0.0000 </r>
       <r>   10.8974    0.0000 </r>
       <r>   15.6294    0.0000 </r>
      </set>
      <set comment="kpoint 13">
       <r>   -3.4942    1.0000 </r>
       <r>    0.5643    1.0000 </r>
       <r>    5.0620    1.0000 </r>
       <r>    6.0169    1.0000 </r>
       <r>    9.8598    0.0000 </r>
       <r>   10.7723    0.0000 </r>
       <r>   10.8312    0.0000 </r>
       <r>   15.4700    0.0000 </r>
      </set>
      <set comment="kpoint 14">
       <r>   -4.2787    1.0000 </r>
       <r>    2.0647    1.0000 </r>
       <r>    5.1741    1.0000 </r>
       <r>    6.3827    1.0000 </r>
       <r>   10.0993    0.0000 </r>
       <r>   10.8329    0.0000 </r>
       <r>   11.0529    0.0000 </r>
       <r>   14.1362    0.0000 </r>
      </set>
      <set comment="kpoint 15">
       <r>   -4.9254    1.0000 </r>
       <r>    3.7929    1.0000 </r>
       <r>    5.4742    1.0000 </r>
       <r>    6.7908    1.0000 </r>
       <r>   10.3715    0.0000 </r>
       <r>   10.6070    0.0000 </r>
       <r>   11.0510    0.0000 </r>
       <r>   13.5831    0.0000 </r>
      </set>
      <set comment="kpoint 16">
       <r>   -5.3602    1.0000 </r>
       <r>    5.4129    1.0000 </r>
       <r>    6.0762    1.0000 </r>
       <r>    7.0940    1.0000 </r>
       <r>   10.1770    0.0000 </r>
       <r>   10.4227    0.0000 </r>
       <r>   10.5714    0.0000 </r>
       <r>   13.3757    0.0000 </r>
      </set>
      <set comment="kpoint 17">
       <r>   -5.0386    1.0000 </r>
       <r>    5.0143    1.0000 </r>
       <r>    5.7131    1.0000 </r>
       <r>    5.7132    1.0000 </r>
       <r>    8.7564    0.0000 </r>
       <r>   11.5696    0.0000 </r>
       <r>   12.1576    0.0000 </r>
       <r>   12.1577    0.0000 </r>
      </set>
      <set comment="kpoint 18">
       <r>   -4.6047    1.0000 </r>
       <r>    3.6882    1.0000 </r>
       <r>    5.2991    1.0000 </r>
       <r>    5.3315    1.0000 </r>
       <r>    8.8173    0.0000 </r>
       <r>   10.9809    0.0000 </r>
       <r>   12.5277    0.0000 </r>
       <r>   12.7736    0.0000 </r>
      </set>
      <set comment="kpoint 19">
       <r>   -3.9594    1.0000 </r>
       <r>    2.1212    1.0000 </r>
       <r>    4.7291    1.0000 </r>
       <r>    5.1191    1.0000 </r>
       <r>    9.0511    0.0000 </r>
       <r>   11.3537    0.0000 </r>
       <r>   12.4266    0.0000 </r>
       <r>   12.7604    0.0000 </r>
      </set>
      <set comment="kpoint 20">
       <r>   -3.1754    1.0000 </r>
       <r>    0.7006    1.0000 </r>
       <r>    4.2012    1.0000 </r>
       <r>    5.0916    1.0000 </r>
       <r>    9.0798    0.0000 </r>
       <r>   12.0296    0.0000 </r>
       <r>   12.3978    0.0000 </r>
       <r>   12.9013    0.0000 </r>
      </set>
      <set comment="kpoint 21">
       <r>   -2.5901    1.0000 </r>
       <r>   -0.1435    1.0000 </r>
       <r>    3.8173    1.0000 </r>
       <r>    5.2477    1.0000 </r>
       <r>    9.2140    0.0000 </r>
       <r>   11.9492    0.0000 </r>
       <r>   12.0479    0.0000 </r>
       <r>   14.6247    0.0000 </r>
      </set>
      <set comment="kpoint 22">
       <r>   -2.9370    1.0000 </r>
       <r>    0.3474    1.0000 </r>
       <r>    3.6231    1.0000 </r>
       <r>    5.5701    1.0000 </r>
       <r>    9.5471    0.0000 </r>
       <r>   11.8172    0.0000 </r>
       <r>   11.9080    0.0000 </r>
       <r>   15.3061    0.0000 </r>
      </set>
      <set comment="kpoint 23">
       <r>   -3.7209    1.0000 </r>
       <r>    1.6438    1.0000 </r>
       <r>    3.6700    1.0000 </r>
       <r>    6.0158    1.0000 </r>
       <r>   10.0375    0.0000 </r>
       <r>   11.6316    0.0000 </r>
       <r>   11.8980    0.0000 </r>
       <r>   13.8097    0.0000 </r>
      </set>
      <set comment="kpoint 24">
       <r>   -4.4214    1.0000 </r>
       <r>    2.9959    1.0000 </r>
       <r>    4.1637    1.0000 </r>
       <r>    6.4918    1.0000 </r>
       <r>   10.5262    0.0000 </r>
       <r>   11.1571    0.0000 </r>
       <r>   11.5481    0.0000 </r>
       <r>   13.2497    0.0000 </r>
      </set>
      <set comment="kpoint 25">
       <r>   -4.2461    1.0000 </r>
       <r>    3.2821    1.0000 </r>
       <r>    4.9069    1.0000 </r>
       <r>    4.9069    1.0000 </r>
       <r>    8.0780    0.0000 </r>
       <r>    9.8901    0.0000 </r>
       <r>   13.8940    0.0000 </r>
       <r>   13.8941    0.0000 </r>
      </set>
      <set comment="kpoint 26">
       <r>   -3.6687    1.0000 </r>
       <r>    2.2139    1.0000 </r>
       <r>    4.2927    1.0000 </r>
       <r>    4.6513    1.0000 </r>
       <r>    8.2117    0.0000 </r>
       <r>    9.5861    0.0000 </r>
       <r>   14.3084    0.0000 </r>
       <r>   14.3331    0.0000 </r>
      </set>
      <set comment="kpoint 27">
       <r>   -2.9167    1.0000 </r>
       <r>    1.0367    1.0000 </r>
       <r>    3.4660    1.0000 </r>
       <r>    4.5870    1.0000 </r>
       <r>    8.3788    0.0000 </r>
       <r>   10.4892    0.0000 </r>
       <r>   14.0789    0.0000 </r>
       <r>   14.2231    0.0000 </r>
      </set>
      <set comment="kpoint 28">
       <r>   -2.1884    1.0000 </r>
       <r>    0.0861    1.0000 </r>
       <r>    2.8196    1.0000 </r>
       <r>    4.7193    1.0000 </r>
       <r>    8.5260    0.0000 </r>
       <r>   12.0962    0.0000 </r>
       <r>   13.6852    0.0000 </r>
       <r>   14.1074    0.0000 </r>
      </set>
      <set comment="kpoint 29">
       <r>   -2.2445    1.0000 </r>
       <r>    0.1720    1.0000 </r>
       <r>    2.4794    1.0000 </r>
       <r>    5.0342    1.0000 </r>
       <r>    8.8732    0.0000 </r>
       <r>   13.3319    0.0000 </r>
       <r>   13.3377    0.0000 </r>
       <r>   14.6666    0.0000 </r>
      </set>
      <set comment="kpoint 30">
       <r>   -2.9880    1.0000 </r>
       <r>    1.0514    1.0000 </r>
       <r>    2.6399    1.0000 </r>
       <r>    5.4956    1.0000 </r>
       <r>    9.4161    0.0000 </r>
       <r>   12.7685    0.0000 </r>
       <r>   13.1076    0.0000 </r>
       <r>   13.9636    0.0000 </r>
      </set>
      <set comment="kpoint 31">
       <r>   -3.1590    1.0000 </r>
       <r>    1.4967    1.0000 </r>
       <r>    4.3436    1.0000 </r>
       <r>    4.3436    1.0000 </r>
       <r>    7.6478    0.0001 </r>
       <r>    8.6325    0.0000 </r>
       <r>   15.7266    0.0000 </r>
       <r>   15.7266    0.0000 </r>
      </set>
      <set comment="kpoint 32">
       <r>   -2.4566    1.0000 </r>
       <r>    0.5913    1.0000 </r>
       <r>    3.7045    1.0000 </r>
       <r>    4.2283    1.0000 </r>
       <r>    7.8485    0.0000 </r>
       <r>    8.7146    0.0000 </r>
       <r>   15.9876    0.0000 </r>
       <r>   16.1770    0.0000 </r>
      </set>
      <set comment="kpoint 33">
       <r>   -1.6743    1.0000 </r>
       <r>   -0.2141    1.0000 </r>
       <r>    2.7767    1.0000 </r>
       <r>    4.3134    1.0000 </r>
       <r>    8.0105    0.0000 </r>
       <r>   10.0835    0.0000 </r>
       <r>   15.6351    0.0000 </r>
       <r>   16.0809    0.0000 </r>
      </set>
      <set comment="kpoint 34">
       <r>   -1.5599    1.0000 </r>
       <r>   -0.2810    1.0000 </r>
       <r>    2.2034    1.0000 </r>
       <r>    4.5917    1.0000 </r>
       <r>    8.3338    0.0000 </r>
       <r>   11.9527    0.0000 </r>
       <r>   14.9854    0.0000 </r>
       <r>   15.6455    0.0000 </r>
      </set>
      <set comment="kpoint 35">
       <r>   -1.8050    1.0000 </r>
       <r>   -0.2305    1.0000 </r>
       <r>    4.0565    1.0000 </r>
       <r>    4.0565    1.0000 </r>
       <r>    7.5593    0.0080 </r>
       <r>    7.8692    0.0000 </r>
       <r>   17.6485    0.0000 </r>
       <r>   17.6485    0.0000 </r>
      </set>
      <set comment="kpoint 36">
       <r>   -1.0645    1.0000 </r>
       <r>   -0.9570    1.0000 </r>
       <r>    3.5153    1.0000 </r>
       <r>    4.0856    1.0000 </r>
       <r>    7.7370    0.0000 </r>
       <r>    8.4128    0.0000 </r>
       <r>   17.6317    0.0000 </r>
       <r>   18.0034    0.0000 </r>
      </set>
      <set comment="kpoint 37">
       <r>   -4.8831    1.0000 </r>
       <r>    4.1365    1.0000 </r>
       <r>    5.1246    1.0000 </r>
       <r>    6.3472    1.0000 </r>
       <r>    9.6030    0.0000 </r>
       <r>   11.3555    0.0000 </r>
       <r>   11.9188    0.0000 </r>
       <r>   12.0711    0.0000 </r>
      </set>
      <set comment="kpoint 38">
       <r>   -4.3050    1.0000 </r>
       <r>    2.6538    1.0000 </r>
       <r>    4.5382    1.0000 </r>
       <r>    5.9753    1.0000 </r>
       <r>    9.9698    0.0000 </r>
       <r>   11.1509    0.0000 </r>
       <r>   12.1114    0.0000 </r>
       <r>   12.3598    0.0000 </r>
      </set>
      <set comment="kpoint 39">
       <r>   -3.5524    1.0000 </r>
       <r>    1.1240    1.0000 </r>
       <r>    4.2972    1.0000 </r>
       <r>    5.5696    1.0000 </r>
       <r>   10.0594    0.0000 </r>
       <r>   10.7247    0.0000 </r>
       <r>   12.3267    0.0000 </r>
       <r>   13.2402    0.0000 </r>
      </set>
      <set comment="kpoint 40">
       <r>   -2.8222    1.0000 </r>
       <r>   -0.0193    1.0000 </r>
       <r>    4.2142    1.0000 </r>
       <r>    5.3159    1.0000 </r>
       <r>   10.1346    0.0000 </r>
       <r>   10.3574    0.0000 </r>
       <r>   12.2310    0.0000 </r>
       <r>   14.8908    0.0000 </r>
      </set>
      <set comment="kpoint 41">
       <r>   -4.0999    1.0000 </r>
       <r>    2.8095    1.0000 </r>
       <r>    4.3205    1.0000 </r>
       <r>    5.1702    1.0000 </r>
       <r>    8.9562    0.0000 </r>
       <r>   10.4717    0.0000 </r>
       <r>   12.6619    0.0000 </r>
       <r>   13.7523    0.0000 </r>
      </set>
      <set comment="kpoint 42">
       <r>   -3.3989    1.0000 </r>
       <r>    1.5848    1.0000 </r>
       <r>    3.7018    1.0000 </r>
       <r>    4.7897    1.0000 </r>
       <r>    9.3197    0.0000 </r>
       <r>   10.9342    0.0000 </r>
       <r>   12.3318    0.0000 </r>
       <r>   14.1691    0.0000 </r>
      </set>
      <set comment="kpoint 43">
       <r>   -2.6147    1.0000 </r>
       <r>    0.4013    1.0000 </r>
       <r>    3.3011    1.0000 </r>
       <r>    4.6021    1.0000 </r>
       <r>    9.4431    0.0000 </r>
       <r>   11.6679    0.0000 </r>
       <r>   12.6550    0.0000 </r>
       <r>   14.1458    0.0000 </r>
      </set>
      <set comment="kpoint 44">
       <r>   -2.2862    1.0000 </r>
       <r>   -0.0261    1.0000 </r>
       <r>    3.0380    1.0000 </r>
       <r>    4.7096    1.0000 </r>
       <r>    9.6904    0.0000 </r>
       <r>   11.4287    0.0000 </r>
       <r>   13.8404    0.0000 </r>
       <r>   14.5686    0.0000 </r>
      </set>
      <set comment="kpoint 45">
       <r>   -2.8921    1.0000 </r>
       <r>    0.8006    1.0000 </r>
       <r>    2.9882    1.0000 </r>
       <r>    5.0588    1.0000 </r>
       <r>   10.1253    0.0000 </r>
       <r>   11.2152    0.0000 </r>
       <r>   13.1099    0.0000 </r>
       <r>   13.8484    0.0000 </r>
      </set>
      <set comment="kpoint 46">
       <r>   -3.6701    1.0000 </r>
       <r>    1.9267    1.0000 </r>
       <r>    3.3754    1.0000 </r>
       <r>    5.5466    1.0000 </r>
       <r>   10.6847    0.0000 </r>
       <r>   10.7691    0.0000 </r>
       <r>   12.0690    0.0000 </r>
       <r>   13.3925    0.0000 </r>
      </set>
      <set comment="kpoint 47">
       <r>   -3.0304    1.0000 </r>
       <r>    1.3453    1.0000 </r>
       <r>    3.7848    1.0000 </r>
       <r>    4.2215    1.0000 </r>
       <r>    8.5294    0.0000 </r>
       <r>    9.3318    0.0000 </r>
       <r>   14.1356    0.0000 </r>
       <r>   15.6811    0.0000 </r>
      </set>
      <set comment="kpoint 48">
       <r>   -2.2499    1.0000 </r>
       <r>    0.4248    1.0000 </r>
       <r>    3.0277    1.0000 </r>
       <r>    4.0142    1.0000 </r>
       <r>    8.8657    0.0000 </r>
       <r>   10.3023    0.0000 </r>
       <r>   13.7261    0.0000 </r>
       <r>   16.1002    0.0000 </r>
      </set>
      <set comment="kpoint 49">
       <r>   -1.6808    1.0000 </r>
       <r>   -0.1684    1.0000 </r>
       <r>    2.4147    1.0000 </r>
       <r>    4.1531    1.0000 </r>
       <r>    9.1026    0.0000 </r>
       <r>   11.9925    0.0000 </r>
       <r>   13.4161    0.0000 </r>
       <r>   15.1187    0.0000 </r>
      </set>
      <set comment="kpoint 50">
       <r>   -2.1271    1.0000 </r>
       <r>    0.2811    1.0000 </r>
       <r>    2.2923    1.0000 </r>
       <r>    4.5270    1.0000 </r>
       <r>    9.5309    0.0000 </r>
       <r>   12.5389    0.0000 </r>
       <r>   13.4092    0.0000 </r>
       <r>   14.3471    0.0000 </r>
      </set>
      <set comment="kpoint 51">
       <r>   -1.7124    1.0000 </r>
       <r>   -0.2138    1.0000 </r>
       <r>    3.5639    1.0000 </r>
       <r>    3.6936    1.0000 </r>
       <r>    8.4116    0.0000 </r>
       <r>    8.6607    0.0000 </r>
       <r>   15.7851    0.0000 </r>
       <r>   17.6228    0.0000 </r>
      </set>
      <set comment="kpoint 52">
       <r>   -1.1059    1.0000 </r>
       <r>   -0.7257    1.0000 </r>
       <r>    2.7607    1.0000 </r>
       <r>    3.7808    1.0000 </r>
       <r>    8.7052    0.0000 </r>
       <r>   10.0997    0.0000 </r>
       <r>   15.2830    0.0000 </r>
       <r>   15.5061    0.0000 </r>
      </set>
      <set comment="kpoint 53">
       <r>   -2.6638    1.0000 </r>
       <r>    0.8896    1.0000 </r>
       <r>    2.9006    1.0000 </r>
       <r>    4.2304    1.0000 </r>
       <r>   10.3791    0.0000 </r>
       <r>   10.8581    0.0000 </r>
       <r>   11.9539    0.0000 </r>
       <r>   15.5053    0.0000 </r>
      </set>
      <set comment="kpoint 54">
       <r>   -1.9211    1.0000 </r>
       <r>    0.0868    1.0000 </r>
       <r>    2.5862    1.0000 </r>
       <r>    3.8510    1.0000 </r>
       <r>   10.6509    0.0000 </r>
       <r>   11.2334    0.0000 </r>
       <r>   12.6344    0.0000 </r>
       <r>   14.6821    0.0000 </r>
      </set>
      <set comment="kpoint 55">
       <r>   -1.4761    1.0000 </r>
       <r>   -0.2413    1.0000 </r>
       <r>    2.8222    1.0000 </r>
       <r>    3.2448    1.0000 </r>
       <r>   10.2453    0.0000 </r>
       <r>   10.4141    0.0000 </r>
       <r>   13.2678    0.0000 </r>
       <r>   14.9672    0.0000 </r>
      </set>
      <set comment="kpoint 56">
       <r>   -1.2270    1.0000 </r>
       <r>   -0.4344    1.0000 </r>
       <r>    2.4787    1.0000 </r>
       <r>    3.2924    1.0000 </r>
       <r>   10.5887    0.0000 </r>
       <r>   11.8999    0.0000 </r>
       <r>   13.0005    0.0000 </r>
       <r>   13.1262    0.0000 </r>
      </set>
     </set>
    </set>
   </array>
  </eigenvalues>
  <separator name="orbital magnetization" >
   <v name="MAGDIPOLOUT">      0.00000000      0.00000000      0.00000000</v>
  </separator>
  <dos>
   <i name="efermi">      7.38885237 </i>
   <total>
    <array>
     <dimension dim="1">gridpoints</dimension>
     <dimension dim="2">spin</dimension>
     <field>energy</field>
     <field>total</field>
     <field>integrated</field>
     <set>
      <set comment="spin 1">
       <r>    -6.8660     0.0000     0.0000 </r>
       <r>    -6.7792     0.0000     0.0000 </r>
       <r>    -6.6923     0.0000     0.0000 </r>
       <r>    -6.6055     0.0000     0.0000 </r>
       <r>    -6.5187     0.0000     0.0000 </r>
       <r>    -6.4318     0.0000     0.0000 </r>
       <r>    -6.3450     0.0000     0.0000 </r>
       <r>    -6.2581     0.0000     0.0000 </r>
       <r>    -6.1713     0.0000     0.0000 </r>
       <r>    -6.0844     0.0000     0.0000 </r>
       <r>    -5.9976     0.0000     0.0000 </r>
       <r>    -5.9107     0.0000     0.0000 </r>
       <r>    -5.8239     0.0004     0.0000 </r>
       <r>    -5.7370     0.0043     0.0004 </r>
       <r>    -5.6502     0.0245     0.0025 </r>
       <r>    -5.5634     0.0828     0.0097 </r>
       <r>    -5.4765     0.1139     0.0196 </r>
       <r>    -5.3897     0.1070     0.0289 </r>
       <r>    -5.3028     0.1789     0.0445 </r>
       <r>    -5.2160     0.2725     0.0681 </r>
       <r>    -5.1291     0.2023     0.0857 </r>
       <r>    -5.0423     0.1067     0.0950 </r>
       <r>    -4.9554     0.2221     0.1142 </r>
       <r>    -4.8686     0.3881     0.1479 </r>
       <r>    -4.7817     0.3125     0.1751 </r>
       <r>    -4.6949     0.2868     0.2000 </r>
       <r>    -4.6081     0.3295     0.2286 </r>
       <r>    -4.5212     0.2480     0.2502 </r>
       <r>    -4.4344     0.1625     0.2643 </r>
       <r>    -4.3475     0.3618     0.2957 </r>
       <r>    -4.2607     0.6323     0.3506 </r>
       <r>    -4.1738     0.4422     0.3890 </r>
       <r>    -4.0870     0.3286     0.4175 </r>
       <r>    -4.0001     0.4393     0.4557 </r>
       <r>    -3.9133     0.3827     0.4889 </r>
       <r>    -3.8264     0.2206     0.5081 </r>
       <r>    -3.7396     0.3104     0.5350 </r>
       <r>    -3.6528     0.6126     0.5882 </r>
       <r>    -3.5659     0.6966     0.6487 </r>
       <r>    -3.4791     0.6937     0.7090 </r>
       <r>    -3.3922     0.6060     0.7616 </r>
       <r>    -3.3054     0.4301     0.7990 </r>
       <r>    -3.2185     0.3938     0.8332 </r>
       <r>    -3.1317     0.4668     0.8737 </r>
       <r>    -3.0448     0.4497     0.9128 </r>
       <r>    -2.9580     0.7817     0.9807 </r>
       <r>    -2.8711     1.2314     1.0876 </r>
       <r>    -2.7843     0.9580     1.1708 </r>
       <r>    -2.6975     0.5317     1.2170 </r>
       <r>    -2.6106     0.6979     1.2776 </r>
       <r>    -2.5238     0.6469     1.3338 </r>
       <r>    -2.4369     0.3534     1.3645 </r>
       <r>    -2.3501     0.3778     1.3973 </r>
       <r>    -2.2632     0.8861     1.4742 </r>
       <r>    -2.1764     1.0605     1.5663 </r>
       <r>    -2.0895     0.5694     1.6158 </r>
       <r>    -2.0027     0.2529     1.6377 </r>
       <r>    -1.9158     0.3615     1.6691 </r>
       <r>    -1.8290     0.3836     1.7024 </r>
       <r>    -1.7421     0.4514     1.7416 </r>
       <r>    -1.6553     0.7839     1.8097 </r>
       <r>    -1.5685     0.5804     1.8601 </r>
       <r>    -1.4816     0.3205     1.8880 </r>
       <r>    -1.3948     0.2016     1.9055 </r>
       <r>    -1.3079     0.1001     1.9142 </r>
       <r>    -1.2211     0.1960     1.9312 </r>
       <r>    -1.1342     0.3081     1.9579 </r>
       <r>    -1.0474     0.3342     1.9870 </r>
       <r>    -0.9605     0.2269     2.0067 </r>
       <r>    -0.8737     0.1126     2.0165 </r>
       <r>    -0.7868     0.0969     2.0249 </r>
       <r>    -0.7000     0.1878     2.0412 </r>
       <r>    -0.6132     0.1279     2.0523 </r>
       <r>    -0.5263     0.0606     2.0576 </r>
       <r>    -0.4395     0.1768     2.0729 </r>
       <r>    -0.3526     0.3601     2.1042 </r>
       <r>    -0.2658     0.7660     2.1707 </r>
       <r>    -0.1789     1.2691     2.2809 </r>
       <r>    -0.0921     1.1731     2.3828 </r>
       <r>    -0.0052     1.0854     2.4771 </r>
       <r>     0.0816     1.1283     2.5751 </r>
       <r>     0.1685     0.9667     2.6590 </r>
       <r>     0.2553     0.6555     2.7159 </r>
       <r>     0.3421     0.6808     2.7751 </r>
       <r>     0.4290     0.9714     2.8594 </r>
       <r>     0.5158     0.7616     2.9256 </r>
       <r>     0.6027     0.5234     2.9710 </r>
       <r>     0.6895     0.4541     3.0104 </r>
       <r>     0.7764     0.5005     3.0539 </r>
       <r>     0.8632     0.5671     3.1032 </r>
       <r>     0.9501     0.4460     3.1419 </r>
       <r>     1.0369     0.4636     3.1822 </r>
       <r>     1.1238     0.5999     3.2343 </r>
       <r>     1.2106     0.4095     3.2698 </r>
       <r>     1.2974     0.1834     3.2858 </r>
       <r>     1.3843     0.2143     3.3044 </r>
       <r>     1.4711     0.2677     3.3276 </r>
       <r>     1.5580     0.5431     3.3748 </r>
       <r>     1.6448     0.6677     3.4328 </r>
       <r>     1.7317     0.3297     3.4614 </r>
       <r>     1.8185     0.0827     3.4686 </r>
       <r>     1.9054     0.1408     3.4808 </r>
       <r>     1.9922     0.2561     3.5030 </r>
       <r>     2.0791     0.3648     3.5347 </r>
       <r>     2.1659     0.5004     3.5782 </r>
       <r>     2.2527     0.5267     3.6239 </r>
       <r>     2.3396     0.4858     3.6661 </r>
       <r>     2.4264     0.6457     3.7222 </r>
       <r>     2.5133     0.8473     3.7958 </r>
       <r>     2.6001     0.9309     3.8766 </r>
       <r>     2.6870     0.9834     3.9620 </r>
       <r>     2.7738     0.9930     4.0483 </r>
       <r>     2.8607     1.0781     4.1419 </r>
       <r>     2.9475     0.9919     4.2280 </r>
       <r>     3.0344     1.2743     4.3387 </r>
       <r>     3.1212     0.9641     4.4224 </r>
       <r>     3.2080     0.6072     4.4752 </r>
       <r>     3.2949     0.9320     4.5561 </r>
       <r>     3.3817     0.8862     4.6331 </r>
       <r>     3.4686     0.5681     4.6824 </r>
       <r>     3.5554     0.5837     4.7331 </r>
       <r>     3.6423     1.0026     4.8202 </r>
       <r>     3.7291     1.6364     4.9623 </r>
       <r>     3.8160     1.6409     5.1048 </r>
       <r>     3.9028     1.0572     5.1966 </r>
       <r>     3.9897     0.6033     5.2490 </r>
       <r>     4.0765     0.8238     5.3205 </r>
       <r>     4.1633     1.4531     5.4467 </r>
       <r>     4.2502     2.1174     5.6306 </r>
       <r>     4.3370     1.8474     5.7910 </r>
       <r>     4.4239     0.9206     5.8710 </r>
       <r>     4.5107     0.7238     5.9339 </r>
       <r>     4.5976     1.3007     6.0468 </r>
       <r>     4.6844     1.4759     6.1750 </r>
       <r>     4.7713     1.3134     6.2891 </r>
       <r>     4.8581     0.7825     6.3570 </r>
       <r>     4.9450     0.4788     6.3986 </r>
       <r>     5.0318     1.0405     6.4890 </r>
       <r>     5.1186     1.7331     6.6395 </r>
       <r>     5.2055     1.5107     6.7707 </r>
       <r>     5.2923     1.2381     6.8782 </r>
       <r>     5.3792     1.1746     6.9802 </r>
       <r>     5.4660     0.8320     7.0525 </r>
       <r>     5.5529     1.0392     7.1427 </r>
       <r>     5.6397     1.2723     7.2532 </r>
       <r>     5.7266     0.9701     7.3374 </r>
       <r>     5.8134     0.5680     7.3868 </r>
       <r>     5.9003     0.5270     7.4325 </r>
       <r>     5.9871     0.9165     7.5121 </r>
       <r>     6.0739     1.0990     7.6076 </r>
       <r>     6.1608     0.7084     7.6691 </r>
       <r>     6.2476     0.4640     7.7094 </r>
       <r>     6.3345     0.5198     7.7546 </r>
       <r>     6.4213     0.5750     7.8045 </r>
       <r>     6.5082     0.4927     7.8473 </r>
       <r>     6.5950     0.3499     7.8777 </r>
       <r>     6.6819     0.2936     7.9032 </r>
       <r>     6.7687     0.2892     7.9283 </r>
       <r>     6.8556     0.2144     7.9469 </r>
       <r>     6.9424     0.0916     7.9549 </r>
       <r>     7.0292     0.1335     7.9664 </r>
       <r>     7.1161     0.2140     7.9850 </r>
       <r>     7.2029     0.1203     7.9955 </r>
       <r>     7.2898     0.0396     7.9989 </r>
       <r>     7.3766     0.0118     7.9999 </r>
       <r>     7.4635     0.0103     8.0008 </r>
       <r>     7.5503     0.0467     8.0049 </r>
       <r>     7.6372     0.0962     8.0132 </r>
       <r>     7.7240     0.1466     8.0260 </r>
       <r>     7.8109     0.2300     8.0459 </r>
       <r>     7.8977     0.2897     8.0711 </r>
       <r>     7.9846     0.2570     8.0934 </r>
       <r>     8.0714     0.2504     8.1152 </r>
       <r>     8.1582     0.2016     8.1327 </r>
       <r>     8.2451     0.2473     8.1542 </r>
       <r>     8.3319     0.3647     8.1858 </r>
       <r>     8.4188     0.5954     8.2375 </r>
       <r>     8.5056     0.6298     8.2922 </r>
       <r>     8.5925     0.5679     8.3415 </r>
       <r>     8.6793     0.6332     8.3965 </r>
       <r>     8.7662     0.7692     8.4633 </r>
       <r>     8.8530     0.8710     8.5390 </r>
       <r>     8.9399     0.8533     8.6131 </r>
       <r>     9.0267     0.6974     8.6737 </r>
       <r>     9.1135     0.8355     8.7462 </r>
       <r>     9.2004     0.7022     8.8072 </r>
       <r>     9.2872     0.6835     8.8666 </r>
       <r>     9.3741     0.9130     8.9458 </r>
       <r>     9.4609     0.9947     9.0322 </r>
       <r>     9.5478     1.1693     9.1338 </r>
       <r>     9.6346     1.3424     9.2504 </r>
       <r>     9.7215     1.2969     9.3630 </r>
       <r>     9.8083     0.9896     9.4489 </r>
       <r>     9.8952     0.7550     9.5145 </r>
       <r>     9.9820     0.9363     9.5958 </r>
       <r>    10.0688     1.6669     9.7406 </r>
       <r>    10.1557     2.0732     9.9206 </r>
       <r>    10.2425     1.3832    10.0408 </r>
       <r>    10.3294     1.2199    10.1467 </r>
       <r>    10.4162     1.4800    10.2752 </r>
       <r>    10.5031     1.3921    10.3961 </r>
       <r>    10.5899     1.6511    10.5395 </r>
       <r>    10.6768     2.0565    10.7181 </r>
       <r>    10.7636     1.9972    10.8916 </r>
       <r>    10.8505     1.8258    11.0501 </r>
       <r>    10.9373     1.7263    11.2000 </r>
       <r>    11.0241     1.2956    11.3126 </r>
       <r>    11.1110     1.1120    11.4091 </r>
       <r>    11.1978     1.3660    11.5278 </r>
       <r>    11.2847     1.3401    11.6441 </r>
       <r>    11.3715     1.0817    11.7381 </r>
       <r>    11.4584     0.9513    11.8207 </r>
       <r>    11.5452     0.6866    11.8803 </r>
       <r>    11.6321     0.7608    11.9464 </r>
       <r>    11.7189     0.7764    12.0138 </r>
       <r>    11.8058     0.5491    12.0615 </r>
       <r>    11.8926     1.0477    12.1525 </r>
       <r>    11.9794     1.7922    12.3082 </r>
       <r>    12.0663     1.9210    12.4750 </r>
       <r>    12.1531     1.5359    12.6084 </r>
       <r>    12.2400     1.0686    12.7012 </r>
       <r>    12.3268     1.3288    12.8166 </r>
       <r>    12.4137     1.4724    12.9445 </r>
       <r>    12.5005     0.9372    13.0259 </r>
       <r>    12.5874     0.8980    13.1038 </r>
       <r>    12.6742     1.4035    13.2257 </r>
       <r>    12.7611     1.5117    13.3570 </r>
       <r>    12.8479     0.9230    13.4372 </r>
       <r>    12.9347     0.4484    13.4761 </r>
       <r>    13.0216     0.4419    13.5145 </r>
       <r>    13.1084     0.7253    13.5775 </r>
       <r>    13.1953     0.9293    13.6582 </r>
       <r>    13.2821     1.0768    13.7517 </r>
       <r>    13.3690     1.2892    13.8637 </r>
       <r>    13.4558     1.1545    13.9639 </r>
       <r>    13.5427     0.6056    14.0165 </r>
       <r>    13.6295     0.5864    14.0674 </r>
       <r>    13.7164     0.9333    14.1485 </r>
       <r>    13.8032     1.2804    14.2597 </r>
       <r>    13.8900     1.2574    14.3689 </r>
       <r>    13.9769     0.6831    14.4282 </r>
       <r>    14.0637     0.6631    14.4858 </r>
       <r>    14.1506     1.4482    14.6116 </r>
       <r>    14.2374     1.4772    14.7399 </r>
       <r>    14.3243     0.9202    14.8198 </r>
       <r>    14.4111     0.5638    14.8687 </r>
       <r>    14.4980     0.2952    14.8944 </r>
       <r>    14.5848     0.5922    14.9458 </r>
       <r>    14.6717     0.9668    15.0298 </r>
       <r>    14.7585     0.7430    15.0943 </r>
       <r>    14.8453     0.4129    15.1302 </r>
       <r>    14.9322     0.6137    15.1835 </r>
       <r>    15.0190     0.7324    15.2471 </r>
       <r>    15.1059     0.6393    15.3026 </r>
       <r>    15.1927     0.5277    15.3484 </r>
       <r>    15.2796     0.4398    15.3866 </r>
       <r>    15.3664     0.4568    15.4263 </r>
       <r>    15.4533     0.4970    15.4694 </r>
       <r>    15.5401     0.6937    15.5297 </r>
       <r>    15.6270     0.7702    15.5966 </r>
       <r>    15.7138     0.7888    15.6651 </r>
       <r>    15.8006     0.5128    15.7096 </r>
       <r>    15.8875     0.2304    15.7296 </r>
       <r>    15.9743     0.2335    15.7499 </r>
       <r>    16.0612     0.5433    15.7971 </r>
       <r>    16.1480     0.7419    15.8615 </r>
       <r>    16.2349     0.4411    15.8998 </r>
       <r>    16.3217     0.1062    15.9090 </r>
       <r>    16.4086     0.0091    15.9098 </r>
       <r>    16.4954     0.0002    15.9098 </r>
       <r>    16.5823     0.0000    15.9098 </r>
       <r>    16.6691     0.0000    15.9098 </r>
       <r>    16.7559     0.0000    15.9098 </r>
       <r>    16.8428     0.0000    15.9098 </r>
       <r>    16.9296     0.0000    15.9098 </r>
       <r>    17.0165     0.0000    15.9098 </r>
       <r>    17.1033     0.0000    15.9098 </r>
       <r>    17.1902     0.0000    15.9098 </r>
       <r>    17.2770     0.0000    15.9098 </r>
       <r>    17.3639     0.0001    15.9098 </r>
       <r>    17.4507     0.0047    15.9103 </r>
       <r>    17.5376     0.0737    15.9167 </r>
       <r>    17.6244     0.3043    15.9431 </r>
       <r>    17.7113     0.3380    15.9724 </r>
       <r>    17.7981     0.1019    15.9813 </r>
       <r>    17.8849     0.0174    15.9828 </r>
       <r>    17.9718     0.0584    15.9879 </r>
       <r>    18.0586     0.0945    15.9961 </r>
       <r>    18.1455     0.0405    15.9996 </r>
       <r>    18.2323     0.0045    16.0000 </r>
       <r>    18.3192     0.0001    16.0000 </r>
       <r>    18.4060     0.0000    16.0000 </r>
       <r>    18.4929     0.0000    16.0000 </r>
       <r>    18.5797     0.0000    16.0000 </r>
       <r>    18.6666     0.0000    16.0000 </r>
       <r>    18.7534     0.0000    16.0000 </r>
       <r>    18.8402     0.0000    16.0000 </r>
       <r>    18.9271     0.0000    16.0000 </r>
       <r>    19.0139     0.0000    16.0000 </r>
       <r>    19.1008     0.0000    16.0000 </r>
       <r>    19.1876     0.0000    16.0000 </r>
      </set>
     </set>
    </array>
   </total>
  </dos>
 </calculation>
 <structure name="finalpos" >
  <crystal>
   <varray name="basis" >
    <v>       0.00000000       2.60000000       2.60000000 </v>
    <v>       2.60000000       0.00000000       2.60000000 </v>
    <v>       2.60000000       2.60000000       0.00000000 </v>
   </varray>
   <i name="volume">     35.15200000 </i>
   <varray name="rec_basis" >
    <v>      -0.19230769       0.19230769       0.19230769 </v>
    <v>       0.19230769      -0.19230769       0.19230769 </v>
    <v>       0.19230769       0.19230769      -0.19230769 </v>
   </varray>
  </crystal>
  <varray name="positions" >
   <v>       0.87500000       0.87500000       0.87500000 </v>
   <v>       0.12500000       0.12500000       0.12500000 </v>
  </varray>
 </structure>
</modeling>
