clean (100) Ni surface                  
   3.53000000000000     
     0.500000    0.500000    0.000000
    -0.500000    0.500000    0.000000
     0.000000    0.000000    5.000000
   Ni
     5
Direct
  0.000000  0.000000  0.000000
  0.500000  0.500000  0.100000
  0.000000  0.000000  0.200000
  0.500000  0.500000  0.300210
  0.000000  0.000000  0.395507
 
   20   20  144
 0.15336907010E+04 0.14344678138E+04 0.11715114806E+04 0.83022265284E+03 0.50452628210E+03
 0.25953476001E+03 0.11642233030E+03 0.57463661122E+02 0.41656266798E+02 0.34971850386E+02
 0.33002927064E+02 0.34971850386E+02 0.41656266798E+02 0.57463661122E+02 0.11642233030E+03
 0.25953476001E+03 0.50452628210E+03 0.83022265284E+03 0.11715114806E+04 0.14344678138E+04
 0.14344678138E+04 0.13416537491E+04 0.10954604963E+04 0.77554599325E+03 0.47019609025E+03
 0.24121594423E+03 0.10874811490E+03 0.55271131782E+02 0.40800962721E+02 0.34301679727E+02
 0.32390262255E+02 0.34301679727E+02 0.40800962721E+02 0.55271131782E+02 0.10874811490E+03
 0.24121594423E+03 0.47019609025E+03 0.77554599325E+03 0.10954604963E+04 0.13416537491E+04
 0.11715114806E+04 0.10954604963E+04 0.89331109858E+03 0.63003362253E+03 0.37915178269E+03
 0.19330818796E+03 0.89303575247E+02 0.49900679976E+02 0.38375681531E+02 0.32434957569E+02
 0.30693945767E+02 0.32434957569E+02 0.38375681531E+02 0.49900679976E+02 0.89303575247E+02
 0.19330818796E+03 0.37915178269E+03 0.63003362253E+03 0.89331109858E+03 0.10954604963E+04
 0.83022265284E+03 0.77554599325E+03 0.63003362253E+03 0.44069538082E+03 0.26208196451E+03
 0.13378071886E+03 0.66774642341E+02 0.43792641588E+02 0.34790386320E+02 0.29752752424E+02
 0.28280649732E+02 0.29752752424E+02 0.34790386320E+02 0.43792641588E+02 0.66774642341E+02
 0.13378071886E+03 0.26208196451E+03 0.44069538082E+03 0.63003362253E+03 0.77554599325E+03
 0.50452628210E+03 0.47019609025E+03 0.37915178269E+03 0.26208196451E+03 0.15494259384E+03
 0.82891846484E+02 0.49560484487E+02 0.37888470512E+02 0.30658036004E+02 0.26744126214E+02
 0.25600043181E+02 0.26744126214E+02 0.30658036004E+02 0.37888470512E+02 0.49560484487E+02
 0.82891846484E+02 0.15494259384E+03 0.26208196451E+03 0.37915178269E+03 0.47019609025E+03
 0.25953476001E+03 0.24121594423E+03 0.19330818796E+03 0.13378071886E+03 0.82891846484E+02
 0.52555056915E+02 0.39727210790E+02 0.31960439743E+02 0.26638877044E+02 0.23855168303E+02
 0.23036960198E+02 0.23855168303E+02 0.26638877044E+02 0.31960439743E+02 0.39727210790E+02
 0.52555056915E+02 0.82891846484E+02 0.13378071886E+03 0.19330818796E+03 0.24121594423E+03
 0.11642233030E+03 0.10874811490E+03 0.89303575247E+02 0.66774642341E+02 0.49560484487E+02
 0.39727210790E+02 0.32475591377E+02 0.26850883369E+02 0.23243559647E+02 0.21384168982E+02
 0.20830233654E+02 0.21384168982E+02 0.23243559647E+02 0.26850883369E+02 0.32475591377E+02
 0.39727210790E+02 0.49560484487E+02 0.66774642341E+02 0.89303575247E+02 0.10874811490E+03
 0.57463661122E+02 0.55271131782E+02 0.49900679976E+02 0.43792641588E+02 0.37888470512E+02
 0.31960439743E+02 0.26850883369E+02 0.23090155225E+02 0.20712101734E+02 0.19463104547E+02
 0.19080982458E+02 0.19463104547E+02 0.20712101734E+02 0.23090155225E+02 0.26850883369E+02
 0.31960439743E+02 0.37888470512E+02 0.43792641588E+02 0.49900679976E+02 0.55271131782E+02
 0.41656266798E+02 0.40800962721E+02 0.38375681531E+02 0.34790386320E+02 0.30658036004E+02
 0.26638877044E+02 0.23243559647E+02 0.20712101734E+02 0.19040926335E+02 0.18111863656E+02
 0.17815709120E+02 0.18111863656E+02 0.19040926335E+02 0.20712101734E+02 0.23243559647E+02
 0.26638877044E+02 0.30658036004E+02 0.34790386320E+02 0.38375681531E+02 0.40800962721E+02
 0.34971850386E+02 0.34301679727E+02 0.32434957569E+02 0.29752752424E+02 0.26744126214E+02
 0.23855168303E+02 0.21384168982E+02 0.19463104547E+02 0.18111863656E+02 0.17311125124E+02
 0.17045577023E+02 0.17311125124E+02 0.18111863656E+02 0.19463104547E+02 0.21384168982E+02
 0.23855168303E+02 0.26744126214E+02 0.29752752424E+02 0.32434957569E+02 0.34301679727E+02
 0.33002927064E+02 0.32390262255E+02 0.30693945767E+02 0.28280649732E+02 0.25600043181E+02
 0.23036960198E+02 0.20830233654E+02 0.19080982458E+02 0.17815709120E+02 0.17045577023E+02
 0.16786072822E+02 0.17045577023E+02 0.17815709120E+02 0.19080982458E+02 0.20830233654E+02
 0.23036960198E+02 0.25600043181E+02 0.28280649732E+02 0.30693945767E+02 0.32390262255E+02
 0.34971850386E+02 0.34301679727E+02 0.32434957569E+02 0.29752752424E+02 0.26744126214E+02
 0.23855168303E+02 0.21384168982E+02 0.19463104547E+02 0.18111863656E+02 0.17311125124E+02
 0.17045577023E+02 0.17311125124E+02 0.18111863656E+02 0.19463104547E+02 0.21384168982E+02
 0.23855168303E+02 0.26744126214E+02 0.29752752424E+02 0.32434957569E+02 0.34301679727E+02
 0.41656266798E+02 0.40800962721E+02 0.38375681531E+02 0.34790386320E+02 0.30658036004E+02
 0.26638877044E+02 0.23243559647E+02 0.20712101734E+02 0.19040926335E+02 0.18111863656E+02
 0.17815709120E+02 0.18111863656E+02 0.19040926335E+02 0.20712101734E+02 0.23243559647E+02
 0.26638877044E+02 0.30658036004E+02 0.34790386320E+02 0.38375681531E+02 0.40800962721E+02
 0.57463661122E+02 0.55271131782E+02 0.49900679976E+02 0.43792641588E+02 0.37888470512E+02
 0.31960439743E+02 0.26850883369E+02 0.23090155225E+02 0.20712101734E+02 0.19463104547E+02
 0.19080982458E+02 0.19463104547E+02 0.20712101734E+02 0.23090155225E+02 0.26850883369E+02
 0.31960439743E+02 0.37888470512E+02 0.43792641588E+02 0.49900679976E+02 0.55271131782E+02
 0.11642233030E+03 0.10874811490E+03 0.89303575247E+02 0.66774642341E+02 0.49560484487E+02
 0.39727210790E+02 0.32475591377E+02 0.26850883369E+02 0.23243559647E+02 0.21384168982E+02
 0.20830233654E+02 0.21384168982E+02 0.23243559647E+02 0.26850883369E+02 0.32475591377E+02
 0.39727210790E+02 0.49560484487E+02 0.66774642341E+02 0.89303575247E+02 0.10874811490E+03
 0.25953476001E+03 0.24121594423E+03 0.19330818796E+03 0.13378071886E+03 0.82891846484E+02
 0.52555056915E+02 0.39727210790E+02 0.31960439743E+02 0.26638877044E+02 0.23855168303E+02
 0.23036960198E+02 0.23855168303E+02 0.26638877044E+02 0.31960439743E+02 0.39727210790E+02
 0.52555056915E+02 0.82891846484E+02 0.13378071886E+03 0.19330818796E+03 0.24121594423E+03
 0.50452628210E+03 0.47019609025E+03 0.37915178269E+03 0.26208196451E+03 0.15494259384E+03
 0.82891846484E+02 0.49560484487E+02 0.37888470512E+02 0.30658036004E+02 0.26744126214E+02
 0.25600043181E+02 0.26744126214E+02 0.30658036004E+02 0.37888470512E+02 0.49560484487E+02
 0.82891846484E+02 0.15494259384E+03 0.26208196451E+03 0.37915178269E+03 0.47019609025E+03
 0.83022265284E+03 0.77554599325E+03 0.63003362253E+03 0.44069538082E+03 0.26208196451E+03
 0.13378071886E+03 0.66774642341E+02 0.43792641588E+02 0.34790386320E+02 0.29752752424E+02
 0.28280649732E+02 0.29752752424E+02 0.34790386320E+02 0.43792641588E+02 0.66774642341E+02
 0.13378071886E+03 0.26208196451E+03 0.44069538082E+03 0.63003362253E+03 0.77554599325E+03
 0.11715114806E+04 0.10954604963E+04 0.89331109858E+03 0.63003362253E+03 0.37915178269E+03
 0.19330818796E+03 0.89303575247E+02 0.49900679976E+02 0.38375681531E+02 0.32434957569E+02
 0.30693945767E+02 0.32434957569E+02 0.38375681531E+02 0.49900679976E+02 0.89303575247E+02
 0.19330818796E+03 0.37915178269E+03 0.63003362253E+03 0.89331109858E+03 0.10954604963E+04
 0.14344678138E+04 0.13416537491E+04 0.10954604963E+04 0.77554599325E+03 0.47019609025E+03
 0.24121594423E+03 0.10874811490E+03 0.55271131782E+02 0.40800962721E+02 0.34301679727E+02
 0.32390262255E+02 0.34301679727E+02 0.40800962721E+02 0.55271131782E+02 0.10874811490E+03
 0.24121594423E+03 0.47019609025E+03 0.77554599325E+03 0.10954604963E+04 0.13416537491E+04
 0.14374976417E+04 0.13438085436E+04 0.10957277545E+04 0.77437782622E+03 0.46884626096E+03
 0.24055331229E+03 0.10878644667E+03 0.55626956530E+02 0.41276129883E+02 0.34853364859E+02
 0.32967785481E+02 0.34853364859E+02 0.41276129883E+02 0.55626956530E+02 0.10878644667E+03
 0.24055331229E+03 0.46884626096E+03 0.77437782622E+03 0.10957277545E+04 0.13438085436E+04
 0.13438085436E+04 0.12562021871E+04 0.10240348972E+04 0.72297901325E+03 0.43675305384E+03
 0.22360703102E+03 0.10182823775E+03 0.53704972128E+02 0.40489757019E+02 0.34247506913E+02
 0.32417297714E+02 0.34247506913E+02 0.40489757019E+02 0.53704972128E+02 0.10182823775E+03
 0.22360703102E+03 0.43675305384E+03 0.72297901325E+03 0.10240348972E+04 0.12562021871E+04
 0.10957277545E+04 0.10240348972E+04 0.83368252588E+03 0.58638965541E+03 0.35180826442E+03
 0.17941044801E+03 0.84269462559E+02 0.48998230541E+02 0.38255662636E+02 0.32556259352E+02
 0.30889953891E+02 0.32556259352E+02 0.38255662636E+02 0.48998230541E+02 0.84269462559E+02
 0.17941044801E+03 0.35180826442E+03 0.58638965541E+03 0.83368252588E+03 0.10240348972E+04
 0.77437782622E+03 0.72297901325E+03 0.58638965541E+03 0.40922933087E+03 0.24304567368E+03
 0.12482233020E+03 0.64096654278E+02 0.43574701944E+02 0.34942211115E+02 0.30116621964E+02
 0.28708633887E+02 0.30116621964E+02 0.34942211115E+02 0.43574701944E+02 0.64096654278E+02
 0.12482233020E+03 0.24304567368E+03 0.40922933087E+03 0.58638965541E+03 0.72297901325E+03
 0.46884626096E+03 0.43675305384E+03 0.35180826442E+03 0.24304567368E+03 0.14424850331E+03
 0.78640428039E+02 0.48842170809E+02 0.38056899615E+02 0.31108694571E+02 0.27366459402E+02
 0.26273371134E+02 0.27366459402E+02 0.31108694571E+02 0.38056899615E+02 0.48842170809E+02
 0.78640428039E+02 0.14424850331E+03 0.24304567368E+03 0.35180826442E+03 0.43675305384E+03
 0.24055331229E+03 0.22360703102E+03 0.17941044801E+03 0.12482233020E+03 0.78640428039E+02
 0.51529629878E+02 0.39933254950E+02 0.32456634908E+02 0.27366914469E+02 0.24712089600E+02
 0.23931996123E+02 0.24712089600E+02 0.27366914469E+02 0.32456634908E+02 0.39933254950E+02
 0.51529629878E+02 0.78640428039E+02 0.12482233020E+03 0.17941044801E+03 0.22360703102E+03
 0.10878644667E+03 0.10182823775E+03 0.84269462559E+02 0.64096654278E+02 0.48842170809E+02
 0.39933254950E+02 0.32992316601E+02 0.27628015372E+02 0.24197260733E+02 0.22431580195E+02
 0.21905774590E+02 0.22431580195E+02 0.24197260733E+02 0.27628015372E+02 0.32992316601E+02
 0.39933254950E+02 0.48842170809E+02 0.64096654278E+02 0.84269462559E+02 0.10182823775E+03
 0.55626956530E+02 0.53704972128E+02 0.48998230541E+02 0.43574701944E+02 0.38056899615E+02
 0.32456634908E+02 0.27628015372E+02 0.24075117940E+02 0.21830463286E+02 0.20652930653E+02
 0.20292993759E+02 0.20652930653E+02 0.21830463286E+02 0.24075117940E+02 0.27628015372E+02
 0.32456634908E+02 0.38056899615E+02 0.43574701944E+02 0.48998230541E+02 0.53704972128E+02
 0.41276129883E+02 0.40489757019E+02 0.38255662636E+02 0.34942211115E+02 0.31108694571E+02
 0.27366914469E+02 0.24197260733E+02 0.21830463286E+02 0.20267721922E+02 0.19399616980E+02
 0.19123116131E+02 0.19399616980E+02 0.20267721922E+02 0.21830463286E+02 0.24197260733E+02
 0.27366914469E+02 0.31108694571E+02 0.34942211115E+02 0.38255662636E+02 0.40489757019E+02
 0.34853364859E+02 0.34247506913E+02 0.32556259352E+02 0.30116621964E+02 0.27366459402E+02
 0.24712089600E+02 0.22431580195E+02 0.20652930653E+02 0.19399616980E+02 0.18656368495E+02
 0.18409838529E+02 0.18656368495E+02 0.19399616980E+02 0.20652930653E+02 0.22431580195E+02
 0.24712089600E+02 0.27366459402E+02 0.30116621964E+02 0.32556259352E+02 0.34247506913E+02
 0.32967785481E+02 0.32417297714E+02 0.30889953891E+02 0.28708633887E+02 0.26273371134E+02
 0.23931996123E+02 0.21905774590E+02 0.20292993759E+02 0.19123116131E+02 0.18409838529E+02
 0.18169303050E+02 0.18409838529E+02 0.19123116131E+02 0.20292993759E+02 0.21905774590E+02
 0.23931996123E+02 0.26273371134E+02 0.28708633887E+02 0.30889953891E+02 0.32417297714E+02
 0.34853364859E+02 0.34247506913E+02 0.32556259352E+02 0.30116621964E+02 0.27366459402E+02
 0.24712089600E+02 0.22431580195E+02 0.20652930653E+02 0.19399616980E+02 0.18656368495E+02
 0.18409838529E+02 0.18656368495E+02 0.19399616980E+02 0.20652930653E+02 0.22431580195E+02
 0.24712089600E+02 0.27366459402E+02 0.30116621964E+02 0.32556259352E+02 0.34247506913E+02
 0.41276129883E+02 0.40489757019E+02 0.38255662636E+02 0.34942211115E+02 0.31108694571E+02
 0.27366914469E+02 0.24197260733E+02 0.21830463286E+02 0.20267721922E+02 0.19399616980E+02
 0.19123116131E+02 0.19399616980E+02 0.20267721922E+02 0.21830463286E+02 0.24197260733E+02
 0.27366914469E+02 0.31108694571E+02 0.34942211115E+02 0.38255662636E+02 0.40489757019E+02
 0.55626956530E+02 0.53704972128E+02 0.48998230541E+02 0.43574701944E+02 0.38056899615E+02
 0.32456634908E+02 0.27628015372E+02 0.24075117940E+02 0.21830463286E+02 0.20652930653E+02
 0.20292993759E+02 0.20652930653E+02 0.21830463286E+02 0.24075117940E+02 0.27628015372E+02
 0.32456634908E+02 0.38056899615E+02 0.43574701944E+02 0.48998230541E+02 0.53704972128E+02
 0.10878644667E+03 0.10182823775E+03 0.84269462559E+02 0.64096654278E+02 0.48842170809E+02
 0.39933254950E+02 0.32992316601E+02 0.27628015372E+02 0.24197260733E+02 0.22431580195E+02
 0.21905774590E+02 0.22431580195E+02 0.24197260733E+02 0.27628015372E+02 0.32992316601E+02
 0.39933254950E+02 0.48842170809E+02 0.64096654278E+02 0.84269462559E+02 0.10182823775E+03
 0.24055331229E+03 0.22360703102E+03 0.17941044801E+03 0.12482233020E+03 0.78640428039E+02
 0.51529629878E+02 0.39933254950E+02 0.32456634908E+02 0.27366914469E+02 0.24712089600E+02
 0.23931996123E+02 0.24712089600E+02 0.27366914469E+02 0.32456634908E+02 0.39933254950E+02
 0.51529629878E+02 0.78640428039E+02 0.12482233020E+03 0.17941044801E+03 0.22360703102E+03
 0.46884626096E+03 0.43675305384E+03 0.35180826442E+03 0.24304567368E+03 0.14424850331E+03
 0.78640428039E+02 0.48842170809E+02 0.38056899615E+02 0.31108694571E+02 0.27366459402E+02
 0.26273371134E+02 0.27366459402E+02 0.31108694571E+02 0.38056899615E+02 0.48842170809E+02
 0.78640428039E+02 0.14424850331E+03 0.24304567368E+03 0.35180826442E+03 0.43675305384E+03
 0.77437782622E+03 0.72297901325E+03 0.58638965541E+03 0.40922933087E+03 0.24304567368E+03
 0.12482233020E+03 0.64096654278E+02 0.43574701944E+02 0.34942211115E+02 0.30116621964E+02
 0.28708633887E+02 0.30116621964E+02 0.34942211115E+02 0.43574701944E+02 0.64096654278E+02
 0.12482233020E+03 0.24304567368E+03 0.40922933087E+03 0.58638965541E+03 0.72297901325E+03
 0.10957277545E+04 0.10240348972E+04 0.83368252588E+03 0.58638965541E+03 0.35180826442E+03
 0.17941044801E+03 0.84269462559E+02 0.48998230541E+02 0.38255662636E+02 0.32556259352E+02
 0.30889953891E+02 0.32556259352E+02 0.38255662636E+02 0.48998230541E+02 0.84269462559E+02
 0.17941044801E+03 0.35180826442E+03 0.58638965541E+03 0.83368252588E+03 0.10240348972E+04
 0.13438085436E+04 0.12562021871E+04 0.10240348972E+04 0.72297901325E+03 0.43675305384E+03
 0.22360703102E+03 0.10182823775E+03 0.53704972128E+02 0.40489757019E+02 0.34247506913E+02
 0.32417297714E+02 0.34247506913E+02 0.40489757019E+02 0.53704972128E+02 0.10182823775E+03
 0.22360703102E+03 0.43675305384E+03 0.72297901325E+03 0.10240348972E+04 0.12562021871E+04
 0.11884804060E+04 0.11091906247E+04 0.89984071762E+03 0.63044238222E+03 0.37743151485E+03
 0.19246290229E+03 0.89761797682E+02 0.50886337230E+02 0.39582546116E+02 0.33781742551E+02
 0.32086394664E+02 0.33781742551E+02 0.39582546116E+02 0.50886337230E+02 0.89761797682E+02
 0.19246290229E+03 0.37743151485E+03 0.63044238222E+03 0.89984071762E+03 0.11091906247E+04
 0.11091906247E+04 0.10351330859E+04 0.83947740387E+03 0.58754261825E+03 0.35109836353E+03
 0.17899279696E+03 0.84544356954E+02 0.49536340180E+02 0.38912309011E+02 0.33284708571E+02
 0.31641145642E+02 0.33284708571E+02 0.38912309011E+02 0.49536340180E+02 0.84544356954E+02
 0.17899279696E+03 0.35109836353E+03 0.58754261825E+03 0.83947740387E+03 0.10351330859E+04
 0.89984071762E+03 0.83947740387E+03 0.67980509686E+03 0.47409068728E+03 0.28185012972E+03
 0.14417680884E+03 0.71540793878E+02 0.46182372560E+02 0.37006081136E+02 0.31891769884E+02
 0.30400077968E+02 0.31891769884E+02 0.37006081136E+02 0.46182372560E+02 0.71540793878E+02
 0.14417680884E+03 0.28185012972E+03 0.47409068728E+03 0.67980509686E+03 0.83947740387E+03
 0.63044238222E+03 0.58754261825E+03 0.47409068728E+03 0.32848805521E+03 0.19441931600E+03
 0.10200311231E+03 0.56957122584E+02 0.41982307841E+02 0.34171971580E+02 0.29866519958E+02
 0.28610837273E+02 0.29866519958E+02 0.34171971580E+02 0.41982307841E+02 0.56957122584E+02
 0.10200311231E+03 0.19441931600E+03 0.32848805521E+03 0.47409068728E+03 0.58754261825E+03
 0.37743151485E+03 0.35109836353E+03 0.28185012972E+03 0.19441931600E+03 0.11691306342E+03
 0.67483347192E+02 0.46123048754E+02 0.37116669808E+02 0.30878687406E+02 0.27555792089E+02
 0.26583732048E+02 0.27555792089E+02 0.30878687406E+02 0.37116669808E+02 0.46123048754E+02
 0.67483347192E+02 0.11691306342E+03 0.19441931600E+03 0.28185012972E+03 0.35109836353E+03
 0.19246290229E+03 0.17899279696E+03 0.14417680884E+03 0.10200311231E+03 0.67483347192E+02
 0.48051889107E+02 0.38938945751E+02 0.32170679172E+02 0.27641096733E+02 0.25287944573E+02
 0.24594189766E+02 0.25287944573E+02 0.27641096733E+02 0.32170679172E+02 0.38938945751E+02
 0.48051889107E+02 0.67483347192E+02 0.10200311231E+03 0.14417680884E+03 0.17899279696E+03
 0.89761797682E+02 0.84544356954E+02 0.71540793878E+02 0.56957122584E+02 0.46123048754E+02
 0.38938945751E+02 0.32688877750E+02 0.27911769347E+02 0.24868054532E+02 0.23296537752E+02
 0.22825988766E+02 0.23296537752E+02 0.24868054532E+02 0.27911769347E+02 0.32688877750E+02
 0.38938945751E+02 0.46123048754E+02 0.56957122584E+02 0.71540793878E+02 0.84544356954E+02
 0.50886337230E+02 0.49536340180E+02 0.46182372560E+02 0.41982307841E+02 0.37116669808E+02
 0.32170679172E+02 0.27911769347E+02 0.24767617642E+02 0.22764742716E+02 0.21702233147E+02
 0.21374672034E+02 0.21702233147E+02 0.22764742716E+02 0.24767617642E+02 0.27911769347E+02
 0.32170679172E+02 0.37116669808E+02 0.41982307841E+02 0.46182372560E+02 0.49536340180E+02
 0.39582546116E+02 0.38912309011E+02 0.37006081136E+02 0.34171971580E+02 0.30878687406E+02
 0.27641096733E+02 0.24868054532E+02 0.22764742716E+02 0.21349057226E+02 0.20547915339E+02
 0.20289764045E+02 0.20547915339E+02 0.21349057226E+02 0.22764742716E+02 0.24868054532E+02
 0.27641096733E+02 0.30878687406E+02 0.34171971580E+02 0.37006081136E+02 0.38912309011E+02
 0.33781742551E+02 0.33284708571E+02 0.31891769884E+02 0.29866519958E+02 0.27555792089E+02
 0.25287944573E+02 0.23296537752E+02 0.21702233147E+02 0.20547915339E+02 0.19847751158E+02
 0.19612542135E+02 0.19847751158E+02 0.20547915339E+02 0.21702233147E+02 0.23296537752E+02
 0.25287944573E+02 0.27555792089E+02 0.29866519958E+02 0.31891769884E+02 0.33284708571E+02
 0.32086394664E+02 0.31641145642E+02 0.30400077968E+02 0.28610837273E+02 0.26583732048E+02
 0.24594189766E+02 0.22825988766E+02 0.21374672034E+02 0.20289764045E+02 0.19612542135E+02
 0.19381253383E+02 0.19612542135E+02 0.20289764045E+02 0.21374672034E+02 0.22825988766E+02
 0.24594189766E+02 0.26583732048E+02 0.28610837273E+02 0.30400077968E+02 0.31641145642E+02
 0.33781742551E+02 0.33284708571E+02 0.31891769884E+02 0.29866519958E+02 0.27555792089E+02
 0.25287944573E+02 0.23296537752E+02 0.21702233147E+02 0.20547915339E+02 0.19847751158E+02
 0.19612542135E+02 0.19847751158E+02 0.20547915339E+02 0.21702233147E+02 0.23296537752E+02
 0.25287944573E+02 0.27555792089E+02 0.29866519958E+02 0.31891769884E+02 0.33284708571E+02
 0.39582546116E+02 0.38912309011E+02 0.37006081136E+02 0.34171971580E+02 0.30878687406E+02
 0.27641096733E+02 0.24868054532E+02 0.22764742716E+02 0.21349057226E+02 0.20547915339E+02
 0.20289764045E+02 0.20547915339E+02 0.21349057226E+02 0.22764742716E+02 0.24868054532E+02
 0.27641096733E+02 0.30878687406E+02 0.34171971580E+02 0.37006081136E+02 0.38912309011E+02
 0.50886337230E+02 0.49536340180E+02 0.46182372560E+02 0.41982307841E+02 0.37116669808E+02
 0.32170679172E+02 0.27911769347E+02 0.24767617642E+02 0.22764742716E+02 0.21702233147E+02
 0.21374672034E+02 0.21702233147E+02 0.22764742716E+02 0.24767617642E+02 0.27911769347E+02
 0.32170679172E+02 0.37116669808E+02 0.41982307841E+02 0.46182372560E+02 0.49536340180E+02
 0.89761797682E+02 0.84544356954E+02 0.71540793878E+02 0.56957122584E+02 0.46123048754E+02
 0.38938945751E+02 0.32688877750E+02 0.27911769347E+02 0.24868054532E+02 0.23296537752E+02
 0.22825988766E+02 0.23296537752E+02 0.24868054532E+02 0.27911769347E+02 0.32688877750E+02
 0.38938945751E+02 0.46123048754E+02 0.56957122584E+02 0.71540793878E+02 0.84544356954E+02
 0.19246290229E+03 0.17899279696E+03 0.14417680884E+03 0.10200311231E+03 0.67483347192E+02
 0.48051889107E+02 0.38938945751E+02 0.32170679172E+02 0.27641096733E+02 0.25287944573E+02
 0.24594189766E+02 0.25287944573E+02 0.27641096733E+02 0.32170679172E+02 0.38938945751E+02
 0.48051889107E+02 0.67483347192E+02 0.10200311231E+03 0.14417680884E+03 0.17899279696E+03
 0.37743151485E+03 0.35109836353E+03 0.28185012972E+03 0.19441931600E+03 0.11691306342E+03
 0.67483347192E+02 0.46123048754E+02 0.37116669808E+02 0.30878687406E+02 0.27555792089E+02
 0.26583732048E+02 0.27555792089E+02 0.30878687406E+02 0.37116669808E+02 0.46123048754E+02
 0.67483347192E+02 0.11691306342E+03 0.19441931600E+03 0.28185012972E+03 0.35109836353E+03
 0.63044238222E+03 0.58754261825E+03 0.47409068728E+03 0.32848805521E+03 0.19441931600E+03
 0.10200311231E+03 0.56957122584E+02 0.41982307841E+02 0.34171971580E+02 0.29866519958E+02
 0.28610837273E+02 0.29866519958E+02 0.34171971580E+02 0.41982307841E+02 0.56957122584E+02
 0.10200311231E+03 0.19441931600E+03 0.32848805521E+03 0.47409068728E+03 0.58754261825E+03
 0.89984071762E+03 0.83947740387E+03 0.67980509686E+03 0.47409068728E+03 0.28185012972E+03
 0.14417680884E+03 0.71540793878E+02 0.46182372560E+02 0.37006081136E+02 0.31891769884E+02
 0.30400077968E+02 0.31891769884E+02 0.37006081136E+02 0.46182372560E+02 0.71540793878E+02
 0.14417680884E+03 0.28185012972E+03 0.47409068728E+03 0.67980509686E+03 0.83947740387E+03
 0.11091906247E+04 0.10351330859E+04 0.83947740387E+03 0.58754261825E+03 0.35109836353E+03
 0.17899279696E+03 0.84544356954E+02 0.49536340180E+02 0.38912309011E+02 0.33284708571E+02
 0.31641145642E+02 0.33284708571E+02 0.38912309011E+02 0.49536340180E+02 0.84544356954E+02
 0.17899279696E+03 0.35109836353E+03 0.58754261825E+03 0.83947740387E+03 0.10351330859E+04
 0.86361212540E+03 0.80363911303E+03 0.64621557758E+03 0.44629659818E+03 0.26302691891E+03
 0.13462303383E+03 0.68459439934E+02 0.45788216878E+02 0.37071776192E+02 0.32189595302E+02
 0.30768287955E+02 0.32189595302E+02 0.37071776192E+02 0.45788216878E+02 0.68459439934E+02
 0.13462303383E+03 0.26302691891E+03 0.44629659818E+03 0.64621557758E+03 0.80363911303E+03
 0.80363911303E+03 0.74776091549E+03 0.60105075742E+03 0.41476213760E+03 0.24431251911E+03
 0.12562845692E+03 0.65343409756E+02 0.44982238656E+02 0.36550757955E+02 0.31825800491E+02
 0.30450125246E+02 0.31825800491E+02 0.36550757955E+02 0.44982238656E+02 0.65343409756E+02
 0.12562845692E+03 0.24431251911E+03 0.41476213760E+03 0.60105075742E+03 0.74776091549E+03
 0.64621557758E+03 0.60105075742E+03 0.48245947806E+03 0.33214406076E+03 0.19570730554E+03
 0.10277777335E+03 0.57735853355E+02 0.42793407333E+02 0.35067454352E+02 0.30800266459E+02
 0.29556938572E+02 0.30800266459E+02 0.35067454352E+02 0.42793407333E+02 0.57735853355E+02
 0.10277777335E+03 0.19570730554E+03 0.33214406076E+03 0.48245947806E+03 0.60105075742E+03
 0.44629659818E+03 0.41476213760E+03 0.33214406076E+03 0.22825662462E+03 0.13597226543E+03
 0.76103454120E+02 0.49456181734E+02 0.39481011803E+02 0.32857298064E+02 0.29292701431E+02
 0.28251556211E+02 0.29292701431E+02 0.32857298064E+02 0.39481011803E+02 0.49456181734E+02
 0.76103454120E+02 0.13597226543E+03 0.22825662462E+03 0.33214406076E+03 0.41476213760E+03
 0.26302691891E+03 0.24431251911E+03 0.19570730554E+03 0.13597226543E+03 0.85444182453E+02
 0.55519364150E+02 0.42981275034E+02 0.35482430163E+02 0.30279173288E+02 0.27546423584E+02
 0.26744064937E+02 0.27546423584E+02 0.30279173288E+02 0.35482430163E+02 0.42981275034E+02
 0.55519364150E+02 0.85444182453E+02 0.13597226543E+03 0.19570730554E+03 0.24431251911E+03
 0.13462303383E+03 0.12562845692E+03 0.10277777335E+03 0.76103454120E+02 0.55519364150E+02
 0.44299038049E+02 0.37164324898E+02 0.31458638517E+02 0.27728815977E+02 0.25800688805E+02
 0.25229257603E+02 0.25800688805E+02 0.27728815977E+02 0.31458638517E+02 0.37164324898E+02
 0.44299038049E+02 0.55519364150E+02 0.76103454120E+02 0.10277777335E+03 0.12562845692E+03
 0.68459439934E+02 0.65343409756E+02 0.57735853355E+02 0.49456181734E+02 0.42981275034E+02
 0.37164324898E+02 0.31938947587E+02 0.28010888813E+02 0.25523528142E+02 0.24234973076E+02
 0.23846654661E+02 0.24234973076E+02 0.25523528142E+02 0.28010888813E+02 0.31938947587E+02
 0.37164324898E+02 0.42981275034E+02 0.49456181734E+02 0.57735853355E+02 0.65343409756E+02
 0.45788216878E+02 0.44982238656E+02 0.42793407333E+02 0.39481011803E+02 0.35482430163E+02
 0.31458638517E+02 0.28010888813E+02 0.25462886555E+02 0.23828469739E+02 0.22952469862E+02
 0.22680268863E+02 0.22952469862E+02 0.23828469739E+02 0.25462886555E+02 0.28010888813E+02
 0.31458638517E+02 0.35482430163E+02 0.39481011803E+02 0.42793407333E+02 0.44982238656E+02
 0.37071776192E+02 0.36550757955E+02 0.35067454352E+02 0.32857298064E+02 0.30279173288E+02
 0.27728815977E+02 0.25523528142E+02 0.23828469739E+02 0.22669169025E+02 0.22003119085E+02
 0.21786495833E+02 0.22003119085E+02 0.22669169025E+02 0.23828469739E+02 0.25523528142E+02
 0.27728815977E+02 0.30279173288E+02 0.32857298064E+02 0.35067454352E+02 0.36550757955E+02
 0.32189595302E+02 0.31825800491E+02 0.30800266459E+02 0.29292701431E+02 0.27546423584E+02
 0.25800688805E+02 0.24234973076E+02 0.22952469862E+02 0.22003119085E+02 0.21417020052E+02
 0.21218201571E+02 0.21417020052E+02 0.22003119085E+02 0.22952469862E+02 0.24234973076E+02
 0.25800688805E+02 0.27546423584E+02 0.29292701431E+02 0.30800266459E+02 0.31825800491E+02
 0.30768287955E+02 0.30450125246E+02 0.29556938572E+02 0.28251556211E+02 0.26744064937E+02
 0.25229257603E+02 0.23846654661E+02 0.22680268863E+02 0.21786495833E+02 0.21218201571E+02
 0.21022223027E+02 0.21218201571E+02 0.21786495833E+02 0.22680268863E+02 0.23846654661E+02
 0.25229257603E+02 0.26744064937E+02 0.28251556211E+02 0.29556938572E+02 0.30450125246E+02
 0.32189595302E+02 0.31825800491E+02 0.30800266459E+02 0.29292701431E+02 0.27546423584E+02
 0.25800688805E+02 0.24234973076E+02 0.22952469862E+02 0.22003119085E+02 0.21417020052E+02
 0.21218201571E+02 0.21417020052E+02 0.22003119085E+02 0.22952469862E+02 0.24234973076E+02
 0.25800688805E+02 0.27546423584E+02 0.29292701431E+02 0.30800266459E+02 0.31825800491E+02
 0.37071776192E+02 0.36550757955E+02 0.35067454352E+02 0.32857298064E+02 0.30279173288E+02
 0.27728815977E+02 0.25523528142E+02 0.23828469739E+02 0.22669169025E+02 0.22003119085E+02
 0.21786495833E+02 0.22003119085E+02 0.22669169025E+02 0.23828469739E+02 0.25523528142E+02
 0.27728815977E+02 0.30279173288E+02 0.32857298064E+02 0.35067454352E+02 0.36550757955E+02
 0.45788216878E+02 0.44982238656E+02 0.42793407333E+02 0.39481011803E+02 0.35482430163E+02
 0.31458638517E+02 0.28010888813E+02 0.25462886555E+02 0.23828469739E+02 0.22952469862E+02
 0.22680268863E+02 0.22952469862E+02 0.23828469739E+02 0.25462886555E+02 0.28010888813E+02
 0.31458638517E+02 0.35482430163E+02 0.39481011803E+02 0.42793407333E+02 0.44982238656E+02
 0.68459439934E+02 0.65343409756E+02 0.57735853355E+02 0.49456181734E+02 0.42981275034E+02
 0.37164324898E+02 0.31938947587E+02 0.28010888813E+02 0.25523528142E+02 0.24234973076E+02
 0.23846654661E+02 0.24234973076E+02 0.25523528142E+02 0.28010888813E+02 0.31938947587E+02
 0.37164324898E+02 0.42981275034E+02 0.49456181734E+02 0.57735853355E+02 0.65343409756E+02
 0.13462303383E+03 0.12562845692E+03 0.10277777335E+03 0.76103454120E+02 0.55519364150E+02
 0.44299038049E+02 0.37164324898E+02 0.31458638517E+02 0.27728815977E+02 0.25800688805E+02
 0.25229257603E+02 0.25800688805E+02 0.27728815977E+02 0.31458638517E+02 0.37164324898E+02
 0.44299038049E+02 0.55519364150E+02 0.76103454120E+02 0.10277777335E+03 0.12562845692E+03
 0.26302691891E+03 0.24431251911E+03 0.19570730554E+03 0.13597226543E+03 0.85444182453E+02
 0.55519364150E+02 0.42981275034E+02 0.35482430163E+02 0.30279173288E+02 0.27546423584E+02
 0.26744064937E+02 0.27546423584E+02 0.30279173288E+02 0.35482430163E+02 0.42981275034E+02
 0.55519364150E+02 0.85444182453E+02 0.13597226543E+03 0.19570730554E+03 0.24431251911E+03
 0.44629659818E+03 0.41476213760E+03 0.33214406076E+03 0.22825662462E+03 0.13597226543E+03
 0.76103454120E+02 0.49456181734E+02 0.39481011803E+02 0.32857298064E+02 0.29292701431E+02
 0.28251556211E+02 0.29292701431E+02 0.32857298064E+02 0.39481011803E+02 0.49456181734E+02
 0.76103454120E+02 0.13597226543E+03 0.22825662462E+03 0.33214406076E+03 0.41476213760E+03
 0.64621557758E+03 0.60105075742E+03 0.48245947806E+03 0.33214406076E+03 0.19570730554E+03
 0.10277777335E+03 0.57735853355E+02 0.42793407333E+02 0.35067454352E+02 0.30800266459E+02
 0.29556938572E+02 0.30800266459E+02 0.35067454352E+02 0.42793407333E+02 0.57735853355E+02
 0.10277777335E+03 0.19570730554E+03 0.33214406076E+03 0.48245947806E+03 0.60105075742E+03
 0.80363911303E+03 0.74776091549E+03 0.60105075742E+03 0.41476213760E+03 0.24431251911E+03
 0.12562845692E+03 0.65343409756E+02 0.44982238656E+02 0.36550757955E+02 0.31825800491E+02
 0.30450125246E+02 0.31825800491E+02 0.36550757955E+02 0.44982238656E+02 0.65343409756E+02
 0.12562845692E+03 0.24431251911E+03 0.41476213760E+03 0.60105075742E+03 0.74776091549E+03
 0.54531774124E+03 0.50537216233E+03 0.40161164657E+03 0.27289344784E+03 0.15980851561E+03
 0.86251084460E+02 0.52744740044E+02 0.41267955315E+02 0.34296529333E+02 0.30513982657E+02
 0.29414720419E+02 0.30513982657E+02 0.34296529333E+02 0.41267955315E+02 0.52744740044E+02
 0.86251084460E+02 0.15980851561E+03 0.27289344784E+03 0.40161164657E+03 0.50537216233E+03
 0.50537216233E+03 0.46832941599E+03 0.37214134952E+03 0.25297576260E+03 0.14868813697E+03