    5    5    1    2
  0.2199349E+02  0.2496087E-09  0.2496087E-09  0.1765000E-08  0.5000000E-15
  1.000000000000000E-004
  CAR 
 clean (100) Ni surface                  
     50     15     36
 
  0.0000000E+00  0.0000000E+00  0.0000000E+00  0.1234568E-01
      1         -6.261977       -6.304426   1.000000   1.000000
      2         -5.076900       -5.111418   1.000000   1.000000
      3         -3.395404       -3.393260   1.000000   1.000000
      4         -2.248240       -2.070075   1.000000   1.000000
      5         -2.164487       -1.881711   1.000000   1.000000
      6         -1.724801       -1.181385   1.000000   1.000000
      7         -1.363630       -0.802402   1.000000   1.000000
      8         -0.850887       -0.207570   1.000000   1.000000
      9         -0.371112        0.280525   1.000000   1.000000
     10         -0.134353        0.528045   1.000000   1.000000
     11         -0.010022        0.716936   1.000000   1.000000
     12         -0.010022        0.716936   1.000000   1.000000
     13          0.359086        1.053180   1.000000   1.000000
     14          0.359086        1.124609   1.000000   1.000000
     15          0.547616        1.124609   1.000000   1.000000
     16          0.822905        1.356006   1.000000   1.000000
     17          0.952015        1.376953   1.000000   1.000000
     18          0.952015        1.570393   1.000000   1.000000
     19          1.011967        1.684606   1.000000   1.000000
     20          1.045901        1.737612   1.000000   1.000000
     21          1.123782        1.737612   1.000000   1.000000
     22          1.205389        1.882638   1.000000   1.000000
     23          1.474755        2.145926   1.000000   1.000000
     24          1.474755        2.319776   1.000000   0.804605
     25          1.476087        2.319776   1.000000   0.069017
     26          1.645012        2.420040   1.000000   0.000000
     27          1.719075        2.455240   1.000000   0.000000
     28          1.751762        2.590526   1.000000   0.000000
     29          1.751762        2.590526   1.013592   0.000000
     30          2.860348        2.910389   0.000000   0.000000
     31          4.216678        4.202210   0.000000   0.000000
     32          6.615098        7.028933   0.000000   0.000000
     33          8.084953        8.256197   0.000000   0.000000
     34          9.876726       10.176747   0.000000   0.000000
     35         13.051932       13.323367   0.000000   0.000000
     36         13.759741       13.957792   0.000000   0.000000
 
  0.1111111E+00 -0.1469759E-17  0.0000000E+00  0.4938272E-01
      1         -5.949947       -5.991306   1.000000   1.000000
      2         -4.784763       -4.815733   1.000000   1.000000
      3         -3.143984       -3.130405   1.000000   1.000000
      4         -2.054505       -1.848743   1.000000   1.000000
      5         -1.979455       -1.695750   1.000000   1.000000
      6         -1.625518       -1.086822   1.000000   1.000000
      7         -1.278964       -0.724975   1.000000   1.000000
      8         -0.799669       -0.163677   1.000000   1.000000
      9         -0.365800        0.287417   1.000000   1.000000
     10         -0.066623        0.599203   1.000000   1.000000
     11         -0.029990        0.681564   1.000000   1.000000
     12          0.030443        0.757263   1.000000   1.000000
     13          0.152628        0.797142   1.000000   1.000000
     14          0.334425        0.944864   1.000000   1.000000
     15          0.426121        1.079613   1.000000   1.000000
     16          0.749533        1.401519   1.000000   1.000000
     17          0.787504        1.441274   1.000000   1.000000
     18          0.884691        1.517810   1.000000   1.000000
     19          0.987020        1.591908   1.000000   1.000000
     20          1.029444        1.648028   1.000000   1.000000
     21          1.164298        1.788518   1.000000   1.000000
     22          1.243829        1.941170   1.000000   1.000000
     23          1.248459        1.978175   1.000000   1.000000
     24          1.274225        1.995072   1.000000   1.020461
     25          1.556849        2.305497   1.000000   0.430446
     26          1.563373        2.334897   1.000000   0.000000
     27          1.690721        2.349525   1.000000   0.000000
     28          1.772577        2.451743   1.000000   0.000000
     29          1.839965        2.600228   0.933128   0.000000
     30          3.464504        3.680028   0.000000   0.000000
     31          4.912733        5.028368   0.000000   0.000000
     32          6.914266        7.327993   0.000000   0.000000
     33          8.421605        8.596957   0.000000   0.000000
     34         10.127892       10.426067   0.000000   0.000000
     35         13.329027       13.595544   0.000000   0.000000
     36         13.911348       14.097702   0.000000   0.000000
 
  0.2222222E+00 -0.3980352E-17  0.0000000E+00  0.4938272E-01
      1         -5.057759       -5.091168   1.000000   1.000000
      2         -3.985930       -3.992562   1.000000   1.000000
      3         -2.568653       -2.473853   1.000000   1.000000
      4         -1.686082       -1.370074   1.000000   1.000000
      5         -1.586258       -1.230070   1.000000   1.000000
      6         -1.337218       -0.852631   1.000000   1.000000
      7         -0.942671       -0.477284   1.000000   1.000000
      8         -0.546830        0.012854   1.000000   1.000000
      9         -0.401508        0.233458   1.000000   1.000000
     10         -0.020991        0.555508   1.000000   1.000000
     11          0.003111        0.643542   1.000000   1.000000
     12          0.056105        0.697896   1.000000   1.000000
     13          0.084575        0.725964   1.000000   1.000000
     14          0.116152        0.831700   1.000000   1.000000
     15          0.246993        0.942564   1.000000   1.000000
     16          0.473801        1.133519   1.000000   1.000000
     17          0.532180        1.240986   1.000000   1.000000
     18          0.601767        1.264766   1.000000   1.000000
     19          0.764012        1.445144   1.000000   1.000000
     20          1.083263        1.672010   1.000000   1.000000
     21          1.107634        1.737157   1.000000   1.000000
     22          1.141461        1.757995   1.000000   1.000000
     23          1.148975        1.900404   1.000000   1.000000
     24          1.355790        1.918867   1.000000   1.000000
     25          1.406494        2.176813   1.000000   1.054576
     26          1.558571        2.341175   1.000000   0.000000
     27          1.714218        2.523069   1.000000   0.000000
     28          1.734680        2.539805   1.019410   0.000000
     29          2.672655        3.050519  -0.006768   0.000000
     30          4.621850        4.839861   0.000000   0.000000
     31          6.342843        6.502549   0.000000   0.000000
     32          7.796465        8.203671   0.000000   0.000000
     33          9.424047        9.609549   0.000000   0.000000
     34         10.642111       10.867099   0.000000   0.000000
     35         11.250096       11.461202   0.000000   0.000000
     36         12.234110       12.382579   0.000000   0.000000
 
  0.3333333E+00  0.3535756E-17  0.0000000E+00  0.4938272E-01
      1         -3.756723       -3.749414   1.000000   1.000000
      2         -3.004791       -2.900852   1.000000   1.000000
      3         -2.204005       -1.900290   1.000000   1.000000
      4         -1.601561       -1.168196   1.000000   1.000000
      5         -1.304902       -0.824744   1.000000   1.000000
      6         -0.923625       -0.560313   1.000000   1.000000
      7         -0.434482       -0.022787   1.000000   1.000000
      8         -0.414261        0.168043   1.000000   1.000000
      9         -0.122989        0.417448   1.000000   1.000000
     10         -0.080262        0.454473   1.000000   1.000000
     11         -0.011014        0.595363   1.000000   1.000000
     12          0.099309        0.762154   1.000000   1.000000
     13          0.112161        0.766894   1.000000   1.000000
     14          0.176173        0.786158   1.000000   1.000000
     15          0.236939        0.840598   1.000000   1.000000
     16          0.392603        1.018100   1.000000   1.000000
     17          0.462306        1.057997   1.000000   1.000000
     18          0.503172        1.122332   1.000000   1.000000
     19          0.554468        1.162458   1.000000   1.000000
     20          0.913127        1.578621   1.000000   1.000000
     21          1.014889        1.779072   1.000000   1.000000
     22          1.384002        2.022160   1.000000   1.000000
     23          1.390073        2.164205   1.000000   1.068029
     24          1.554045        2.169090   1.000000   0.977097
     25          1.554428        2.297107   1.000000   0.314920
     26          1.640171        2.376490   1.051411   0.000000
     27          1.711224        2.421220   1.040256   0.000000
     28          1.766471        2.512719   0.954513   0.000000
     29          3.636105        3.888793   0.000000   0.000000
     30          5.796491        5.954300   0.000000   0.000000
     31          7.624076        7.853018   0.000000   0.000000
     32          7.759477        7.902879   0.000000   0.000000
     33          9.167007        9.401750   0.000000   0.000000
     34          9.308733        9.716720   0.000000   0.000000
     35         10.479811       10.686840   0.000000   0.000000
     36         11.005903       11.196209   0.000000   0.000000
 
  0.4444444E+00 -0.7960704E-17  0.0000000E+00  0.4938272E-01
      1         -2.552150       -2.357129   1.000000   1.000000
      2         -2.432689       -2.118098   1.000000   1.000000
      3         -2.120604       -1.752281   1.000000   1.000000
      4         -1.688121       -1.258811   1.000000   1.000000
      5         -1.340087       -0.996010   1.000000   1.000000
      6         -0.515056       -0.079753   1.000000   1.000000
      7         -0.469998        0.133899   1.000000   1.000000
      8         -0.210187        0.309237   1.000000   1.000000
      9         -0.155633        0.371096   1.000000   1.000000
     10         -0.040485        0.516578   1.000000   1.000000
     11         -0.002410        0.634896   1.000000   1.000000
     12          0.012644        0.648245   1.000000   1.000000
     13          0.063771        0.656668   1.000000   1.000000
     14          0.149327        0.724829   1.000000   1.000000
     15          0.327377        0.757906   1.000000   1.000000
     16          0.339249        0.979874   1.000000   1.000000
     17          0.357610        1.088655   1.000000   1.000000
     18          0.759968        1.434360   1.000000   1.000000
     19          1.000295        1.485052   1.000000   1.000000
     20          1.076453        1.854989   1.000000   1.000000
     21          1.373640        2.048588   1.000000   1.000000
     22          1.479496        2.174989   1.000000   1.000000
     23          1.494905        2.283778   1.000000   0.327756
     24          1.629976        2.419254   1.000000  -0.041216
     25          1.676937        2.472567   1.000000  -0.020335
     26          2.231050        2.492867   0.592384   0.000000
     27          2.273045        2.740612   0.347393   0.000000
     28          2.547139        3.057994   0.035974   0.000000
     29          3.814947        4.014510   0.000000   0.000000
     30          4.253439        4.613173   0.000000   0.000000
     31          6.815518        7.059228   0.000000   0.000000
     32          6.988633        7.200826   0.000000   0.000000
     33          9.079199        9.328716   0.000000   0.000000
     34          9.413131        9.649730   0.000000   0.000000
     35         10.755176       10.880182   0.000000   0.000000
     36         11.191390       11.440275   0.000000   0.000000
 
  0.1111111E+00  0.1111111E+00  0.0000000E+00  0.4938272E-01
      1         -5.642547       -5.682670   1.000000   1.000000
      2         -4.496193       -4.523630   1.000000   1.000000
      3         -2.893685       -2.870218   1.000000   1.000000
      4         -1.871299       -1.631265   1.000000   1.000000
      5         -1.786398       -1.519838   1.000000   1.000000
      6         -1.523518       -0.983763   1.000000   1.000000
      7         -1.206697       -0.649913   1.000000   1.000000
      8         -0.774424       -0.137476   1.000000   1.000000
      9         -0.417790        0.244180   1.000000   1.000000
     10         -0.004104        0.658701   1.000000   1.000000
     11          0.007334        0.681924   1.000000   1.000000
     12          0.038385        0.704983   1.000000   1.000000
     13          0.103482        0.717878   1.000000   1.000000
     14          0.151471        0.808278   1.000000   1.000000
     15          0.340293        1.096357   1.000000   1.000000
     16          0.617417        1.275995   1.000000   1.000000
     17          0.831164        1.418000   1.000000   1.000000
     18          0.870507        1.472195   1.000000   1.000000
     19          0.903726        1.534015   1.000000   1.000000
     20          0.919821        1.607809   1.000000   1.000000
     21          0.985079        1.697638   1.000000   1.000000
     22          1.133781        1.768167   1.000000   1.000000
     23          1.254389        1.845593   1.000000   1.000000
     24          1.424304        2.119117   1.000000   1.002943
     25          1.448848        2.178023   1.000000   1.039243
     26          1.504557        2.288588   1.000000   0.000000
     27          1.586083        2.312520   1.000000   0.000000
     28          1.742661        2.578746   1.013364   0.000000
     29          2.298879        2.810779   0.368021   0.000000
     30          3.938484        4.183306   0.000000   0.000000
     31          5.454016        5.599379   0.000000   0.000000
     32          7.212666        7.625986   0.000000   0.000000
     33          8.757557        8.936735   0.000000   0.000000
     34         10.379877       10.676039   0.000000   0.000000
     35         13.609025       13.871145   0.000000   0.000000
     36         14.118127       14.302765   0.000000   0.000000
 
  0.2222222E+00  0.1111111E+00  0.0000000E+00  0.9876543E-01
      1         -4.768099       -4.799176   1.000000   1.000000
      2         -3.711754       -3.714221   1.000000   1.000000
      3         -2.328279       -2.226051   1.000000   1.000000
      4         -1.503065       -1.168961   1.000000   1.000000
      5         -1.412418       -1.085923   1.000000   1.000000
      6         -1.245609       -0.735816   1.000000   1.000000
      7         -0.911879       -0.425708   1.000000   1.000000
      8         -0.626880       -0.033821   1.000000   1.000000
      9         -0.543297        0.100873   1.000000   1.000000
     10         -0.218723        0.339979   1.000000   1.000000
     11         -0.052546        0.563843   1.000000   1.000000
     12          0.098641        0.769615   1.000000   1.000000
     13          0.127085        0.805290   1.000000   1.000000
     14          0.151617        0.836265   1.000000   1.000000
     15          0.287070        0.964945   1.000000   1.000000
     16          0.361048        1.023380   1.000000   1.000000
     17          0.476401        1.169412   1.000000   1.000000
     18          0.634663        1.278928   1.000000   1.000000
     19          0.823610        1.479907   1.000000   1.000000
     20          0.889127        1.505180   1.000000   1.000000
     21          0.989925        1.645481   1.000000   1.000000
     22          1.196968        1.821063   1.000000   1.000000
     23          1.222856        1.874483   1.000000   1.000000
     24          1.278282        2.019866   1.000000   1.000000
     25          1.392178        2.053547   1.000000   1.092820
     26          1.534256        2.339435   1.000000   0.000000
     27          1.711267        2.524356   1.000000   0.000000
     28          1.880939        2.544720   0.963872   0.000000
     29          3.092766        3.510156  -0.030180   0.000000
     30          5.005005        5.229447   0.000000   0.000000
     31          6.734978        6.891199   0.000000   0.000000
     32          8.094088        8.500594   0.000000   0.000000
     33          9.754741        9.942893   0.000000   0.000000
     34         10.938838       11.168778   0.000000   0.000000
     35         11.481661       11.686849   0.000000   0.000000
     36         12.499065       12.647720   0.000000   0.000000
 
  0.3333333E+00  0.1111111E+00  0.0000000E+00  0.9876543E-01
      1         -3.510367       -3.496562   1.000000   1.000000
      2         -2.765336       -2.653112   1.000000   1.000000
      3         -2.005346       -1.685793   1.000000   1.000000
      4         -1.436419       -0.985720   1.000000   1.000000
      5         -1.109523       -0.637438   1.000000   1.000000
      6         -1.004176       -0.610089   1.000000   1.000000
      7         -0.619849       -0.104442   1.000000   1.000000
      8         -0.516674       -0.019786   1.000000   1.000000
      9         -0.330130        0.230522   1.000000   1.000000
     10         -0.264914        0.287048   1.000000   1.000000
     11         -0.070799        0.509027   1.000000   1.000000
     12          0.010071        0.615994   1.000000   1.000000
     13          0.077583        0.676216   1.000000   1.000000
     14          0.257584        0.892973   1.000000   1.000000
     15          0.301518        0.920928   1.000000   1.000000
     16          0.382073        1.016828   1.000000   1.000000
     17          0.453963        1.078978   1.000000   1.000000
     18          0.495169        1.209490   1.000000   1.000000
     19          0.649477        1.283684   1.000000   1.000000
     20          0.997183        1.639411   1.000000   1.000000
     21          1.146025        1.855121   1.000000   1.000000
     22          1.192814        1.875408   1.000000   1.000000
     23          1.421945        2.103431   1.000000   1.066501
     24          1.518481        2.161775   1.000000   0.975715
     25          1.565760        2.260104   1.000000   0.449866
     26          1.621917        2.411643   1.029085   0.000000
     27          1.670157        2.460326   0.992641   0.000000
     28          2.385743        2.924902   0.279226   0.000000
     29          4.101207        4.385054   0.000000   0.000000
     30          6.202294        6.366013   0.000000   0.000000
     31          7.863375        8.090389   0.000000   0.000000
     32          8.113187        8.253620   0.000000   0.000000
     33          9.359115        9.581568   0.000000   0.000000
     34          9.594554        9.998123   0.000000   0.000000
     35         10.698484       10.895109   0.000000   0.000000
     36         11.326704       11.517663   0.000000   0.000000
 
  0.4444444E+00  0.1111111E+00  0.0000000E+00  0.9876543E-01
      1         -2.366347       -2.165032   1.000000   1.000000
      2         -2.233318       -1.903724   1.000000   1.000000
      3         -1.954222       -1.568948   1.000000   1.000000
      4         -1.573863       -1.123160   1.000000   1.000000
      5         -1.233914       -0.895240   1.000000   1.000000
      6         -0.691254       -0.208354   1.000000   1.000000
      7         -0.636963       -0.053107   1.000000   1.000000
      8         -0.351869        0.116922   1.000000   1.000000
      9         -0.304966        0.235495   1.000000   1.000000
     10         -0.224467        0.285219   1.000000   1.000000
     11         -0.160774        0.472607   1.000000   1.000000
     12         -0.038500        0.538352   1.000000   1.000000
     13          0.069255        0.628104   1.000000   1.000000
     14          0.202875        0.824469   1.000000   1.000000
     15          0.315919        0.918040   1.000000   1.000000
     16          0.354992        1.008594   1.000000   1.000000
     17          0.510270        1.151911   1.000000   1.000000
     18          0.759766        1.355445   1.000000   1.000000
     19          0.821020        1.488979   1.000000   1.000000
     20          1.196020        1.799461   1.000000   1.000000
     21          1.233897        2.021106   1.000000   1.000000
     22          1.364309        2.073327   1.000000   1.000000
     23          1.554876        2.281959   1.000000   0.334297
     24          1.588599        2.293081   1.000000   0.227906
     25          1.670634        2.447321   1.000000  -0.014580
     26          2.559189        3.114228   0.119969   0.000000
     27          2.659983        3.142530   0.059396   0.000000
     28          3.309755        3.596734  -0.032251   0.000000
     29          4.377073        4.600762   0.000000   0.000000
     30          4.518056        4.867806   0.000000   0.000000
     31          7.023039        7.265379   0.000000   0.000000
     32          7.244634        7.457273   0.000000   0.000000
     33          9.250152        9.478104   0.000000   0.000000
     34          9.600022        9.818744   0.000000   0.000000
     35         10.998344       11.114393   0.000000   0.000000
     36         11.474259       11.703665   0.000000   0.000000
 
  0.2222222E+00  0.2222222E+00  0.0000000E+00  0.4938272E-01
      1         -3.966081       -3.981127   1.000000   1.000000
      2         -2.986313       -2.959876   1.000000   1.000000
      3         -1.792484       -1.631040   1.000000   1.000000
      4         -1.269788       -0.899644   1.000000   1.000000
      5         -1.010062       -0.692847   1.000000   1.000000
      6         -0.940966       -0.402370   1.000000   1.000000
      7         -0.855168       -0.261101   1.000000   1.000000
      8         -0.812081       -0.200857   1.000000   1.000000
      9         -0.701677       -0.077535   1.000000   1.000000
     10         -0.623780       -0.076152   1.000000   1.000000
     11         -0.207119        0.355341   1.000000   1.000000
     12         -0.077378        0.555179   1.000000   1.000000
     13          0.095301        0.722030   1.000000   1.000000
     14          0.310995        1.028745   1.000000   1.000000
     15          0.342190        1.062520   1.000000   1.000000
     16          0.457342        1.168690   1.000000   1.000000
     17          0.621397        1.219794   1.000000   1.000000
     18          0.671136        1.335974   1.000000   1.000000
     19          0.827832        1.374474   1.000000   1.000000
     20          0.851504        1.483021   1.000000   1.000000
     21          0.946311        1.670754   1.000000   1.000000
     22          1.018991        1.694359   1.000000   1.000000
     23          1.058231        1.695559   1.000000   1.000000
     24          1.342054        1.953413   1.000000   1.015803
     25          1.410188        2.236666   1.000000   0.796883
     26          1.648326        2.302388   1.000000   0.000000
     27          1.725443        2.556611   0.993889   0.000000
     28          2.468294        3.048531   0.189007   0.000000
     29          3.973198        4.346608   0.000000   0.000000
     30          5.990024        6.196206   0.000000   0.000000
     31          7.802141        7.943584   0.000000   0.000000
     32          8.976806        9.376914   0.000000   0.000000
     33         10.731266       10.924650   0.000000   0.000000
     34         11.278676       11.424627   0.000000   0.000000
     35         11.832965       12.110886   0.000000   0.000000
     36         12.565058       12.718343   0.000000   0.000000
 
  0.3333333E+00  0.2222222E+00  0.0000000E+00  0.9876543E-01
      1         -2.901104       -2.846975   1.000000   1.000000
      2         -2.176536       -2.026382   1.000000   1.000000
      3         -1.563157       -1.188582   1.000000   1.000000
      4         -1.235490       -0.845379   1.000000   1.000000
      5         -1.205327       -0.686280   1.000000   1.000000
      6         -1.017586       -0.418984   1.000000   1.000000
      7         -0.795790       -0.308499   1.000000   1.000000
      8         -0.748937       -0.207373   1.000000   1.000000
      9         -0.560611        0.003028   1.000000   1.000000
     10         -0.495530        0.030073   1.000000   1.000000
     11         -0.332777        0.208652   1.000000   1.000000
     12         -0.218780        0.378186   1.000000   1.000000
     13          0.013095        0.603845   1.000000   1.000000
     14          0.476747        1.159695   1.000000   1.000000
     15          0.508220        1.189213   1.000000   1.000000
     16          0.570956        1.220493   1.000000   1.000000
     17          0.655900        1.286841   1.000000   1.000000
     18          0.686350        1.364942   1.000000   1.000000
     19          0.842028        1.458967   1.000000   1.000000
     20          1.097375        1.741569   1.000000   1.000000
     21          1.121431        1.796081   1.000000   1.000000
     22          1.279439        1.908012   1.000000   1.012657
     23          1.371208        2.031374   1.000000   1.063451
     24          1.480192        2.124045   1.000000   0.955722
     25          1.580359        2.339883   1.000000   0.032705
     26          1.689368        2.496879   0.947975   0.000000
     27          2.159955        2.753128   0.562543   0.000000
     28          3.354766        3.809160  -0.037920   0.000000
     29          5.173406        5.445677   0.000000   0.000000
     30          7.274689        7.433466   0.000000   0.000000
     31          8.417945        8.621784   0.000000   0.000000
     32          9.099164        9.237985   0.000000   0.000000
     33          9.880729       10.061338   0.000000   0.000000
     34         10.448113       10.835604   0.000000   0.000000
     35         11.330070       11.500841   0.000000   0.000000
     36         12.273112       12.464438   0.000000   0.000000
 
  0.4444444E+00  0.2222222E+00  0.0000000E+00  0.9876543E-01
      1         -2.036478       -1.808016   1.000000   1.000000
      2         -1.776073       -1.399446   1.000000   1.000000
      3         -1.643777       -1.210477   1.000000   1.000000
      4         -1.476245       -1.025176   1.000000   1.000000
      5         -1.371698       -0.909479   1.000000   1.000000
      6         -1.049422       -0.503468   1.000000   1.000000
      7         -0.887809       -0.402165   1.000000   1.000000
      8         -0.804455       -0.258550   1.000000   1.000000
      9         -0.543575       -0.011486   1.000000   1.000000
     10         -0.429252        0.119069   1.000000   1.000000
     11         -0.161167        0.367397   1.000000   1.000000
     12         -0.104811        0.458986   1.000000   1.000000
     13          0.009117        0.567009   1.000000   1.000000
     14          0.514985        1.171916   1.000000   1.000000
     15          0.538480        1.183698   1.000000   1.000000
     16          0.586757        1.205340   1.000000   1.000000
     17          0.615910        1.292485   1.000000   1.000000
     18          0.789932        1.435616   1.000000   1.000000
     19          0.968983        1.698140   1.000000   1.000000
     20          1.208584        1.923627   1.000000   1.000000
     21          1.372877        2.024449   1.000000   1.000000
     22          1.484017        2.110566   1.000000   1.030242
     23          1.639412        2.345192   1.000000   0.187738
     24          1.679612        2.448567   1.000000  -0.030807
     25          1.711773        2.463276   1.000000  -0.005057
     26          2.875064        3.357722   0.026461   0.000000
     27          3.578765        3.976318  -0.046247   0.000000
     28          4.777137        5.046721   0.000000   0.000000
     29          5.179595        5.482607   0.000000   0.000000
     30          5.678249        5.901080   0.000000   0.000000
     31          7.623698        7.846716   0.000000   0.000000
     32          7.988608        8.195321   0.000000   0.000000
     33          9.831079       10.000954   0.000000   0.000000
     34         10.219626       10.393671   0.000000   0.000000
     35         11.739225       11.832005   0.000000   0.000000
     36         12.309739       12.472751   0.000000   0.000000
 
  0.3333333E+00  0.3333333E+00  0.0000000E+00  0.4938272E-01
      1         -2.326220       -2.150476   1.000000   1.000000
      2         -1.658169       -1.404365   1.000000   1.000000
      3         -1.531139       -1.138598   1.000000   1.000000
      4         -1.369907       -0.830669   1.000000   1.000000
      5         -1.347523       -0.781785   1.000000   1.000000
      6         -1.267033       -0.731269   1.000000   1.000000
      7         -1.035669       -0.571700   1.000000   1.000000
      8         -1.003171       -0.380689   1.000000   1.000000
      9         -0.664046       -0.139849   1.000000   1.000000
     10         -0.480502        0.116725   1.000000   1.000000
     11         -0.462042        0.120346   1.000000   1.000000
     12         -0.014193        0.549995   1.000000   1.000000
     13          0.054567        0.638373   1.000000   1.000000
     14          0.863178        1.533129   1.000000   1.000000
     15          0.879883        1.565085   1.000000   1.000000
     16          0.907551        1.593160   1.000000   1.000000
     17          0.960114        1.637297   1.000000   1.000000
     18          1.040392        1.645070   1.000000   1.000000
     19          1.217524        1.799213   1.000000   1.000000
     20          1.240581        1.934950   1.000000   1.009152