PROCAR lm decomposed
# of k-points:   15         # of bands:   36         # of ions:    5

 k-point     1 :    0.00000000 0.00000000 0.00000000     weight = 0.01234568

band     1 # energy   -6.26197676 # occ.  1.00000000
 
ion      s     py     pz     px    dxy    dyz    dz2    dxz  x2-y2    tot
    1  0.040  0.000  0.006  0.000  0.000  0.000  0.000  0.000  0.000  0.046
    2  0.161  0.000  0.003  0.000  0.000  0.000  0.000  0.000  0.000  0.165
    3  0.247  0.000  0.000  0.000  0.000  0.000  0.000  0.000  0.000  0.247
    4  0.196  0.000  0.002  0.000  0.000  0.000  0.000  0.000  0.000  0.199
    5  0.058  0.000  0.009  0.000  0.000  0.000  0.000  0.000  0.000  0.067
tot    0.702  0.000  0.021  0.000  0.000  0.000  0.001  0.000  0.000  0.723
 
band     2 # energy   -5.07689987 # occ.  1.00000000
 
ion      s     py     pz     px    dxy    dyz    dz2    dxz  x2-y2    tot
    1  0.133  0.000  0.012  0.000  0.000  0.000  0.001  0.000  0.000  0.146
    2  0.192  0.000  0.005  0.000  0.000  0.000  0.006  0.000  0.000  0.203
    3  0.001  0.000  0.037  0.000  0.000  0.000  0.000  0.000  0.000  0.038
    4  0.167  0.000  0.008  0.000  0.000  0.000  0.006  0.000  0.000  0.181
    5  0.137  0.000  0.011  0.000  0.000  0.000  0.001  0.000  0.000  0.149
tot    0.630  0.000  0.073  0.000  0.000  0.000  0.014  0.000  0.000  0.717
 
band     3 # energy   -3.39540406 # occ.  1.00000000
 
ion      s     py     pz     px    dxy    dyz    dz2    dxz  x2-y2    tot
    1  0.157  0.000  0.001  0.000  0.000  0.000  0.021  0.000  0.000  0.179
    2  0.004  0.000  0.060  0.000  0.000  0.000  0.003  0.000  0.000  0.067
    3  0.162  0.000  0.000  0.000  0.000  0.000  0.065  0.000  0.000  0.227
    4  0.003  0.000  0.061  0.000  0.000  0.000  0.002  0.000  0.000  0.066
    5  0.145  0.000  0.001  0.000  0.000  0.000  0.023  0.000  0.000  0.168
tot    0.469  0.000  0.123  0.000  0.000  0.000  0.114  0.000  0.000  0.706
 
band     4 # energy   -2.24823974 # occ.  1.00000000
 
ion      s     py     pz     px    dxy    dyz    dz2    dxz  x2-y2    tot
    1  0.028  0.000  0.001  0.000  0.000  0.000  0.028  0.000  0.000  0.056
    2  0.011  0.000  0.010  0.000  0.000  0.000  0.012  0.000  0.000  0.033
    3  0.003  0.000  0.024  0.000  0.000  0.000  0.047  0.000  0.000  0.074
    4  0.046  0.000  0.011  0.000  0.000  0.000  0.293  0.000  0.000  0.350
    5  0.085  0.000  0.010  0.000  0.000  0.000  0.188  0.000  0.000  0.284
tot    0.173  0.000  0.057  0.000  0.000  0.000  0.568  0.000  0.000  0.798
 
band     5 # energy   -2.16448742 # occ.  1.00000000
 
ion      s     py     pz     px    dxy    dyz    dz2    dxz  x2-y2    tot
    1  0.066  0.000  0.008  0.000  0.000  0.000  0.151  0.000  0.000  0.225
    2  0.041  0.000  0.003  0.000  0.000  0.000  0.315  0.000  0.000  0.359
    3  0.009  0.000  0.008  0.000  0.000  0.000  0.173  0.000  0.000  0.190
    4  0.000  0.000  0.003  0.000  0.000  0.000  0.047  0.000  0.000  0.051
    5  0.000  0.000  0.001  0.000  0.000  0.000  0.006  0.000  0.000  0.006
tot    0.117  0.000  0.023  0.000  0.000  0.000  0.691  0.000  0.000  0.831
 
band     6 # energy   -1.72480094 # occ.  1.00000000
 
ion      s     py     pz     px    dxy    dyz    dz2    dxz  x2-y2    tot
    1  0.000  0.000  0.000  0.000  0.030  0.000  0.000  0.000  0.000  0.030
    2  0.000  0.000  0.000  0.000  0.169  0.000  0.000  0.000  0.000  0.169
    3  0.000  0.000  0.000  0.000  0.322  0.000  0.000  0.000  0.000  0.322
    4  0.000  0.000  0.000  0.000  0.322  0.000  0.000  0.000  0.000  0.322
    5  0.000  0.000  0.000  0.000  0.097  0.000  0.000  0.000  0.000  0.097
tot    0.000  0.000  0.000  0.000  0.941  0.000  0.000  0.000  0.000  0.941
 
band     7 # energy   -1.36362979 # occ.  1.00000000
 
ion      s     py     pz     px    dxy    dyz    dz2    dxz  x2-y2    tot
    1  0.000  0.000  0.000  0.000  0.163  0.000  0.000  0.000  0.000  0.163
    2  0.000  0.000  0.000  0.000  0.354  0.000  0.000  0.000  0.000  0.354
    3  0.000  0.000  0.000  0.000  0.022  0.000  0.000  0.000  0.000  0.022
    4  0.000  0.000  0.000  0.000  0.223  0.000  0.000  0.000  0.000  0.223
    5  0.000  0.000  0.000  0.000  0.183  0.000  0.000  0.000  0.000  0.183
tot    0.000  0.000  0.000  0.000  0.945  0.000  0.000  0.000  0.000  0.945
 
band     8 # energy   -0.85088667 # occ.  1.00000000
 
ion      s     py     pz     px    dxy    dyz    dz2    dxz  x2-y2    tot
    1  0.000  0.000  0.000  0.000  0.325  0.000  0.000  0.000  0.000  0.325
    2  0.000  0.000  0.000  0.000  0.024  0.000  0.000  0.000  0.000  0.024
    3  0.000  0.000  0.000  0.000  0.371  0.000  0.000  0.000  0.000  0.371
    4  0.000  0.000  0.000  0.000  0.003  0.000  0.000  0.000  0.000  0.003
    5  0.000  0.000  0.000  0.000  0.231  0.000  0.000  0.000  0.000  0.231
tot    0.000  0.000  0.000  0.000  0.954  0.000  0.000  0.000  0.000  0.954
 
band     9 # energy   -0.37111193 # occ.  1.00000000
 
ion      s     py     pz     px    dxy    dyz    dz2    dxz  x2-y2    tot
    1  0.000  0.000  0.000  0.000  0.323  0.000  0.000  0.000  0.000  0.323
    2  0.000  0.000  0.000  0.000  0.207  0.000  0.000  0.000  0.000  0.207
    3  0.000  0.000  0.000  0.000  0.002  0.000  0.000  0.000  0.000  0.002
    4  0.000  0.000  0.000  0.000  0.160  0.000  0.000  0.000  0.000  0.160
    5  0.000  0.000  0.000  0.000  0.273  0.000  0.000  0.000  0.000  0.273
tot    0.000  0.000  0.000  0.000  0.965  0.000  0.000  0.000  0.000  0.965
 
band    10 # energy   -0.13435285 # occ.  1.00000000
 
ion      s     py     pz     px    dxy    dyz    dz2    dxz  x2-y2    tot
    1  0.000  0.000  0.000  0.000  0.115  0.000  0.000  0.000  0.000  0.115
    2  0.000  0.000  0.000  0.000  0.200  0.000  0.000  0.000  0.000  0.200
    3  0.000  0.000  0.000  0.000  0.238  0.000  0.000  0.000  0.000  0.238
    4  0.000  0.000  0.000  0.000  0.247  0.000  0.000  0.000  0.000  0.247
    5  0.000  0.000  0.000  0.000  0.173  0.000  0.000  0.000  0.000  0.173
tot    0.000  0.000  0.000  0.000  0.973  0.000  0.000  0.000  0.000  0.973
 
band    11 # energy   -0.01002227 # occ.  1.00000000
 
ion      s     py     pz     px    dxy    dyz    dz2    dxz  x2-y2    tot
    1  0.000  0.000  0.000  0.000  0.000  0.001  0.000  0.027  0.000  0.029
    2  0.000  0.000  0.000  0.000  0.000  0.008  0.000  0.188  0.000  0.197
    3  0.000  0.000  0.000  0.000  0.000  0.014  0.000  0.328  0.000  0.343
    4  0.000  0.000  0.000  0.000  0.000  0.014  0.000  0.322  0.000  0.337
    5  0.000  0.000  0.000  0.001  0.000  0.003  0.000  0.068  0.000  0.072
tot    0.000  0.000  0.000  0.002  0.000  0.041  0.000  0.934  0.000  0.977
 
band    12 # energy   -0.01002227 # occ.  1.00000000
 
ion      s     py     pz     px    dxy    dyz    dz2    dxz  x2-y2    tot
    1  0.000  0.000  0.000  0.000  0.000  0.027  0.000  0.001  0.000  0.029
    2  0.000  0.000  0.000  0.000  0.000  0.188  0.000  0.008  0.000  0.197
    3  0.000  0.000  0.000  0.000  0.000  0.328  0.000  0.014  0.000  0.343
    4  0.000  0.000  0.000  0.000  0.000  0.322  0.000  0.014  0.000  0.337
    5  0.000  0.001  0.000  0.000  0.000  0.068  0.000  0.003  0.000  0.072
tot    0.000  0.002  0.000  0.000  0.000  0.934  0.000  0.041  0.000  0.977
 
band    13 # energy    0.35908598 # occ.  1.00000000
 
ion      s     py     pz     px    dxy    dyz    dz2    dxz  x2-y2    tot
    1  0.000  0.001  0.000  0.000  0.000  0.114  0.000  0.024  0.000  0.140
    2  0.000  0.000  0.000  0.000  0.000  0.321  0.000  0.069  0.000  0.390
    3  0.000  0.002  0.000  0.001  0.000  0.012  0.000  0.002  0.000  0.017
    4  0.000  0.001  0.000  0.000  0.000  0.228  0.000  0.049  0.000  0.278
    5  0.000  0.001  0.000  0.000  0.000  0.125  0.000  0.027  0.000  0.153
tot    0.000  0.005  0.000  0.001  0.000  0.800  0.000  0.171  0.000  0.978
 
band    14 # energy    0.35908598 # occ.  1.00000000
 
ion      s     py     pz     px    dxy    dyz    dz2    dxz  x2-y2    tot
    1  0.000  0.000  0.000  0.001  0.000  0.024  0.000  0.114  0.000  0.140
    2  0.000  0.000  0.000  0.000  0.000  0.069  0.000  0.321  0.000  0.390
    3  0.000  0.001  0.000  0.002  0.000  0.002  0.000  0.012  0.000  0.017
    4  0.000  0.000  0.000  0.001  0.000  0.049  0.000  0.228  0.000  0.278
    5  0.000  0.000  0.000  0.001  0.000  0.027  0.000  0.125  0.000  0.153
tot    0.000  0.001  0.000  0.005  0.000  0.171  0.000  0.800  0.000  0.978
 
band    15 # energy    0.54761568 # occ.  1.00000000
 
ion      s     py     pz     px    dxy    dyz    dz2    dxz  x2-y2    tot
    1  0.013  0.000  0.000  0.000  0.000  0.000  0.257  0.000  0.000  0.270
    2  0.000  0.000  0.009  0.000  0.000  0.000  0.005  0.000  0.000  0.014
    3  0.014  0.000  0.000  0.000  0.000  0.000  0.390  0.000  0.000  0.404
    4  0.000  0.000  0.010  0.000  0.000  0.000  0.028  0.000  0.000  0.038
    5  0.015  0.000  0.000  0.000  0.000  0.000  0.162  0.000  0.000  0.178
tot    0.042  0.000  0.020  0.000  0.000  0.000  0.842  0.000  0.000  0.904
 
band    16 # energy    0.82290486 # occ.  1.00000000
 
ion      s     py     pz     px    dxy    dyz    dz2    dxz  x2-y2    tot
    1  0.000  0.000  0.000  0.000  0.000  0.000  0.274  0.000  0.000  0.274
    2  0.002  0.000  0.000  0.000  0.000  0.000  0.286  0.000  0.000  0.288
    3  0.000  0.000  0.002  0.000  0.000  0.000  0.017  0.000  0.000  0.019
    4  0.001  0.000  0.000  0.000  0.000  0.000  0.129  0.000  0.000  0.130
    5  0.002  0.000  0.000  0.000  0.000  0.000  0.240  0.000  0.000  0.242
tot    0.006  0.000  0.002  0.000  0.000  0.000  0.947  0.000  0.000  0.955
 
band    17 # energy    0.95201468 # occ.  1.00000000
 
ion      s     py     pz     px    dxy    dyz    dz2    dxz  x2-y2    tot
    1  0.000  0.000  0.000  0.000  0.000  0.063  0.000  0.232  0.000  0.294
    2  0.000  0.001  0.000  0.003  0.000  0.007  0.000  0.028  0.000  0.039
    3  0.000  0.000  0.000  0.000  0.000  0.081  0.000  0.302  0.000  0.383
    4  0.000  0.001  0.000  0.003  0.000  0.002  0.000  0.008  0.000  0.013
    5  0.000  0.000  0.000  0.000  0.000  0.053  0.000  0.197  0.000  0.250
tot    0.000  0.002  0.000  0.006  0.000  0.207  0.000  0.765  0.000  0.980
 
band    18 # energy    0.95201469 # occ.  1.00000000
 
ion      s     py     pz     px    dxy    dyz    dz2    dxz  x2-y2    tot
    1  0.000  0.000  0.000  0.000  0.000  0.232  0.000  0.063  0.000  0.294
    2  0.000  0.003  0.000  0.001  0.000  0.028  0.000  0.007  0.000  0.039
    3  0.000  0.000  0.000  0.000  0.000  0.302  0.000  0.081  0.000  0.383
    4  0.000  0.003  0.000  0.001  0.000  0.008  0.000  0.002  0.000  0.013
    5  0.000  0.000  0.000  0.000  0.000  0.197  0.000  0.053  0.000  0.250
tot    0.000  0.006  0.000  0.002  0.000  0.765  0.000  0.207  0.000  0.980
 
band    19 # energy    1.01196682 # occ.  1.00000000
 
ion      s     py     pz     px    dxy    dyz    dz2    dxz  x2-y2    tot
    1  0.001  0.000  0.001  0.000  0.000  0.000  0.113  0.000  0.000  0.114
    2  0.000  0.000  0.000  0.000  0.000  0.000  0.132  0.000  0.000  0.133
    3  0.000  0.000  0.001  0.000  0.000  0.000  0.208  0.000  0.000  0.208
    4  0.000  0.000  0.000  0.000  0.000  0.000  0.290  0.000  0.000  0.291
    5  0.001  0.000  0.001  0.000  0.000  0.000  0.217  0.000  0.000  0.218
tot    0.002  0.000  0.002  0.000  0.000  0.000  0.960  0.000  0.000  0.964
 
band    20 # energy    1.04590137 # occ.  1.00000000
 
ion      s     py     pz     px    dxy    dyz    dz2    dxz  x2-y2    tot
    1  0.000  0.000  0.000  0.000  0.000  0.000  0.000  0.000  0.014  0.014
    2  0.000  0.000  0.000  0.000  0.000  0.000  0.000  0.000  0.117  0.117
    3  0.000  0.000  0.000  0.000  0.000  0.000  0.000  0.000  0.244  0.244
    4  0.000  0.000  0.000  0.000  0.000  0.000  0.000  0.000  0.492  0.492
    5  0.000  0.000  0.000  0.000  0.000  0.000  0.000  0.000  0.122  0.122
tot    0.000  0.000  0.000  0.000  0.000  0.000  0.000  0.000  0.989  0.989
 
band    21 # energy    1.12378200 # occ.  1.00000000
 
ion      s     py     pz     px    dxy    dyz    dz2    dxz  x2-y2    tot
    1  0.038  0.000  0.019  0.000  0.000  0.000  0.074  0.000  0.000  0.131
    2  0.036  0.000  0.016  0.000  0.000  0.000  0.149  0.000  0.000  0.202
    3  0.000  0.000  0.067  0.000  0.000  0.000  0.001  0.000  0.000  0.068
    4  0.035  0.000  0.017  0.000  0.000  0.000  0.104  0.000  0.000  0.157
    5  0.038  0.000  0.019  0.000  0.000  0.000  0.080  0.000  0.000  0.137
tot    0.148  0.000  0.139  0.000  0.000  0.000  0.409  0.000  0.000  0.696
 
band    22 # energy    1.20538934 # occ.  1.00000000
 
ion      s     py     pz     px    dxy    dyz    dz2    dxz  x2-y2    tot
    1  0.000  0.000  0.000  0.000  0.000  0.000  0.000  0.000  0.132  0.132
    2  0.000  0.000  0.000  0.000  0.000  0.000  0.000  0.000  0.508  0.508
    3  0.000  0.000  0.000  0.000  0.000  0.000  0.000  0.000  0.063  0.063
    4  0.000  0.000  0.000  0.000  0.000  0.000  0.000  0.000  0.179  0.179
    5  0.000  0.000  0.000  0.000  0.000  0.000  0.000  0.000  0.107  0.107
tot    0.000  0.000  0.000  0.000  0.000  0.000  0.000  0.000  0.989  0.989
 
band    23 # energy    1.47475463 # occ.  1.00000000
 
ion      s     py     pz     px    dxy    dyz    dz2    dxz  x2-y2    tot
    1  0.000  0.000  0.000  0.000  0.000  0.058  0.000  0.297  0.000  0.355
    2  0.000  0.000  0.000  0.001  0.000  0.025  0.000  0.126  0.000  0.152
    3  0.000  0.000  0.000  0.002  0.000  0.000  0.000  0.000  0.000  0.002
    4  0.000  0.000  0.000  0.001  0.000  0.024  0.000  0.122  0.000  0.148
    5  0.000  0.000  0.000  0.000  0.000  0.054  0.000  0.273  0.000  0.327
tot    0.000  0.001  0.000  0.004  0.000  0.161  0.000  0.818  0.000  0.984
 
band    24 # energy    1.47475464 # occ.  1.00000000
 
ion      s     py     pz     px    dxy    dyz    dz2    dxz  x2-y2    tot
    1  0.000  0.000  0.000  0.000  0.000  0.297  0.000  0.058  0.000  0.355
    2  0.000  0.001  0.000  0.000  0.000  0.126  0.000  0.025  0.000  0.152
    3  0.000  0.002  0.000  0.000  0.000  0.000  0.000  0.000  0.000  0.002
    4  0.000  0.001  0.000  0.000  0.000  0.122  0.000  0.024  0.000  0.148
    5  0.000  0.000  0.000  0.000  0.000  0.273  0.000  0.054  0.000  0.327
tot    0.000  0.004  0.000  0.001  0.000  0.818  0.000  0.161  0.000  0.984
 
band    25 # energy    1.47608732 # occ.  1.00000000
 
ion      s     py     pz     px    dxy    dyz    dz2    dxz  x2-y2    tot
    1  0.000  0.000  0.000  0.000  0.000  0.000  0.000  0.000  0.276  0.276
    2  0.000  0.000  0.000  0.000  0.000  0.000  0.000  0.000  0.044  0.044
    3  0.000  0.000  0.000  0.000  0.000  0.000  0.000  0.000  0.449  0.449
    4  0.000  0.000  0.000  0.000  0.000  0.000  0.000  0.000  0.002  0.002
    5  0.000  0.000  0.000  0.000  0.000  0.000  0.000  0.000  0.219  0.219
tot    0.000  0.000  0.000  0.000  0.000  0.000  0.000  0.000  0.991  0.991
 
band    26 # energy    1.64501211 # occ.  1.00000000
 
ion      s     py     pz     px    dxy    dyz    dz2    dxz  x2-y2    tot
    1  0.000  0.000  0.000  0.000  0.000  0.000  0.000  0.000  0.358  0.358
    2  0.000  0.000  0.000  0.000  0.000  0.000  0.000  0.000  0.116  0.116
    3  0.000  0.000  0.000  0.000  0.000  0.000  0.000  0.000  0.001  0.001
    4  0.000  0.000  0.000  0.000  0.000  0.000  0.000  0.000  0.152  0.152
    5  0.000  0.000  0.000  0.000  0.000  0.000  0.000  0.000  0.365  0.365
tot    0.000  0.000  0.000  0.000  0.000  0.000  0.000  0.000  0.992  0.992
 
band    27 # energy    1.71907525 # occ.  1.00000000
 
ion      s     py     pz     px    dxy    dyz    dz2    dxz  x2-y2    tot
    1  0.000  0.000  0.000  0.000  0.000  0.000  0.000  0.000  0.210  0.210
    2  0.000  0.000  0.000  0.000  0.000  0.000  0.000  0.000  0.205  0.205
    3  0.000  0.000  0.000  0.000  0.000  0.000  0.000  0.000  0.234  0.234
    4  0.000  0.000  0.000  0.000  0.000  0.000  0.000  0.000  0.166  0.166
    5  0.000  0.000  0.000  0.000  0.000  0.000  0.000  0.000  0.178  0.178
tot    0.000  0.000  0.000  0.000  0.000  0.000  0.000  0.000  0.993  0.993
 
band    28 # energy    1.75176223 # occ.  1.00000000
 
ion      s     py     pz     px    dxy    dyz    dz2    dxz  x2-y2    tot
    1  0.000  0.000  0.000  0.000  0.000  0.105  0.000  0.056  0.000  0.162
    2  0.000  0.000  0.000  0.000  0.000  0.133  0.000  0.071  0.000  0.205
    3  0.000  0.000  0.000  0.000  0.000  0.154  0.000  0.083  0.000  0.237
    4  0.000  0.000  0.000  0.000  0.000  0.135  0.000  0.072  0.000  0.208
    5  0.000  0.000  0.000  0.000  0.000  0.116  0.000  0.062  0.000  0.180
tot    0.000  0.001  0.000  0.000  0.000  0.644  0.000  0.346  0.000  0.991
 
band    29 # energy    1.75176224 # occ.  1.01359249
 
ion      s     py     pz     px    dxy    dyz    dz2    dxz  x2-y2    tot
    1  0.000  0.000  0.000  0.000  0.000  0.056  0.000  0.105  0.000  0.162
    2  0.000  0.000  0.000  0.000  0.000  0.071  0.000  0.133  0.000  0.205
    3  0.000  0.000  0.000  0.000  0.000  0.083  0.000  0.154  0.000  0.237
    4  0.000  0.000  0.000  0.000  0.000  0.072  0.000  0.135  0.000  0.208
    5  0.000  0.000  0.000  0.000  0.000  0.062  0.000  0.116  0.000  0.180
tot    0.000  0.000  0.000  0.001  0.000  0.346  0.000  0.644  0.000  0.991
 
band    30 # energy    2.86034758 # occ.  0.00000000
 
ion      s     py     pz     px    dxy    dyz    dz2    dxz  x2-y2    tot
    1  0.004  0.000  0.107  0.000  0.000  0.000  0.000  0.000  0.000  0.111
    2  0.022  0.000  0.044  0.000  0.000  0.000  0.032  0.000  0.000  0.097
    3  0.037  0.000  0.001  0.000  0.000  0.000  0.039  0.000  0.000  0.077
    4  0.026  0.000  0.027  0.000  0.000  0.000  0.044  0.000  0.000  0.096
    5  0.004  0.000  0.087  0.000  0.000  0.000  0.001  0.000  0.000  0.092
tot    0.092  0.000  0.266  0.000  0.000  0.000  0.116  0.000  0.000  0.474
 
band    31 # energy    4.21667848 # occ.  0.00000000
 
ion      s     py     pz     px    dxy    dyz    dz2    dxz  x2-y2    tot
    1  0.004  0.000  0.068  0.000  0.000  0.000  0.011  0.000  0.000  0.082
    2  0.002  0.000  0.093  0.000  0.000  0.000  0.001  0.000  0.000  0.096
    3  0.000  0.000  0.111  0.000  0.000  0.000  0.000  0.000  0.000  0.111
    4  0.000  0.000  0.110  0.000  0.000  0.000  0.000  0.000  0.000  0.110
    5  0.004  0.000  0.087  0.000  0.000  0.000  0.018  0.000  0.000  0.109
tot    0.010  0.000  0.468  0.000  0.000  0.000  0.030  0.000  0.000  0.509
 
band    32 # energy    6.61509841 # occ.  0.00000000
 
ion      s     py     pz     px    dxy    dyz    dz2    dxz  x2-y2    tot
    1  0.006  0.000  0.008  0.000  0.000  0.000  0.005  0.000  0.000  0.018
    2  0.004  0.000  0.002  0.000  0.000  0.000  0.003  0.000  0.000  0.009
    3  0.003  0.000  0.000  0.000  0.000  0.000  0.003  0.000  0.000  0.006
    4  0.004  0.000  0.002  0.000  0.000  0.000  0.003  0.000  0.000  0.009
    5  0.005  0.000  0.009  0.000  0.000  0.000  0.004  0.000  0.000  0.018
tot    0.022  0.000  0.020  0.000  0.000  0.000  0.017  0.000  0.000  0.059
 
band    33 # energy    8.08495305 # occ.  0.00000000
 
ion      s     py     pz     px    dxy    dyz    dz2    dxz  x2-y2    tot
    1  0.009  0.000  0.026  0.000  0.000  0.000  0.007  0.000  0.000  0.042
    2  0.002  0.000  0.016  0.000  0.000  0.000  0.001  0.000  0.000  0.019
    3  0.000  0.000  0.014  0.000  0.000  0.000  0.000  0.000  0.000  0.014
    4  0.002  0.000  0.016  0.000  0.000  0.000  0.002  0.000  0.000  0.020
    5  0.007  0.000  0.029  0.000  0.000  0.000  0.005  0.000  0.000  0.041
tot    0.019  0.000  0.101  0.000  0.000  0.000  0.015  0.000  0.000  0.135
 
band    34 # energy    9.87672613 # occ.  0.00000000
 
ion      s     py     pz     px    dxy    dyz    dz2    dxz  x2-y2    tot
    1  0.025  0.000  0.005  0.000  0.000  0.000  0.027  0.000  0.000  0.058
    2  0.018  0.000  0.001  0.000  0.000  0.000  0.017  0.000  0.000  0.037
    3  0.016  0.000  0.000  0.000  0.000  0.000  0.015  0.000  0.000  0.031
    4  0.017  0.000  0.001  0.000  0.000  0.000  0.017  0.000  0.000  0.034
    5  0.023  0.000  0.008  0.000  0.000  0.000  0.024  0.000  0.000  0.055
tot    0.099  0.000  0.015  0.000  0.000  0.000  0.100  0.000  0.000  0.215
 
band    35 # energy   13.05193235 # occ.  0.00000000
 
ion      s     py     pz     px    dxy    dyz    dz2    dxz  x2-y2    tot
    1  0.024  0.000  0.006  0.000  0.000  0.000  0.039  0.000  0.000  0.069
    2  0.009  0.000  0.014  0.000  0.000  0.000  0.013  0.000  0.000  0.036
    3  0.000  0.000  0.018  0.000  0.000  0.000  0.000  0.000  0.000  0.019
    4  0.005  0.000  0.016  0.000  0.000  0.000  0.008  0.000  0.000  0.028
    5  0.018  0.000  0.015  0.000  0.000  0.000  0.028  0.000  0.000  0.061
tot    0.055  0.000  0.068  0.000  0.000  0.000  0.089  0.000  0.000  0.212
 
band    36 # energy   13.75974083 # occ.  0.00000000
 
ion      s     py     pz     px    dxy    dyz    dz2    dxz  x2-y2    tot
    1  0.012  0.000  0.031  0.000  0.000  0.000  0.025  0.000  0.000  0.068
    2  0.040  0.000  0.010  0.000  0.000  0.000  0.071  0.000  0.000  0.121
    3  0.053  0.000  0.000  0.000  0.000  0.000  0.097  0.000  0.000  0.150
    4  0.038  0.000  0.011  0.000  0.000  0.000  0.068  0.000  0.000  0.118
    5  0.016  0.000  0.019  0.000  0.000  0.000  0.034  0.000  0.000  0.069
tot    0.159  0.000  0.071  0.000  0.000  0.000  0.295  0.000  0.000  0.525
 

 k-point     2 :    0.11111111-0.00000000 0.00000000     weight = 0.04938272

band     1 # energy   -5.94994705 # occ.  1.00000000
 
ion      s     py     pz     px    dxy    dyz    dz2    dxz  x2-y2    tot
    1  0.038  0.001  0.006  0.001  0.000  0.000  0.000  0.000  0.000  0.046
    2  0.156  0.002  0.003  0.002  0.000  0.000  0.000  0.000  0.000  0.165
    3  0.240  0.004  0.000  0.004  0.000  0.000  0.000  0.000  0.000  0.248
    4  0.190  0.003  0.002  0.003  0.000  0.000  0.000  0.000  0.000  0.199
    5  0.056  0.001  0.009  0.001  0.000  0.000  0.000  0.000  0.000  0.067
tot    0.680  0.010  0.020  0.010  0.001  0.001  0.000  0.001  0.000  0.724
 
band     2 # energy   -4.78476292 # occ.  1.00000000
 
ion      s     py     pz     px    dxy    dyz    dz2    dxz  x2-y2    tot
    1  0.128  0.002  0.012  0.002  0.000  0.001  0.001  0.001  0.000  0.145
    2  0.187  0.003  0.005  0.003  0.000  0.000  0.005  0.000  0.000  0.203
    3  0.001  0.000  0.037  0.000  0.000  0.002  0.000  0.002  0.000  0.042
    4  0.162  0.003  0.008  0.003  0.000  0.000  0.005  0.000  0.000  0.182
    5  0.131  0.002  0.011  0.002  0.000  0.001  0.001  0.001  0.000  0.148
tot    0.609  0.009  0.072  0.009  0.001  0.004  0.012  0.004  0.000  0.720
 
band     3 # energy   -3.14398392 # occ.  1.00000000
 
ion      s     py     pz     px    dxy    dyz    dz2    dxz  x2-y2    tot
    1  0.148  0.002  0.002  0.002  0.001  0.000  0.018  0.000  0.000  0.173
    2  0.004  0.000  0.058  0.000  0.000  0.005  0.004  0.005  0.000  0.076
    3  0.154  0.003  0.000  0.003  0.002  0.000  0.063  0.000  0.000  0.224
    4  0.003  0.000  0.059  0.000  0.000  0.005  0.003  0.005  0.000  0.075
    5  0.138  0.002  0.001  0.002  0.001  0.000  0.020  0.000  0.000  0.164
tot    0.447  0.007  0.120  0.007  0.003  0.010  0.108  0.010  0.000  0.713
 
band     4 # energy   -2.05450478 # occ.  1.00000000
 
ion      s     py     pz     px    dxy    dyz    dz2    dxz  x2-y2    tot
    1  0.011  0.000  0.000  0.000  0.000  0.000  0.006  0.000  0.000  0.018
    2  0.003  0.000  0.007  0.000  0.000  0.001  0.000  0.001  0.000  0.012
    3  0.004  0.000  0.017  0.000  0.001  0.001  0.089  0.001  0.000  0.114
    4  0.039  0.001  0.009  0.001  0.008  0.002  0.326  0.002  0.000  0.388
    5  0.076  0.002  0.009  0.002  0.006  0.001  0.190  0.001  0.000  0.287
tot    0.133  0.004  0.043  0.004  0.016  0.004  0.611  0.004  0.000  0.820
 
band     5 # energy   -1.97945488 # occ.  1.00000000
 
ion      s     py     pz     px    dxy    dyz    dz2    dxz  x2-y2    tot
    1  0.078  0.002  0.008  0.002  0.004  0.001  0.170  0.001  0.000  0.265
    2  0.042  0.002  0.006  0.002  0.007  0.001  0.324  0.001  0.000  0.384
    3  0.005  0.000  0.013  0.000  0.002  0.001  0.130  0.001  0.000  0.153
    4  0.001  0.000  0.005  0.000  0.000  0.000  0.010  0.000  0.000  0.017
    5  0.003  0.000  0.000  0.000  0.000  0.000  0.000  0.000  0.000  0.004
tot    0.128  0.004  0.033  0.004  0.013  0.003  0.634  0.003  0.000  0.822
 
band     6 # energy   -1.62551754 # occ.  1.00000000
 
ion      s     py     pz     px    dxy    dyz    dz2    dxz  x2-y2    tot
    1  0.000  0.000  0.000  0.000  0.028  0.000  0.000  0.000  0.000  0.029
    2  0.000  0.001  0.000  0.001  0.163  0.000  0.001  0.000  0.000  0.167
    3  0.000  0.002  0.000  0.002  0.315  0.000  0.004  0.000  0.000  0.322
    4  0.000  0.002  0.000  0.002  0.316  0.000  0.004  0.000  0.000  0.324
    5  0.000  0.001  0.000  0.001  0.092  0.001  0.001  0.001  0.000  0.096
tot    0.000  0.005  0.000  0.005  0.913  0.002  0.011  0.002  0.000  0.939
 
band     7 # energy   -1.27896369 # occ.  1.00000000
 
ion      s     py     pz     px    dxy    dyz    dz2    dxz  x2-y2    tot
    1  0.000  0.001  0.000  0.001  0.148  0.001  0.003  0.001  0.000  0.155
    2  0.000  0.002  0.000  0.002  0.345  0.000  0.005  0.000  0.000  0.354
    3  0.000  0.000  0.000  0.000  0.024  0.003  0.000  0.003  0.000  0.030
    4  0.000  0.001  0.000  0.001  0.215  0.001  0.004  0.001  0.000  0.224
    5  0.000  0.001  0.000  0.001  0.171  0.001  0.003  0.001  0.000  0.179
tot    0.001  0.005  0.001  0.005  0.902  0.007  0.015  0.007  0.000  0.943
 
band     8 # energy   -0.79966864 # occ.  1.00000000
 
ion      s     py     pz     px    dxy    dyz    dz2    dxz  x2-y2    tot
    1  0.000  0.001  0.000  0.001  0.296  0.002  0.001  0.002  0.000  0.303
    2  0.000  0.000  0.000  0.000  0.030  0.009  0.000  0.009  0.000  0.049
    3  0.000  0.002  0.000  0.002  0.350  0.000  0.001  0.000  0.000  0.355
    4  0.000  0.000  0.001  0.000  0.003  0.011  0.000  0.011  0.000  0.026
    5  0.000  0.001  0.000  0.001  0.212  0.001  0.001  0.001  0.000  0.218
tot    0.001  0.004  0.001  0.004  0.891  0.023  0.004  0.023  0.000  0.950
 
band     9 # energy   -0.36579967 # occ.  1.00000000
 
ion      s     py     pz     px    dxy    dyz    dz2    dxz  x2-y2    tot
    1  0.000  0.001  0.000  0.001  0.263  0.001  0.000  0.001  0.000  0.266
    2  0.000  0.001  0.000  0.001  0.143  0.025  0.000  0.025  0.000  0.194
    3  0.000  0.000  0.001  0.000  0.000  0.047  0.000  0.047  0.000  0.095
    4  0.000  0.001  0.000  0.001  0.126  0.033  0.000  0.033  0.000  0.193
    5  0.000  0.001  0.000  0.001  0.206  0.001  0.000  0.001  0.000  0.212
tot    0.001  0.003  0.001  0.003  0.738  0.107  0.000  0.107  0.000  0.961
 
band    10 # energy   -0.06662330 # occ.  1.00000000
 
ion      s     py     pz     px    dxy    dyz    dz2    dxz  x2-y2    tot
    1  0.000  0.000  0.000  0.000  0.144  0.005  0.003  0.005  0.000  0.158
    2  0.000  0.000  0.000  0.000  0.194  0.006  0.001  0.006  0.000  0.206
    3  0.000  0.000  0.000  0.000  0.196  0.000  0.000  0.000  0.000  0.197
    4  0.000  0.000  0.000  0.000  0.210  0.002  0.000  0.002  0.000  0.215
    5  0.000  0.000  0.000  0.000  0.178  0.006  0.003  0.006  0.000  0.193
tot    0.000  0.001  0.000  0.001  0.921  0.020  0.007  0.020  0.000  0.970
 
band    11 # energy   -0.02999017 # occ.  1.00000000
 
ion      s     py     pz     px    dxy    dyz    dz2    dxz  x2-y2    tot
    1  0.000  0.000  0.000  0.000  0.059  0.018  0.005  0.018  0.000  0.099
    2  0.000  0.000  0.000  0.000  0.036  0.072  0.001  0.072  0.000  0.182
    3  0.000  0.000  0.001  0.000  0.001  0.102  0.002  0.102  0.000  0.209
    4  0.000  0.000  0.000  0.000  0.027  0.136  0.000  0.136  0.000  0.299
    5  0.000  0.000  0.000  0.000  0.081  0.044  0.015  0.044  0.000  0.184
tot    0.001  0.000  0.001  0.000  0.203  0.371  0.023  0.371  0.000  0.972
 
band    12 # energy    0.03044341 # occ.  1.00000000
 
ion      s     py     pz     px    dxy    dyz    dz2    dxz  x2-y2    tot
    1  0.000  0.000  0.000  0.000  0.000  0.011  0.000  0.011  0.003  0.025
    2  0.000  0.000  0.000  0.000  0.000  0.091  0.000  0.091  0.004  0.187
    3  0.000  0.000  0.000  0.000  0.000  0.172  0.000  0.172  0.000  0.345
    4  0.000  0.000  0.000  0.000  0.000  0.172  0.000  0.172  0.002  0.347
    5  0.000  0.001  0.000  0.001  0.000  0.032  0.000  0.032  0.008  0.072
tot    0.000  0.001  0.000  0.001  0.000  0.479  0.000  0.479  0.017  0.977
 
band    13 # energy    0.15262759 # occ.  1.00000000
 
ion      s     py     pz     px    dxy    dyz    dz2    dxz  x2-y2    tot
    1  0.001  0.000  0.000  0.000  0.003  0.029  0.083  0.029  0.000  0.147
    2  0.000  0.000  0.000  0.000  0.006  0.130  0.001  0.130  0.000  0.268
    3  0.002  0.001  0.000  0.001  0.047  0.009  0.151  0.009  0.000  0.219
    4  0.000  0.000  0.001  0.000  0.020  0.081  0.016  0.081  0.000  0.200
    5  0.003  0.000  0.000  0.000  0.000  0.030  0.061  0.030  0.000  0.125
tot    0.006  0.001  0.002  0.001  0.076  0.280  0.313  0.280  0.000  0.960
 
band    14 # energy    0.33442459 # occ.  1.00000000
 
ion      s     py     pz     px    dxy    dyz    dz2    dxz  x2-y2    tot
    1  0.000  0.001  0.000  0.001  0.000  0.057  0.000  0.057  0.007  0.122
    2  0.000  0.000  0.000  0.000  0.000  0.189  0.000  0.189  0.003  0.380
    3  0.000  0.001  0.000  0.001  0.000  0.009  0.000  0.009  0.042  0.063
    4  0.000  0.000  0.000  0.000  0.000  0.128  0.000  0.128  0.016  0.273
    5  0.000  0.001  0.000  0.001  0.000  0.067  0.000  0.067  0.005  0.140
tot    0.000  0.003  0.000  0.003  0.000  0.450  0.000  0.450  0.072  0.977
 
band    15 # energy    0.42612111 # occ.  1.00000000
 
ion      s     py     pz     px    dxy    dyz    dz2    dxz  x2-y2    tot
    1  0.014  0.000  0.002  0.000  0.000  0.054  0.011  0.054  0.000  0.136
    2  0.010  0.001  0.008  0.001  0.013  0.021  0.121  0.021  0.000  0.196
    3  0.000  0.000  0.023  0.000  0.000  0.157  0.003  0.157  0.000  0.339