<?xml version="1.0" encoding="ISO-8859-1"?>
<modeling>
 <generator>
  <i name="program" type="string">vasp </i>
  <i name="version" type="string">6.3.0  </i>
  <i name="subversion" type="string">20Jan22 (build Feb 01 2022 16:52:37) complex                          parallel </i>
  <i name="platform" type="string">TETRA_NSC1 </i>
  <i name="date" type="string">2022 02 23 </i>
  <i name="time" type="string">15:54:22 </i>
 </generator>
 <incar>
  <i type="string" name="SYSTEM">clean (100) Ni surface</i>
  <i type="string" name="ALGO">Normal</i>
  <i type="int" name="ISPIN">     2</i>
  <i name="ENMAX">    270.00000000</i>
  <v name="MAGMOM">      1.00000000      1.00000000      1.00000000      1.00000000      1.00000000</v>
  <i type="int" name="ISMEAR">    -5</i>
  <i type="int" name="LORBIT">    11</i>
 </incar>
 <primitive_cell>
  <structure name="primitive_cell" >
   <crystal>
    <varray name="basis" >
     <v>       1.76500000       1.76500000       0.00000000 </v>
     <v>      -1.76500000       1.76500000       0.00000000 </v>
     <v>       0.00000000       0.00000000      17.65000000 </v>
    </varray>
    <i name="volume">    109.96744250 </i>
    <varray name="rec_basis" >
     <v>       0.28328612       0.28328612       0.00000000 </v>
     <v>      -0.28328612       0.28328612       0.00000000 </v>
     <v>       0.00000000       0.00000000       0.05665722 </v>
    </varray>
   </crystal>
   <varray name="positions" >
    <v>       0.00000000       0.00000000       0.00000000 </v>
    <v>       0.50000000       0.50000000       0.10000000 </v>
    <v>       0.00000000       0.00000000       0.20000000 </v>
    <v>       0.50000000       0.50000000       0.30020998 </v>
    <v>       0.00000000       0.00000000       0.39550725 </v>
   </varray>
  </structure>
  <varray name="primitive_index" >
   <v type="int" >        1 </v>
   <v type="int" >        2 </v>
   <v type="int" >        3 </v>
   <v type="int" >        4 </v>
   <v type="int" >        5 </v>
  </varray>
 </primitive_cell>
 <kpoints>
  <generation param="Monkhorst-Pack">
   <v type="int" name="divisions">       9        9        1 </v>
   <v name="usershift">      0.00000000       0.00000000       0.00000000 </v>
   <v name="genvec1">      0.11111111       0.00000000       0.00000000 </v>
   <v name="genvec2">      0.00000000       0.11111111       0.00000000 </v>
   <v name="genvec3">      0.00000000       0.00000000       1.00000000 </v>
   <v name="shift">      0.00000000       0.00000000       0.00000000 </v>
  </generation>
  <varray name="kpointlist" >
   <v>       0.00000000       0.00000000       0.00000000 </v>
   <v>       0.11111111      -0.00000000       0.00000000 </v>
   <v>       0.22222222      -0.00000000       0.00000000 </v>
   <v>       0.33333333       0.00000000       0.00000000 </v>
   <v>       0.44444444      -0.00000000       0.00000000 </v>
   <v>       0.11111111       0.11111111       0.00000000 </v>
   <v>       0.22222222       0.11111111       0.00000000 </v>
   <v>       0.33333333       0.11111111       0.00000000 </v>
   <v>       0.44444444       0.11111111       0.00000000 </v>
   <v>       0.22222222       0.22222222       0.00000000 </v>
   <v>       0.33333333       0.22222222       0.00000000 </v>
   <v>       0.44444444       0.22222222       0.00000000 </v>
   <v>       0.33333333       0.33333333       0.00000000 </v>
   <v>       0.44444444       0.33333333       0.00000000 </v>
   <v>       0.44444444       0.44444444       0.00000000 </v>
  </varray>
  <varray name="weights" >
   <v>       0.01234568 </v>
   <v>       0.04938272 </v>
   <v>       0.04938272 </v>
   <v>       0.04938272 </v>
   <v>       0.04938272 </v>
   <v>       0.04938272 </v>
   <v>       0.09876543 </v>
   <v>       0.09876543 </v>
   <v>       0.09876543 </v>
   <v>       0.04938272 </v>
   <v>       0.09876543 </v>
   <v>       0.09876543 </v>
   <v>       0.04938272 </v>
   <v>       0.09876543 </v>
   <v>       0.04938272 </v>
  </varray>
  <varray name="tetrahedronlist"  type="int" >
   <v type="int" >        4        2        2        2        6 </v>
   <v type="int" >        4        1        2        2        2 </v>
   <v type="int" >        2        1        1        2        2 </v>
   <v type="int" >        2        2        2        6        6 </v>
   <v type="int" >        4        3        6        6        7 </v>
   <v type="int" >        4        2        3        6        6 </v>
   <v type="int" >        4        2        2        3        6 </v>
   <v type="int" >        4        3        6        7        7 </v>
   <v type="int" >        4        3        3        6        7 </v>
   <v type="int" >        4        2        3        3        6 </v>
   <v type="int" >        4        4        7        7        8 </v>
   <v type="int" >        4        3        4        7        7 </v>
   <v type="int" >        4        3        3        4        7 </v>
   <v type="int" >        4        4        7        8        8 </v>
   <v type="int" >        4        4        4        7        8 </v>
   <v type="int" >        4        3        4        4        7 </v>
   <v type="int" >        4        5        8        8        9 </v>
   <v type="int" >        4        4        5        8        8 </v>
   <v type="int" >        4        4        4        5        8 </v>
   <v type="int" >        4        5        8        9        9 </v>
   <v type="int" >        4        5        5        8        9 </v>
   <v type="int" >        4        4        5        5        8 </v>
   <v type="int" >        8        5        9        9        9 </v>
   <v type="int" >        8        5        5        9        9 </v>
   <v type="int" >        8        5        5        5        9 </v>
   <v type="int" >        4        4        8        9        9 </v>
   <v type="int" >        4        4        5        9        9 </v>
   <v type="int" >        4        4        5        5        9 </v>
   <v type="int" >        4        4        8        8        9 </v>
   <v type="int" >        4        4        4        8        9 </v>
   <v type="int" >        4        4        4        5        9 </v>
   <v type="int" >        4        3        7        8        8 </v>
   <v type="int" >        4        3        4        8        8 </v>
   <v type="int" >        4        3        4        4        8 </v>
   <v type="int" >        4        3        7        7        8 </v>
   <v type="int" >        4        3        3        7        8 </v>
   <v type="int" >        4        3        3        4        8 </v>
   <v type="int" >        4        2        6        7        7 </v>
   <v type="int" >        4        2        3        7        7 </v>
   <v type="int" >        4        2        3        3        7 </v>
   <v type="int" >        4        2        6        6        7 </v>
   <v type="int" >        4        2        2        6        7 </v>
   <v type="int" >        4        2        2        3        7 </v>
   <v type="int" >        4        1        2        6        6 </v>
   <v type="int" >        4        1        2        2        6 </v>
   <v type="int" >        4        1        1        2        6 </v>
   <v type="int" >        4        7        7        7       10 </v>
   <v type="int" >        4        6        7        7        7 </v>
   <v type="int" >        2        6        6        7        7 </v>
   <v type="int" >        2        7        7       10       10 </v>
   <v type="int" >        4        8       10       10       11 </v>
   <v type="int" >        4        7        8       10       10 </v>
   <v type="int" >        4        7        7        8       10 </v>
   <v type="int" >        4        8       10       11       11 </v>
   <v type="int" >        4        8        8       10       11 </v>
   <v type="int" >        4        7        8        8       10 </v>
   <v type="int" >        4        9       11       11       12 </v>
   <v type="int" >        4        8        9       11       11 </v>
   <v type="int" >        4        8        8        9       11 </v>
   <v type="int" >        4        9       11       12       12 </v>
   <v type="int" >        4        9        9       11       12 </v>
   <v type="int" >        4        8        9        9       11 </v>
   <v type="int" >        8        9       12       12       12 </v>
   <v type="int" >        8        9        9       12       12 </v>
   <v type="int" >        8        9        9        9       12 </v>
   <v type="int" >        4        8       11       12       12 </v>
   <v type="int" >        4        8        9       12       12 </v>
   <v type="int" >        4        8        9        9       12 </v>
   <v type="int" >        4        8       11       11       12 </v>
   <v type="int" >        4        8        8       11       12 </v>
   <v type="int" >        4        8        8        9       12 </v>
   <v type="int" >        4        7       10       11       11 </v>
   <v type="int" >        4        7        8       11       11 </v>
   <v type="int" >        4        7        8        8       11 </v>
   <v type="int" >        4        7       10       10       11 </v>
   <v type="int" >        4        7        7       10       11 </v>
   <v type="int" >        4        7        7        8       11 </v>
   <v type="int" >        4        6        7       10       10 </v>
   <v type="int" >        4        6        7        7       10 </v>
   <v type="int" >        4        6        6        7       10 </v>
   <v type="int" >        4       11       11       11       13 </v>
   <v type="int" >        4       10       11       11       11 </v>
   <v type="int" >        2       10       10       11       11 </v>
   <v type="int" >        2       11       11       13       13 </v>
   <v type="int" >        4       12       13       13       14 </v>
   <v type="int" >        4       11       12       13       13 </v>
   <v type="int" >        4       11       11       12       13 </v>
   <v type="int" >        4       12       13       14       14 </v>
   <v type="int" >        4       12       12       13       14 </v>
   <v type="int" >        4       11       12       12       13 </v>
   <v type="int" >        8       12       14       14       14 </v>
   <v type="int" >        8       12       12       14       14 </v>
   <v type="int" >        8       12       12       12       14 </v>
   <v type="int" >        4       11       13       14       14 </v>
   <v type="int" >        4       11       12       14       14 </v>
   <v type="int" >        4       11       12       12       14 </v>
   <v type="int" >        4       11       13       13       14 </v>
   <v type="int" >        4       11       11       13       14 </v>
   <v type="int" >        4       11       11       12       14 </v>
   <v type="int" >        4       10       11       13       13 </v>
   <v type="int" >        4       10       11       11       13 </v>
   <v type="int" >        4       10       10       11       13 </v>
   <v type="int" >       12       14       14       14       15 </v>
   <v type="int" >        4       13       14       14       14 </v>
   <v type="int" >        2       13       13       14       14 </v>
   <v type="int" >       10       14       14       15       15 </v>
   <v type="int" >        8       14       15       15       15 </v>
   <v type="int" >        4       13       14       15       15 </v>
   <v type="int" >        4       13       14       14       15 </v>
   <v type="int" >        4       13       13       14       15 </v>
   <v type="int" >        6       15       15       15       15 </v>
  </varray>
  <i name="volumeweight">      0.00205761 </i>
 </kpoints>
 <parameters>
  <separator name="general" >
   <i type="string" name="SYSTEM">clean (100) Ni surface</i>
   <i type="logical" name="LCOMPAT"> F  </i>
  </separator>
  <separator name="electronic" >
   <i type="string" name="PREC">normal</i>
   <i name="ENMAX">    270.00000000</i>
   <i name="ENAUG">    544.56500000</i>
   <i name="EDIFF">      0.00010000</i>
   <i type="int" name="IALGO">    38</i>
   <i type="int" name="IWAVPR">    10</i>
   <i type="int" name="NBANDS">    36</i>
   <i type="int" name="NBANDSLOW">    -1</i>
   <i type="int" name="NBANDSHIGH">    -1</i>
   <i name="NELECT">     50.00000000</i>
   <i type="int" name="TURBO">     0</i>
   <i type="int" name="IRESTART">     0</i>
   <i type="int" name="NREBOOT">     0</i>
   <i type="int" name="NMIN">     0</i>
   <i name="EREF">      0.00000000</i>
   <separator name="electronic smearing" >
    <i type="int" name="ISMEAR">    -5</i>
    <i name="SIGMA">      0.20000000</i>
    <i name="KSPACING">      0.50000000</i>
    <i type="logical" name="KGAMMA"> T  </i>
    <i type="logical" name="KBLOWUP"> T  </i>
   </separator>
   <separator name="electronic projectors" >
    <i type="logical" name="LREAL"> F  </i>
    <v name="ROPT">      0.00000000</v>
    <i type="int" name="LMAXPAW">  -100</i>
    <i type="int" name="LMAXMIX">     2</i>
    <i type="logical" name="NLSPLINE"> F  </i>
   </separator>
   <separator name="electronic startup" >
    <i type="int" name="ISTART">     0</i>
    <i type="int" name="ICHARG">     2</i>
    <i type="int" name="INIWAV">     1</i>
   </separator>
   <separator name="electronic spin" >
    <i type="int" name="ISPIN">     2</i>
    <i type="logical" name="LNONCOLLINEAR"> F  </i>
    <v name="MAGMOM">      1.00000000      1.00000000      1.00000000      1.00000000      1.00000000</v>
    <i name="NUPDOWN">     -1.00000000</i>
    <i type="logical" name="LSORBIT"> F  </i>
    <v name="SAXIS">      0.00000000      0.00000000      1.00000000</v>
    <i type="logical" name="LSPIRAL"> F  </i>
    <v name="QSPIRAL">      0.00000000      0.00000000      0.00000000</v>
    <i type="logical" name="LZEROZ"> F  </i>
   </separator>
   <separator name="electronic exchange-correlation" >
    <i type="logical" name="LASPH"> F  </i>
    <i type="logical" name="LMETAGGA"> F  </i>
   </separator>
   <separator name="electronic convergence" >
    <i type="int" name="NELM">    60</i>
    <i type="int" name="NELMDL">    -5</i>
    <i type="int" name="NELMIN">     2</i>
    <i name="ENINI">    270.00000000</i>
    <separator name="electronic convergence detail" >
     <i type="logical" name="LDIAG"> T  </i>
     <i type="logical" name="LSUBROT"> F  </i>
     <i name="WEIMIN">      0.00000000</i>
     <i name="EBREAK">      0.00000069</i>
     <i name="DEPER">      0.30000000</i>
     <i type="int" name="NRMM">     4</i>
     <i name="TIME">      0.40000000</i>
    </separator>
   </separator>
   <separator name="electronic mixer" >
    <i name="AMIX">      0.40000000</i>
    <i name="BMIX">      1.00000000</i>
    <i name="AMIN">      0.10000000</i>
    <i name="AMIX_MAG">      1.60000000</i>
    <i name="BMIX_MAG">      1.00000000</i>
    <separator name="electronic mixer details" >
     <i type="int" name="IMIX">     4</i>
     <i type="logical" name="MIXFIRST"> F  </i>
     <i type="int" name="MAXMIX">   -45</i>
     <i name="WC">    100.00000000</i>
     <i type="int" name="INIMIX">     1</i>
     <i type="int" name="MIXPRE">     1</i>
     <i type="int" name="MREMOVE">     5</i>
    </separator>
   </separator>
   <separator name="electronic dipolcorrection" >
    <i type="logical" name="LDIPOL"> F  </i>
    <i type="logical" name="LMONO"> F  </i>
    <i type="int" name="IDIPOL">     0</i>
    <i name="EPSILON">      1.00000000</i>
    <v name="DIPOL">   -100.00000000   -100.00000000   -100.00000000</v>
    <i name="EFIELD">      0.00000000</i>
   </separator>
  </separator>
  <separator name="grids" >
   <i type="int" name="NGX">    10</i>
   <i type="int" name="NGY">    10</i>
   <i type="int" name="NGZ">    72</i>
   <i type="int" name="NGXF">    20</i>
   <i type="int" name="NGYF">    20</i>
   <i type="int" name="NGZF">   144</i>
   <i type="logical" name="ADDGRID"> F  </i>
  </separator>
  <separator name="ionic" >
   <i type="int" name="NSW">     0</i>
   <i type="int" name="IBRION">    -1</i>
   <i type="int" name="MDALGO">     0</i>
   <i type="int" name="ISIF">     2</i>
   <i name="PSTRESS">      0.00000000</i>
   <i name="EDIFFG">      0.00100000</i>
   <i type="int" name="NFREE">     0</i>
   <i name="POTIM">      0.50000000</i>
   <i name="SMASS">     -3.00000000</i>
   <i name="SCALEE">      1.00000000</i>
  </separator>
  <separator name="ionic md" >
   <i name="TEBEG">      0.00010000</i>
   <i name="TEEND">      0.00010000</i>
   <i type="int" name="NBLOCK">     1</i>
   <i type="int" name="KBLOCK">     1</i>
   <i type="int" name="NPACO">   256</i>
   <i name="APACO">     10.00000000</i>
  </separator>
  <separator name="symmetry" >
   <i type="int" name="ISYM">     2</i>
   <i name="SYMPREC">      0.00001000</i>
  </separator>
  <separator name="dos" >
   <i type="int" name="LORBIT">    11</i>
   <v name="RWIGS">     -1.00000000</v>
   <i type="int" name="NEDOS">   301</i>
   <i name="EMIN">     10.00000000</i>
   <i name="EMAX">    -10.00000000</i>
   <i name="EFERMI">      0.00000000</i>
  </separator>
  <separator name="writing" >
   <i type="int" name="NWRITE">     2</i>
   <i type="logical" name="LWAVE"> T  </i>
   <i type="logical" name="LDOWNSAMPLE"> F  </i>
   <i type="logical" name="LCHARG"> T  </i>
   <i type="logical" name="LPARD"> F  </i>
   <i type="logical" name="LVTOT"> F  </i>
   <i type="logical" name="LVHAR"> F  </i>
   <i type="logical" name="LELF"> F  </i>
   <i type="logical" name="LOPTICS"> F  </i>
   <v name="STM">      0.00000000      0.00000000      0.00000000      0.00000000      0.00000000      0.00000000      0.00000000</v>
  </separator>
  <separator name="performance" >
   <i type="int" name="NPAR">     4</i>
   <i type="int" name="NSIM">     4</i>
   <i type="int" name="NBLK">    -1</i>
   <i type="logical" name="LPLANE"> T  </i>
   <i type="logical" name="LSCALAPACK"> T  </i>
   <i type="logical" name="LSCAAWARE"> F  </i>
   <i type="logical" name="LSCALU"> F  </i>
   <i type="logical" name="LASYNC"> F  </i>
   <i type="logical" name="LORBITALREAL"> F  </i>
  </separator>
  <separator name="miscellaneous" >
   <i type="int" name="IDIOT">     3</i>
   <i type="int" name="PHON_NSTRUCT">    -1</i>
   <i type="logical" name="LMUSIC"> F  </i>
   <v name="POMASS">     58.69000000</v>
   <v name="DARWINR">      0.00000000</v>
   <v name="DARWINV">      1.00000000</v>
   <i type="logical" name="LCORR"> T  </i>
  </separator>
  <i type="logical" name="GGA_COMPAT"> T  </i>
  <i type="logical" name="LBERRY"> F  </i>
  <i type="int" name="ICORELEVEL">     0</i>
  <i type="logical" name="LDAU"> F  </i>
  <i type="int" name="I_CONSTRAINED_M">     0</i>
  <separator name="electronic exchange-correlation" >
   <i type="string" name="GGA">--</i>
   <i type="int" name="VOSKOWN">     0</i>
   <i type="logical" name="LHFCALC"> F  </i>
   <i type="string" name="PRECFOCK"></i>
   <i type="logical" name="LSYMGRAD"> F  </i>
   <i type="logical" name="LHFONE"> F  </i>
   <i type="logical" name="LRHFCALC"> F  </i>
   <i type="logical" name="LTHOMAS"> F  </i>
   <i type="logical" name="LMODELHF"> F  </i>
   <i type="logical" name="LFOCKACE"> F  </i>
   <i name="ENCUT4O">     -1.00000000</i>
   <i type="int" name="EXXOEP">     0</i>
   <i type="int" name="FOURORBIT">     0</i>
   <i name="AEXX">      0.00000000</i>
   <i name="HFALPHA">      0.00000000</i>
   <i name="MCALPHA">      0.00000000</i>
   <i name="ALDAX">      1.00000000</i>
   <i name="AGGAX">      1.00000000</i>
   <i name="ALDAC">      1.00000000</i>
   <i name="AGGAC">      1.00000000</i>
   <i type="int" name="NKREDX">     1</i>
   <i type="int" name="NKREDY">     1</i>
   <i type="int" name="NKREDZ">     1</i>
   <i type="logical" name="SHIFTRED"> F  </i>
   <i type="logical" name="ODDONLY"> F  </i>
   <i type="logical" name="EVENONLY"> F  </i>
   <i type="int" name="LMAXFOCK">     0</i>
   <i type="int" name="NMAXFOCKAE">     0</i>
   <i type="logical" name="LFOCKAEDFT"> F  </i>
   <i name="HFSCREEN">      0.00000000</i>
   <i name="HFSCREENC">      0.00000000</i>
   <i type="int" name="NBANDSGWLOW">     0</i>
  </separator>
  <separator name="vdW DFT" >
   <i type="logical" name="LUSE_VDW"> F  </i>
   <i name="Zab_VDW">     -0.84910000</i>
   <i name="PARAM1">      0.12340000</i>
   <i name="PARAM2">      1.00000000</i>
   <i name="PARAM3">      0.00000000</i>
  </separator>
  <separator name="model GW" >
   <i type="int" name="MODEL_GW">     0</i>
   <i name="MODEL_EPS0">     13.19609310</i>
   <i name="MODEL_ALPHA">      1.00000000</i>
  </separator>
  <separator name="linear response parameters" >
   <i type="logical" name="LEPSILON"> F  </i>
   <i type="logical" name="LRPA"> F  </i>
   <i type="logical" name="LNABLA"> F  </i>
   <i type="logical" name="LVEL"> F  </i>
   <i name="CSHIFT">      0.10000000</i>
   <i name="OMEGAMAX">     -1.00000000</i>
   <i name="DEG_THRESHOLD">      0.00200000</i>
   <i name="RTIME">     -0.10000000</i>
   <i name="WPLASMAI">      0.00000000</i>
   <v name="DFIELD">      0.00000000      0.00000000      0.00000000</v>
   <v name="WPLASMA">      0.00000000      0.00000000      0.00000000      0.00000000      0.00000000      0.00000000      0.00000000      0.00000000      0.00000000</v>
  </separator>
  <separator name="orbital magnetization" >
   <i type="logical" name="NUCIND"> F  </i>
   <v name="MAGPOS">      0.00000000      0.00000000      0.00000000</v>
   <i type="logical" name="LNICSALL"> T  </i>
   <i type="logical" name="ORBITALMAG"> F  </i>
   <i type="logical" name="LMAGBLOCH"> F  </i>
   <i type="logical" name="LCHIMAG"> F  </i>
   <i type="logical" name="LGAUGE"> T  </i>
   <i type="int" name="MAGATOM">     0</i>
   <v name="MAGDIPOL">      0.00000000      0.00000000      0.00000000</v>
   <v name="AVECCONST">      0.00000000      0.00000000      0.00000000</v>
  </separator>
  <separator name="response functions" >
   <i type="logical" name="LFINITE_TEMPERATURE"> F  </i>
   <i type="logical" name="LADDER"> F  </i>
   <i type="logical" name="LRPAFORCE"> F  </i>
   <i type="logical" name="LFXC"> F  </i>
   <i type="logical" name="LHARTREE"> T  </i>
   <i type="int" name="IBSE">     0</i>
   <v type="int" name="KPOINT">    -1     0     0     0</v>
   <i type="logical" name="LTCTC"> F  </i>
   <i type="logical" name="LTCTE"> F  </i>
   <i type="logical" name="LTETE"> F  </i>
   <i type="logical" name="LTRIPLET"> F  </i>
   <i type="logical" name="LFXCEPS"> F  </i>
   <i type="logical" name="LFXHEG"> F  </i>
   <i type="int" name="NATURALO">     2</i>
   <i type="logical" name="LHOLEGF"> F  </i>
   <i type="logical" name="L2ORDER"> F  </i>
   <i type="logical" name="LDMP1"> F  </i>
   <i type="logical" name="LMP2LT"> F  </i>
   <i type="logical" name="LSMP2LT"> F  </i>
   <i type="logical" name="LGWLF"> F  </i>
   <i name="ENCUTGW">     -2.00000000</i>
   <i name="ENCUTGWSOFT">     -2.00000000</i>
   <i name="ENCUTLF">     -1.00000000</i>
   <i type="logical" name="LESF_SPLINES"> F  </i>
   <i type="int" name="LMAXMP2">    -1</i>
   <i name="SCISSOR">      0.00000000</i>
   <i type="int" name="NOMEGA">     0</i>
   <i type="int" name="NOMEGAR">     0</i>
   <i type="int" name="NBANDSGW">    -1</i>
   <i type="int" name="NBANDSO">    -1</i>
   <i type="int" name="NBANDSV">    -1</i>
   <i type="int" name="NELMGW">     1</i>
   <i type="int" name="NELMHF">     1</i>
   <i type="int" name="DIM">     3</i>
   <i type="int" name="IESPILON">     4</i>
   <i type="int" name="ANTIRES">     0</i>
   <i name="OMEGAMAX">    -30.00000000</i>
   <i name="OMEGAMIN">    -30.00000000</i>
   <i name="OMEGATL">   -200.00000000</i>
   <i type="int" name="OMEGAGRID">     0</i>
   <i name="CSHIFT">     -0.10000000</i>
   <i type="logical" name="LSELFENERGY"> F  </i>
   <i type="logical" name="LSPECTRAL"> F  </i>
   <i type="logical" name="LSPECTRALGW"> F  </i>
   <i type="logical" name="LSINGLES"> F  </i>
   <i type="logical" name="LFERMIGW"> F  </i>
   <i type="logical" name="ODDONLYGW"> F  </i>
   <i type="logical" name="EVENONLYGW"> F  </i>
   <i type="int" name="NKREDLFX">     1</i>
   <i type="int" name="NKREDLFY">     1</i>
   <i type="int" name="NKREDLFZ">     1</i>
   <i type="int" name="MAXMEM">  2800</i>
   <i type="int" name="TELESCOPE">     0</i>
   <i type="int" name="NTAUPAR">    -1</i>
   <i type="int" name="NOMEGAPAR">    -1</i>
   <i name="DAMP_NEWTON">      0.80000001</i>
   <i name="LAMBDA">      1.00000000</i>
  </separator>
  <separator name="External order field" >
   <i name="OFIELD_KAPPA">      0.00000000</i>
   <v name="OFIELD_K">      0.00000000      0.00000000      0.00000000</v>
   <i name="OFIELD_Q6_NEAR">      0.00000000</i>
   <i name="OFIELD_Q6_FAR">      0.00000000</i>
   <i name="OFIELD_A">      0.00000000</i>
  </separator>
  <separator name="optional k-points parameters" >
   <i type="int" name="KPOINTS_OPT_MODE">     1</i>
   <i type="logical" name="LKPOINTS_OPT"> F  </i>
  </separator>
 </parameters>
 <atominfo>
  <atoms>       5 </atoms>
  <types>       1 </types>
  <array name="atoms" >
   <dimension dim="1">ion</dimension>
   <field type="string">element</field>
   <field type="int">atomtype</field>
   <set>
    <rc><c>Ni</c><c>   1</c></rc>
    <rc><c>Ni</c><c>   1</c></rc>
    <rc><c>Ni</c><c>   1</c></rc>
    <rc><c>Ni</c><c>   1</c></rc>
    <rc><c>Ni</c><c>   1</c></rc>
   </set>
  </array>
  <array name="atomtypes" >
   <dimension dim="1">type</dimension>
   <field type="int">atomspertype</field>
   <field type="string">element</field>
   <field>mass</field>
   <field>valence</field>
   <field type="string">pseudopotential</field>
   <set>
    <rc><c>   5</c><c>Ni</c><c>     58.69000000</c><c>     10.00000000</c><c>  PAW_PBE Ni 02Aug2007                  </c></rc>
   </set>
  </array>
 </atominfo>
 <structure name="initialpos" >
  <crystal>
   <varray name="basis" >
    <v>       1.76500000       1.76500000       0.00000000 </v>
    <v>      -1.76500000       1.76500000       0.00000000 </v>
    <v>       0.00000000       0.00000000      17.65000000 </v>
   </varray>
   <i name="volume">    109.96744250 </i>
   <varray name="rec_basis" >
    <v>       0.28328612       0.28328612       0.00000000 </v>
    <v>      -0.28328612       0.28328612       0.00000000 </v>
    <v>       0.00000000       0.00000000       0.05665722 </v>
   </varray>
  </crystal>
  <varray name="positions" >
   <v>       0.00000000       0.00000000       0.00000000 </v>
   <v>       0.50000000       0.50000000       0.10000000 </v>
   <v>       0.00000000       0.00000000       0.20000000 </v>
   <v>       0.50000000       0.50000000       0.30020998 </v>
   <v>       0.00000000       0.00000000       0.39550725 </v>
  </varray>
  <varray name="selective"  type="logical" >
   <v type="logical" >  F  F  F </v>
   <v type="logical" >  F  F  F </v>
   <v type="logical" >  F  F  F </v>
   <v type="logical" >  T  T  T </v>
   <v type="logical" >  T  T  T </v>
  </varray>
  <nose>
   <v>      -3.00000000       0.00000000       0.00010000       0.00010000 </v>
  </nose>
 </structure>
 <calculation>
  <scstep>
   <time name="dav">    0.35    0.35</time>
   <time name="total">    0.38    0.38</time>
   <energy>
    <i name="alphaZ">    115.94204576 </i>
    <i name="ewald">   9453.09366082 </i>
    <i name="hartreedc"> -14847.89923159 </i>
    <i name="XCdc">    157.42249095 </i>
    <i name="pawpsdc">   4814.16586801 </i>
    <i name="pawaedc">  -5148.35356137 </i>
    <i name="eentropy">      0.00000000 </i>
    <i name="bandstr">    327.81991367 </i>
    <i name="atom">   5388.18037335 </i>
    <i name="e_fr_energy">    260.37155959 </i>
    <i name="e_wo_entrp">    260.37155959 </i>
    <i name="e_0_energy">    260.37155959 </i>
   </energy>
  </scstep>
  <scstep>
   <time name="dav">    0.35    0.35</time>
   <time name="total">    0.36    0.36</time>
   <energy>
    <i name="e_fr_energy">    -13.86148592 </i>
    <i name="e_wo_entrp">    -13.86148592 </i>
    <i name="e_0_energy">    -13.86148592 </i>
   </energy>
  </scstep>
  <scstep>
   <time name="dav">    0.37    0.37</time>
   <time name="total">    0.38    0.38</time>
   <energy>
    <i name="e_fr_energy">    -30.04100951 </i>
    <i name="e_wo_entrp">    -30.04100951 </i>
    <i name="e_0_energy">    -30.04100951 </i>
   </energy>
  </scstep>
  <scstep>
   <time name="dav">    0.38    0.38</time>
   <time name="total">    0.39    0.39</time>
   <energy>
    <i name="e_fr_energy">    -30.22891553 </i>
    <i name="e_wo_entrp">    -30.22891553 </i>
    <i name="e_0_energy">    -30.22891553 </i>
   </energy>
  </scstep>
  <scstep>
   <time name="dav">    0.41    0.41</time>
   <time name="total">    0.44    0.44</time>
   <energy>
    <i name="e_fr_energy">    -30.23347274 </i>
    <i name="e_wo_entrp">    -30.23347274 </i>
    <i name="e_0_energy">    -30.23347274 </i>
   </energy>
  </scstep>
  <scstep>
   <time name="dav">    0.37    0.37</time>
   <time name="total">    0.42    0.42</time>
   <energy>
    <i name="e_fr_energy">    -30.30761045 </i>
    <i name="e_wo_entrp">    -30.30761045 </i>
    <i name="e_0_energy">    -30.30761045 </i>
   </energy>
  </scstep>
  <scstep>
   <time name="dav">    0.38    0.38</time>
   <time name="total">    0.43    0.43</time>
   <energy>
    <i name="e_fr_energy">    -32.86855440 </i>
    <i name="e_wo_entrp">    -32.86855440 </i>
    <i name="e_0_energy">    -32.86855440 </i>
   </energy>
  </scstep>
  <scstep>
   <time name="dav">    0.42    0.42</time>
   <time name="total">    0.47    0.47</time>
   <energy>
    <i name="e_fr_energy">    -34.43170538 </i>
    <i name="e_wo_entrp">    -34.43170538 </i>
    <i name="e_0_energy">    -34.43170538 </i>
   </energy>
  </scstep>
  <scstep>
   <time name="dav">    0.42    0.42</time>
   <time name="total">    0.47    0.47</time>
   <energy>
    <i name="e_fr_energy">    -28.20087451 </i>
    <i name="e_wo_entrp">    -28.20087451 </i>
    <i name="e_0_energy">    -28.20087451 </i>
   </energy>
  </scstep>
  <scstep>
   <time name="dav">    0.38    0.39</time>
   <time name="total">    0.43    0.43</time>
   <energy>
    <i name="e_fr_energy">    -26.07531102 </i>
    <i name="e_wo_entrp">    -26.07531102 </i>
    <i name="e_0_energy">    -26.07531102 </i>
   </energy>
  </scstep>
  <scstep>
   <time name="dav">    0.38    0.38</time>
   <time name="total">    0.42    0.42</time>
   <energy>
    <i name="e_fr_energy">    -26.57912038 </i>
    <i name="e_wo_entrp">    -26.57912038 </i>
    <i name="e_0_energy">    -26.57912038 </i>
   </energy>
  </scstep>
  <scstep>
   <time name="dav">    0.36    0.36</time>
   <time name="total">    0.40    0.40</time>
   <energy>
    <i name="e_fr_energy">    -25.96741960 </i>
    <i name="e_wo_entrp">    -25.96741960 </i>
    <i name="e_0_energy">    -25.96741960 </i>
   </energy>
  </scstep>
  <scstep>
   <time name="dav">    0.36    0.36</time>
   <time name="total">    0.40    0.41</time>
   <energy>
    <i name="e_fr_energy">    -25.41686759 </i>
    <i name="e_wo_entrp">    -25.41686759 </i>
    <i name="e_0_energy">    -25.41686759 </i>
   </energy>
  </scstep>
  <scstep>
   <time name="dav">    0.36    0.36</time>
   <time name="total">    0.41    0.41</time>
   <energy>
    <i name="e_fr_energy">    -25.27211479 </i>
    <i name="e_wo_entrp">    -25.27211479 </i>
    <i name="e_0_energy">    -25.27211479 </i>
   </energy>
  </scstep>
  <scstep>
   <time name="dav">    0.34    0.34</time>
   <time name="total">    0.39    0.39</time>
   <energy>
    <i name="e_fr_energy">    -25.36563673 </i>
    <i name="e_wo_entrp">    -25.36563673 </i>
    <i name="e_0_energy">    -25.36563673 </i>
   </energy>
  </scstep>
  <scstep>
   <time name="dav">    0.39    0.39</time>
   <time name="total">    0.44    0.44</time>
   <energy>
    <i name="e_fr_energy">    -25.42870168 </i>
    <i name="e_wo_entrp">    -25.42870168 </i>
    <i name="e_0_energy">    -25.42870168 </i>
   </energy>
  </scstep>
  <scstep>
   <time name="dav">    0.38    0.38</time>
   <time name="total">    0.42    0.42</time>
   <energy>
    <i name="e_fr_energy">    -25.51413336 </i>
    <i name="e_wo_entrp">    -25.51413336 </i>
    <i name="e_0_energy">    -25.51413336 </i>
   </energy>
  </scstep>
  <scstep>
   <time name="dav">    0.38    0.38</time>
   <time name="total">    0.43    0.43</time>
   <energy>
    <i name="e_fr_energy">    -25.55736940 </i>
    <i name="e_wo_entrp">    -25.55736940 </i>
    <i name="e_0_energy">    -25.55736940 </i>
   </energy>
  </scstep>
  <scstep>
   <time name="dav">    0.35    0.35</time>
   <time name="total">    0.40    0.40</time>
   <energy>
    <i name="e_fr_energy">    -25.54766668 </i>
    <i name="e_wo_entrp">    -25.54766668 </i>
    <i name="e_0_energy">    -25.54766668 </i>
   </energy>
  </scstep>
  <scstep>
   <time name="dav">    0.38    0.38</time>
   <time name="total">    0.43    0.44</time>
   <energy>
    <i name="e_fr_energy">    -25.53694594 </i>
    <i name="e_wo_entrp">    -25.53694594 </i>
    <i name="e_0_energy">    -25.53694594 </i>
   </energy>
  </scstep>
  <scstep>
   <time name="dav">    0.41    0.41</time>
   <time name="total">    0.46    0.46</time>
   <energy>
    <i name="e_fr_energy">    -25.53791008 </i>
    <i name="e_wo_entrp">    -25.53791008 </i>
    <i name="e_0_energy">    -25.53791008 </i>
   </energy>
  </scstep>
  <scstep>
   <time name="dav">    0.40    0.40</time>
   <time name="total">    0.45    0.45</time>
   <energy>
    <i name="e_fr_energy">    -25.55245630 </i>
    <i name="e_wo_entrp">    -25.55245630 </i>
    <i name="e_0_energy">    -25.55245630 </i>
   </energy>
  </scstep>
  <scstep>
   <time name="dav">    0.41    0.41</time>
   <time name="total">    0.46    0.46</time>
   <energy>
    <i name="e_fr_energy">    -25.57164802 </i>
    <i name="e_wo_entrp">    -25.57164802 </i>
    <i name="e_0_energy">    -25.57164802 </i>
   </energy>
  </scstep>
  <scstep>
   <time name="dav">    0.48    0.48</time>
   <time name="total">    0.53    0.53</time>
   <energy>
    <i name="e_fr_energy">    -25.57536297 </i>
    <i name="e_wo_entrp">    -25.57536297 </i>
    <i name="e_0_energy">    -25.57536297 </i>
   </energy>
  </scstep>
  <scstep>
   <time name="dav">    0.42    0.42</time>
   <time name="total">    0.47    0.47</time>
   <energy>
    <i name="e_fr_energy">    -25.57428685 </i>
    <i name="e_wo_entrp">    -25.57428685 </i>
    <i name="e_0_energy">    -25.57428685 </i>
   </energy>
  </scstep>
  <scstep>
   <time name="dav">    0.41    0.41</time>
   <time name="total">    0.46    0.46</time>
   <energy>
    <i name="e_fr_energy">    -25.57372769 </i>
    <i name="e_wo_entrp">    -25.57372769 </i>
    <i name="e_0_energy">    -25.57372769 </i>
   </energy>
  </scstep>
  <scstep>
   <time name="dav">    0.34    0.34</time>
   <time name="total">    0.40    0.40</time>
   <energy>
    <i name="e_fr_energy">    -25.57383086 </i>
    <i name="e_wo_entrp">    -25.57383086 </i>
    <i name="e_0_energy">    -25.57383086 </i>
   </energy>
  </scstep>
  <scstep>
   <time name="dav">    0.35    0.35</time>
   <time name="total">    0.40    0.40</time>
   <energy>
    <i name="e_fr_energy">    -25.57239677 </i>
    <i name="e_wo_entrp">    -25.57239677 </i>
    <i name="e_0_energy">    -25.57239677 </i>
   </energy>
  </scstep>
  <scstep>
   <time name="dav">    0.34    0.34</time>
   <time name="total">    0.40    0.40</time>
   <energy>
    <i name="e_fr_energy">    -25.57253233 </i>
    <i name="e_wo_entrp">    -25.57253233 </i>
    <i name="e_0_energy">    -25.57253233 </i>
   </energy>
  </scstep>
  <scstep>
   <time name="dav">    0.32    0.32</time>
   <time name="total">    0.35    0.35</time>
   <energy>
    <i name="alphaZ">    115.94204576 </i>
    <i name="ewald">   9453.09366082 </i>
    <i name="hartreedc"> -14802.24561742 </i>
    <i name="XCdc">    152.65821187 </i>
    <i name="pawpsdc">   5573.56785659 </i>
    <i name="pawaedc">  -5914.87294460 </i>
    <i name="eentropy">      0.00000000 </i>
    <i name="bandstr">      8.10378315 </i>
    <i name="atom">   5388.18037335 </i>
    <i name="e_fr_energy">    -25.57263048 </i>
    <i name="e_wo_entrp">    -25.57263048 </i>
    <i name="e_0_energy">    -25.57263048 </i>
   </energy>
  </scstep>
  <structure>
   <crystal>
    <varray name="basis" >
     <v>       1.76500000       1.76500000       0.00000000 </v>
     <v>      -1.76500000       1.76500000       0.00000000 </v>
     <v>       0.00000000       0.00000000      17.65000000 </v>
    </varray>
    <i name="volume">    109.96744250 </i>
    <varray name="rec_basis" >
     <v>       0.28328612       0.28328612       0.00000000 </v>
     <v>      -0.28328612       0.28328612       0.00000000 </v>
     <v>       0.00000000       0.00000000       0.05665722 </v>
    </varray>
   </crystal>
   <varray name="positions" >
    <v>       0.00000000       0.00000000       0.00000000 </v>
    <v>       0.50000000       0.50000000       0.10000000 </v>
    <v>       0.00000000       0.00000000       0.20000000 </v>
    <v>       0.50000000       0.50000000       0.30020998 </v>
    <v>       0.00000000       0.00000000       0.39550725 </v>
   </varray>
  </structure>
  <varray name="forces" >
   <v>       0.00000000       0.00000000       0.41739028 </v>
   <v>      -0.00000000      -0.00000000      -0.39451529 </v>
   <v>      -0.00000000       0.00000000      -0.02347236 </v>
   <v>      -0.00000000      -0.00000000      -0.00421697 </v>
   <v>       0.00000000       0.00000000       0.00481436 </v>
  </varray>
  <varray name="stress" >
   <v>     -56.56012807       0.00000000       0.00000000 </v>
   <v>       0.00000000     -56.56012807      -0.00000000 </v>
   <v>       0.00000000       0.00000000     -34.16465822 </v>
  </varray>
  <energy>
   <i name="e_fr_energy">    -25.57263048 </i>
   <i name="e_wo_entrp">    -25.57263048 </i>
   <i name="e_0_energy">    -25.57263048 </i>
  </energy>
  <time name="totalsc">   13.32   13.45</time>
  <eigenvalues>
   <array>
    <dimension dim="1">band</dimension>
    <dimension dim="2">kpoint</dimension>
    <dimension dim="3">spin</dimension>
    <field>eigene</field>
    <field>occ</field>
    <set>
     <set comment="spin 1">
      <set comment="kpoint 1">
       <r>   -6.2620    1.0000 </r>
       <r>   -5.0769    1.0000 </r>
       <r>   -3.3954    1.0000 </r>
       <r>   -2.2482    1.0000 </r>
       <r>   -2.1645    1.0000 </r>
       <r>   -1.7248    1.0000 </r>
       <r>   -1.3636    1.0000 </r>
       <r>   -0.8509    1.0000 </r>
       <r>   -0.3711    1.0000 </r>
       <r>   -0.1344    1.0000 </r>
       <r>   -0.0100    1.0000 </r>
       <r>   -0.0100    1.0000 </r>
       <r>    0.3591    1.0000 </r>
       <r>    0.3591    1.0000 </r>
       <r>    0.5476    1.0000 </r>
       <r>    0.8229    1.0000 </r>
       <r>    0.9520    1.0000 </r>
       <r>    0.9520    1.0000 </r>
       <r>    1.0120    1.0000 </r>
       <r>    1.0459    1.0000 </r>
       <r>    1.1238    1.0000 </r>
       <r>    1.2054    1.0000 </r>
       <r>    1.4748    1.0000 </r>
       <r>    1.4748    1.0000 </r>
       <r>    1.4761    1.0000 </r>
       <r>    1.6450    1.0000 </r>
       <r>    1.7191    1.0000 </r>
       <r>    1.7518    1.0000 </r>
       <r>    1.7518    1.0136 </r>
       <r>    2.8603    0.0000 </r>
       <r>    4.2167    0.0000 </r>
       <r>    6.6151    0.0000 </r>
       <r>    8.0850    0.0000 </r>
       <r>    9.8767    0.0000 </r>
       <r>   13.0519    0.0000 </r>
       <r>   13.7597    0.0000 </r>
      </set>
      <set comment="kpoint 2">
       <r>   -5.9499    1.0000 </r>
       <r>   -4.7848    1.0000 </r>
       <r>   -3.1440    1.0000 </r>
       <r>   -2.0545    1.0000 </r>
       <r>   -1.9795    1.0000 </r>
       <r>   -1.6255    1.0000 </r>
       <r>   -1.2790    1.0000 </r>
       <r>   -0.7997    1.0000 </r>
       <r>   -0.3658    1.0000 </r>
       <r>   -0.0666    1.0000 </r>
       <r>   -0.0300    1.0000 </r>
       <r>    0.0304    1.0000 </r>
       <r>    0.1526    1.0000 </r>
       <r>    0.3344    1.0000 </r>
       <r>    0.4261    1.0000 </r>
       <r>    0.7495    1.0000 </r>
       <r>    0.7875    1.0000 </r>
       <r>    0.8847    1.0000 </r>
       <r>    0.9870    1.0000 </r>
       <r>    1.0294    1.0000 </r>
       <r>    1.1643    1.0000 </r>
       <r>    1.2438    1.0000 </r>
       <r>    1.2485    1.0000 </r>
       <r>    1.2742    1.0000 </r>
       <r>    1.5568    1.0000 </r>
       <r>    1.5634    1.0000 </r>
       <r>    1.6907    1.0000 </r>
       <r>    1.7726    1.0000 </r>
       <r>    1.8400    0.9331 </r>
       <r>    3.4645    0.0000 </r>
       <r>    4.9127    0.0000 </r>
       <r>    6.9143    0.0000 </r>
       <r>    8.4216    0.0000 </r>
       <r>   10.1279    0.0000 </r>
       <r>   13.3290    0.0000 </r>
       <r>   13.9113    0.0000 </r>
      </set>
      <set comment="kpoint 3">
       <r>   -5.0578    1.0000 </r>
       <r>   -3.9859    1.0000 </r>
       <r>   -2.5687    1.0000 </r>
       <r>   -1.6861    1.0000 </r>
       <r>   -1.5863    1.0000 </r>
       <r>   -1.3372    1.0000 </r>
       <r>   -0.9427    1.0000 </r>
       <r>   -0.5468    1.0000 </r>
       <r>   -0.4015    1.0000 </r>
       <r>   -0.0210    1.0000 </r>
       <r>    0.0031    1.0000 </r>
       <r>    0.0561    1.0000 </r>
       <r>    0.0846    1.0000 </r>
       <r>    0.1162    1.0000 </r>
       <r>    0.2470    1.0000 </r>
       <r>    0.4738    1.0000 </r>
       <r>    0.5322    1.0000 </r>
       <r>    0.6018    1.0000 </r>
       <r>    0.7640    1.0000 </r>
       <r>    1.0833    1.0000 </r>
       <r>    1.1076    1.0000 </r>
       <r>    1.1415    1.0000 </r>
       <r>    1.1490    1.0000 </r>
       <r>    1.3558    1.0000 </r>
       <r>    1.4065    1.0000 </r>
       <r>    1.5586    1.0000 </r>
       <r>    1.7142    1.0000 </r>
       <r>    1.7347    1.0194 </r>
       <r>    2.6727   -0.0068 </r>
       <r>    4.6219    0.0000 </r>
       <r>    6.3428    0.0000 </r>
       <r>    7.7965    0.0000 </r>
       <r>    9.4240    0.0000 </r>
       <r>   10.6421    0.0000 </r>
       <r>   11.2501    0.0000 </r>
       <r>   12.2341    0.0000 </r>
      </set>
      <set comment="kpoint 4">
       <r>   -3.7567    1.0000 </r>
       <r>   -3.0048    1.0000 </r>
       <r>   -2.2040    1.0000 </r>
       <r>   -1.6016    1.0000 </r>
       <r>   -1.3049    1.0000 </r>
       <r>   -0.9236    1.0000 </r>
       <r>   -0.4345    1.0000 </r>
       <r>   -0.4143    1.0000 </r>
       <r>   -0.1230    1.0000 </r>
       <r>   -0.0803    1.0000 </r>
       <r>   -0.0110    1.0000 </r>
       <r>    0.0993    1.0000 </r>
       <r>    0.1122    1.0000 </r>
       <r>    0.1762    1.0000 </r>
       <r>    0.2369    1.0000 </r>
       <r>    0.3926    1.0000 </r>
       <r>    0.4623    1.0000 </r>
       <r>    0.5032    1.0000 </r>
       <r>    0.5545    1.0000 </r>
       <r>    0.9131    1.0000 </r>
       <r>    1.0149    1.0000 </r>
       <r>    1.3840    1.0000 </r>
       <r>    1.3901    1.0000 </r>
       <r>    1.5540    1.0000 </r>
       <r>    1.5544    1.0000 </r>
       <r>    1.6402    1.0514 </r>
       <r>    1.7112    1.0403 </r>
       <r>    1.7665    0.9545 </r>
       <r>    3.6361    0.0000 </r>
       <r>    5.7965    0.0000 </r>
       <r>    7.6241    0.0000 </r>
       <r>    7.7595    0.0000 </r>
       <r>    9.1670    0.0000 </r>
       <r>    9.3087    0.0000 </r>
       <r>   10.4798    0.0000 </r>
       <r>   11.0059    0.0000 </r>
      </set>
      <set comment="kpoint 5">
       <r>   -2.5521    1.0000 </r>
       <r>   -2.4327    1.0000 </r>
       <r>   -2.1206    1.0000 </r>
       <r>   -1.6881    1.0000 </r>
       <r>   -1.3401    1.0000 </r>
       <r>   -0.5151    1.0000 </r>
       <r>   -0.4700    1.0000 </r>
       <r>   -0.2102    1.0000 </r>
       <r>   -0.1556    1.0000 </r>
       <r>   -0.0405    1.0000 </r>
       <r>   -0.0024    1.0000 </r>
       <r>    0.0126    1.0000 </r>
       <r>    0.0638    1.0000 </r>
       <r>    0.1493    1.0000 </r>
       <r>    0.3274    1.0000 </r>
       <r>    0.3392    1.0000 </r>
       <r>    0.3576    1.0000 </r>
       <r>    0.7600    1.0000 </r>
       <r>    1.0003    1.0000 </r>
       <r>    1.0765    1.0000 </r>
       <r>    1.3736    1.0000 </r>
       <r>    1.4795    1.0000 </r>
       <r>    1.4949    1.0000 </r>
       <r>    1.6300    1.0000 </r>
       <r>    1.6769    1.0000 </r>
       <r>    2.2310    0.5924 </r>
       <r>    2.2730    0.3474 </r>
       <r>    2.5471    0.0360 </r>
       <r>    3.8149    0.0000 </r>
       <r>    4.2534    0.0000 </r>
       <r>    6.8155    0.0000 </r>
       <r>    6.9886    0.0000 </r>
       <r>    9.0792    0.0000 </r>
       <r>    9.4131    0.0000 </r>
       <r>   10.7552    0.0000 </r>
       <r>   11.1914    0.0000 </r>
      </set>
      <set comment="kpoint 6">
       <r>   -5.6425    1.0000 </r>
       <r>   -4.4962    1.0000 </r>
       <r>   -2.8937    1.0000 </r>
       <r>   -1.8713    1.0000 </r>
       <r>   -1.7864    1.0000 </r>
       <r>   -1.5235    1.0000 </r>
       <r>   -1.2067    1.0000 </r>
       <r>   -0.7744    1.0000 </r>
       <r>   -0.4178    1.0000 </r>
       <r>   -0.0041    1.0000 </r>
       <r>    0.0073    1.0000 </r>
       <r>    0.0384    1.0000 </r>
       <r>    0.1035    1.0000 </r>
       <r>    0.1515    1.0000 </r>
       <r>    0.3403    1.0000 </r>
       <r>    0.6174    1.0000 </r>
       <r>    0.8312    1.0000 </r>
       <r>    0.8705    1.0000 </r>
       <r>    0.9037    1.0000 </r>
       <r>    0.9198    1.0000 </r>
       <r>    0.9851    1.0000 </r>
       <r>    1.1338    1.0000 </r>
       <r>    1.2544    1.0000 </r>
       <r>    1.4243    1.0000 </r>
       <r>    1.4488    1.0000 </r>
       <r>    1.5046    1.0000 </r>
       <r>    1.5861    1.0000 </r>
       <r>    1.7427    1.0134 </r>
       <r>    2.2989    0.3680 </r>
       <r>    3.9385    0.0000 </r>
       <r>    5.4540    0.0000 </r>
       <r>    7.2127    0.0000 </r>
       <r>    8.7576    0.0000 </r>
       <r>   10.3799    0.0000 </r>
       <r>   13.6090    0.0000 </r>
       <r>   14.1181    0.0000 </r>
      </set>
      <set comment="kpoint 7">
       <r>   -4.7681    1.0000 </r>
       <r>   -3.7118    1.0000 </r>
       <r>   -2.3283    1.0000 </r>
       <r>   -1.5031    1.0000 </r>
       <r>   -1.4124    1.0000 </r>
       <r>   -1.2456    1.0000 </r>
       <r>   -0.9119    1.0000 </r>
       <r>   -0.6269    1.0000 </r>
       <r>   -0.5433    1.0000 </r>
       <r>   -0.2187    1.0000 </r>
       <r>   -0.0525    1.0000 </r>
       <r>    0.0986    1.0000 </r>
       <r>    0.1271    1.0000 </r>
       <r>    0.1516    1.0000 </r>
       <r>    0.2871    1.0000 </r>
       <r>    0.3610    1.0000 </r>
       <r>    0.4764    1.0000 </r>
       <r>    0.6347    1.0000 </r>
       <r>    0.8236    1.0000 </r>
       <r>    0.8891    1.0000 </r>
       <r>    0.9899    1.0000 </r>
       <r>    1.1970    1.0000 </r>
       <r>    1.2229    1.0000 </r>
       <r>    1.2783    1.0000 </r>
       <r>    1.3922    1.0000 </r>
       <r>    1.5343    1.0000 </r>
       <r>    1.7113    1.0000 </r>
       <r>    1.8809    0.9639 </r>
       <r>    3.0928   -0.0302 </r>
       <r>    5.0050    0.0000 </r>
       <r>    6.7350    0.0000 </r>
       <r>    8.0941    0.0000 </r>
       <r>    9.7547    0.0000 </r>
       <r>   10.9388    0.0000 </r>
       <r>   11.4817    0.0000 </r>
       <r>   12.4991    0.0000 </r>
      </set>
      <set comment="kpoint 8">
       <r>   -3.5104    1.0000 </r>
       <r>   -2.7653    1.0000 </r>
       <r>   -2.0053    1.0000 </r>
       <r>   -1.4364    1.0000 </r>
       <r>   -1.1095    1.0000 </r>
       <r>   -1.0042    1.0000 </r>
       <r>   -0.6198    1.0000 </r>
       <r>   -0.5167    1.0000 </r>
       <r>   -0.3301    1.0000 </r>
       <r>   -0.2649    1.0000 </r>
       <r>   -0.0708    1.0000 </r>
       <r>    0.0101    1.0000 </r>
       <r>    0.0776    1.0000 </r>
       <r>    0.2576    1.0000 </r>
       <r>    0.3015    1.0000 </r>
       <r>    0.3821    1.0000 </r>
       <r>    0.4540    1.0000 </r>
       <r>    0.4952    1.0000 </r>
       <r>    0.6495    1.0000 </r>
       <r>    0.9972    1.0000 </r>
       <r>    1.1460    1.0000 </r>
       <r>    1.1928    1.0000 </r>
       <r>    1.4219    1.0000 </r>
       <r>    1.5185    1.0000 </r>
       <r>    1.5658    1.0000 </r>
       <r>    1.6219    1.0291 </r>
       <r>    1.6702    0.9926 </r>
       <r>    2.3857    0.2792 </r>
       <r>    4.1012    0.0000 </r>
       <r>    6.2023    0.0000 </r>
       <r>    7.8634    0.0000 </r>
       <r>    8.1132    0.0000 </r>
       <r>    9.3591    0.0000 </r>
       <r>    9.5946    0.0000 </r>
       <r>   10.6985    0.0000 </r>
       <r>   11.3267    0.0000 </r>
      </set>
      <set comment="kpoint 9">
       <r>   -2.3663    1.0000 </r>
       <r>   -2.2333    1.0000 </r>
       <r>   -1.9542    1.0000 </r>
       <r>   -1.5739    1.0000 </r>
       <r>   -1.2339    1.0000 </r>
       <r>   -0.6913    1.0000 </r>
       <r>   -0.6370    1.0000 </r>
       <r>   -0.3519    1.0000 </r>
       <r>   -0.3050    1.0000 </r>
       <r>   -0.2245    1.0000 </r>
       <r>   -0.1608    1.0000 </r>
       <r>   -0.0385    1.0000 </r>
       <r>    0.0693    1.0000 </r>
       <r>    0.2029    1.0000 </r>
       <r>    0.3159    1.0000 </r>
       <r>    0.3550    1.0000 </r>
       <r>    0.5103    1.0000 </r>
       <r>    0.7598    1.0000 </r>
       <r>    0.8210    1.0000 </r>
       <r>    1.1960    1.0000 </r>
       <r>    1.2339    1.0000 </r>
       <r>    1.3643    1.0000 </r>
       <r>    1.5549    1.0000 </r>
       <r>    1.5886    1.0000 </r>
       <r>    1.6706    1.0000 </r>
       <r>    2.5592    0.1200 </r>
       <r>    2.6600    0.0594 </r>
       <r>    3.3098   -0.0323 </r>
       <r>    4.3771    0.0000 </r>
       <r>    4.5181    0.0000 </r>
       <r>    7.0230    0.0000 </r>
       <r>    7.2446    0.0000 </r>
       <r>    9.2502    0.0000 </r>
       <r>    9.6000    0.0000 </r>
       <r>   10.9983    0.0000 </r>
       <r>   11.4743    0.0000 </r>
      </set>
      <set comment="kpoint 10">
       <r>   -3.9661    1.0000 </r>
       <r>   -2.9863    1.0000 </r>
       <r>   -1.7925    1.0000 </r>
       <r>   -1.2698    1.0000 </r>
       <r>   -1.0101    1.0000 </r>
       <r>   -0.9410    1.0000 </r>
       <r>   -0.8552    1.0000 </r>
       <r>   -0.8121    1.0000 </r>
       <r>   -0.7017    1.0000 </r>
       <r>   -0.6238    1.0000 </r>
       <r>   -0.2071    1.0000 </r>
       <r>   -0.0774    1.0000 </r>
       <r>    0.0953    1.0000 </r>
       <r>    0.3110    1.0000 </r>
       <r>    0.3422    1.0000 </r>
       <r>    0.4573    1.0000 </r>
       <r>    0.6214    1.0000 </r>
       <r>    0.6711    1.0000 </r>
       <r>    0.8278    1.0000 </r>
       <r>    0.8515    1.0000 </r>
       <r>    0.9463    1.0000 </r>
       <r>    1.0190    1.0000 </r>
       <r>    1.0582    1.0000 </r>
       <r>    1.3421    1.0000 </r>
       <r>    1.4102    1.0000 </r>
       <r>    1.6483    1.0000 </r>
       <r>    1.7254    0.9939 </r>
       <r>    2.4683    0.1890 </r>
       <r>    3.9732    0.0000 </r>
       <r>    5.9900    0.0000 </r>
       <r>    7.8021    0.0000 </r>
       <r>    8.9768    0.0000 </r>
       <r>   10.7313    0.0000 </r>
       <r>   11.2787    0.0000 </r>
       <r>   11.8330    0.0000 </r>
       <r>   12.5651    0.0000 </r>
      </set>
      <set comment="kpoint 11">
       <r>   -2.9011    1.0000 </r>
       <r>   -2.1765    1.0000 </r>
       <r>   -1.5632    1.0000 </r>
       <r>   -1.2355    1.0000 </r>
       <r>   -1.2053    1.0000 </r>
       <r>   -1.0176    1.0000 </r>
       <r>   -0.7958    1.0000 </r>
       <r>   -0.7489    1.0000 </r>
       <r>   -0.5606    1.0000 </r>
       <r>   -0.4955    1.0000 </r>
       <r>   -0.3328    1.0000 </r>
       <r>   -0.2188    1.0000 </r>
       <r>    0.0131    1.0000 </r>
       <r>    0.4767    1.0000 </r>
       <r>    0.5082    1.0000 </r>
       <r>    0.5710    1.0000 </r>
       <r>    0.6559    1.0000 </r>
       <r>    0.6864    1.0000 </r>
       <r>    0.8420    1.0000 </r>
       <r>    1.0974    1.0000 </r>
       <r>    1.1214    1.0000 </r>
       <r>    1.2794    1.0000 </r>
       <r>    1.3712    1.0000 </r>
       <r>    1.4802    1.0000 </r>
       <r>    1.5804    1.0000 </r>
       <r>    1.6894    0.9480 </r>
       <r>    2.1600    0.5625 </r>
       <r>    3.3548   -0.0379 </r>
       <r>    5.1734    0.0000 </r>
       <r>    7.2747    0.0000 </r>
       <r>    8.4179    0.0000 </r>
       <r>    9.0992    0.0000 </r>
       <r>    9.8807    0.0000 </r>
       <r>   10.4481    0.0000 </r>
       <r>   11.3301    0.0000 </r>
       <r>   12.2731    0.0000 </r>
      </set>
      <set comment="kpoint 12">
       <r>   -2.0365    1.0000 </r>
       <r>   -1.7761    1.0000 </r>
       <r>   -1.6438    1.0000 </r>
       <r>   -1.4762    1.0000 </r>
       <r>   -1.3717    1.0000 </r>
       <r>   -1.0494    1.0000 </r>
       <r>   -0.8878    1.0000 </r>
       <r>   -0.8045    1.0000 </r>
       <r>   -0.5436    1.0000 </r>
       <r>   -0.4293    1.0000 </r>
       <r>   -0.1612    1.0000 </r>
       <r>   -0.1048    1.0000 </r>
       <r>    0.0091    1.0000 </r>
       <r>    0.5150    1.0000 </r>
       <r>    0.5385    1.0000 </r>
       <r>    0.5868    1.0000 </r>
       <r>    0.6159    1.0000 </r>
       <r>    0.7899    1.0000 </r>
       <r>    0.9690    1.0000 </r>
       <r>    1.2086    1.0000 </r>
       <r>    1.3729    1.0000 </r>
       <r>    1.4840    1.0000 </r>
       <r>    1.6394    1.0000 </r>
       <r>    1.6796    1.0000 </r>
       <r>    1.7118    1.0000 </r>
       <r>    2.8751    0.0265 </r>
       <r>    3.5788   -0.0462 </r>
       <r>    4.7771    0.0000 </r>
       <r>    5.1796    0.0000 </r>
       <r>    5.6782    0.0000 </r>
       <r>    7.6237    0.0000 </r>
       <r>    7.9886    0.0000 </r>
       <r>    9.8311    0.0000 </r>
       <r>   10.2196    0.0000 </r>
       <r>   11.7392    0.0000 </r>
       <r>   12.3097    0.0000 </r>
      </set>
      <set comment="kpoint 13">
       <r>   -2.3262    1.0000 </r>
       <r>   -1.6582    1.0000 </r>
       <r>   -1.5311    1.0000 </r>
       <r>   -1.3699    1.0000 </r>
       <r>   -1.3475    1.0000 </r>
       <r>   -1.2670    1.0000 </r>
       <r>   -1.0357    1.0000 </r>
       <r>   -1.0032    1.0000 </r>
       <r>   -0.6640    1.0000 </r>
       <r>   -0.4805    1.0000 </r>
       <r>   -0.4620    1.0000 </r>
       <r>   -0.0142    1.0000 </r>
       <r>    0.0546    1.0000 </r>
       <r>    0.8632    1.0000 </r>
       <r>    0.8799    1.0000 </r>
       <r>    0.9076    1.0000 </r>
       <r>    0.9601    1.0000 </r>
       <r>    1.0404    1.0000 </r>
       <r>    1.2175    1.0000 </r>
       <r>    1.2406    1.0000 </r>
       <r>    1.3337    1.0000 </r>
       <r>    1.3390    1.0000 </r>
       <r>    1.4966    1.0000 </r>
       <r>    1.5234    1.0000 </r>
       <r>    1.7378    1.0000 </r>
       <r>    1.8754    0.6551 </r>
       <r>    3.0828   -0.0604 </r>
       <r>    4.6431    0.0000 </r>
       <r>    6.6351    0.0000 </r>
       <r>    8.1476    0.0000 </r>
       <r>    8.8544    0.0000 </r>
       <r>    9.5668    0.0000 </r>
       <r>   10.8367    0.0000 </r>
       <r>   11.6214    0.0000 </r>
       <r>   11.7981    0.0000 </r>
       <r>   12.2265    0.0000 </r>
      </set>
      <set comment="kpoint 14">
       <r>   -2.0307    1.0000 </r>
       <r>   -1.7929    1.0000 </r>
       <r>   -1.5960    1.0000 </r>
       <r>   -1.5334    1.0000 </r>
       <r>   -1.4247    1.0000 </r>
       <r>   -1.3182    1.0000 </r>
       <r>   -1.2231    1.0000 </r>
       <r>   -1.0542    1.0000 </r>
       <r>   -0.8631    1.0000 </r>
       <r>   -0.6413    1.0000 </r>
       <r>   -0.2670    1.0000 </r>
       <r>    0.2367    1.0000 </r>
       <r>    0.3467    1.0000 </r>
       <r>    0.9725    1.0000 </r>
       <r>    1.0245    1.0000 </r>
       <r>    1.0951    1.0000 </r>
       <r>    1.1271    1.0000 </r>
       <r>    1.1958    1.0000 </r>
       <r>    1.2587    1.0000 </r>
       <r>    1.3630    1.0000 </r>
       <r>    1.5192    1.0000 </r>
       <r>    1.6472    1.0000 </r>
       <r>    1.6672    1.0000 </r>
       <r>    1.6785    1.0000 </r>
       <r>    1.8106    1.0000 </r>
       <r>    3.4920   -0.0376 </r>
       <r>    4.7651   -0.0062 </r>
       <r>    5.8914    0.0000 </r>
       <r>    6.4512    0.0000 </r>
       <r>    7.1307    0.0000 </r>
       <r>    8.6940    0.0000 </r>
       <r>    9.1453    0.0000 </r>
       <r>   10.9525    0.0000 </r>
       <r>   11.3757    0.0000 </r>
       <r>   12.9309    0.0000 </r>
       <r>   13.0623    0.0000 </r>
      </set>
      <set comment="kpoint 15">
       <r>   -2.1356    1.0000 </r>
       <r>   -2.0048    1.0000 </r>
       <r>   -1.7008    1.0000 </r>
       <r>   -1.6715    1.0000 </r>
       <r>   -1.6520    1.0000 </r>
       <r>   -1.3852    1.0000 </r>
       <r>   -1.2422    1.0000 </r>
       <r>   -1.2127    1.0000 </r>
       <r>   -1.1101    1.0000 </r>
       <r>   -0.4454    1.0000 </r>
       <r>   -0.4085    1.0000 </r>
       <r>    0.5104    1.0000 </r>
       <r>    0.5517    1.0000 </r>
       <r>    1.1436    1.0000 </r>
       <r>    1.2482    1.0000 </r>
       <r>    1.3928    1.0000 </r>
       <r>    1.4427    1.0000 </r>
       <r>    1.5367    1.0000 </r>
       <r>    1.5892    1.0000 </r>
       <r>    1.6557    1.0000 </r>
       <r>    1.6760    1.0000 </r>
       <r>    1.7421    1.0000 </r>
       <r>    1.7741    1.0000 </r>
       <r>    1.9203    1.0000 </r>
       <r>    1.9629    1.0000 </r>
       <r>    4.6521   -0.0137 </r>
       <r>    5.8850    0.0000 </r>
       <r>    6.2849    0.0000 </r>
       <r>    7.6001    0.0000 </r>
       <r>    8.3330    0.0000 </r>
       <r>    9.9213    0.0000 </r>
       <r>   10.5193    0.0000 </r>
       <r>   11.5912    0.0000 </r>
       <r>   12.1991    0.0000 </r>
       <r>   12.5399    0.0000 </r>
       <r>   12.5789    0.0000 </r>
      </set>
     </set>
     <set comment="spin 2">
      <set comment="kpoint 1">
       <r>   -6.3044    1.0000 </r>
       <r>   -5.1114    1.0000 </r>
       <r>   -3.3933    1.0000 </r>
       <r>   -2.0701    1.0000 </r>
       <r>   -1.8817    1.0000 </r>
       <r>   -1.1814    1.0000 </r>
       <r>   -0.8024    1.0000 </r>
       <r>   -0.2076    1.0000 </r>
       <r>    0.2805    1.0000 </r>
       <r>    0.5280    1.0000 </r>
       <r>    0.7169    1.0000 </r>
       <r>    0.7169    1.0000 </r>
       <r>    1.0532    1.0000 </r>
       <r>    1.1246    1.0000 </r>
       <r>    1.1246    1.0000 </r>
       <r>    1.3560    1.0000 </r>
       <r>    1.3770    1.0000 </r>
       <r>    1.5704    1.0000 </r>
       <r>    1.6846    1.0000 </r>
       <r>    1.7376    1.0000 </r>
       <r>    1.7376    1.0000 </r>
       <r>    1.8826    1.0000 </r>
       <r>    2.1459    1.0000 </r>
       <r>    2.3198    0.8046 </r>
       <r>    2.3198    0.0690 </r>
       <r>    2.4200    0.0000 </r>
       <r>    2.4552    0.0000 </r>
       <r>    2.5905    0.0000 </r>
       <r>    2.5905    0.0000 </r>
       <r>    2.9104    0.0000 </r>
       <r>    4.2022    0.0000 </r>
       <r>    7.0289    0.0000 </r>
       <r>    8.2562    0.0000 </r>
       <r>   10.1767    0.0000 </r>
       <r>   13.3234    0.0000 </r>
       <r>   13.9578    0.0000 </r>
      </set>
      <set comment="kpoint 2">
       <r>   -5.9913    1.0000 </r>
       <r>   -4.8157    1.0000 </r>
       <r>   -3.1304    1.0000 </r>
       <r>   -1.8487    1.0000 </r>
       <r>   -1.6958    1.0000 </r>
       <r>   -1.0868    1.0000 </r>
       <r>   -0.7250    1.0000 </r>
       <r>   -0.1637    1.0000 </r>
       <r>    0.2874    1.0000 </r>
       <r>    0.5992    1.0000 </r>
       <r>    0.6816    1.0000 </r>
       <r>    0.7573    1.0000 </r>
       <r>    0.7971    1.0000 </r>
       <r>    0.9449    1.0000 </r>
       <r>    1.0796    1.0000 </r>
       <r>    1.4015    1.0000 </r>
       <r>    1.4413    1.0000 </r>
       <r>    1.5178    1.0000 </r>
       <r>    1.5919    1.0000 </r>
       <r>    1.6480    1.0000 </r>
       <r>    1.7885    1.0000 </r>
       <r>    1.9412    1.0000 </r>
       <r>    1.9782    1.0000 </r>
       <r>    1.9951    1.0205 </r>
       <r>    2.3055    0.4304 </r>
       <r>    2.3349    0.0000 </r>
       <r>    2.3495    0.0000 </r>
       <r>    2.4517    0.0000 </r>
       <r>    2.6002    0.0000 </r>
       <r>    3.6800    0.0000 </r>
       <r>    5.0284    0.0000 </r>
       <r>    7.3280    0.0000 </r>
       <r>    8.5970    0.0000 </r>
       <r>   10.4261    0.0000 </r>
       <r>   13.5955    0.0000 </r>
       <r>   14.0977    0.0000 </r>
      </set>
      <set comment="kpoint 3">
       <r>   -5.0912    1.0000 </r>
       <r>   -3.9926    1.0000 </r>
       <r>   -2.4739    1.0000 </r>
       <r>   -1.3701    1.0000 </r>
       <r>   -1.2301    1.0000 </r>
       <r>   -0.8526    1.0000 </r>
       <r>   -0.4773    1.0000 </r>
       <r>    0.0129    1.0000 </r>
       <r>    0.2335    1.0000 </r>
       <r>    0.5555    1.0000 </r>
       <r>    0.6435    1.0000 </r>
       <r>    0.6979    1.0000 </r>
       <r>    0.7260    1.0000 </r>
       <r>    0.8317    1.0000 </r>
       <r>    0.9426    1.0000 </r>
       <r>    1.1335    1.0000 </r>
       <r>    1.2410    1.0000 </r>
       <r>    1.2648    1.0000 </r>
       <r>    1.4451    1.0000 </r>
       <r>    1.6720    1.0000 </r>
       <r>    1.7372    1.0000 </r>
       <r>    1.7580    1.0000 </r>
       <r>    1.9004    1.0000 </r>
       <r>    1.9189    1.0000 </r>
       <r>    2.1768    1.0546 </r>
       <r>    2.3412    0.0000 </r>
       <r>    2.5231    0.0000 </r>
       <r>    2.5398    0.0000 </r>
       <r>    3.0505    0.0000 </r>
       <r>    4.8399    0.0000 </r>
       <r>    6.5025    0.0000 </r>
       <r>    8.2037    0.0000 </r>
       <r>    9.6095    0.0000 </r>
       <r>   10.8671    0.0000 </r>
       <r>   11.4612    0.0000 </r>
       <r>   12.3826    0.0000 </r>
      </set>
      <set comment="kpoint 4">
       <r>   -3.7494    1.0000 </r>
       <r>   -2.9009    1.0000 </r>
       <r>   -1.9003    1.0000 </r>
       <r>   -1.1682    1.0000 </r>
       <r>   -0.8247    1.0000 </r>
       <r>   -0.5603    1.0000 </r>
       <r>   -0.0228    1.0000 </r>
       <r>    0.1680    1.0000 </r>
       <r>    0.4174    1.0000 </r>
       <r>    0.4545    1.0000 </r>
       <r>    0.5954    1.0000 </r>
       <r>    0.7622    1.0000 </r>
       <r>    0.7669    1.0000 </r>
       <r>    0.7862    1.0000 </r>
       <r>    0.8406    1.0000 </r>
       <r>    1.0181    1.0000 </r>
       <r>    1.0580    1.0000 </r>
       <r>    1.1223    1.0000 </r>
       <r>    1.1625    1.0000 </r>
       <r>    1.5786    1.0000 </r>
       <r>    1.7791    1.0000 </r>
       <r>    2.0222    1.0000 </r>
       <r>    2.1642    1.0680 </r>
       <r>    2.1691    0.9771 </r>
       <r>    2.2971    0.3149 </r>
       <r>    2.3765    0.0000 </r>
       <r>    2.4212    0.0000 </r>
       <r>    2.5127    0.0000 </r>
       <r>    3.8888    0.0000 </r>
       <r>    5.9543    0.0000 </r>
       <r>    7.8530    0.0000 </r>
       <r>    7.9029    0.0000 </r>
       <r>    9.4018    0.0000 </r>
       <r>    9.7167    0.0000 </r>
       <r>   10.6868    0.0000 </r>
       <r>   11.1962    0.0000 </r>
      </set>
      <set comment="kpoint 5">
       <r>   -2.3571    1.0000 </r>
       <r>   -2.1181    1.0000 </r>
       <r>   -1.7523    1.0000 </r>
       <r>   -1.2588    1.0000 </r>
       <r>   -0.9960    1.0000 </r>
       <r>   -0.0798    1.0000 </r>
       <r>    0.1339    1.0000 </r>
       <r>    0.3092    1.0000 </r>
       <r>    0.3711    1.0000 </r>
       <r>    0.5166    1.0000 </r>
       <r>    0.6349    1.0000 </r>
       <r>    0.6482    1.0000 </r>
       <r>    0.6567    1.0000 </r>
       <r>    0.7248    1.0000 </r>
       <r>    0.7579    1.0000 </r>
       <r>    0.9799    1.0000 </r>
       <r>    1.0887    1.0000 </r>
       <r>    1.4344    1.0000 </r>
       <r>    1.4851    1.0000 </r>
       <r>    1.8550    1.0000 </r>
       <r>    2.0486    1.0000 </r>
       <r>    2.1750    1.0000 </r>
       <r>    2.2838    0.3278 </r>
       <r>    2.4193   -0.0412 </r>
       <r>    2.4726   -0.0203 </r>
       <r>    2.4929    0.0000 </r>
       <r>    2.7406    0.0000 </r>
       <r>    3.0580    0.0000 </r>
       <r>    4.0145    0.0000 </r>
       <r>    4.6132    0.0000 </r>
       <r>    7.0592    0.0000 </r>
       <r>    7.2008    0.0000 </r>
       <r>    9.3287    0.0000 </r>
       <r>    9.6497    0.0000 </r>
       <r>   10.8802    0.0000 </r>
       <r>   11.4403    0.0000 </r>
      </set>
      <set comment="kpoint 6">
       <r>   -5.6827    1.0000 </r>
       <r>   -4.5236    1.0000 </r>
       <r>   -2.8702    1.0000 </r>
       <r>   -1.6313    1.0000 </r>
       <r>   -1.5198    1.0000 </r>
       <r>   -0.9838    1.0000 </r>
       <r>   -0.6499    1.0000 </r>
       <r>   -0.1375    1.0000 </r>
       <r>    0.2442    1.0000 </r>
       <r>    0.6587    1.0000 </r>
       <r>    0.6819    1.0000 </r>
       <r>    0.7050    1.0000 </r>
       <r>    0.7179    1.0000 </r>
       <r>    0.8083    1.0000 </r>
       <r>    1.0964    1.0000 </r>
       <r>    1.2760    1.0000 </r>
       <r>    1.4180    1.0000 </r>
       <r>    1.4722    1.0000 </r>
       <r>    1.5340    1.0000 </r>
       <r>    1.6078    1.0000 </r>
       <r>    1.6976    1.0000 </r>
       <r>    1.7682    1.0000 </r>
       <r>    1.8456    1.0000 </r>
       <r>    2.1191    1.0029 </r>
       <r>    2.1780    1.0392 </r>
       <r>    2.2886    0.0000 </r>
       <r>    2.3125    0.0000 </r>
       <r>    2.5787    0.0000 </r>
       <r>    2.8108    0.0000 </r>
       <r>    4.1833    0.0000 </r>
       <r>    5.5994    0.0000 </r>
       <r>    7.6260    0.0000 </r>
       <r>    8.9367    0.0000 </r>
       <r>   10.6760    0.0000 </r>
       <r>   13.8711    0.0000 </r>
       <r>   14.3028    0.0000 </r>
      </set>
      <set comment="kpoint 7">
       <r>   -4.7992    1.0000 </r>
       <r>   -3.7142    1.0000 </r>
       <r>   -2.2261    1.0000 </r>
       <r>   -1.1690    1.0000 </r>
       <r>   -1.0859    1.0000 </r>
       <r>   -0.7358    1.0000 </r>
       <r>   -0.4257    1.0000 </r>
       <r>   -0.0338    1.0000 </r>
       <r>    0.1009    1.0000 </r>
       <r>    0.3400    1.0000 </r>
       <r>    0.5638    1.0000 </r>
       <r>    0.7696    1.0000 </r>
       <r>    0.8053    1.0000 </r>
       <r>    0.8363    1.0000 </r>
       <r>    0.9649    1.0000 </r>
       <r>    1.0234    1.0000 </r>
       <r>    1.1694    1.0000 </r>
       <r>    1.2789    1.0000 </r>
       <r>    1.4799    1.0000 </r>
       <r>    1.5052    1.0000 </r>
       <r>    1.6455    1.0000 </r>
       <r>    1.8211    1.0000 </r>
       <r>    1.8745    1.0000 </r>
       <r>    2.0199    1.0000 </r>
       <r>    2.0535    1.0928 </r>
       <r>    2.3394    0.0000 </r>
       <r>    2.5244    0.0000 </r>
       <r>    2.5447    0.0000 </r>
       <r>    3.5102    0.0000 </r>
       <r>    5.2294    0.0000 </r>
       <r>    6.8912    0.0000 </r>
       <r>    8.5006    0.0000 </r>
       <r>    9.9429    0.0000 </r>
       <r>   11.1688    0.0000 </r>
       <r>   11.6868    0.0000 </r>
       <r>   12.6477    0.0000 </r>
      </set>
      <set comment="kpoint 8">
       <r>   -3.4966    1.0000 </r>
       <r>   -2.6531    1.0000 </r>
       <r>   -1.6858    1.0000 </r>
       <r>   -0.9857    1.0000 </r>
       <r>   -0.6374    1.0000 </r>
       <r>   -0.6101    1.0000 </r>
       <r>   -0.1044    1.0000 </r>
       <r>   -0.0198    1.0000 </r>
       <r>    0.2305    1.0000 </r>
       <r>    0.2870    1.0000 </r>
       <r>    0.5090    1.0000 </r>
       <r>    0.6160    1.0000 </r>
       <r>    0.6762    1.0000 </r>
       <r>    0.8930    1.0000 </r>
       <r>    0.9209    1.0000 </r>
       <r>    1.0168    1.0000 </r>
       <r>    1.0790    1.0000 </r>
       <r>    1.2095    1.0000 </r>
       <r>    1.2837    1.0000 </r>
       <r>    1.6394    1.0000 </r>
       <r>    1.8551    1.0000 </r>
       <r>    1.8754    1.0000 </r>
       <r>    2.1034    1.0665 </r>
       <r>    2.1618    0.9757 </r>
       <r>    2.2601    0.4499 </r>
       <r>    2.4116    0.0000 </r>
       <r>    2.4603    0.0000 </r>
       <r>    2.9249    0.0000 </r>
       <r>    4.3851    0.0000 </r>
       <r>    6.3660    0.0000 </r>
       <r>    8.0904    0.0000 </r>
       <r>    8.2536    0.0000 </r>
       <r>    9.5816    0.0000 </r>
       <r>    9.9981    0.0000 </r>
       <r>   10.8951    0.0000 </r>
       <r>   11.5177    0.0000 </r>
      </set>
      <set comment="kpoint 9">
       <r>   -2.1650    1.0000 </r>
       <r>   -1.9037    1.0000 </r>
       <r>   -1.5689    1.0000 </r>
       <r>   -1.1232    1.0000 </r>
       <r>   -0.8952    1.0000 </r>
       <r>   -0.2084    1.0000 </r>
       <r>   -0.0531    1.0000 </r>
       <r>    0.1169    1.0000 </r>
       <r>    0.2355    1.0000 </r>
       <r>    0.2852    1.0000 </r>
       <r>    0.4726    1.0000 </r>
       <r>    0.5384    1.0000 </r>
       <r>    0.6281    1.0000 </r>
       <r>    0.8245    1.0000 </r>
       <r>    0.9180    1.0000 </r>
       <r>    1.0086    1.0000 </r>
       <r>    1.1519    1.0000 </r>
       <r>    1.3554    1.0000 </r>
       <r>    1.4890    1.0000 </r>
       <r>    1.7995    1.0000 </r>
       <r>    2.0211    1.0000 </r>
       <r>    2.0733    1.0000 </r>
       <r>    2.2820    0.3343 </r>
       <r>    2.2931    0.2279 </r>
       <r>    2.4473   -0.0146 </r>
       <r>    3.1142    0.0000 </r>
       <r>    3.1425    0.0000 </r>
       <r>    3.5967    0.0000 </r>
       <r>    4.6008    0.0000 </r>
       <r>    4.8678    0.0000 </r>
       <r>    7.2654    0.0000 </r>
       <r>    7.4573    0.0000 </r>
       <r>    9.4781    0.0000 </r>
       <r>    9.8187    0.0000 </r>
       <r>   11.1144    0.0000 </r>
       <r>   11.7037    0.0000 </r>
      </set>
      <set comment="kpoint 10">
       <r>   -3.9811    1.0000 </r>
       <r>   -2.9599    1.0000 </r>
       <r>   -1.6310    1.0000 </r>
       <r>   -0.8996    1.0000 </r>
       <r>   -0.6928    1.0000 </r>
       <r>   -0.4024    1.0000 </r>
       <r>   -0.2611    1.0000 </r>
       <r>   -0.2009    1.0000 </r>
       <r>   -0.0775    1.0000 </r>
       <r>   -0.0762    1.0000 </r>
       <r>    0.3553    1.0000 </r>
       <r>    0.5552    1.0000 </r>
       <r>    0.7220    1.0000 </r>
       <r>    1.0287    1.0000 </r>
       <r>    1.0625    1.0000 </r>
       <r>    1.1687    1.0000 </r>
       <r>    1.2198    1.0000 </r>
       <r>    1.3360    1.0000 </r>
       <r>    1.3745    1.0000 </r>
       <r>    1.4830    1.0000 </r>
       <r>    1.6708    1.0000 </r>
       <r>    1.6944    1.0000 </r>
       <r>    1.6956    1.0000 </r>
       <r>    1.9534    1.0158 </r>
       <r>    2.2367    0.7969 </r>
       <r>    2.3024    0.0000 </r>
       <r>    2.5566    0.0000 </r>
       <r>    3.0485    0.0000 </r>
       <r>    4.3466    0.0000 </r>
       <r>    6.1962    0.0000 </r>
       <r>    7.9436    0.0000 </r>
       <r>    9.3769    0.0000 </r>
       <r>   10.9246    0.0000 </r>
       <r>   11.4246    0.0000 </r>
       <r>   12.1109    0.0000 </r>
       <r>   12.7183    0.0000 </r>
      </set>
      <set comment="kpoint 11">
       <r>   -2.8470    1.0000 </r>
       <r>   -2.0264    1.0000 </r>
       <r>   -1.1886    1.0000 </r>
       <r>   -0.8454    1.0000 </r>
       <r>   -0.6863    1.0000 </r>
       <r>   -0.4190    1.0000 </r>
       <r>   -0.3085    1.0000 </r>
       <r>   -0.2074    1.0000 </r>
       <r>    0.0030    1.0000 </r>
       <r>    0.0301    1.0000 </r>
       <r>    0.2087    1.0000 </r>
       <r>    0.3782    1.0000 </r>
       <r>    0.6038    1.0000 </r>
       <r>    1.1597    1.0000 </r>
       <r>    1.1892    1.0000 </r>
       <r>    1.2205    1.0000 </r>
       <r>    1.2868    1.0000 </r>
       <r>    1.3649    1.0000 </r>
       <r>    1.4590    1.0000 </r>
       <r>    1.7416    1.0000 </r>
       <r>    1.7961    1.0000 </r>
       <r>    1.9080    1.0127 </r>
       <r>    2.0314    1.0635 </r>
       <r>    2.1240    0.9557 </r>
       <r>    2.3399    0.0327 </r>
       <r>    2.4969    0.0000 </r>
       <r>    2.7531    0.0000 </r>
       <r>    3.8092    0.0000 </r>
       <r>    5.4457    0.0000 </r>
       <r>    7.4335    0.0000 </r>
       <r>    8.6218    0.0000 </r>
       <r>    9.2380    0.0000 </r>
       <r>   10.0613    0.0000 </r>
       <r>   10.8356    0.0000 </r>
       <r>   11.5008    0.0000 </r>
       <r>   12.4644    0.0000 </r>
      </set>
      <set comment="kpoint 12">
       <r>   -1.8080    1.0000 </r>
       <r>   -1.3994    1.0000 </r>
       <r>   -1.2105    1.0000 </r>
       <r>   -1.0252    1.0000 </r>
       <r>   -0.9095    1.0000 </r>
       <r>   -0.5035    1.0000 </r>
       <r>   -0.4022    1.0000 </r>
       <r>   -0.2585    1.0000 </r>
       <r>   -0.0115    1.0000 </r>
       <r>    0.1191    1.0000 </r>
       <r>    0.3674    1.0000 </r>
       <r>    0.4590    1.0000 </r>
       <r>    0.5670    1.0000 </r>
       <r>    1.1719    1.0000 </r>
       <r>    1.1837    1.0000 </r>
       <r>    1.2053    1.0000 </r>
       <r>    1.2925    1.0000 </r>
       <r>    1.4356    1.0000 </r>
       <r>    1.6981    1.0000 </r>
       <r>    1.9236    1.0000 </r>
       <r>    2.0244    1.0000 </r>
       <r>    2.1106    1.0302 </r>
       <r>    2.3452    0.1877 </r>
       <r>    2.4486   -0.0308 </r>
       <r>    2.4633   -0.0051 </r>
       <r>    3.3577    0.0000 </r>
       <r>    3.9763    0.0000 </r>
       <r>    5.0467    0.0000 </r>
       <r>    5.4826    0.0000 </r>
       <r>    5.9011    0.0000 </r>
       <r>    7.8467    0.0000 </r>
       <r>    8.1953    0.0000 </r>
       <r>   10.0010    0.0000 </r>
       <r>   10.3937    0.0000 </r>
       <r>   11.8320    0.0000 </r>
       <r>   12.4728    0.0000 </r>
      </set>
      <set comment="kpoint 13">
       <r>   -2.1505    1.0000 </r>
       <r>   -1.4044    1.0000 </r>
       <r>   -1.1386    1.0000 </r>
       <r>   -0.8307    1.0000 </r>
       <r>   -0.7818    1.0000 </r>
       <r>   -0.7313    1.0000 </r>
       <r>   -0.5717    1.0000 </r>
       <r>   -0.3807    1.0000 </r>
       <r>   -0.1398    1.0000 </r>
       <r>    0.1167    1.0000 </r>
       <r>    0.1203    1.0000 </r>
       <r>    0.5500    1.0000 </r>
       <r>    0.6384    1.0000 </r>
       <r>    1.5331    1.0000 </r>
       <r>    1.5651    1.0000 </r>
       <r>    1.5932    1.0000 </r>
       <r>    1.6373    1.0000 </r>
       <r>    1.6451    1.0000 </r>
       <r>    1.7992    1.0000 </r>
       <r>    1.9349    1.0092 </r>
       <r>    1.9762    1.0242 </r>
       <r>    2.0533    1.0409 </r>
       <r>    2.0601    1.0283 </r>
       <r>    2.3257    0.2421 </r>
       <r>    2.3598   -0.0125 </r>
       <r>    2.5651    0.0000 </r>
       <r>    3.5264    0.0000 </r>
       <r>    4.9815    0.0000 </r>
       <r>    6.8518    0.0000 </r>
       <r>    8.3048    0.0000 </r>
       <r>    8.9865    0.0000 </r>
       <r>    9.7257    0.0000 </r>
       <r>   10.9350    0.0000 </r>
       <r>   11.7659    0.0000 </r>
       <r>   12.0885    0.0000 </r>
       <r>   12.4994    0.0000 </r>
      </set>
      <set comment="kpoint 14">
       <r>   -1.7179    1.0000 </r>
       <r>   -1.4275    1.0000 </r>
       <r>   -1.1409    1.0000 </r>
       <r>   -0.9733    1.0000 </r>
       <r>   -0.9047    1.0000 </r>
       <r>   -0.7683    1.0000 </r>
       <r>   -0.7376    1.0000 </r>
       <r>   -0.4674    1.0000 </r>
       <r>   -0.3419    1.0000 </r>
       <r>   -0.0486    1.0000 </r>
       <r>    0.3350    1.0000 </r>
       <r>    0.8188    1.0000 </r>
       <r>    0.9725    1.0000 </r>
       <r>    1.5817    1.0000 </r>
       <r>    1.6180    1.0000 </r>
       <r>    1.7779    1.0000 </r>
       <r>    1.8237    1.0000 </r>
       <r>    1.8966    1.0000 </r>
       <r>    1.9142    1.0000 </r>
       <r>    2.0460    1.0394 </r>
       <r>    2.1639    0.9765 </r>
       <r>    2.3218    0.3493 </r>
       <r>    2.3614    0.1096 </r>
       <r>    2.4647   -0.0131 </r>
       <r>    2.6103    0.0000 </r>
       <r>    3.8000    0.0000 </r>
       <r>    5.0500    0.0000 </r>
       <r>    6.0952    0.0000 </r>
       <r>    6.6712    0.0000 </r>
       <r>    7.3190    0.0000 </r>
       <r>    8.8597    0.0000 </r>
       <r>    9.3190    0.0000 </r>
       <r>   11.0614    0.0000 </r>
       <r>   11.5026    0.0000 </r>
       <r>   13.0087    0.0000 </r>
       <r>   13.2362    0.0000 </r>
      </set>
      <set comment="kpoint 15">
       <r>   -1.7607    1.0000 </r>
       <r>   -1.6543    1.0000 </r>
       <r>   -1.2720    1.0000 </r>
       <r>   -1.0855    1.0000 </r>
       <r>   -1.0765    1.0000 </r>
       <r>   -0.9032    1.0000 </r>
       <r>   -0.6660    1.0000 </r>
       <r>   -0.5988    1.0000 </r>
       <r>   -0.5893    1.0000 </r>
       <r>    0.1641    1.0000 </r>
       <r>    0.2064    1.0000 </r>
       <r>    1.1790    1.0000 </r>
       <r>    1.2235    1.0000 </r>
       <r>    1.7433    1.0000 </r>
       <r>    1.8119    1.0000 </r>
       <r>    2.0901    1.0000 </r>
       <r>    2.1630    1.0000 </r>
       <r>    2.2174    1.0000 </r>
       <r>    2.2393    1.0000 </r>
       <r>    2.3152    0.4745 </r>
       <r>    2.3774    0.1350 </r>
       <r>    2.4815   -0.0104 </r>
       <r>    2.5338   -0.0160 </r>
       <r>    2.7276    0.0000 </r>
       <r>    2.7875    0.0000 </r>
       <r>    4.7557    0.0000 </r>
       <r>    5.9651    0.0000 </r>
       <r>    6.4484    0.0000 </r>
       <r>    7.7142    0.0000 </r>
       <r>    8.4921    0.0000 </r>
       <r>   10.0410    0.0000 </r>
       <r>   10.6428    0.0000 </r>
       <r>   11.8135    0.0000 </r>
       <r>   12.4136    0.0000 </r>
       <r>   12.6374    0.0000 </r>
       <r>   12.7185    0.0000 </r>
      </set>
     </set>
    </set>
   </array>
  </eigenvalues>
  <separator name="orbital magnetization" >
   <v name="MAGDIPOLOUT">      0.00000000      0.00000000      0.00000000</v>
  </separator>
  <dos>
   <i name="efermi">      2.26944650 </i>
   <total>
    <array>
     <dimension dim="1">gridpoints</dimension>
     <dimension dim="2">spin</dimension>
     <field>energy</field>
     <field>total</field>
     <field>integrated</field>
     <set>
      <set comment="spin 1">
       <r>    -8.3044     0.0000     0.0000 </r>
       <r>    -8.2224     0.0000     0.0000 </r>
       <r>    -8.1404     0.0000     0.0000 </r>
       <r>    -8.0584     0.0000     0.0000 </r>
       <r>    -7.9763     0.0000     0.0000 </r>
       <r>    -7.8943     0.0000     0.0000 </r>
       <r>    -7.8123     0.0000     0.0000 </r>
       <r>    -7.7303     0.0000     0.0000 </r>
       <r>    -7.6482     0.0000     0.0000 </r>
       <r>    -7.5662     0.0000     0.0000 </r>
       <r>    -7.4842     0.0000     0.0000 </r>
       <r>    -7.4022     0.0000     0.0000 </r>
       <r>    -7.3201     0.0000     0.0000 </r>
       <r>    -7.2381     0.0000     0.0000 </r>
       <r>    -7.1561     0.0000     0.0000 </r>
       <r>    -7.0741     0.0000     0.0000 </r>
       <r>    -6.9920     0.0000     0.0000 </r>
       <r>    -6.9100     0.0000     0.0000 </r>
       <r>    -6.8280     0.0000     0.0000 </r>
[...]
        <r>  0.0023  0.0151  0.0219  0.0099  0.0029  0.0168  0.0070  0.0017  0.0072 </r>
        <r>  0.0015  0.0056  0.0347  0.0000  0.0001  0.0225  0.0027  0.0044  0.0082 </r>
        <r>  0.0001  0.0002  0.0704  0.0003  0.0001  0.0173  0.0001  0.0002  0.0001 </r>
        <r>  0.0010  0.0017  0.0352  0.0000  0.0000  0.0264  0.0011  0.0069  0.0044 </r>
        <r>  0.0025  0.0139  0.0261  0.0088  0.0027  0.0168  0.0063  0.0013  0.0061 </r>
       </set>
       <set comment="band 36">
        <r>  0.0153  0.0038  0.0014  0.0061  0.0007  0.0008  0.0090  0.0012  0.0184 </r>
        <r>  0.0608  0.0060  0.0010  0.0281  0.0024  0.0005  0.0241  0.0008  0.0614 </r>
        <r>  0.0941  0.0075  0.0002  0.0410  0.0033  0.0000  0.0344  0.0000  0.0895 </r>
        <r>  0.0631  0.0065  0.0004  0.0290  0.0025  0.0013  0.0248  0.0005  0.0661 </r>
        <r>  0.0159  0.0054  0.0006  0.0073  0.0010  0.0013  0.0110  0.0014  0.0217 </r>
       </set>
      </set>
      <set comment="kpoint 15">
       <set comment="band 1">
        <r>  0.0051  0.0002  0.0035  0.0000  0.0000  0.0002  0.0145  0.0000  0.0061 </r>
        <r>  0.0051  0.0034  0.0008  0.0000  0.0000  0.0003  0.0119  0.0000  0.1924 </r>
        <r>  0.0310  0.0027  0.0003  0.0000  0.0000  0.0000  0.0948  0.0000  0.0788 </r>
        <r>  0.0066  0.0054  0.0005  0.0000  0.0000  0.0002  0.0145  0.0000  0.3257 </r>
        <r>  0.0111  0.0004  0.0074  0.0000  0.0000  0.0002  0.0303  0.0000  0.0111 </r>
       </set>
       <set comment="band 2">
        <r>  0.0006  0.0005  0.0005  0.0000  0.0000  0.0007  0.0029  0.0000  0.0307 </r>
        <r>  0.0185  0.0000  0.0038  0.0000  0.0000  0.0002  0.0710  0.0000  0.0359 </r>
        <r>  0.0036  0.0041  0.0001  0.0000  0.0000  0.0000  0.0211  0.0000  0.4290 </r>
        <r>  0.0223  0.0001  0.0026  0.0000  0.0000  0.0001  0.0868  0.0000  0.0677 </r>
        <r>  0.0016  0.0007  0.0013  0.0000  0.0000  0.0010  0.0068  0.0000  0.0532 </r>
       </set>
       <set comment="band 3">
        <r>  0.0127  0.0004  0.0082  0.0000  0.0000  0.0011  0.0425  0.0000  0.0010 </r>
        <r>  0.0003  0.0041  0.0001  0.0000  0.0000  0.0032  0.0000  0.0000  0.4379 </r>
        <r>  0.0007  0.0000  0.0234  0.0000  0.0000  0.0018  0.0025  0.0000  0.0000 </r>
        <r>  0.0003  0.0026  0.0001  0.0000  0.0000  0.0062  0.0002  0.0000  0.2719 </r>
        <r>  0.0104  0.0005  0.0065  0.0000  0.0000  0.0017  0.0323  0.0000  0.0015 </r>
       </set>
       <set comment="band 4">
        <r>  0.0000  0.0022  0.0000  0.0000  0.0000  0.0232  0.0003  0.0000  0.0029 </r>
        <r>  0.0010  0.0037  0.0006  0.0000  0.0000  0.1815  0.0009  0.0000  0.0048 </r>
        <r>  0.0000  0.0001  0.0037  0.0000  0.0000  0.3514  0.0000  0.0000  0.0001 </r>
        <r>  0.0007  0.0017  0.0007  0.0000  0.0000  0.2859  0.0010  0.0000  0.0031 </r>
        <r>  0.0002  0.0054  0.0001  0.0000  0.0000  0.0541  0.0002  0.0000  0.0051 </r>
       </set>
       <set comment="band 5">
        <r>  0.0000  0.0000  0.0000  0.0030  0.0003  0.0000  0.0000  0.0274  0.0000 </r>
        <r>  0.0000  0.0000  0.0000  0.0025  0.0003  0.0000  0.0000  0.1892  0.0000 </r>
        <r>  0.0000  0.0000  0.0000  0.0002  0.0000  0.0000  0.0000  0.3472  0.0000 </r>
        <r>  0.0000  0.0000  0.0000  0.0010  0.0001  0.0000  0.0000  0.2977  0.0000 </r>
        <r>  0.0000  0.0000  0.0000  0.0068  0.0007  0.0000  0.0000  0.0619  0.0000 </r>
       </set>
       <set comment="band 6">
        <r>  0.0000  0.0025  0.0000  0.0000  0.0000  0.0035  0.0004  0.0000  0.2114 </r>
        <r>  0.0126  0.0003  0.0023  0.0000  0.0000  0.0010  0.0596  0.0000  0.0032 </r>
        <r>  0.0000  0.0003  0.0002  0.0000  0.0000  0.0003  0.0000  0.0000  0.0161 </r>
        <r>  0.0147  0.0006  0.0148  0.0000  0.0000  0.0071  0.0643  0.0000  0.0024 </r>
        <r>  0.0001  0.0061  0.0000  0.0000  0.0000  0.0105  0.0004  0.0000  0.4356 </r>
       </set>
       <set comment="band 7">
        <r>  0.0013  0.0126  0.0005  0.0000  0.0000  0.0878  0.0002  0.0000  0.1761 </r>
        <r>  0.0019  0.0009  0.0145  0.0000  0.0000  0.2093  0.0069  0.0000  0.0000 </r>
        <r>  0.0019  0.0174  0.0000  0.0000  0.0000  0.0049  0.0002  0.0000  0.0621 </r>
        <r>  0.0004  0.0031  0.0084  0.0000  0.0000  0.1479  0.0000  0.0000  0.0000 </r>
        <r>  0.0011  0.0093  0.0005  0.0000  0.0000  0.0843  0.0002  0.0000  0.0487 </r>
       </set>
       <set comment="band 8">
        <r>  0.0000  0.0000  0.0000  0.0090  0.0012  0.0000  0.0000  0.1275  0.0000 </r>
        <r>  0.0000  0.0000  0.0000  0.0008  0.0001  0.0000  0.0000  0.3359  0.0000 </r>
        <r>  0.0000  0.0000  0.0000  0.0217  0.0033  0.0000  0.0000  0.0112  0.0000 </r>
        <r>  0.0000  0.0000  0.0000  0.0059  0.0010  0.0000  0.0000  0.2544  0.0000 </r>
        <r>  0.0000  0.0000  0.0000  0.0107  0.0015  0.0000  0.0000  0.1512  0.0000 </r>
       </set>
       <set comment="band 9">
        <r>  0.0003  0.0002  0.0003  0.0000  0.0000  0.0371  0.0005  0.0000  0.2761 </r>
        <r>  0.0015  0.0001  0.0079  0.0000  0.0000  0.1303  0.0104  0.0000  0.0003 </r>
        <r>  0.0008  0.0056  0.0000  0.0000  0.0000  0.0059  0.0001  0.0000  0.1021 </r>
        <r>  0.0000  0.0023  0.0061  0.0000  0.0000  0.1061  0.0019  0.0000  0.0000 </r>
        <r>  0.0004  0.0014  0.0003  0.0000  0.0000  0.0564  0.0003  0.0000  0.1437 </r>
       </set>
       <set comment="band 10">
        <r>  0.0005  0.0047  0.0005  0.0000  0.0000  0.2483  0.0001  0.0000  0.0145 </r>
        <r>  0.0028  0.0345  0.0001  0.0000  0.0000  0.0372  0.0000  0.0000  0.0031 </r>
        <r>  0.0001  0.0004  0.0001  0.0000  0.0000  0.2889  0.0000  0.0000  0.0000 </r>
        <r>  0.0031  0.0392  0.0001  0.0000  0.0000  0.0092  0.0001  0.0000  0.0037 </r>
        <r>  0.0003  0.0038  0.0003  0.0000  0.0000  0.2173  0.0000  0.0000  0.0110 </r>
       </set>
       <set comment="band 11">
        <r>  0.0000  0.0000  0.0000  0.0057  0.0012  0.0000  0.0000  0.2565  0.0000 </r>
        <r>  0.0000  0.0000  0.0000  0.0366  0.0100  0.0000  0.0000  0.0357  0.0000 </r>
        <r>  0.0000  0.0000  0.0000  0.0004  0.0001  0.0000  0.0000  0.2942  0.0000 </r>
        <r>  0.0000  0.0000  0.0000  0.0413  0.0119  0.0000  0.0000  0.0081  0.0000 </r>
        <r>  0.0000  0.0000  0.0000  0.0046  0.0010  0.0000  0.0000  0.2199  0.0000 </r>
       </set>
       <set comment="band 12">
        <r>  0.0006  0.0003  0.0000  0.0000  0.0000  0.2982  0.0051  0.0000  0.0019 </r>
        <r>  0.0022  0.0244  0.0000  0.0000  0.0000  0.1043  0.0001  0.0000  0.0056 </r>
        <r>  0.0064  0.0417  0.0000  0.0000  0.0000  0.0001  0.0136  0.0000  0.0064 </r>
        <r>  0.0020  0.0251  0.0000  0.0000  0.0000  0.1085  0.0002  0.0000  0.0049 </r>
        <r>  0.0006  0.0005  0.0000  0.0000  0.0000  0.2648  0.0041  0.0000  0.0009 </r>
       </set>
       <set comment="band 13">
        <r>  0.0000  0.0000  0.0000  0.0002  0.0001  0.0000  0.0000  0.2791  0.0000 </r>
        <r>  0.0000  0.0000  0.0000  0.0272  0.0228  0.0000  0.0000  0.1049  0.0000 </r>
        <r>  0.0000  0.0000  0.0000  0.0484  0.0382  0.0000  0.0000  0.0001  0.0000 </r>
        <r>  0.0000  0.0000  0.0000  0.0274  0.0253  0.0000  0.0000  0.1084  0.0000 </r>
        <r>  0.0000  0.0000  0.0000  0.0004  0.0002  0.0000  0.0000  0.2438  0.0000 </r>
       </set>
       <set comment="band 14">
        <r>  0.0042  0.0003  0.0002  0.0000  0.0000  0.0047  0.1858  0.0000  0.0003 </r>
        <r>  0.0001  0.0007  0.0000  0.0000  0.0000  0.0060  0.0013  0.0000  0.0088 </r>
        <r>  0.0029  0.0049  0.0000  0.0000  0.0000  0.0000  0.5368  0.0000  0.0010 </r>
        <r>  0.0000  0.0009  0.0000  0.0000  0.0000  0.0066  0.0002  0.0000  0.0061 </r>
        <r>  0.0039  0.0003  0.0001  0.0000  0.0000  0.0062  0.1868  0.0000  0.0000 </r>
       </set>
       <set comment="band 15">
        <r>  0.0000  0.0000  0.0000  0.0000  0.0000  0.0060  0.0010  0.0000  0.0674 </r>
        <r>  0.0018  0.0011  0.0011  0.0000  0.0000  0.0021  0.4035  0.0000  0.0001 </r>
        <r>  0.0000  0.0000  0.0000  0.0000  0.0000  0.0001  0.0008  0.0000  0.0000 </r>
        <r>  0.0014  0.0008  0.0016  0.0000  0.0000  0.0009  0.4079  0.0000  0.0004 </r>
        <r>  0.0000  0.0000  0.0000  0.0000  0.0000  0.0025  0.0000  0.0000  0.0745 </r>
       </set>
       <set comment="band 16">
        <r>  0.0051  0.0012  0.0003  0.0000  0.0000  0.0477  0.3394  0.0000  0.0002 </r>
        <r>  0.0000  0.0005  0.0000  0.0000  0.0000  0.0426  0.0016  0.0000  0.0415 </r>
        <r>  0.0000  0.0000  0.0025  0.0000  0.0000  0.0471  0.0004  0.0000  0.0002 </r>
        <r>  0.0000  0.0001  0.0000  0.0000  0.0000  0.0446  0.0001  0.0000  0.0352 </r>
        <r>  0.0043  0.0015  0.0004  0.0000  0.0000  0.0505  0.2983  0.0000  0.0000 </r>
       </set>
       <set comment="band 17">
        <r>  0.0000  0.0000  0.0000  0.0000  0.0000  0.0000  0.0007  0.0000  0.0472 </r>
        <r>  0.0000  0.0010  0.0002  0.0000  0.0000  0.0002  0.3732  0.0000  0.0014 </r>
        <r>  0.0000  0.0000  0.0000  0.0000  0.0000  0.0010  0.0035  0.0000  0.1303 </r>
        <r>  0.0000  0.0006  0.0001  0.0000  0.0000  0.0017  0.3497  0.0000  0.0053 </r>
        <r>  0.0000  0.0001  0.0001  0.0000  0.0000  0.0015  0.0191  0.0000  0.0496 </r>
       </set>
       <set comment="band 18">
        <r>  0.0000  0.0000  0.0000  0.0117  0.0419  0.0000  0.0000  0.1559  0.0000 </r>
        <r>  0.0000  0.0000  0.0000  0.0020  0.0275  0.0000  0.0000  0.1441  0.0000 </r>
        <r>  0.0000  0.0000  0.0000  0.0000  0.0000  0.0000  0.0000  0.1399  0.0000 </r>
        <r>  0.0000  0.0000  0.0000  0.0018  0.0382  0.0000  0.0000  0.1437  0.0000 </r>
        <r>  0.0000  0.0000  0.0000  0.0155  0.0659  0.0000  0.0000  0.1744  0.0000 </r>
       </set>
       <set comment="band 19">
        <r>  0.0000  0.0096  0.0002  0.0000  0.0000  0.1206  0.0967  0.0000  0.0003 </r>
        <r>  0.0001  0.0012  0.0001  0.0000  0.0000  0.1456  0.0000  0.0000  0.0050 </r>
        <r>  0.0000  0.0000  0.0001  0.0000  0.0000  0.1575  0.0011  0.0000  0.0014 </r>
        <r>  0.0001  0.0012  0.0001  0.0000  0.0000  0.1374  0.0171  0.0000  0.0113 </r>
        <r>  0.0001  0.0114  0.0003  0.0000  0.0000  0.1207  0.1281  0.0000  0.0010 </r>
       </set>
       <set comment="band 20">
        <r>  0.0008  0.0003  0.0011  0.0000  0.0000  0.0000  0.2530  0.0000  0.0007 </r>
        <r>  0.0000  0.0000  0.0000  0.0000  0.0000  0.0006  0.0095  0.0000  0.0916 </r>
        <r>  0.0000  0.0004  0.0000  0.0000  0.0000  0.0011  0.2734  0.0000  0.0022 </r>
        <r>  0.0000  0.0000  0.0000  0.0000  0.0000  0.0017  0.0082  0.0000  0.0940 </r>
        <r>  0.0007  0.0000  0.0013  0.0000  0.0000  0.0030  0.2388  0.0000  0.0008 </r>
       </set>
       <set comment="band 21">
        <r>  0.0000  0.0000  0.0000  0.0053  0.0347  0.0000  0.0000  0.0449  0.0000 </r>
        <r>  0.0000  0.0000  0.0000  0.0036  0.1907  0.0000  0.0000  0.0227  0.0000 </r>
        <r>  0.0000  0.0000  0.0000  0.0021  0.0803  0.0000  0.0000  0.0057  0.0000 </r>
        <r>  0.0000  0.0000  0.0000  0.0040  0.5147  0.0000  0.0000  0.0024  0.0000 </r>
        <r>  0.0000  0.0000  0.0000  0.0041  0.0364  0.0000  0.0000  0.0295  0.0000 </r>
       </set>
       <set comment="band 22">
        <r>  0.0000  0.0000  0.0000  0.0001  0.0017  0.0000  0.0000  0.0006  0.0000 </r>
        <r>  0.0000  0.0000  0.0000  0.0013  0.4612  0.0000  0.0000  0.0070  0.0000 </r>
        <r>  0.0000  0.0000  0.0000  0.0007  0.0853  0.0000  0.0000  0.0532  0.0000 </r>
        <r>  0.0000  0.0000  0.0000  0.0000  0.3344  0.0000  0.0000  0.0265  0.0000 </r>
        <r>  0.0000  0.0000  0.0000  0.0013  0.0137  0.0000  0.0000  0.0051  0.0000 </r>
       </set>
       <set comment="band 23">
        <r>  0.0000  0.0000  0.0000  0.0003  0.0034  0.0000  0.0000  0.0013  0.0000 </r>
        <r>  0.0000  0.0000  0.0000  0.0001  0.2243  0.0000  0.0000  0.0133  0.0000 </r>
        <r>  0.0000  0.0000  0.0000  0.0020  0.7207  0.0000  0.0000  0.0041  0.0000 </r>
        <r>  0.0000  0.0000  0.0000  0.0000  0.0181  0.0000  0.0000  0.0019  0.0000 </r>
        <r>  0.0000  0.0000  0.0000  0.0002  0.0028  0.0000  0.0000  0.0005  0.0000 </r>
       </set>
       <set comment="band 24">
        <r>  0.0000  0.0000  0.0000  0.0023  0.1741  0.0000  0.0000  0.0001  0.0000 </r>
        <r>  0.0000  0.0000  0.0000  0.0005  0.0251  0.0000  0.0000  0.0000  0.0000 </r>
        <r>  0.0000  0.0000  0.0000  0.0005  0.0372  0.0000  0.0000  0.0058  0.0000 </r>
        <r>  0.0000  0.0000  0.0000  0.0008  0.0256  0.0000  0.0000  0.0250  0.0000 </r>
        <r>  0.0000  0.0000  0.0000  0.0034  0.6839  0.0000  0.0000  0.0065  0.0000 </r>
       </set>
       <set comment="band 25">
        <r>  0.0000  0.0000  0.0000  0.0028  0.7108  0.0000  0.0000  0.0104  0.0000 </r>
        <r>  0.0000  0.0000  0.0000  0.0002  0.0068  0.0000  0.0000  0.0387  0.0000 </r>
        <r>  0.0000  0.0000  0.0000  0.0001  0.0022  0.0000  0.0000  0.0267  0.0000 </r>
        <r>  0.0000  0.0000  0.0000  0.0000  0.0000  0.0000  0.0000  0.0229  0.0000 </r>
        <r>  0.0000  0.0000  0.0000  0.0001  0.1627  0.0000  0.0000  0.0086  0.0000 </r>
       </set>
       <set comment="band 26">
        <r>  0.0088  0.0626  0.0004  0.0000  0.0000  0.0399  0.0022  0.0000  0.0054 </r>
        <r>  0.0160  0.1164  0.0002  0.0000  0.0000  0.0127  0.0026  0.0000  0.0135 </r>
        <r>  0.0198  0.1455  0.0000  0.0000  0.0000  0.0001  0.0032  0.0000  0.0177 </r>
        <r>  0.0165  0.1225  0.0002  0.0000  0.0000  0.0099  0.0025  0.0000  0.0146 </r>
        <r>  0.0101  0.0741  0.0003  0.0000  0.0000  0.0451  0.0020  0.0000  0.0061 </r>
       </set>
       <set comment="band 27">
        <r>  0.0000  0.0000  0.0000  0.0654  0.0103  0.0000  0.0000  0.0255  0.0000 </r>
        <r>  0.0000  0.0000  0.0000  0.1395  0.0183  0.0000  0.0000  0.0088  0.0000 </r>
        <r>  0.0000  0.0000  0.0000  0.1794  0.0241  0.0000  0.0000  0.0001  0.0000 </r>
        <r>  0.0000  0.0000  0.0000  0.1495  0.0190  0.0000  0.0000  0.0068  0.0000 </r>
        <r>  0.0000  0.0000  0.0000  0.0794  0.0122  0.0000  0.0000  0.0295  0.0000 </r>
       </set>
       <set comment="band 28">
        <r>  0.0243  0.1303  0.0003  0.0000  0.0000  0.0096  0.0025  0.0000  0.0151 </r>
        <r>  0.0181  0.0976  0.0016  0.0000  0.0000  0.0287  0.0013  0.0000  0.0152 </r>
        <r>  0.0000  0.0001  0.0051  0.0000  0.0000  0.0904  0.0000  0.0000  0.0000 </r>
        <r>  0.0164  0.0925  0.0015  0.0000  0.0000  0.0315  0.0009  0.0000  0.0142 </r>
        <r>  0.0229  0.1259  0.0002  0.0000  0.0000  0.0089  0.0021  0.0000  0.0147 </r>
       </set>
       <set comment="band 29">
        <r>  0.0000  0.0000  0.0000  0.1645  0.0117  0.0000  0.0000  0.0095  0.0000 </r>
        <r>  0.0000  0.0000  0.0000  0.1304  0.0084  0.0000  0.0000  0.0231  0.0000 </r>
        <r>  0.0000  0.0000  0.0000  0.0002  0.0000  0.0000  0.0000  0.0772  0.0000 </r>
        <r>  0.0000  0.0000  0.0000  0.1216  0.0077  0.0000  0.0000  0.0263  0.0000 </r>
        <r>  0.0000  0.0000  0.0000  0.1596  0.0112  0.0000  0.0000  0.0088  0.0000 </r>
       </set>
       <set comment="band 30">
        <r>  0.0317  0.1263  0.0008  0.0000  0.0000  0.0035  0.0009  0.0000  0.0178 </r>
        <r>  0.0004  0.0011  0.0169  0.0000  0.0000  0.0826  0.0000  0.0000  0.0004 </r>
        <r>  0.0316  0.1269  0.0000  0.0000  0.0000  0.0001  0.0006  0.0000  0.0298 </r>
        <r>  0.0001  0.0001  0.0162  0.0000  0.0000  0.0830  0.0001  0.0000  0.0002 </r>
        <r>  0.0284  0.1133  0.0008  0.0000  0.0000  0.0032  0.0008  0.0000  0.0169 </r>
       </set>
       <set comment="band 31">
        <r>  0.0000  0.0000  0.0000  0.1819  0.0072  0.0000  0.0000  0.0033  0.0000 </r>
        <r>  0.0000  0.0000  0.0000  0.0016  0.0001  0.0000  0.0000  0.0902  0.0000 </r>
        <r>  0.0000  0.0000  0.0000  0.1861  0.0070  0.0000  0.0000  0.0001  0.0000 </r>
        <r>  0.0000  0.0000  0.0000  0.0002  0.0000  0.0000  0.0000  0.0897  0.0000 </r>
        <r>  0.0000  0.0000  0.0000  0.1597  0.0063  0.0000  0.0000  0.0030  0.0000 </r>
       </set>
       <set comment="band 32">
        <r>  0.0131  0.0597  0.0213  0.0000  0.0000  0.0277  0.0001  0.0000  0.0074 </r>
        <r>  0.0164  0.0797  0.0051  0.0000  0.0000  0.0098  0.0002  0.0000  0.0336 </r>
        <r>  0.0001  0.0003  0.0448  0.0000  0.0000  0.0558  0.0000  0.0000  0.0002 </r>
        <r>  0.0154  0.0687  0.0086  0.0000  0.0000  0.0162  0.0001  0.0000  0.0336 </r>
        <r>  0.0138  0.0593  0.0213  0.0000  0.0000  0.0288  0.0001  0.0000  0.0089 </r>
       </set>
       <set comment="band 33">
        <r>  0.0129  0.0023  0.0128  0.0000  0.0000  0.0009  0.0061  0.0000  0.0121 </r>
        <r>  0.0701  0.0067  0.0085  0.0000  0.0000  0.0001  0.0252  0.0000  0.0890 </r>
        <r>  0.1217  0.0092  0.0000  0.0000  0.0000  0.0000  0.0421  0.0000  0.1438 </r>
        <r>  0.0682  0.0073  0.0088  0.0000  0.0000  0.0000  0.0246  0.0000  0.0917 </r>
        <r>  0.0117  0.0024  0.0133  0.0000  0.0000  0.0012  0.0059  0.0000  0.0122 </r>
       </set>
       <set comment="band 34">
        <r>  0.1046  0.0002  0.0010  0.0000  0.0000  0.0050  0.0253  0.0000  0.0633 </r>
        <r>  0.1073  0.0012  0.0085  0.0000  0.0000  0.0000  0.0176  0.0000  0.0776 </r>
        <r>  0.0000  0.0003  0.0295  0.0000  0.0000  0.0042  0.0000  0.0000  0.0004 </r>
        <r>  0.0876  0.0001  0.0017  0.0000  0.0000  0.0003  0.0158  0.0000  0.0782 </r>
        <r>  0.0769  0.0005  0.0028  0.0000  0.0000  0.0019  0.0194  0.0000  0.0450 </r>
       </set>
       <set comment="band 35">
        <r>  0.0000  0.0000  0.0000  0.0982  0.0028  0.0000  0.0000  0.0394  0.0000 </r>
        <r>  0.0000  0.0000  0.0000  0.1481  0.0041  0.0000  0.0000  0.0129  0.0000 </r>
        <r>  0.0000  0.0000  0.0000  0.0009  0.0000  0.0000  0.0000  0.0862  0.0000 </r>
        <r>  0.0000  0.0000  0.0000  0.1270  0.0035  0.0000  0.0000  0.0238  0.0000 </r>
        <r>  0.0000  0.0000  0.0000  0.1004  0.0028  0.0000  0.0000  0.0409  0.0000 </r>
       </set>
       <set comment="band 36">
        <r>  0.0390  0.0009  0.0368  0.0000  0.0000  0.0244  0.0066  0.0000  0.0270 </r>
        <r>  0.0204  0.0204  0.0384  0.0000  0.0000  0.0060  0.0003  0.0000  0.0002 </r>
        <r>  0.0106  0.0329  0.0001  0.0000  0.0000  0.0002  0.0001  0.0000  0.0154 </r>
        <r>  0.0383  0.0273  0.0347  0.0000  0.0000  0.0042  0.0011  0.0000  0.0017 </r>
        <r>  0.0745  0.0003  0.0363  0.0000  0.0000  0.0303  0.0138  0.0000  0.0378 </r>
       </set>
      </set>
     </set>
    </set>
   </array>
  </projected>
 </calculation>
 <structure name="finalpos" >
  <crystal>
   <varray name="basis" >
    <v>       1.76500000       1.76500000       0.00000000 </v>
    <v>      -1.76500000       1.76500000       0.00000000 </v>
    <v>       0.00000000       0.00000000      17.65000000 </v>
   </varray>
   <i name="volume">    109.96744250 </i>
   <varray name="rec_basis" >
    <v>       0.28328612       0.28328612       0.00000000 </v>
    <v>      -0.28328612       0.28328612       0.00000000 </v>
    <v>       0.00000000       0.00000000       0.05665722 </v>
   </varray>
  </crystal>
  <varray name="positions" >
   <v>       0.00000000       0.00000000       0.00000000 </v>
   <v>       0.50000000       0.50000000       0.10000000 </v>
   <v>       0.00000000       0.00000000       0.20000000 </v>
   <v>       0.50000000       0.50000000       0.30020998 </v>
   <v>       0.00000000       0.00000000       0.39550725 </v>
  </varray>
  <varray name="selective"  type="logical" >
   <v type="logical" >  F  F  F </v>
   <v type="logical" >  F  F  F </v>
   <v type="logical" >  F  F  F </v>
   <v type="logical" >  T  T  T </v>
   <v type="logical" >  T  T  T </v>
  </varray>
  <nose>
   <v>      -3.00000000       0.00000000       0.00010000       0.00010000 </v>
  </nose>
 </structure>
</modeling>
