diamond Si                              
   5.50000000000000     
    -0.000000    0.494878    0.494878
     0.494878   -0.000000    0.494878
     0.494878    0.494878   -0.000000
   Si
     2
Direct
  0.875000  0.875000  0.875000
  0.125000  0.125000  0.125000
 
   32   32   32
  22.791      22.739      22.532      22.033      21.029      19.503      17.773      16.385      15.853      16.385    
  17.773      19.503      21.029      22.033      22.532      22.739      22.791      22.739      22.532      22.033    
  21.029      19.503      17.773      16.385      15.853      16.385      17.773      19.503      21.029      22.033    
  22.532      22.739      22.739      23.035      22.980      22.214      20.569      18.309      16.095      14.720    
  14.720      16.095      18.309      20.569      22.214      22.980      23.035      22.739      22.289      21.755    
  21.108      20.281      19.201      17.936      16.763      16.049      16.049      16.763      17.936      19.201    
  20.281      21.108      21.755      22.289      22.532      22.980      22.624      21.104      18.522      15.529    
  13.120      12.196      13.120      15.529      18.522      21.104      22.624      22.980      22.532      21.755    
  20.866      19.944      18.988      17.976      16.936      15.963      15.247      14.982      15.247      15.963    
  16.936      17.976      18.988      19.944      20.866      21.755      22.033      22.214      21.104      18.571    
  15.107      11.746      9.6716      9.6716      11.746      15.107      18.571      21.104      22.214      22.033    
  21.108      19.944      18.739      17.573      16.462      15.418      14.489      13.772      13.377      13.377    
  13.772      14.489      15.418      16.462      17.573      18.739      19.944      21.108      21.029      20.569    
  18.522      15.107      11.207      8.0985      6.9117      8.0985      11.207      15.107      18.522      20.569    
  21.029      20.281      18.988      17.573      16.199      14.939      13.817      12.856      12.099      11.608    
  11.437      11.608      12.099      12.856      13.817      14.939      16.199      17.573      18.988      20.281    
  19.503      18.309      15.529      11.746      8.0985      5.8573      5.8573      8.0985      11.746      15.529    
  18.309      19.503      19.201      17.976      16.462      14.939      13.534      12.307      11.279      10.469    
  9.9027      9.6100      9.6100      9.9027      10.469      11.279      12.307      13.534      14.939      16.462    
  17.976      19.201      17.773      16.095      13.120      9.6716      6.9117      5.8573      6.9117      9.6715    
  13.120      16.095      17.773      17.936      16.936      15.418      13.817      12.307      10.978      9.8710    
  8.9969      8.3627      7.9766      7.8468      7.9766      8.3627      8.9969      9.8710      10.978      12.307    
  13.817      15.418      16.936      17.936      16.385      14.720      12.196      9.6716      8.0985      8.0985    
  9.6715      12.196      14.720      16.385      16.763      15.963      14.489      12.856      11.279      9.8709    
  8.6890      7.7497      7.0517      6.5895      6.3592      6.3592      6.5895      7.0517      7.7497      8.6890    
  9.8710      11.279      12.856      14.489      15.963      16.763      15.853      14.720      13.120      11.746    
  11.207      11.746      13.120      14.720      15.853      16.049      15.247      13.772      12.099      10.469    
  8.9969      7.7496      6.7498      5.9938      5.4679      5.1584      5.0563      5.1584      5.4679      5.9938    
  6.7498      7.7497      8.9969      10.469      12.099      13.772      15.247      16.049      16.385      16.095    
  15.529      15.107      15.107      15.529      16.095      16.385      16.049      14.982      13.377      11.608    
  9.9027      8.3627      7.0517      5.9938      5.1843      4.6037      4.2307      4.0485      4.0485      4.2307    
  4.6037      5.1843      5.9938      7.0517      8.3627      9.9027      11.608      13.377      14.982      16.049    
  17.773      18.309      18.522      18.571      18.522      18.309      17.773      16.763      15.247      13.377    
  11.437      9.6100      7.9766      6.5895      5.4679      4.6037      3.9726      3.5460      3.3001      3.2198    
  3.3001      3.5460      3.9726      4.6037      5.4679      6.5895      7.9766      9.6100      11.437      13.377    
  15.247      16.763      19.503      20.569      21.104      21.104      20.569      19.503      17.936      15.963    
  13.772      11.608      9.6100      7.8469      6.3592      5.1584      4.2307      3.5460      3.0692      2.7695    
  2.6250      2.6250      2.7695      3.0692      3.5460      4.2307      5.1584      6.3592      7.8468      9.6100    
  11.608      13.772      15.963      17.936      21.029      22.214      22.624      22.214      21.029      19.201    
  16.936      14.489      12.099      9.9027      7.9766      6.3592      5.0562      4.0485      3.3001      2.7695    
  2.4187      2.2195      2.1549      2.2195      2.4187      2.7695      3.3001      4.0485      5.0563      6.3592    
  7.9766      9.9027      12.099      14.489      16.936      19.201      22.033      22.980      22.980      22.033    
  20.281      17.976      15.418      12.856      10.469      8.3627      6.5895      5.1584      4.0485      3.2198    
  2.6250      2.2195      1.9681      1.8479      1.8479      1.9681      2.2195      2.6250      3.2198      4.0485    
  5.1584      6.5895      8.3627      10.469      12.856      15.418      17.976      20.281      22.532      23.035    
  22.532      21.108      18.988      16.462      13.817      11.279      8.9969      7.0517      5.4679      4.2307    
  3.3001      2.6250      2.1549      1.8479      1.6747      1.6188      1.6747      1.8479      2.1549      2.6250    
  3.3001      4.2307      5.4679      7.0517      8.9969      11.279      13.817      16.462      18.988      21.108    
  22.739      22.739      21.755      19.944      17.573      14.939      12.307      9.8709      7.7496      5.9938    
  4.6037      3.5460      2.7695      2.2195      1.8479      1.6187      1.5095      1.5095      1.6188      1.8479    
  2.2195      2.7695      3.5460      4.6037      5.9938      7.7497      9.8710      12.307      14.939      17.573    
  19.944      21.755      22.791      22.289      20.866      18.739      16.199      13.534      10.978      8.6890    
  6.7498      5.1843      3.9726      3.0692      2.4187      1.9681      1.6747      1.5095      1.4561      1.5095    
  1.6747      1.9681      2.4187      3.0692      3.9726      5.1843      6.7498      8.6890      10.978      13.534    
  16.199      18.739      20.866      22.289      22.739      21.755      19.944      17.573      14.939      12.307    
  9.8710      7.7497      5.9938      4.6037      3.5460      2.7695      2.2195      1.8479      1.6188      1.5095    
  1.5095      1.6187      1.8479      2.2195      2.7695      3.5460      4.6037      5.9938      7.7496      9.8709    
  12.307      14.939      17.573      19.944      21.755      22.739      22.532      21.108      18.988      16.462    
  13.817      11.279      8.9969      7.0517      5.4679      4.2307      3.3001      2.6250      2.1549      1.8479    
  1.6747      1.6188      1.6747      1.8479      2.1549      2.6250      3.3001      4.2307      5.4679      7.0517    
  8.9969      11.279      13.817      16.462      18.988      21.108      22.532      23.035      22.033      20.281    
  17.976      15.418      12.856      10.469      8.3627      6.5895      5.1584      4.0485      3.2198      2.6250    
  2.2195      1.9681      1.8479      1.8479      1.9681      2.2195      2.6250      3.2198      4.0485      5.1584    
  6.5895      8.3627      10.469      12.856      15.418      17.976      20.281      22.033      22.980      22.980    
  21.029      19.201      16.936      14.489      12.099      9.9027      7.9766      6.3592      5.0563      4.0485    
  3.3001      2.7695      2.4187      2.2195      2.1549      2.2195      2.4187      2.7695      3.3001      4.0485    
  5.0562      6.3592      7.9766      9.9027      12.099      14.489      16.936      19.201      21.029      22.214    
  22.624      22.214      19.503      17.936      15.963      13.772      11.608      9.6100      7.8468      6.3592    
  5.1584      4.2307      3.5460      3.0692      2.7695      2.6250      2.6250      2.7695      3.0692      3.5460    
  4.2307      5.1584      6.3592      7.8469      9.6100      11.608      13.772      15.963      17.936      19.503    
  20.569      21.104      21.104      20.569      17.773      16.763      15.247      13.377      11.437      9.6100    
  7.9766      6.5895      5.4679      4.6037      3.9726      3.5460      3.3001      3.2198      3.3001      3.5460    
  3.9726      4.6037      5.4679      6.5895      7.9766      9.6100      11.437      13.377      15.247      16.763    
  17.773      18.309      18.522      18.571      18.522      18.309      16.385      16.049      14.982      13.377    
  11.608      9.9027      8.3627      7.0517      5.9938      5.1843      4.6037      4.2307      4.0485      4.0485    
  4.2307      4.6037      5.1843      5.9938      7.0517      8.3627      9.9027      11.608      13.377      14.982    
  16.049      16.385      16.095      15.529      15.107      15.107      15.529      16.095      15.853      16.049    
  15.247      13.772      12.099      10.469      8.9969      7.7497      6.7498      5.9938      5.4679      5.1584    
  5.0563      5.1584      5.4679      5.9938      6.7498      7.7496      8.9969      10.469      12.099      13.772    
  15.247      16.049      15.853      14.720      13.120      11.746      11.207      11.746      13.120      14.720    
  16.385      16.763      15.963      14.489      12.856      11.279      9.8710      8.6890      7.7497      7.0517    
  6.5895      6.3592      6.3592      6.5895      7.0517      7.7497      8.6890      9.8709      11.279      12.856    
  14.489      15.963      16.763      16.385      14.720      12.196      9.6715      8.0985      8.0985      9.6716    
  12.196      14.720      17.773      17.936      16.936      15.418      13.817      12.307      10.978      9.8710    
  8.9969      8.3627      7.9766      7.8468      7.9766      8.3627      8.9969      9.8710      10.978      12.307    
  13.817      15.418      16.936      17.936      17.773      16.095      13.120      9.6715      6.9117      5.8573    
  6.9117      9.6716      13.120      16.095      19.503      19.201      17.976      16.462      14.939      13.534    
  12.307      11.279      10.469      9.9027      9.6100      9.6100      9.9027      10.469      11.279      12.307    
  13.534      14.939      16.462      17.976      19.201      19.503      18.309      15.529      11.746      8.0985    
  5.8573      5.8573      8.0985      11.746      15.529      18.309      21.029      20.281      18.988      17.573    
  16.199      14.939      13.817      12.856      12.099      11.608      11.437      11.608      12.099      12.856    
  13.817      14.939      16.199      17.573      18.988      20.281      21.029      20.569      18.522      15.107    
  11.207      8.0985      6.9117      8.0985      11.207      15.107      18.522      20.569      22.033      21.108    
  19.944      18.739      17.573      16.462      15.418      14.489      13.772      13.377      13.377      13.772    
  14.489      15.418      16.462      17.573      18.739      19.944      21.108      22.033      22.214      21.104    
  18.571      15.107      11.746      9.6716      9.6716      11.746      15.107      18.571      21.104      22.214    
  22.532      21.755      20.866      19.944      18.988      17.976      16.936      15.963      15.247      14.982    
  15.247      15.963      16.936      17.976      18.988      19.944      20.866      21.755      22.532      22.980    
  22.624      21.104      18.522      15.529      13.120      12.196      13.120      15.529      18.522      21.104    
  22.624      22.980      22.739      22.289      21.755      21.108      20.281      19.201      17.936      16.763    
  16.049      16.049      16.763      17.936      19.201      20.281      21.108      21.755      22.289      22.739    
  23.035      22.980      22.214      20.569      18.309      16.095      14.720      14.720      16.095      18.309    
  20.569      22.214      22.980      23.035      22.739      23.035      22.980      22.214      20.569      18.309    
  16.095      14.720      14.720      16.095      18.309      20.569      22.214      22.980      23.035      22.739    
  22.289      21.755      21.108      20.281      19.201      17.936      16.763      16.049      16.049      16.763    
  17.936      19.201      20.281      21.108      21.755      22.289      23.035      23.480      23.066      21.424    
  18.669      15.491      12.940      11.962      12.940      15.491      18.669      21.424      23.066      23.480    
  23.035      22.238      21.327      20.384      19.403      18.363      17.285      16.271      15.522      15.243    
  15.522      16.271      17.285      18.363      19.403      20.383      21.327      22.238      22.980      23.066    
  21.710      18.788      14.861      11.080      8.7544      8.7545      11.080      14.861      18.788      21.710    
  23.066      22.980      22.036      20.817      19.555      18.334      17.168      16.065      15.080      14.315    
  13.889      13.889      14.315      15.080      16.065      17.168      18.334      19.555      20.817      22.036    
  22.214      21.424      18.788      14.599      9.9039      6.1930      4.7812      6.1930      9.9040      14.599    
  18.788      21.424      22.214      21.557      20.202      18.696      17.231      15.884      14.681      13.644    
  12.822      12.286      12.098      12.286      12.822      13.644      14.681      15.884      17.231      18.696    
  20.202      21.557      20.569      18.669      14.861      9.9039      5.2163      2.3607      2.3608      5.2163    
  9.9039      14.861      18.669      20.569      20.609      19.424      17.809      16.166      14.645      13.311    
  12.188      11.298      10.672      10.347      10.347      10.672      11.298      12.188      13.311      14.645    
  16.166      17.809      19.424      20.609      18.309      15.491      11.080      6.1930      2.3607     0.90865    
  2.3607      6.1930      11.080      15.491      18.309      19.170      18.435      16.879      15.158      13.513    
  12.058      10.838      9.8694      9.1628      8.7306      8.5849      8.7307      9.1628      9.8694      10.838    
  12.058      13.513      15.158      16.879      18.435      19.170      16.095      12.940      8.7544      4.7812    
  2.3608      2.3607      4.7811      8.7544      12.940      16.095      17.536      17.291      15.939      14.220    
  12.514      10.970      9.6622      8.6168      7.8356      7.3159      7.0561      7.0561      7.3159      7.8356    
  8.6168      9.6622      10.970      12.514      14.220      15.939      17.291      17.536      14.720      11.962    
  8.7545      6.1930      5.2163      6.1930      8.7544      11.962      14.720      16.225      16.236      15.078    
  13.395      11.666      10.066      8.6901      7.5768      6.7295      6.1372      5.7874      5.6717      5.7873    
  6.1372      6.7295      7.5768      8.6902      10.066      11.666      13.395      15.078      16.236      16.225    
  14.720      12.940      11.080      9.9040      9.9039      11.080      12.940      14.720      15.721      15.595    
  14.453      12.765      11.006      9.3609      7.9292      6.7575      5.8527      5.1999      4.7788      4.5726    
  4.5726      4.7787      5.1999      5.8527      6.7575      7.9292      9.3609      11.006      12.765      14.453    
  15.595      15.721      16.095      15.491      14.861      14.599      14.861      15.491      16.095      16.225    
  15.595      14.222      12.420      10.581      8.8726      7.3815      6.1533      5.1951      4.4898      4.0108    
  3.7339      3.6434      3.7339      4.0108      4.4898      5.1951      6.1532      7.3815      8.8726      10.581    
  12.420      14.222      15.595      16.225      18.309      18.669      18.788      18.788      18.669      18.309    
  17.536      16.236      14.453      12.420      10.434      8.6218      7.0504      5.7556      4.7405      3.9841    
  3.4544      3.1201      2.9588      2.9588      3.1201      3.4543      3.9841      4.7405      5.7556      7.0504    
  8.6217      10.434      12.420      14.453      16.236      17.536      20.569      21.424      21.710      21.424    
  20.569      19.170      17.291      15.078      12.765      10.581      8.6218      6.9395      5.5583      4.4741    
  3.6606      3.0802      2.6951      2.4759      2.4048      2.4759      2.6951      3.0802      3.6606      4.4741    
  5.5583      6.9395      8.6217      10.581      12.765      15.078      17.291      19.170      22.214      23.066    
  23.066      22.214      20.609      18.435      15.939      13.395      11.006      8.8726      7.0504      5.5583    
  4.3864      3.5031      2.8651      2.4286      2.1576      2.0279      2.0279      2.1576      2.4286      2.8651    
  3.5031      4.3864      5.5583      7.0504      8.8726      11.006      13.395      15.939      18.435      20.609    
  22.980      23.480      22.980      21.557      19.424      16.879      14.220      11.666      9.3609      7.3815    
  5.7556      4.4741      3.5031      2.7950      2.3004      1.9769      1.7944      1.7355      1.7944      1.9770    
  2.3004      2.7950      3.5031      4.4741      5.7556      7.3815      9.3608      11.666      14.220      16.879    
  19.424      21.557      23.035      23.035      22.036      20.202      17.809      15.158      12.514      10.066    
  7.9292      6.1533      4.7405      3.6606      2.8651      2.3004      1.9184      1.6828      1.5705      1.5705    
  1.6828      1.9184      2.3004      2.8651      3.6607      4.7405      6.1533      7.9292      10.066      12.514    
  15.158      17.809      20.202      22.036      22.739      22.238      20.817      18.696      16.166      13.513    
  10.970      8.6901      6.7575      5.1951      3.9841      3.0802      2.4286      1.9769      1.6828      1.5171    
  1.4636      1.5172      1.6828      1.9770      2.4286      3.0802      3.9841      5.1951      6.7576      8.6902    
  10.970      13.513      16.166      18.696      20.817      22.238      22.289      21.327      19.555      17.231    
  14.645      12.058      9.6622      7.5768      5.8527      4.4898      3.4544      2.6951      2.1576      1.7944    
  1.5705      1.4636      1.4636      1.5705      1.7944      2.1576      2.6951      3.4544      4.4898      5.8527    
  7.5768      9.6622      12.058      14.645      17.231      19.555      21.327      22.289      21.755      20.384    
  18.334      15.884      13.311      10.838      8.6168      6.7295      5.1999      4.0108      3.1201      2.4759    
  2.0279      1.7355      1.5705      1.5172      1.5705      1.7354      2.0279      2.4759      3.1201      4.0108    
  5.1999      6.7295      8.6167      10.838      13.311      15.884      18.334      20.384      21.755      22.238    
  21.108      19.403      17.168      14.681      12.188      9.8694      7.8356      6.1372      4.7788      3.7339    
  2.9588      2.4048      2.0279      1.7944      1.6828      1.6828      1.7944      2.0279      2.4047      2.9587    
  3.7339      4.7788      6.1372      7.8356      9.8694      12.188      14.681      17.168      19.403      21.108    
  22.036      22.036      20.281      18.363      16.065      13.644      11.298      9.1628      7.3159      5.7874    
  4.5726      3.6434      2.9588      2.4759      2.1576      1.9770      1.9184      1.9770      2.1576      2.4759    
  2.9587      3.6433      4.5726      5.7874      7.3159      9.1628      11.298      13.644      16.065      18.363    
  20.281      21.557      22.005      21.557      19.201      17.285      15.080      12.822      10.672      8.7306    
  7.0561      5.6717      4.5726      3.7339      3.1201      2.6951      2.4286      2.3004      2.3004      2.4286    
  2.6951      3.1201      3.7339      4.5726      5.6717      7.0561      8.7307      10.672      12.822      15.080    
  17.285      19.201      20.609      21.353      21.353      20.609      17.936      16.271      14.315      12.286    
  10.347      8.5849      7.0561      5.7873      4.7787      4.0108      3.4543      3.0802      2.8651      2.7950    
  2.8651      3.0802      3.4544      4.0108      4.7788      5.7874      7.0561      8.5849      10.347      12.286    
  14.315      16.271      17.936      19.170      19.916      20.164      19.916      19.170      16.763      15.522    
  13.889      12.098      10.347      8.7307      7.3159      6.1372      5.1999      4.4898      3.9841      3.6606    
  3.5031      3.5031      3.6607      3.9841      4.4898      5.1999      6.1372      7.3159      8.7307      10.347    
  12.098      13.889      15.522      16.763      17.536      17.917      18.052      18.052      17.917      17.536    
  16.049      15.243      13.889      12.286      10.672      9.1628      7.8356      6.7295      5.8527      5.1951    
  4.7405      4.4741      4.3864      4.4741      4.7405      5.1951      5.8527      6.7295      7.8356      9.1628    
  10.672      12.286      13.889      15.243      16.049      16.225      15.949      15.563      15.391      15.563    
  15.949      16.225      16.049      15.522      14.315      12.822      11.298      9.8694      8.6168      7.5768    
  6.7575      6.1532      5.7556      5.5583      5.5583      5.7556      6.1533      6.7576      7.5768      8.6167    
  9.8694      11.298      12.822      14.315      15.522      16.049      15.721      14.723      13.543      12.761    
  12.761      13.543      14.723      15.721      16.763      16.271      15.080      13.644      12.188      10.838    
  9.6622      8.6902      7.9292      7.3815      7.0504      6.9395      7.0504      7.3815      7.9292      8.6902    
  9.6622      10.838      12.188      13.644      15.080      16.271      16.763      16.225      14.723      12.766    
  11.125      10.486      11.125      12.766      14.723      16.225      17.936      17.285      16.065      14.681    
  13.311      12.058      10.970      10.066      9.3609      8.8726      8.6217      8.6217      8.8726      9.3608    
  10.066      10.970      12.058      13.311      14.681      16.065      17.285      17.936      17.536      15.949    
  13.543      11.125      9.6106      9.6106      11.125      13.543      15.949      17.536      19.201      18.363    
  17.168      15.884      14.645      13.513      12.514      11.666      11.006      10.581      10.434      10.581    
  11.006      11.666      12.514      13.513      14.645      15.884      17.168      18.363      19.201      19.170    
  17.917      15.563      12.761      10.486      9.6106      10.486      12.761      15.563      17.917      19.170    
  20.281      19.403      18.334      17.231      16.166      15.158      14.220      13.395      12.765      12.420    
  12.420      12.765      13.395      14.220      15.158      16.166      17.231      18.334      19.403      20.281    
  20.609      19.916      18.052      15.391      12.761      11.125      11.125      12.761      15.391      18.052    
  19.916      20.609      21.108      20.383      19.555      18.696      17.809      16.879      15.939      15.078    
  14.453      14.222      14.453      15.078      15.939      16.879      17.809      18.696      19.555      20.384    
  21.108      21.557      21.353      20.164      18.052      15.563      13.543      12.766      13.543      15.563    
  18.052      20.164      21.353      21.557      21.755      21.327      20.817      20.202      19.424      18.435    
  17.291      16.236      15.595      15.595      16.236      17.291      18.435      19.424      20.202      20.817    
  21.327      21.755      22.036      22.005      21.353      19.916      17.917      15.949      14.723      14.723    
  15.949      17.917      19.916      21.353      22.005      22.036      22.289      22.238      22.036      21.557    
  20.609      19.170      17.536      16.225      15.721      16.225      17.536      19.170      20.609      21.557    
  22.036      22.238      22.289      22.238      22.036      21.557      20.609      19.170      17.536      16.225    
  15.721      16.225      17.536      19.170      20.609      21.557      22.036      22.238      22.532      22.980    
  22.624      21.104      18.522      15.529      13.120      12.196      13.120      15.529      18.522      21.104    
  22.624      22.980      22.532      21.755      20.866      19.944      18.988      17.976      16.936      15.963    
  15.247      14.982      15.247      15.963      16.936      17.976      18.988      19.944      20.866      21.755    
  22.980      23.066      21.710      18.788      14.861      11.080      8.7544      8.7545      11.080      14.861    
  18.788      21.710      23.066      22.980      22.036      20.817      19.555      18.334      17.168      16.065    
  15.080      14.315      13.889      13.889      14.315      15.080      16.065      17.168      18.334      19.555    
  20.817      22.036      22.624      21.710      18.858      14.385      9.3992      5.4683      3.9744      5.4683    
  9.3992      14.385      18.858      21.710      22.624      22.005      20.630      19.091      17.593      16.216    
  14.984      13.920      13.075      12.522      12.330      12.522      13.075      13.920      14.984      16.216    
  17.593      19.091      20.630      22.005      21.104      18.788      14.385      8.7516      3.4658     0.25740    
 0.25739      3.4658      8.7515      14.385      18.788      21.104      21.353      20.206      18.536      16.828    
  15.243      13.851      12.677      11.743      11.084      10.742      10.742      11.084      11.743      12.677    
  13.851      15.243      16.828      18.536      20.206      21.353      18.522      14.861      9.3992      3.4658    
 -1.1448     -2.8854     -1.1448      3.4658      9.3992      14.861      18.522      19.916      19.406      17.847    
  16.045      14.310      12.769      11.474      10.443      9.6880      9.2251      9.0687      9.2250      9.6880    
  10.443      11.474      12.769      14.310      16.044      17.847      19.406      19.916      15.529      11.080    
  5.4683     0.25740     -2.8854     -2.8854     0.25735      5.4683      11.080      15.529      17.917      18.200    
  17.010      15.238      13.436      11.789      10.388      9.2624      8.4188      7.8557      7.5736      7.5736    
  7.8557      8.4188      9.2624      10.388      11.789      13.436      15.238      17.010      18.200      17.917    
  13.120      8.7544      3.9744     0.25739     -1.1448     0.25735      3.9743      8.7544      13.120      15.949    
  16.829      16.072      14.438      12.637      10.935      9.4547      8.2489      7.3271      6.6804      6.2975    
  6.1707      6.2975      6.6804      7.3271      8.2489      9.4548      10.935      12.637      14.438      16.072    
  16.829      15.949      12.196      8.7545      5.4683      3.4658      3.4658      5.4683      8.7544      12.196    
  14.723      15.725      15.218      13.728      11.946      10.221      8.6890      7.4200      6.4328      5.7173    
  5.2542      5.0272      5.0271      5.2542      5.7172      6.4328      7.4200      8.6890      10.221      11.946    
  13.728      15.218      15.725      14.723      13.120      11.080      9.3992      8.7515      9.3992      11.080    
  13.120      14.723      15.300      14.701      13.224      11.427      9.6738      8.0991      6.7779      5.7355    
  4.9629      4.4360      4.1307      4.0308      4.1307      4.4359      4.9628      5.7355      6.7779      8.0991    
  9.6738      11.427      13.224      14.701      15.300      14.723      15.529      14.861      14.385      14.385    
  14.861      15.529      15.949      15.725      14.701      13.040      11.145      9.3260      7.6955      6.3204    
  5.2257      4.4021      3.8221      3.4550      3.2776      3.2776      3.4550      3.8221      4.4021      5.2257    
  6.3204      7.6955      9.3260      11.145      13.040      14.701      15.725      15.949      18.522      18.788    
  18.858      18.788      18.522      17.917      16.829      15.218      13.224      11.145      9.2063      7.4899    
  6.0461      4.8926      4.0171      3.3879      2.9689      2.7299      2.6524      2.7300      2.9689      3.3879    
  4.0171      4.8926      6.0461      7.4899      9.2063      11.145      13.224      15.218      16.829      17.917    
  21.104      21.710      21.710      21.104      19.916      18.200      16.072      13.728      11.427      9.3260    
  7.4899      5.9546      4.7282      3.7925      3.1114      2.6434      2.3522      2.2128      2.2127      2.3522    
  2.6434      3.1114      3.7925      4.7282      5.9546      7.4899      9.3260      11.427      13.728      16.072    
  18.200      19.916      22.624      23.066      22.624      21.353      19.406      17.010      14.438      11.946    
  9.6738      7.6955      6.0461      4.7282      3.7187      2.9771      2.4568      2.1158      1.9233      1.8611    