diamond Si                              
   5.50000000000000     
    -0.000000    0.496808    0.496808
     0.496808   -0.000000    0.496808
     0.496808    0.496808   -0.000000
   Si
     2
Direct
  0.875000  0.875000  0.875000
  0.125000  0.125000  0.125000
 
   32   32   32
 0.22800952089E+02 0.22737935324E+02 0.22500372029E+02 0.21953025501E+02 0.20890341913E+02
 0.19312105860E+02 0.17545793220E+02 0.16138546299E+02 0.15600303691E+02 0.16138467166E+02
 0.17545656921E+02 0.19311962018E+02 0.20890255149E+02 0.21953040834E+02 0.22500489932E+02
 0.22738120684E+02 0.22801159642E+02 0.22738120684E+02 0.22500489932E+02 0.21953040834E+02
 0.20890255149E+02 0.19311962018E+02 0.17545656921E+02 0.16138467166E+02 0.15600303691E+02
 0.16138546299E+02 0.17545793220E+02 0.19312105860E+02 0.20890341913E+02 0.21953025501E+02
 0.22500372029E+02 0.22737935324E+02 0.22737935324E+02 0.22998202619E+02 0.22886249483E+02
 0.22050083687E+02 0.20343688086E+02 0.18043004977E+02 0.15810729277E+02 0.14430461136E+02
 0.14430430518E+02 0.15810654433E+02 0.18042928479E+02 0.20343659312E+02 0.22050139290E+02
 0.22886396237E+02 0.22998408660E+02 0.22738141528E+02 0.22302956744E+02 0.21761303837E+02
 0.21090092260E+02 0.20225413601E+02 0.19100734877E+02 0.17794121211E+02 0.16592350194E+02
 0.15863777887E+02 0.15863828150E+02 0.16592484394E+02 0.17794296355E+02 0.19100899151E+02
 0.20225524541E+02 0.21090123517E+02 0.21761242763E+02 0.22302807477E+02 0.22500372029E+02
 0.22886249483E+02 0.22451681000E+02 0.20861237690E+02 0.18235888021E+02 0.15228966485E+02
 0.12822634874E+02 0.11901920158E+02 0.12822599554E+02 0.15228933239E+02 0.18235901515E+02
 0.20861324034E+02 0.22451841075E+02 0.22886455787E+02 0.22500567343E+02 0.21761361122E+02
 0.20889162835E+02 0.19963956744E+02 0.18988222815E+02 0.17949283860E+02 0.16878236807E+02
 0.15877341169E+02 0.15142623601E+02 0.14870462973E+02 0.15142663266E+02 0.15877419558E+02
 0.16878350102E+02 0.17949421187E+02 0.18988358325E+02 0.19964045354E+02 0.20889156298E+02
 0.21761242763E+02 0.21953025501E+02 0.22050083687E+02 0.20861237690E+02 0.18278993724E+02
 0.14802851654E+02 0.11455682559E+02 0.93973703860E+01 0.93973725963E+01 0.11455698949E+02
 0.14802901854E+02 0.18279091196E+02 0.20861382192E+02 0.22050256315E+02 0.21953183422E+02
 0.21090212033E+02 0.19964032257E+02 0.18775971235E+02 0.17608477709E+02 0.16483526276E+02
 0.15418478243E+02 0.14469390987E+02 0.13736772551E+02 0.13332121674E+02 0.13332093644E+02
 0.13736714283E+02 0.14469357354E+02 0.15418510018E+02 0.16483625068E+02 0.17608606449E+02
 0.18776069623E+02 0.19964045354E+02 0.21090123517E+02 0.20890341913E+02 0.20343688086E+02
 0.18235888021E+02 0.14802851654E+02 0.10922038811E+02 0.78436756508E+01 0.66709684565E+01
 0.78437226949E+01 0.10922134549E+02 0.14802986991E+02 0.18236039304E+02 0.20343826367E+02
 0.20890440281E+02 0.20225561860E+02 0.18988330811E+02 0.17608539601E+02 0.16250082826E+02
 0.14989316665E+02 0.13857116515E+02 0.12881435684E+02 0.12110947679E+02 0.11610364765E+02
 0.11436033534E+02 0.11610289353E+02 0.12110835993E+02 0.12881338089E+02 0.13857068732E+02
 0.14989330470E+02 0.16250143079E+02 0.17608606449E+02 0.18988358325E+02 0.20225524541E+02
 0.19312105860E+02 0.18043004977E+02 0.15228966485E+02 0.11455682559E+02 0.78436756508E+01
 0.56317514344E+01 0.56317990776E+01 0.78438046363E+01 0.11455858580E+02 0.15229149740E+02
 0.18043158814E+02 0.19312198754E+02 0.19100914376E+02 0.17949376207E+02 0.16483574198E+02
 0.14989331105E+02 0.13596643603E+02 0.12368271831E+02 0.11332512950E+02 0.10512389069E+02
 0.99377573726E+01 0.96401699743E+01 0.96401341098E+01 0.99376641653E+01 0.10512266317E+02
 0.11332382139E+02 0.12368154691E+02 0.13596572933E+02 0.14989330470E+02 0.16483625068E+02
 0.17949421187E+02 0.19100899151E+02 0.17545793220E+02 0.15810729277E+02 0.12822634874E+02
 0.93973703860E+01 0.66709684565E+01 0.56317990776E+01 0.66711097273E+01 0.93976002941E+01
 0.12822878809E+02 0.15810927014E+02 0.17545916234E+02 0.17794345038E+02 0.16878347006E+02
 0.15418494912E+02 0.13857084774E+02 0.12368224731E+02 0.11047638294E+02 0.99387649838E+01
 0.90586862525E+01 0.84176870392E+01 0.80265992885E+01 0.78949407744E+01 0.80265461554E+01
 0.84175928215E+01 0.90585658231E+01 0.99386349320E+01 0.11047523963E+02 0.12368154691E+02
 0.13857068732E+02 0.15418510018E+02 0.16878350102E+02 0.17794296355E+02 0.16138546299E+02
 0.14430461136E+02 0.11901920158E+02 0.93973725963E+01 0.78437226949E+01 0.78438046363E+01
 0.93976002941E+01 0.11902231397E+02 0.14430757253E+02 0.16138746693E+02 0.16592582558E+02
 0.15877469830E+02 0.14469406062E+02 0.12881386956E+02 0.11332420480E+02 0.99386767336E+01
 0.87603300793E+01 0.78186561688E+01 0.71158976478E+01 0.66491533833E+01 0.64161978165E+01
 0.64162014972E+01 0.66491451006E+01 0.71158508094E+01 0.78185817801E+01 0.87602650790E+01
 0.99386349320E+01 0.11332382139E+02 0.12881338089E+02 0.14469357354E+02 0.15877419558E+02
 0.16592484394E+02 0.15600303691E+02 0.14430430518E+02 0.12822599554E+02 0.11455698949E+02
 0.10922134549E+02 0.11455858580E+02 0.12822878809E+02 0.14430757253E+02 0.15600598472E+02
 0.15864040409E+02 0.15142791265E+02 0.13736789172E+02 0.12110886791E+02 0.10512301419E+02
 0.90585812854E+01 0.78185738809E+01 0.68190229197E+01 0.60599444859E+01 0.55301531145E+01
 0.52176674439E+01 0.51144424438E+01 0.52177192010E+01 0.55302257514E+01 0.60600048093E+01
 0.68190568551E+01 0.78185817801E+01 0.90585658231E+01 0.10512266317E+02 0.12110835993E+02
 0.13736714283E+02 0.15142663266E+02 0.15863828150E+02 0.16138467166E+02 0.15810654433E+02
 0.15228933239E+02 0.14802901854E+02 0.14802986991E+02 0.15229149740E+02 0.15810927014E+02
 0.16138746693E+02 0.15864040409E+02 0.14870672222E+02 0.13332210773E+02 0.11610322515E+02
 0.99376684151E+01 0.84176015309E+01 0.71158331299E+01 0.60599144368E+01 0.52483653888E+01
 0.46644411475E+01 0.42882753102E+01 0.41042949323E+01 0.41043226650E+01 0.42883659993E+01
 0.46645887199E+01 0.52485171697E+01 0.60600048093E+01 0.71158508094E+01 0.84175928215E+01
 0.99376641653E+01 0.11610289353E+02 0.13332093644E+02 0.14870462973E+02 0.15863777887E+02
 0.17545656921E+02 0.18042928479E+02 0.18235901515E+02 0.18279091196E+02 0.18236039304E+02
 0.18043158814E+02 0.17545916234E+02 0.16592582558E+02 0.15142791265E+02 0.13332210773E+02
 0.11436058722E+02 0.96401276865E+01 0.80265304638E+01 0.66491147901E+01 0.55301604611E+01
 0.46644812727E+01 0.40301051120E+01 0.36002286178E+01 0.33520104557E+01 0.32709279300E+01
 0.33520782993E+01 0.36003447549E+01 0.40302351153E+01 0.46645887199E+01 0.55302257514E+01
 0.66491451006E+01 0.80265461554E+01 0.96401341098E+01 0.11436033534E+02 0.13332121674E+02
 0.15142623601E+02 0.16592350194E+02 0.19311962018E+02 0.20343659312E+02 0.20861324034E+02
 0.20861382192E+02 0.20343826367E+02 0.19312198754E+02 0.17794345038E+02 0.15877469830E+02
 0.13736789172E+02 0.11610322515E+02 0.96401276865E+01 0.78949126342E+01 0.64161757085E+01
 0.52176965896E+01 0.42883521741E+01 0.36003207477E+01 0.31200050975E+01 0.28174070874E+01
 0.26714202867E+01 0.26714581953E+01 0.28174862115E+01 0.31200653690E+01 0.36003447549E+01
 0.42883659993E+01 0.52177192010E+01 0.64162014972E+01 0.78949407744E+01 0.96401699743E+01
 0.11610364765E+02 0.13736772551E+02 0.15877341169E+02 0.17794121211E+02 0.20890255149E+02
 0.22050139290E+02 0.22451841075E+02 0.22050256315E+02 0.20890440281E+02 0.19100914376E+02
 0.16878347006E+02 0.14469406062E+02 0.12110886791E+02 0.99376684151E+01 0.80265304638E+01
 0.64161757085E+01 0.51144669543E+01 0.41043740613E+01 0.33521283623E+01 0.28175123458E+01
 0.24634253724E+01 0.22619825555E+01 0.21966383351E+01 0.22619927129E+01 0.24634261711E+01
 0.28174862115E+01 0.33520782993E+01 0.41043226650E+01 0.51144424438E+01 0.64161978165E+01
 0.80265992885E+01 0.99377573726E+01 0.12110947679E+02 0.14469390987E+02 0.16878236807E+02
 0.19100734877E+02 0.21953040834E+02 0.22886396237E+02 0.22886455787E+02 0.21953183422E+02
 0.20225561860E+02 0.17949376207E+02 0.15418494912E+02 0.12881386956E+02 0.10512301419E+02
 0.84176015309E+01 0.66491147901E+01 0.52176965896E+01 0.41043740613E+01 0.32710213407E+01
 0.26715437754E+01 0.22620662776E+01 0.20078717503E+01 0.18862192306E+01 0.18861976112E+01
 0.20078162553E+01 0.22619927129E+01 0.26714581953E+01 0.32709279300E+01 0.41042949323E+01
 0.52176674439E+01 0.66491533833E+01 0.84176870392E+01 0.10512389069E+02 0.12881435684E+02
 0.15418478243E+02 0.17949283860E+02 0.20225413601E+02 0.22500489932E+02 0.22998408660E+02
 0.22500567343E+02 0.21090212033E+02 0.18988330811E+02 0.16483574198E+02 0.13857084774E+02
 0.11332420480E+02 0.90585812854E+01 0.71158331299E+01 0.55301604611E+01 0.42883521741E+01
 0.33521283623E+01 0.26715437754E+01 0.21967411368E+01 0.18862675266E+01 0.17109776061E+01
 0.16542978974E+01 0.17109430242E+01 0.18861976112E+01 0.21966383351E+01 0.26714202867E+01
 0.33520104557E+01 0.42882753102E+01 0.55301531145E+01 0.71158976478E+01 0.90586862525E+01
 0.11332512950E+02 0.13857116515E+02 0.16483526276E+02 0.18988222815E+02 0.21090092260E+02
 0.22738120684E+02 0.22738141528E+02 0.21761361122E+02 0.19964032257E+02 0.17608539601E+02
 0.14989331105E+02 0.12368224731E+02 0.99386767336E+01 0.78185738809E+01 0.60599144368E+01
 0.46644812727E+01 0.36003207477E+01 0.28175123458E+01 0.22620662776E+01 0.18862675266E+01
 0.16543172580E+01 0.15436338658E+01 0.15436296230E+01 0.16542978974E+01 0.18862192306E+01
 0.22619825555E+01 0.28174070874E+01 0.36002286178E+01 0.46644411475E+01 0.60599444859E+01
 0.78186561688E+01 0.99387649838E+01 0.12368271831E+02 0.14989316665E+02 0.17608477709E+02
 0.19963956744E+02 0.21761303837E+02 0.22801159642E+02 0.22302956744E+02 0.20889162835E+02
 0.18775971235E+02 0.16250082826E+02 0.13596643603E+02 0.11047638294E+02 0.87603300793E+01
 0.68190229197E+01 0.52483653888E+01 0.40301051120E+01 0.31200050975E+01 0.24634253724E+01
 0.20078717503E+01 0.17109776061E+01 0.15436338658E+01 0.14895659567E+01 0.15436338658E+01
 0.17109776061E+01 0.20078717503E+01 0.24634253724E+01 0.31200050975E+01 0.40301051120E+01
 0.52483653888E+01 0.68190229197E+01 0.87603300793E+01 0.11047638294E+02 0.13596643603E+02
 0.16250082826E+02 0.18775971235E+02 0.20889162835E+02 0.22302956744E+02 0.22738120684E+02
 0.21761303837E+02 0.19963956744E+02 0.17608477709E+02 0.14989316665E+02 0.12368271831E+02
 0.99387649838E+01 0.78186561688E+01 0.60599444859E+01 0.46644411475E+01 0.36002286178E+01
 0.28174070874E+01 0.22619825555E+01 0.18862192306E+01 0.16542978974E+01 0.15436296230E+01
 0.15436338658E+01 0.16543172580E+01 0.18862675266E+01 0.22620662776E+01 0.28175123458E+01
 0.36003207477E+01 0.46644812727E+01 0.60599144368E+01 0.78185738809E+01 0.99386767336E+01
 0.12368224731E+02 0.14989331105E+02 0.17608539601E+02 0.19964032257E+02 0.21761361122E+02
 0.22738141528E+02 0.22500489932E+02 0.21090092260E+02 0.18988222815E+02 0.16483526276E+02
 0.13857116515E+02 0.11332512950E+02 0.90586862525E+01 0.71158976478E+01 0.55301531145E+01
 0.42882753102E+01 0.33520104557E+01 0.26714202867E+01 0.21966383351E+01 0.18861976112E+01
 0.17109430242E+01 0.16542978974E+01 0.17109776061E+01 0.18862675266E+01 0.21967411368E+01
 0.26715437754E+01 0.33521283623E+01 0.42883521741E+01 0.55301604611E+01 0.71158331299E+01
 0.90585812854E+01 0.11332420480E+02 0.13857084774E+02 0.16483574198E+02 0.18988330811E+02
 0.21090212033E+02 0.22500567343E+02 0.22998408660E+02 0.21953040834E+02 0.20225413601E+02
 0.17949283860E+02 0.15418478243E+02 0.12881435684E+02 0.10512389069E+02 0.84176870392E+01
 0.66491533833E+01 0.52176674439E+01 0.41042949323E+01 0.32709279300E+01 0.26714581953E+01
 0.22619927129E+01 0.20078162553E+01 0.18861976112E+01 0.18862192306E+01 0.20078717503E+01
 0.22620662776E+01 0.26715437754E+01 0.32710213407E+01 0.41043740613E+01 0.52176965896E+01
 0.66491147901E+01 0.84176015309E+01 0.10512301419E+02 0.12881386956E+02 0.15418494912E+02
 0.17949376207E+02 0.20225561860E+02 0.21953183422E+02 0.22886455787E+02 0.22886396237E+02
 0.20890255149E+02 0.19100734877E+02 0.16878236807E+02 0.14469390987E+02 0.12110947679E+02
 0.99377573726E+01 0.80265992885E+01 0.64161978165E+01 0.51144424438E+01 0.41043226650E+01
 0.33520782993E+01 0.28174862115E+01 0.24634261711E+01 0.22619927129E+01 0.21966383351E+01
 0.22619825555E+01 0.24634253724E+01 0.28175123458E+01 0.33521283623E+01 0.41043740613E+01
 0.51144669543E+01 0.64161757085E+01 0.80265304638E+01 0.99376684151E+01 0.12110886791E+02
 0.14469406062E+02 0.16878347006E+02 0.19100914376E+02 0.20890440281E+02 0.22050256315E+02
 0.22451841075E+02 0.22050139290E+02 0.19311962018E+02 0.17794121211E+02 0.15877341169E+02
 0.13736772551E+02 0.11610364765E+02 0.96401699743E+01 0.78949407744E+01 0.64162014972E+01
 0.52177192010E+01 0.42883659993E+01 0.36003447549E+01 0.31200653690E+01 0.28174862115E+01
 0.26714581953E+01 0.26714202867E+01 0.28174070874E+01 0.31200050975E+01 0.36003207477E+01
 0.42883521741E+01 0.52176965896E+01 0.64161757085E+01 0.78949126342E+01 0.96401276865E+01
 0.11610322515E+02 0.13736789172E+02 0.15877469830E+02 0.17794345038E+02 0.19312198754E+02
 0.20343826367E+02 0.20861382192E+02 0.20861324034E+02 0.20343659312E+02 0.17545656921E+02
 0.16592350194E+02 0.15142623601E+02 0.13332121674E+02 0.11436033534E+02 0.96401341098E+01
 0.80265461554E+01 0.66491451006E+01 0.55302257514E+01 0.46645887199E+01 0.40302351153E+01
 0.36003447549E+01 0.33520782993E+01 0.32709279300E+01 0.33520104557E+01 0.36002286178E+01
 0.40301051120E+01 0.46644812727E+01 0.55301604611E+01 0.66491147901E+01 0.80265304638E+01
 0.96401276865E+01 0.11436058722E+02 0.13332210773E+02 0.15142791265E+02 0.16592582558E+02
 0.17545916234E+02 0.18043158814E+02 0.18236039304E+02 0.18279091196E+02 0.18235901515E+02
 0.18042928479E+02 0.16138467166E+02 0.15863777887E+02 0.14870462973E+02 0.13332093644E+02
 0.11610289353E+02 0.99376641653E+01 0.84175928215E+01 0.71158508094E+01 0.60600048093E+01
 0.52485171697E+01 0.46645887199E+01 0.42883659993E+01 0.41043226650E+01 0.41042949323E+01
 0.42882753102E+01 0.46644411475E+01 0.52483653888E+01 0.60599144368E+01 0.71158331299E+01
 0.84176015309E+01 0.99376684151E+01 0.11610322515E+02 0.13332210773E+02 0.14870672222E+02
 0.15864040409E+02 0.16138746693E+02 0.15810927014E+02 0.15229149740E+02 0.14802986991E+02
 0.14802901854E+02 0.15228933239E+02 0.15810654433E+02 0.15600303691E+02 0.15863828150E+02
 0.15142663266E+02 0.13736714283E+02 0.12110835993E+02 0.10512266317E+02 0.90585658231E+01
 0.78185817801E+01 0.68190568551E+01 0.60600048093E+01 0.55302257514E+01 0.52177192010E+01
 0.51144424438E+01 0.52176674439E+01 0.55301531145E+01 0.60599444859E+01 0.68190229197E+01
 0.78185738809E+01 0.90585812854E+01 0.10512301419E+02 0.12110886791E+02 0.13736789172E+02
 0.15142791265E+02 0.15864040409E+02 0.15600598472E+02 0.14430757253E+02 0.12822878809E+02
 0.11455858580E+02 0.10922134549E+02 0.11455698949E+02 0.12822599554E+02 0.14430430518E+02
 0.16138546299E+02 0.16592484394E+02 0.15877419558E+02 0.14469357354E+02 0.12881338089E+02
 0.11332382139E+02 0.99386349320E+01 0.87602650790E+01 0.78185817801E+01 0.71158508094E+01
 0.66491451006E+01 0.64162014972E+01 0.64161978165E+01 0.66491533833E+01 0.71158976478E+01
 0.78186561688E+01 0.87603300793E+01 0.99386767336E+01 0.11332420480E+02 0.12881386956E+02
 0.14469406062E+02 0.15877469830E+02 0.16592582558E+02 0.16138746693E+02 0.14430757253E+02
 0.11902231397E+02 0.93976002941E+01 0.78438046363E+01 0.78437226949E+01 0.93973725963E+01
 0.11901920158E+02 0.14430461136E+02 0.17545793220E+02 0.17794296355E+02 0.16878350102E+02
 0.15418510018E+02 0.13857068732E+02 0.12368154691E+02 0.11047523963E+02 0.99386349320E+01
 0.90585658231E+01 0.84175928215E+01 0.80265461554E+01 0.78949407744E+01 0.80265992885E+01
 0.84176870392E+01 0.90586862525E+01 0.99387649838E+01 0.11047638294E+02 0.12368224731E+02
 0.13857084774E+02 0.15418494912E+02 0.16878347006E+02 0.17794345038E+02 0.17545916234E+02
 0.15810927014E+02 0.12822878809E+02 0.93976002941E+01 0.66711097273E+01 0.56317990776E+01
 0.66709684565E+01 0.93973703860E+01 0.12822634874E+02 0.15810729277E+02 0.19312105860E+02
 0.19100899151E+02 0.17949421187E+02 0.16483625068E+02 0.14989330470E+02 0.13596572933E+02
 0.12368154691E+02 0.11332382139E+02 0.10512266317E+02 0.99376641653E+01 0.96401341098E+01
 0.96401699743E+01 0.99377573726E+01 0.10512389069E+02 0.11332512950E+02 0.12368271831E+02
 0.13596643603E+02 0.14989331105E+02 0.16483574198E+02 0.17949376207E+02 0.19100914376E+02
 0.19312198754E+02 0.18043158814E+02 0.15229149740E+02 0.11455858580E+02 0.78438046363E+01
 0.56317990776E+01 0.56317514344E+01 0.78436756508E+01 0.11455682559E+02 0.15228966485E+02
 0.18043004977E+02 0.20890341913E+02 0.20225524541E+02 0.18988358325E+02 0.17608606449E+02
 0.16250143079E+02 0.14989330470E+02 0.13857068732E+02 0.12881338089E+02 0.12110835993E+02
 0.11610289353E+02 0.11436033534E+02 0.11610364765E+02 0.12110947679E+02 0.12881435684E+02
 0.13857116515E+02 0.14989316665E+02 0.16250082826E+02 0.17608539601E+02 0.18988330811E+02
 0.20225561860E+02 0.20890440281E+02 0.20343826367E+02 0.18236039304E+02 0.14802986991E+02
 0.10922134549E+02 0.78437226949E+01 0.66709684565E+01 0.78436756508E+01 0.10922038811E+02
 0.14802851654E+02 0.18235888021E+02 0.20343688086E+02 0.21953025501E+02 0.21090123517E+02
 0.19964045354E+02 0.18776069623E+02 0.17608606449E+02 0.16483625068E+02 0.15418510018E+02
 0.14469357354E+02 0.13736714283E+02 0.13332093644E+02 0.13332121674E+02 0.13736772551E+02
 0.14469390987E+02 0.15418478243E+02 0.16483526276E+02 0.17608477709E+02 0.18775971235E+02
 0.19964032257E+02 0.21090212033E+02 0.21953183422E+02 0.22050256315E+02 0.20861382192E+02
 0.18279091196E+02 0.14802901854E+02 0.11455698949E+02 0.93973725963E+01 0.93973703860E+01
 0.11455682559E+02 0.14802851654E+02 0.18278993724E+02 0.20861237690E+02 0.22050083687E+02
 0.22500372029E+02 0.21761242763E+02 0.20889156298E+02 0.19964045354E+02 0.18988358325E+02
 0.17949421187E+02 0.16878350102E+02 0.15877419558E+02 0.15142663266E+02 0.14870462973E+02
 0.15142623601E+02 0.15877341169E+02 0.16878236807E+02 0.17949283860E+02 0.18988222815E+02
 0.19963956744E+02 0.20889162835E+02 0.21761361122E+02 0.22500567343E+02 0.22886455787E+02
 0.22451841075E+02 0.20861324034E+02 0.18235901515E+02 0.15228933239E+02 0.12822599554E+02
 0.11901920158E+02 0.12822634874E+02 0.15228966485E+02 0.18235888021E+02 0.20861237690E+02
 0.22451681000E+02 0.22886249483E+02 0.22737935324E+02 0.22302807477E+02 0.21761242763E+02
 0.21090123517E+02 0.20225524541E+02 0.19100899151E+02 0.17794296355E+02 0.16592484394E+02
 0.15863828150E+02 0.15863777887E+02 0.16592350194E+02 0.17794121211E+02 0.19100734877E+02
 0.20225413601E+02 0.21090092260E+02 0.21761303837E+02 0.22302956744E+02 0.22738141528E+02
 0.22998408660E+02 0.22886396237E+02 0.22050139290E+02 0.20343659312E+02 0.18042928479E+02
 0.15810654433E+02 0.14430430518E+02 0.14430461136E+02 0.15810729277E+02 0.18043004977E+02
 0.20343688086E+02 0.22050083687E+02 0.22886249483E+02 0.22998202619E+02 0.22737933839E+02
 0.22998200371E+02 0.22886247737E+02 0.22050082502E+02 0.20343686685E+02 0.18043003668E+02
 0.15810729040E+02 0.14430461694E+02 0.14430430795E+02 0.15810654525E+02 0.18042929239E+02
 0.20343660409E+02 0.22050139664E+02 0.22886396064E+02 0.22998408920E+02 0.22738142035E+02
 0.22302956553E+02 0.21761303192E+02 0.21090092176E+02 0.20225413922E+02 0.19100734708E+02
 0.17794120854E+02 0.16592350698E+02 0.15863779069E+02 0.15863829014E+02 0.16592485091E+02
 0.17794297750E+02 0.19100900872E+02 0.20225525413E+02 0.21090123549E+02 0.21761242770E+02
 0.22302807185E+02 0.22998200371E+02 0.23378780613E+02 0.22884471560E+02 0.21171787314E+02
 0.18375848455E+02 0.15188076520E+02 0.12642476708E+02 0.11669359889E+02 0.12642513245E+02
 0.15188152806E+02 0.18375963819E+02 0.21171940784E+02 0.22884667884E+02 0.23379013863E+02
 0.22998429242E+02 0.22240902540E+02 0.21347410923E+02 0.20400172921E+02 0.19400011827E+02
 0.18331802926E+02 0.17222672655E+02 0.16179140346E+02 0.15410459877E+02 0.15125321534E+02
 0.15410519967E+02 0.16179247735E+02 0.17222807597E+02 0.18331944202E+02 0.19400132435E+02
 0.20400231934E+02 0.21347365620E+02 0.22240743846E+02 0.22886247737E+02 0.22884471560E+02
 0.21449497970E+02 0.18484401493E+02 0.14555507185E+02 0.10798752801E+02 0.84959125907E+01
 0.84959597103E+01 0.10798887733E+02 0.14555708315E+02 0.18484636901E+02 0.21449742612E+02
 0.22884710962E+02 0.22886456671E+02 0.22008655811E+02 0.20830572112E+02 0.19587140029E+02
 0.18364814462E+02 0.17183967717E+02 0.16060512571E+02 0.15053755047E+02 0.14271633169E+02
 0.13836816242E+02 0.13836817187E+02 0.14271643374E+02 0.15053791555E+02 0.16060590799E+02
 0.17184087502E+02 0.18364945806E+02 0.19587224170E+02 0.20830553593E+02 0.22008523605E+02
 0.22050082502E+02 0.21171787314E+02 0.18484401493E+02 0.14294688622E+02 0.96394909164E+01
 0.59760813015E+01 0.45850526560E+01 0.59762406940E+01 0.96397460826E+01 0.14294962697E+02
 0.18484651130E+02 0.21171999918E+02 0.22050241365E+02 0.21484107447E+02 0.20191878317E+02
 0.18724481775E+02 0.17276511274E+02 0.15930004393E+02 0.14715962112E+02 0.13663496004E+02
 0.12827068976E+02 0.12280883582E+02 0.12090154408E+02 0.12280826754E+02 0.12827002685E+02
 0.13663469859E+02 0.14715995087E+02 0.15930089196E+02 0.17276623671E+02 0.18724577261E+02
 0.20191903190E+02 0.21484033336E+02 0.20343686685E+02 0.18375848455E+02 0.14555507185E+02
 0.96394909164E+01 0.50176059294E+01 0.22102493988E+01 0.22103678977E+01 0.50178998685E+01
 0.96398291435E+01 0.14555787243E+02 0.18376035168E+02 0.20343777238E+02 0.20478691387E+02
 0.19379209881E+02 0.17818715142E+02 0.16209639689E+02 0.14702977922E+02 0.13368925252E+02
 0.12238283821E+02 0.11337426318E+02 0.10702440273E+02 0.10372205115E+02 0.10372169985E+02
 0.10702359925E+02 0.11337345389E+02 0.12238223195E+02 0.13368888883E+02 0.14702983418E+02
 0.16209706844E+02 0.17818823450E+02 0.19379296068E+02 0.20478698360E+02 0.18043003668E+02
 0.15188076520E+02 0.10798752801E+02 0.59760813015E+01 0.22102493988E+01 0.78602682005E+00
 0.22104744070E+01 0.59764356340E+01 0.10799101969E+02 0.15188315583E+02 0.18043092247E+02
 0.18987344552E+02 0.18348147968E+02 0.16863263126E+02 0.15187989505E+02 0.13569859835E+02
 0.12124430134E+02 0.10903952132E+02 0.99297225331E+01 0.92160181882E+01 0.87784768410E+01
 0.86307965170E+01 0.87784619589E+01 0.92159753139E+01 0.99296392755E+01 0.10903837746E+02
 0.12124324880E+02 0.13569816029E+02 0.15188034064E+02 0.16863373715E+02 0.18348261688E+02
 0.18987386592E+02 0.15810729040E+02 0.12642476708E+02 0.84959125907E+01 0.45850526560E+01
 0.22103678977E+01 0.22104744070E+01 0.45853376798E+01 0.84962775032E+01 0.12642790541E+02
 0.15810896498E+02 0.17317197005E+02 0.17164639381E+02 0.15894936362E+02 0.14230602416E+02
 0.12560052940E+02 0.11034596515E+02 0.97332350222E+01 0.86862830592E+01 0.79004467239E+01
 0.73759812634E+01 0.71133473396E+01 0.71133654698E+01 0.73760020307E+01 0.79004129975E+01
 0.86861854265E+01 0.97331187314E+01 0.11034509271E+02 0.12560012336E+02 0.14230610101E+02
 0.15894987198E+02 0.17164696116E+02 0.17317178949E+02 0.14430461694E+02 0.11669359889E+02
 0.84959597103E+01 0.59762406940E+01 0.50178998685E+01 0.59764356340E+01 0.84962775032E+01
 0.11669694150E+02 0.14430723235E+02 0.15985711319E+02 0.16080919126E+02 0.15009138589E+02
 0.13387092354E+02 0.11698878523E+02 0.10123437705E+02 0.87586384456E+01 0.76475101906E+01
 0.67977870961E+01 0.62016318772E+01 0.58487049507E+01 0.57318861254E+01 0.58487371376E+01
 0.62016642562E+01 0.67977879598E+01 0.76474731850E+01 0.87585780836E+01 0.10123373325E+02
 0.11698826468E+02 0.13387059867E+02 0.15009110893E+02 0.16080853914E+02 0.15985558388E+02
 0.14430430795E+02 0.12642513245E+02 0.10798887733E+02 0.96397460826E+01 0.96398291435E+01
 0.10799101969E+02 0.12642790541E+02 0.14430723235E+02 0.15476305167E+02 0.15424936474E+02
 0.14366421353E+02 0.12742289052E+02 0.11026069741E+02 0.94089615443E+01 0.79917365626E+01
 0.68249443819E+01 0.59194405770E+01 0.52636982116E+01 0.48394655448E+01 0.46314555771E+01
 0.46314720333E+01 0.48395225589E+01 0.52637918026E+01 0.59195243023E+01 0.68249625384E+01
 0.79916894271E+01 0.94089062767E+01 0.11026042907E+02 0.12742252632E+02 0.14366306451E+02
 0.15424722293E+02 0.15476029314E+02 0.15810654525E+02 0.15188152806E+02 0.14555708315E+02
 0.14294962697E+02 0.14555787243E+02 0.15188315583E+02 0.15810896498E+02 0.15985711319E+02
 0.15424936474E+02 0.14129501988E+02 0.12389422153E+02 0.10592674593E+02 0.89128492668E+01
 0.74377581972E+01 0.62158777972E+01 0.52582053679E+01 0.45504961768E+01 0.40683988808E+01
 0.37891674967E+01 0.36978176435E+01 0.37892274417E+01 0.40685054042E+01 0.45506159162E+01
 0.52582945511E+01 0.62159136173E+01 0.74377584773E+01 0.89128466314E+01 0.10592666507E+02
 0.12389359228E+02 0.14129336895E+02 0.15424678973E+02 0.15985426474E+02 0.18042929239E+02
 0.18375963819E+02 0.18484636901E+02 0.18484651130E+02 0.18376035168E+02 0.18043092247E+02
 0.17317197005E+02 0.16080919126E+02 0.14366421353E+02 0.12389422153E+02 0.10442492778E+02
 0.86576098674E+01 0.71020372564E+01 0.58139264146E+01 0.47996949906E+01 0.40411350477E+01
 0.35082106460E+01 0.31712303542E+01 0.30083475033E+01 0.30083830219E+01 0.31713078821E+01
 0.35082835738E+01 0.40411967098E+01 0.47997663435E+01 0.58140036721E+01 0.71020899233E+01
 0.86576270491E+01 0.10442491033E+02 0.12389396666E+02 0.14366328180E+02 0.16080735839E+02
 0.17316978422E+02 0.20343660409E+02 0.21171940784E+02 0.21449742612E+02 0.21171999918E+02
 0.20343777238E+02 0.18987344552E+02 0.17164639381E+02 0.15009138589E+02 0.12742289052E+02
 0.10592674593E+02 0.86576098674E+01 0.69894896409E+01 0.56142043787E+01 0.45304704225E+01
 0.37145787216E+01 0.31306996995E+01 0.27424303142E+01 0.25210807291E+01 0.24492188424E+01
 0.25210980031E+01 0.27424484757E+01 0.31307123743E+01 0.37145991539E+01 0.45305104493E+01
 0.56142598433E+01 0.69895547302E+01 0.86576888728E+01 0.10592761679E+02 0.12742345995E+02
 0.15009117149E+02 0.17164532432E+02 0.18987201169E+02 0.22050139664E+02 0.22884667884E+02
 0.22884710962E+02 0.22050241365E+02 0.20478691387E+02 0.18348147968E+02 0.15894936362E+02
 0.13387092354E+02 0.11026069741E+02 0.89128492668E+01 0.71020372564E+01 0.56142043787E+01
 0.44417544160E+01 0.35553251664E+01 0.29133943457E+01 0.24732139586E+01 0.21994246911E+01
 0.20682865876E+01 0.20682714276E+01 0.21993912420E+01 0.24731800053E+01 0.29133600083E+01
 0.35552863955E+01 0.44417336481E+01 0.56142437861E+01 0.71021523767E+01 0.89130027320E+01
 0.11026200516E+02 0.13387161480E+02 0.15894936855E+02 0.18348087130E+02 0.20478588206E+02
 0.22886396064E+02 0.23379013863E+02 0.22886456671E+02 0.21484107447E+02 0.19379209881E+02
 0.16863263126E+02 0.14230602416E+02 0.11698878523E+02 0.94089615443E+01 0.74377581972E+01
 0.58139264146E+01 0.45304704225E+01 0.35553251664E+01 0.28425055155E+01 0.23435472254E+01
 0.20167342745E+01 0.18320980511E+01 0.17723860695E+01 0.18320662870E+01 0.20166718763E+01
 0.23434596018E+01 0.28424082385E+01 0.35552466287E+01 0.45304432931E+01 0.58139697503E+01
 0.74378637797E+01 0.94090957211E+01 0.11698997065E+02 0.14230667889E+02 0.16863258269E+02
 0.19379145398E+02 0.21484020622E+02 0.22998408920E+02 0.22998429242E+02 0.22008655811E+02
 0.20191878317E+02 0.17818715142E+02 0.15187989505E+02 0.12560052940E+02 0.10123437705E+02
 0.79917365626E+01 0.62158777972E+01 0.47996949906E+01 0.37145787216E+01 0.29133943457E+01
 0.23435472254E+01 0.19575170808E+01 0.17191232888E+01 0.16053443168E+01 0.16053367605E+01
 0.17190903074E+01 0.19574433923E+01 0.23434378420E+01 0.29132764768E+01 0.37144827854E+01
 0.47996428687E+01 0.62158850795E+01 0.79918075748E+01 0.10123548056E+02 0.12560148639E+02
 0.15188021335E+02 0.17818677736E+02 0.20191809497E+02 0.22008599761E+02 0.22738142035E+02
 0.22240902540E+02 0.20830572112E+02 0.18724481775E+02 0.16209639689E+02 0.13569859835E+02
 0.11034596515E+02 0.87586384456E+01 0.68249443819E+01 0.52582053679E+01 0.40411350477E+01
 0.31306996995E+01 0.24732139586E+01 0.20167342745E+01 0.17191232888E+01 0.15513382036E+01
 0.14971212120E+01 0.15513362312E+01 0.17191128570E+01 0.20166991640E+01 0.24731380302E+01
 0.31305890532E+01 0.40410259525E+01 0.52581411932E+01 0.68249421152E+01 0.87586789780E+01
 0.11034644578E+02 0.13569888818E+02 0.16209640549E+02 0.18724459293E+02 0.20830540219E+02
 0.22240879670E+02 0.22302956553E+02 0.21347410923E+02 0.19587140029E+02 0.17276511274E+02
 0.14702977922E+02 0.12124430134E+02 0.97332350222E+01 0.76475101906E+01 0.59194405770E+01
 0.45504961768E+01 0.35082106460E+01 0.27424303142E+01 0.21994246911E+01 0.18320980511E+01
 0.16053443168E+01 0.14971212120E+01 0.14971281291E+01 0.16053661789E+01 0.18321307444E+01
 0.21994510018E+01 0.27424300913E+01 0.35081786342E+01 0.45504432561E+01 0.59193791076E+01
 0.76474475189E+01 0.97331826212E+01 0.12124406953E+02 0.14702994285E+02 0.17276553439E+02
 0.19587180261E+02 0.21347432684E+02 0.22302962207E+02 0.21761303192E+02 0.20400172921E+02
 0.18364814462E+02 0.15930004393E+02 0.13368925252E+02 0.10903952132E+02 0.86862830592E+01
 0.67977870961E+01 0.52636982116E+01 0.40683988808E+01 0.31712303542E+01 0.25210807291E+01
 0.20682865876E+01 0.17723860695E+01 0.16053367605E+01 0.15513362312E+01 0.16053661789E+01
 0.17724432365E+01 0.20683709824E+01 0.25211867424E+01 0.31713332873E+01 0.40684549007E+01
 0.52636716257E+01 0.67976841887E+01 0.86861563497E+01 0.10903866813E+02 0.13368918245E+02
 0.15930069595E+02 0.18364916814E+02 0.20400270401E+02 0.21761361485E+02 0.22240878518E+02
 0.21090092176E+02 0.19400011827E+02 0.17183967717E+02 0.14715962112E+02 0.12238283821E+02
 0.99297225331E+01 0.79004467239E+01 0.62016318772E+01 0.48394655448E+01 0.37891674967E+01
 0.30083475033E+01 0.24492188424E+01 0.20682714276E+01 0.18320662870E+01 0.17190903074E+01
 0.17191128570E+01 0.18321307444E+01 0.20683709824E+01 0.24493450966E+01 0.30084841913E+01
 0.37892832731E+01 0.48395222609E+01 0.62016098129E+01 0.79003649923E+01 0.99296328371E+01
 0.12238241439E+02 0.14715997639E+02 0.17184075595E+02 0.19400154164E+02 0.21090212687E+02