   2   2   0   0
  0.2079688E+02  0.3889087E-09  0.3889087E-09  0.3889087E-09  0.5000000E-15
  1.000000000000000E-004
  CAR 
 diamond Si                              
     16.29380639     -7.26281436  301      5.96291178      1.00000000
     -7.263  0.0000E+00  0.0000E+00
     -7.184  0.0000E+00  0.0000E+00
     -7.106  0.0000E+00  0.0000E+00
     -7.027  0.0000E+00  0.0000E+00
     -6.949  0.0000E+00  0.0000E+00
     -6.870  0.0000E+00  0.0000E+00
     -6.792  0.0000E+00  0.0000E+00
     -6.713  0.1093E-15  0.8580E-17
     -6.635  0.2471E-12  0.1941E-13
     -6.556  0.1674E-09  0.1316E-10
     -6.478  0.3436E-07  0.2712E-08
     -6.399  0.2194E-05  0.1750E-06
     -6.321  0.4692E-04  0.3859E-05
     -6.242  0.4187E-03  0.3674E-04
     -6.164  0.2160E-02  0.2064E-03
     -6.085  0.6160E-02  0.6901E-03
     -6.006  0.8283E-02  0.1340E-02
     -5.928  0.8975E-02  0.2045E-02
     -5.849  0.1453E-01  0.3186E-02
     -5.771  0.1941E-01  0.4710E-02
     -5.692  0.1378E-01  0.5793E-02
     -5.614  0.1023E-01  0.6596E-02
     -5.535  0.2031E-01  0.8191E-02
     -5.457  0.2766E-01  0.1036E-01
     -5.378  0.2302E-01  0.1217E-01
     -5.300  0.2300E-01  0.1398E-01
     -5.221  0.2304E-01  0.1579E-01
     -5.143  0.1607E-01  0.1705E-01
     -5.064  0.1865E-01  0.1851E-01
     -4.986  0.3797E-01  0.2149E-01
     -4.907  0.4158E-01  0.2476E-01
     -4.829  0.2803E-01  0.2696E-01
     -4.750  0.3060E-01  0.2936E-01
     -4.672  0.3170E-01  0.3185E-01
     -4.593  0.2162E-01  0.3355E-01
     -4.515  0.2103E-01  0.3520E-01
     -4.436  0.4036E-01  0.3837E-01
     -4.357  0.5534E-01  0.4271E-01
     -4.279  0.5385E-01  0.4694E-01
     -4.200  0.4467E-01  0.5045E-01
     -4.122  0.3797E-01  0.5343E-01
     -4.043  0.3422E-01  0.5612E-01
     -3.965  0.3233E-01  0.5866E-01
     -3.886  0.4085E-01  0.6187E-01
     -3.808  0.7701E-01  0.6791E-01
     -3.729  0.9143E-01  0.7509E-01
     -3.651  0.5690E-01  0.7956E-01
     -3.572  0.4447E-01  0.8305E-01
     -3.494  0.5237E-01  0.8716E-01
     -3.415  0.3290E-01  0.8975E-01
     -3.337  0.3033E-01  0.9213E-01
     -3.258  0.5604E-01  0.9653E-01
     -3.180  0.7492E-01  0.1024E+00
     -3.101  0.5605E-01  0.1068E+00
     -3.023  0.2710E-01  0.1089E+00
     -2.944  0.2515E-01  0.1109E+00
     -2.866  0.2727E-01  0.1131E+00
     -2.787  0.3092E-01  0.1155E+00
     -2.709  0.5357E-01  0.1197E+00
     -2.630  0.4913E-01  0.1235E+00
     -2.551  0.2651E-01  0.1256E+00
     -2.473  0.1597E-01  0.1269E+00
     -2.394  0.1127E-01  0.1278E+00
     -2.316  0.1575E-01  0.1290E+00
     -2.237  0.2037E-01  0.1306E+00
     -2.159  0.2058E-01  0.1322E+00
     -2.080  0.1504E-01  0.1334E+00
     -2.002  0.9767E-02  0.1342E+00
     -1.923  0.7591E-02  0.1348E+00
     -1.845  0.1172E-01  0.1357E+00
     -1.766  0.1191E-01  0.1366E+00
     -1.688  0.7516E-02  0.1372E+00
     -1.609  0.1198E-01  0.1382E+00
     -1.531  0.1745E-01  0.1395E+00
     -1.452  0.3328E-01  0.1421E+00
     -1.374  0.5828E-01  0.1467E+00
     -1.295  0.5456E-01  0.1510E+00
     -1.217  0.3593E-01  0.1538E+00
     -1.138  0.4874E-01  0.1576E+00
     -1.060  0.8840E-01  0.1646E+00
     -0.981  0.9884E-01  0.1723E+00
     -0.903  0.7954E-01  0.1786E+00
     -0.824  0.6355E-01  0.1836E+00
     -0.745  0.6665E-01  0.1888E+00
     -0.667  0.6499E-01  0.1939E+00
     -0.588  0.3540E-01  0.1967E+00
     -0.510  0.1693E-01  0.1980E+00
     -0.431  0.4070E-01  0.2012E+00
     -0.353  0.6331E-01  0.2062E+00
     -0.274  0.4390E-01  0.2096E+00
     -0.196  0.2606E-01  0.2117E+00
     -0.117  0.2046E-01  0.2133E+00
     -0.039  0.3141E-01  0.2158E+00
      0.040  0.4185E-01  0.2190E+00
      0.118  0.2417E-01  0.2209E+00
      0.197  0.1354E-01  0.2220E+00
      0.275  0.2536E-01  0.2240E+00
      0.354  0.3541E-01  0.2268E+00
      0.432  0.3327E-01  0.2294E+00
      0.511  0.2185E-01  0.2311E+00
      0.589  0.1551E-01  0.2323E+00
      0.668  0.1351E-01  0.2334E+00
      0.746  0.1641E-01  0.2347E+00
      0.825  0.3089E-01  0.2371E+00
      0.903  0.3090E-01  0.2395E+00
      0.982  0.1299E-01  0.2405E+00
      1.061  0.2091E-02  0.2407E+00
      1.139  0.4778E-03  0.2407E+00
      1.218  0.5580E-02  0.2412E+00
      1.296  0.2922E-01  0.2435E+00
      1.375  0.5645E-01  0.2479E+00
      1.453  0.5448E-01  0.2522E+00
      1.532  0.5834E-01  0.2568E+00
      1.610  0.7028E-01  0.2623E+00
      1.689  0.6124E-01  0.2671E+00
      1.767  0.4814E-01  0.2709E+00
      1.846  0.7064E-01  0.2764E+00
      1.924  0.1037E+00  0.2846E+00
      2.003  0.1002E+00  0.2924E+00
      2.081  0.6465E-01  0.2975E+00
      2.160  0.4896E-01  0.3014E+00
      2.238  0.6076E-01  0.3061E+00
      2.317  0.6334E-01  0.3111E+00
      2.395  0.6548E-01  0.3162E+00
      2.474  0.7377E-01  0.3220E+00
      2.552  0.9081E-01  0.3292E+00
      2.631  0.1080E+00  0.3376E+00
      2.709  0.8665E-01  0.3444E+00
      2.788  0.6031E-01  0.3492E+00
      2.867  0.7099E-01  0.3548E+00
      2.945  0.1095E+00  0.3634E+00
      3.024  0.1375E+00  0.3741E+00
      3.102  0.1291E+00  0.3843E+00
      3.181  0.8004E-01  0.3906E+00
      3.259  0.5581E-01  0.3950E+00
      3.338  0.8896E-01  0.4019E+00
      3.416  0.1182E+00  0.4112E+00
      3.495  0.1107E+00  0.4199E+00
      3.573  0.7495E-01  0.4258E+00
      3.652  0.5128E-01  0.4298E+00
      3.730  0.7934E-01  0.4361E+00
      3.809  0.1171E+00  0.4452E+00
      3.887  0.1185E+00  0.4545E+00
      3.966  0.9722E-01  0.4622E+00
      4.044  0.6908E-01  0.4676E+00
      4.123  0.6693E-01  0.4729E+00
      4.201  0.9506E-01  0.4803E+00
      4.280  0.8518E-01  0.4870E+00
      4.358  0.5145E-01  0.4911E+00
      4.437  0.4289E-01  0.4944E+00
      4.515  0.6906E-01  0.4998E+00
      4.594  0.8255E-01  0.5063E+00
      4.673  0.5413E-01  0.5106E+00
      4.751  0.3548E-01  0.5134E+00
      4.830  0.4634E-01  0.5170E+00
      4.908  0.5037E-01  0.5210E+00
      4.987  0.3497E-01  0.5237E+00
      5.065  0.1801E-01  0.5251E+00
      5.144  0.1761E-01  0.5265E+00
      5.222  0.2444E-01  0.5284E+00
      5.301  0.1739E-01  0.5298E+00
      5.379  0.7003E-02  0.5303E+00
      5.458  0.9644E-02  0.5311E+00
      5.536  0.1511E-01  0.5323E+00
      5.615  0.9208E-02  0.5330E+00
      5.693  0.3118E-02  0.5332E+00
      5.772  0.9474E-03  0.5333E+00
      5.850  0.1504E-03  0.5333E+00
      5.929  0.8251E-05  0.5333E+00
      6.007  0.4395E-06  0.5333E+00
      6.086  0.1864E-04  0.5333E+00
      6.164  0.3787E-03  0.5334E+00
      6.243  0.2579E-02  0.5336E+00
      6.322  0.6288E-02  0.5341E+00
      6.400  0.7947E-02  0.5347E+00
      6.479  0.1340E-01  0.5357E+00
      6.557  0.2034E-01  0.5373E+00
      6.636  0.2044E-01  0.5389E+00
      6.714  0.2260E-01  0.5407E+00
      6.793  0.2288E-01  0.5425E+00
      6.871  0.1779E-01  0.5439E+00
      6.950  0.2179E-01  0.5456E+00
      7.028  0.4432E-01  0.5491E+00
      7.107  0.5266E-01  0.5532E+00
      7.185  0.4175E-01  0.5565E+00
      7.264  0.4724E-01  0.5602E+00
      7.342  0.7221E-01  0.5659E+00
      7.421  0.8201E-01  0.5723E+00
      7.499  0.7101E-01  0.5779E+00
      7.578  0.6019E-01  0.5826E+00
      7.656  0.7075E-01  0.5882E+00
      7.735  0.8033E-01  0.5945E+00
      7.813  0.8600E-01  0.6013E+00
      7.892  0.1048E+00  0.6095E+00
      7.970  0.1218E+00  0.6190E+00
      8.049  0.9892E-01  0.6268E+00
      8.128  0.6796E-01  0.6321E+00
      8.206  0.7023E-01  0.6377E+00
      8.285  0.1024E+00  0.6457E+00
      8.363  0.1065E+00  0.6541E+00
      8.442  0.7231E-01  0.6597E+00
      8.520  0.7751E-01  0.6658E+00
      8.599  0.7361E-01  0.6716E+00
      8.677  0.5999E-01  0.6763E+00
      8.756  0.7227E-01  0.6820E+00
      8.834  0.9906E-01  0.6898E+00
      8.913  0.1470E+00  0.7013E+00
      8.991  0.1735E+00  0.7149E+00
      9.070  0.1404E+00  0.7260E+00
      9.148  0.1164E+00  0.7351E+00
      9.227  0.1181E+00  0.7444E+00
      9.305  0.1081E+00  0.7529E+00
      9.384  0.1235E+00  0.7626E+00
      9.462  0.1306E+00  0.7728E+00
      9.541  0.8946E-01  0.7798E+00
      9.619  0.5865E-01  0.7844E+00
      9.698  0.6071E-01  0.7892E+00
      9.776  0.5857E-01  0.7938E+00
      9.855  0.6758E-01  0.7991E+00
      9.934  0.9483E-01  0.8066E+00
     10.012  0.8854E-01  0.8135E+00
     10.091  0.5626E-01  0.8179E+00
     10.169  0.4252E-01  0.8213E+00
     10.248  0.8065E-01  0.8276E+00
     10.326  0.1566E+00  0.8399E+00
     10.405  0.1658E+00  0.8529E+00
     10.483  0.1213E+00  0.8624E+00
     10.562  0.9491E-01  0.8699E+00
     10.640  0.8537E-01  0.8766E+00
     10.719  0.9092E-01  0.8837E+00
     10.797  0.8008E-01  0.8900E+00
     10.876  0.5631E-01  0.8944E+00
     10.954  0.5422E-01  0.8987E+00
     11.033  0.5186E-01  0.9028E+00
     11.111  0.3949E-01  0.9059E+00
     11.190  0.5088E-01  0.9099E+00
     11.268  0.6651E-01  0.9151E+00
     11.347  0.8608E-01  0.9218E+00
     11.425  0.1024E+00  0.9299E+00
     11.504  0.7065E-01  0.9354E+00
     11.582  0.4039E-01  0.9386E+00
     11.661  0.5328E-01  0.9428E+00
     11.740  0.6991E-01  0.9483E+00
     11.818  0.8696E-01  0.9551E+00
     11.897  0.9644E-01  0.9627E+00
     11.975  0.1027E+00  0.9708E+00
     12.054  0.1007E+00  0.9787E+00
     12.132  0.6277E-01  0.9836E+00
     12.211  0.3325E-01  0.9862E+00
     12.289  0.4417E-01  0.9897E+00
     12.368  0.6174E-01  0.9945E+00
     12.446  0.5204E-01  0.9986E+00
     12.525  0.4206E-01  0.1002E+01
     12.603  0.3898E-01  0.1005E+01
     12.682  0.2225E-01  0.1007E+01
     12.760  0.2845E-01  0.1009E+01
     12.839  0.5590E-01  0.1013E+01
     12.917  0.6048E-01  0.1018E+01
     12.996  0.4751E-01  0.1022E+01
     13.074  0.3117E-01  0.1024E+01
     13.153  0.1508E-01  0.1025E+01
     13.231  0.2123E-01  0.1027E+01
     13.310  0.5433E-01  0.1031E+01
     13.388  0.7525E-01  0.1037E+01
     13.467  0.6477E-01  0.1042E+01
     13.546  0.4512E-01  0.1046E+01
     13.624  0.3711E-01  0.1049E+01
     13.703  0.5486E-01  0.1053E+01
     13.781  0.6229E-01  0.1058E+01
     13.860  0.2865E-01  0.1060E+01
     13.938  0.4570E-02  0.1061E+01
     14.017  0.2392E-03  0.1061E+01
     14.095  0.3969E-05  0.1061E+01
     14.174  0.2037E-07  0.1061E+01
     14.252  0.3180E-10  0.1061E+01
     14.331  0.1509E-13  0.1061E+01
     14.409  0.5097E-12  0.1061E+01
     14.488  0.5164E-09  0.1061E+01
     14.566  0.1576E-06  0.1061E+01
     14.645  0.1466E-04  0.1061E+01
     14.723  0.4233E-03  0.1061E+01
     14.802  0.3898E-02  0.1061E+01
     14.880  0.1208E-01  0.1062E+01
     14.959  0.1518E-01  0.1063E+01
     15.037  0.1325E-01  0.1064E+01
     15.116  0.1148E-01  0.1065E+01
     15.194  0.9164E-02  0.1066E+01
     15.273  0.7313E-02  0.1066E+01
     15.352  0.3204E-02  0.1067E+01
     15.430  0.5048E-03  0.1067E+01
     15.509  0.2574E-04  0.1067E+01
     15.587  0.4105E-06  0.1067E+01
     15.666  0.2007E-08  0.1067E+01
     15.744  0.2964E-11  0.1067E+01
     15.823  0.1312E-14  0.1067E+01
     15.901  0.0000E+00  0.1067E+01
     15.980  0.0000E+00  0.1067E+01
     16.058  0.0000E+00  0.1067E+01
     16.137  0.0000E+00  0.1067E+01
     16.215  0.0000E+00  0.1067E+01
     16.294  0.0000E+00  0.1067E+01
