    2    2   15    1
  0.2079688E+02  0.3889087E-09  0.3889087E-09  0.3889087E-09  0.5000000E-15
  1.000000000000000E-004
  CAR 
 diamond Si                              
      8     56      8
 
  0.0000000E+00  0.0000000E+00  0.0000000E+00  0.7513148E-03
      1         -6.192059   1.000000
      2          5.648879   0.999996
      3          5.648893   0.999996
      4          5.648893   0.999996
      5          8.209099   0.000000
      6          8.209114   0.000000
      7          8.209114   0.000000
      8          8.794862   0.000000
 
  0.9090909E-01  0.6938894E-17  0.3232894E-17  0.6010518E-02
      1         -6.085450   1.000000
      2          4.661743   1.000000
      3          5.484690   1.000000
      4          5.484702   1.000000
      5          8.201710   0.000000
      6          8.452601   0.000000
      7          8.452615   0.000000
      8          9.616741   0.000000
 
  0.1818182E+00 -0.1734723E-17  0.2996341E-17  0.6010518E-02
      1         -5.770138   1.000000
      2          2.995516   1.000000
      3          5.146450   1.000000
      4          5.146462   1.000000
      5          7.880676   0.000000
      6          8.922332   0.000000
      7          8.922351   0.000000
      8         11.213929   0.000000
 
  0.2727273E+00  0.5204170E-17 -0.3311745E-17  0.6010518E-02
      1         -5.262462   1.000000
      2          1.354231   1.000000
      3          4.824843   1.000000
      4          4.824856   1.000000
      5          7.536424   0.000000
      6          9.177310   0.000000
      7          9.177337   0.000000
      8         12.782959   0.000000
 
  0.3636364E+00 -0.6938894E-17  0.9462128E-17  0.6010518E-02
      1         -4.613972   1.000000
      2         -0.083220   1.000000
      3          4.594527   1.000000
      4          4.594540   1.000000
      5          7.276780   0.000000
      6          9.128532   0.000000
      7          9.128563   0.000000
      8         13.493631   0.000000
 
  0.4545455E+00  0.3469447E-17 -0.3154043E-18  0.6010518E-02
      1         -4.016795   1.000000
      2         -1.081415   1.000000
      3          4.476968   1.000000
      4          4.476982   1.000000
      5          7.140493   0.000000
      6          9.026530   0.000000
      7          9.026562   0.000000
      8         13.374632   0.000000
 
  0.9090909E-01  0.9090909E-01 -0.1129172E-17  0.4507889E-02
      1         -6.049735   1.000000
      2          4.830018   1.000000
      3          5.164115   1.000000
      4          5.164123   1.000000
      5          7.893710   0.000000
      6          8.870680   0.000000
      7          8.870690   0.000000
      8          9.544703   0.000000
 
  0.1818182E+00  0.9090909E-01  0.1025064E-17  0.1803156E-01
      1         -5.803247   1.000000
      2          3.484017   1.000000
      3          4.770984   1.000000
      4          4.946186   1.000000
      5          7.927535   0.000000
      6          8.896829   0.000000
      7          9.457087   0.000000
      8         10.530420   0.000000
 
  0.2727273E+00  0.9090909E-01  0.4257958E-17  0.1803156E-01
      1         -5.357098   1.000000
      2          1.881207   1.000000
      3          4.454484   1.000000
      4          4.575684   1.000000
      5          8.037680   0.000000
      6          8.903651   0.000000
      7          9.813557   0.000000
      8         10.999987   0.000000
 
  0.3636364E+00  0.9090909E-01 -0.2050128E-17  0.1803156E-01
      1         -4.745746   1.000000
      2          0.392046   1.000000
      3          4.196943   1.000000
      4          4.268322   1.000000
      5          7.874493   0.000000
      6          8.960883   0.000000
      7          9.754844   0.000000
      8         11.765621   0.000000
 
  0.4545455E+00  0.9090909E-01  0.7254298E-17  0.1803156E-01
      1         -4.089110   1.000000
      2         -0.782860   1.000000
      3          3.902258   1.000000
      4          4.227385   1.000000
      5          7.731537   0.000000
      6          8.930484   0.000000
      7          9.526952   0.000000
      8         12.991947   0.000000
 
 -0.4545455E+00  0.9090909E-01  0.7885107E-17  0.1803156E-01
      1         -3.825942   1.000000
      2         -1.176377   1.000000
      3          3.727135   1.000000
      4          4.326071   1.000000
      5          7.700534   0.000000
      6          8.990058   0.000000
      7          9.342991   0.000000
      8         13.682798   0.000000
 
 -0.3636364E+00  0.9090909E-01 -0.1892426E-17  0.1803156E-01
      1         -4.298346   1.000000
      2         -0.441372   1.000000
      3          3.693266   1.000000
      4          4.550298   1.000000
      5          7.800452   0.000000
      6          9.178764   0.000000
      7          9.261885   0.000000
      8         13.367068   0.000000
 
 -0.2727273E+00  0.9090909E-01 -0.8200511E-17  0.1803156E-01
      1         -4.965266   1.000000
      2          0.868559   1.000000
      3          3.815391   1.000000
      4          4.870947   1.000000
      5          8.015436   0.000000
      6          9.187597   0.000000
      7          9.384222   0.000000
      8         12.310138   0.000000
 
 -0.1818182E+00  0.9090909E-01  0.4573362E-17  0.1803156E-01
      1         -5.527816   1.000000
      2          2.399518   1.000000
      3          4.111687   1.000000
      4          5.231928   1.000000
      5          8.309844   0.000000
      6          8.900846   0.000000
      7          9.251291   0.000000
      8         11.413301   0.000000
 
 -0.9090909E-01  0.9090909E-01 -0.5204170E-17  0.9015778E-02
      1         -5.909074   1.000000
      2          3.856738   1.000000
      3          4.672302   1.000000
      4          5.505350   1.000000
      5          8.502765   0.000000
      6          8.542664   0.000000
      7          8.667221   0.000000
      8         10.509078   0.000000
 
  0.1818182E+00  0.1818182E+00 -0.2258344E-17  0.4507889E-02
      1         -5.625752   1.000000
      2          3.327939   1.000000
      3          4.342004   1.000000
      4          4.342012   1.000000
      5          7.254015   0.000000
      6          9.735414   0.000000
      7         10.206181   0.000000
      8         10.206192   0.000000
 
  0.2727273E+00  0.1818182E+00  0.3154043E-17  0.1803156E-01
      1         -5.244626   1.000000
      2          2.183514   1.000000
      3          3.925941   1.000000
      4          4.002397   1.000000
      5          7.306626   0.000000
      6          9.340741   0.000000
      7         10.492865   0.000000
      8         10.788288   0.000000
 
  0.3636364E+00  0.1818182E+00  0.3784851E-17  0.1803156E-01
      1         -4.682743   1.000000
      2          0.830089   1.000000
      3          3.398005   1.000000
      4          3.807325   1.000000
      5          7.542806   0.000000
      6          9.698107   0.000000
      7         10.293669   0.000000
      8         10.877212   0.000000
 
  0.4545455E+00  0.1818182E+00  0.1829345E-16  0.1803156E-01
      1         -4.014667   1.000000
      2         -0.388945   1.000000
      3          2.926492   1.000000
      4          3.774377   1.000000
      5          7.583599   0.000000
      6         10.059531   0.000000
      7         10.631235   0.000000
      8         10.909284   0.000000
 
 -0.4545455E+00  0.1818182E+00  0.1577021E-17  0.1803156E-01
      1         -3.542996   1.000000
      2         -1.085639   1.000000
      3          2.595174   1.000000
      4          3.902576   1.000000
      5          7.678727   0.000000
      6          9.933502   0.000000
      7         10.341802   0.000000
      8         12.520758   0.000000
 
 -0.3636364E+00  0.1818182E+00  0.9146724E-17  0.1803156E-01
      1         -3.821707   1.000000
      2         -0.682068   1.000000
      3          2.445710   1.000000
      4          4.176815   1.000000
      5          7.923573   0.000000
      6          9.929158   0.000000
      7         10.115327   0.000000
      8         13.328863   0.000000
 
 -0.2727273E+00  0.1818182E+00  0.2838638E-17  0.1803156E-01
      1         -4.480861   1.000000
      2          0.416854   1.000000
      3          2.529550   1.000000
      4          4.558913   1.000000
      5          8.280944   0.000000
      6          9.865916   0.000000
      7          9.985239   0.000000
      8         11.939197   0.000000
 
 -0.1818182E+00  0.1818182E+00 -0.3469447E-17  0.9015778E-02
      1         -5.087148   1.000000
      2          1.592814   1.000000
      3          3.010364   1.000000
      4          4.967602   1.000000
      5          8.595423   0.000000
      6          9.377377   0.000000
      7          9.676570   0.000000
      8         11.266409   0.000000
 
  0.2727273E+00  0.2727273E+00 -0.3387516E-17  0.4507889E-02
      1         -4.928156   1.000000
      2          1.719420   1.000000
      3          3.629217   1.000000
      4          3.629225   1.000000
      5          6.672306   0.000000
      6          8.468523   0.000000
      7         11.758994   0.000000
      8         11.759006   0.000000
 
  0.3636364E+00  0.2727273E+00  0.7017745E-17  0.1803156E-01
      1         -4.422397   1.000000
      2          0.776080   1.000000
      3          3.100016   1.000000
      4          3.400126   1.000000
      5          6.805877   0.000000
      6          8.182689   0.000000
      7         12.041547   0.000000
      8         12.227540   0.000000
 
  0.4545455E+00  0.2727273E+00 -0.1892426E-17  0.1803156E-01
      1         -3.773701   1.000000
      2         -0.238981   1.000000
      3          2.383845   1.000000
      4          3.338764   1.000000
      5          7.008186   0.000000
      6          8.923461   0.000000
      7         11.875625   0.000000
      8         12.099080   0.000000
 
 -0.4545455E+00  0.2727273E+00  0.2649396E-16  0.1803156E-01
      1         -3.171905   1.000000
      2         -1.027028   1.000000
      3          1.818905   1.000000
      4          3.448790   1.000000
      5          7.140352   0.000000
      6         10.390290   0.000000
      7         11.701798   0.000000
      8         11.774017   0.000000
 
 -0.3636364E+00  0.2727273E+00  0.1671643E-16  0.1803156E-01
      1         -3.227662   1.000000
      2         -0.948476   1.000000
      3          1.539157   1.000000
      4          3.719325   1.000000
      5          7.425207   0.000000
      6         11.418598   0.000000
      7         11.448072   0.000000
      8         12.320645   0.000000
 
 -0.2727273E+00  0.2727273E+00  0.1040834E-16  0.9015778E-02
      1         -3.850624   1.000000
      2         -0.200430   1.000000
      3          1.698849   1.000000
      4          4.116298   1.000000
      5          7.861091   0.000000
      6         10.818279   0.000000
      7         11.180052   0.000000
      8         11.983742   0.000000
 
  0.3636364E+00  0.3636364E+00 -0.4516688E-17  0.4507889E-02
      1         -3.972500   1.000000
      2          0.120285   1.000000
      3          3.127820   1.000000
      4          3.127828   1.000000
      5          6.323327   0.000000
      6          7.344701   0.000000
      7         13.405729   0.000000
      8         13.405743   0.000000
 
  0.4545455E+00  0.3636364E+00 -0.1427204E-16  0.1803156E-01
      1         -3.360190   1.000000
      2         -0.684413   1.000000
      3          2.603728   1.000000
      4          3.023904   1.000000
      5          6.532611   0.000000
      6          7.354175   0.000000
      7         13.728498   0.000000
      8         13.739069   0.000000
 
 -0.4545455E+00  0.3636364E+00 -0.2144749E-16  0.1803156E-01
      1         -2.697876   1.000000
      2         -1.391614   1.000000
      3          1.840189   1.000000
      4          3.095640   1.000000
      5          6.701985   0.000000
      6          8.523801   0.000000
      7         13.455810   0.000000
      8         13.589417   0.000000
 
 -0.3636364E+00  0.3636364E+00 -0.1387779E-16  0.9015778E-02
      1         -2.637435   1.000000
      2         -1.420957   1.000000
      3          1.364006   1.000000
      4          3.336691   1.000000
      5          6.976147   0.000000
      6         10.233420   0.000000
      7         12.775754   0.000000
      8         13.322048   0.000000
 
  0.4545455E+00  0.4545455E+00 -0.5645860E-17  0.4507889E-02
      1         -2.784622   1.000000
      2         -1.402803   1.000000
      3          2.872276   1.000000
      4          2.872283   1.000000
      5          6.288580   0.000002
      6          6.616165   0.000000
      7         15.085644   0.000000
      8         15.085652   0.000000
 
 -0.4545455E+00  0.4545455E+00  0.6938894E-17  0.9015778E-02
      1         -2.149736   1.000000
      2         -2.037663   1.000000
      3          2.440124   1.000000
      4          2.896946   1.000000
      5          6.470001   0.000000
      6          7.044196   0.000000
      7         14.999978   0.000000
      8         15.223051   0.000000
 
  0.2727273E+00  0.1818182E+00  0.9090909E-01  0.1803156E-01
      1         -5.489938   1.000000
      2          2.626357   1.000000
      3          3.843724   1.000000
      4          4.833372   1.000000
      5          7.986655   0.000000
      6          9.213229   0.000000
      7         10.001236   0.000000
      8         10.425841   0.000000
 
  0.3636364E+00  0.1818182E+00  0.9090909E-01  0.3606311E-01
      1         -4.985033   1.000000
      2          1.322915   1.000000
      3          3.285346   1.000000
      4          4.518734   1.000000
      5          8.294572   0.000000
      6          9.178153   0.000000
      7         10.333795   0.000000
      8         10.546653   0.000000
 
  0.4545455E+00  0.1818182E+00  0.9090909E-01  0.3606311E-01
      1         -4.337841   1.000000
      2         -0.001155   1.000000
      3          3.027539   1.000000
      4          4.180366   1.000000
      5          8.319548   0.000000
      6          8.999165   0.000000
      7         10.428848   0.000000
      8         11.379113   0.000000
 
 -0.4545455E+00  0.1818182E+00  0.9090909E-01  0.3606311E-01
      1         -3.735892   1.000000
      2         -0.966136   1.000000
      3          2.926853   1.000000
      4          3.973380   1.000000
      5          8.287748   0.000000
      6          8.808905   0.000000
      7         10.365398   0.000000
      8         12.828432   0.000000
 
  0.3636364E+00  0.2727273E+00  0.9090909E-01  0.1803156E-01
      1         -4.802308   1.000000
      2          1.343535   1.000000
      3          3.137066   1.000000
      4          3.841710   1.000000
      5          7.433047   0.000000
      6          8.960599   0.000000
      7         10.602749   0.000000
      8         11.642165   0.000000
 
  0.4545455E+00  0.2727273E+00  0.9090909E-01  0.3606311E-01
      1         -4.194462   1.000000
      2          0.277349   1.000000
      3          2.567785   1.000000
      4          3.534075   1.000000
      5          7.793761   0.000000
      6          9.370890   0.000000
      7         10.289859   0.000000
      8         12.034617   0.000000
 
 -0.4545455E+00  0.2727273E+00  0.9090909E-01  0.3606311E-01
      1         -3.533888   1.000000
      2         -0.715568   1.000000
      3          2.185415   1.000000
      4          3.381192   1.000000
      5          7.926969   0.000000
      6          9.906914   0.000000
      7         10.715734   0.000000
      8         11.990482   0.000000
 
 -0.3636364E+00  0.2727273E+00  0.9090909E-01  0.3606311E-01
      1         -3.273353   1.000000
      2         -1.057636   1.000000
      3          1.958731   1.000000
      4          3.469257   1.000000
      5          8.136065   0.000000
      6          9.641836   0.000000
      7         11.874790   0.000000
      8         12.393432   0.000000
 
 -0.2727273E+00  0.2727273E+00  0.9090909E-01  0.3606311E-01
      1         -3.769289   1.000000
      2         -0.381143   1.000000
      3          1.950817   1.000000
      4          3.759793   1.000000
      5          8.490727   0.000000
      6          9.454270   0.000000
      7         11.169180   0.000000
      8         11.813518   0.000000
 
 -0.1818182E+00  0.2727273E+00  0.9090909E-01  0.1803156E-01
      1         -4.433257   1.000000
      2          0.586851   1.000000
      3          2.325432   1.000000
      4          4.167852   1.000000
      5          8.917967   0.000000
      6          9.039359   0.000000
      7         10.298208   0.000000
      8         11.353826   0.000000
 
  0.4545455E+00  0.3636364E+00  0.9090909E-01  0.1803156E-01
      1         -3.865265   1.000000
      2         -0.014757   1.000000
      3          2.667761   1.000000
      4          3.053712   1.000000
      5          7.083211   0.000000
      6          7.939520   0.000000
      7         11.973829   0.000000
      8         13.376311   0.000000
 
 -0.4545455E+00  0.3636364E+00  0.9090909E-01  0.3606311E-01
      1         -3.196076   1.000000
      2         -0.827194   1.000000
      3          2.035885   1.000000
      4          2.878380   1.000000
      5          7.428239   0.000000
      6          8.741776   0.000000
      7         11.624676   0.000000
      8         13.733714   0.000000
 
 -0.3636364E+00  0.3636364E+00  0.9090909E-01  0.3606311E-01
      1         -2.736857   1.000000
      2         -1.317446   1.000000
      3          1.523537   1.000000
      4          2.992630   1.000000
      5          7.640399   0.000000
      6         10.301370   0.000000
      7         11.322738   0.000000
      8         12.912867   0.000000
 
 -0.2727273E+00  0.3636364E+00  0.9090909E-01  0.1803156E-01
      1         -3.116931   1.000000
      2         -0.921754   1.000000
      3          1.420932   1.000000
      4          3.310787   1.000000
      5          8.006826   0.000000
      6         10.711227   0.000000
      7         11.434887   0.000000
      8         12.323142   0.000000
 
 -0.4545455E+00  0.4545455E+00  0.9090909E-01  0.1803156E-01
      1         -2.713180   1.000000
      2         -1.401261   1.000000
      3          2.478206   1.000000
      4          2.598615   1.000000
      5          7.016953   0.000000
      6          7.288123   0.000000
      7         13.493472   0.000000
      8         14.878172   0.000000
 
 -0.3636364E+00  0.4545455E+00  0.9090909E-01  0.1803156E-01
      1         -2.217953   1.000000
      2         -1.841276   1.000000
      3          1.831833   1.000000
      4          2.669927   1.000000
      5          7.296734   0.000000
      6          8.534639   0.000000
      7         13.043614   0.000000
      8         13.273355   0.000000
 
 -0.4545455E+00  0.3636364E+00  0.1818182E+00  0.1803156E-01
      1         -3.560976   1.000000
      2         -0.403122   1.000000
      3          1.923279   1.000000
      4          3.077723   1.000000
      5          8.724713   0.000000
      6          9.379252   0.000000
      7          9.915009   0.000000
      8         13.279492   0.000000
 
 -0.3636364E+00  0.3636364E+00  0.1818182E+00  0.3606311E-01
      1         -2.937624   1.000000
      2         -1.094269   1.000000
      3          1.646881   1.000000
      4          2.763021   1.000000
      5          9.099879   0.000000
      6          9.445385   0.000000
      7         10.707310   0.000000
      8         12.561023   0.000000
 
 -0.3636364E+00  0.4545455E+00  0.1818182E+00  0.1803156E-01
      1         -2.531859   1.000000
      2         -1.445394   1.000000
      3          1.875643   1.000000
      4          2.252852   1.000000
      5          8.645412   0.000000
      6          8.855503   0.000000
      7         11.218382   0.000000
      8         12.797857   0.000000
 
 -0.2727273E+00  0.4545455E+00  0.1818182E+00  0.1803156E-01
      1         -2.336421   1.000000
      2         -1.607410   1.000000
      3          1.601687   1.000000
      4          2.288949   1.000000
      5          8.994265   0.000000
      6         10.276693   0.000000
      7         10.982468   0.000000
      8         10.994016   0.000000
