       N       E                     dE             d eps       ncg     rms          rms(c)
DAV:   1    -0.189343666469E+01   -0.18934E+01   -0.20040E+03   904   0.422E+02
DAV:   2    -0.108926039335E+02   -0.89992E+01   -0.87586E+01  1440   0.554E+01
DAV:   3    -0.109805531666E+02   -0.87949E-01   -0.87949E-01  1208   0.675E+00
DAV:   4    -0.109807517982E+02   -0.19863E-03   -0.19863E-03  1368   0.313E-01
DAV:   5    -0.109807519113E+02   -0.11307E-06   -0.11310E-06  1256   0.684E-03    0.519E+00
DAV:   6    -0.108723496529E+02    0.10840E+00   -0.69164E-02  1064   0.137E+00    0.317E+00
DAV:   7    -0.108218097854E+02    0.50540E-01   -0.13575E-01  1120   0.205E+00    0.163E-01
DAV:   8    -0.108228444695E+02   -0.10347E-02   -0.32972E-03   944   0.419E-01    0.706E-02
DAV:   9    -0.108230614389E+02   -0.21697E-03   -0.22028E-04  1312   0.111E-01    0.557E-02
DAV:  10    -0.108230846765E+02   -0.23238E-04   -0.26321E-05  1000   0.381E-02    0.814E-03
DAV:  11    -0.108230844408E+02    0.23564E-06   -0.53073E-07   552   0.495E-03
   1 F= -.10823084E+02 E0= -.10823084E+02  d E =-.108231E+02
       N       E                     dE             d eps       ncg     rms          rms(c)
DAV:   1    -0.108309213070E+02   -0.78366E-02   -0.20895E-01  1072   0.257E+00    0.416E-01
DAV:   2    -0.108274398911E+02    0.34814E-02   -0.28679E-03  1200   0.344E-01    0.241E-01
DAV:   3    -0.108256401187E+02    0.17998E-02   -0.37308E-03  1024   0.309E-01    0.933E-02
DAV:   4    -0.108256431468E+02   -0.30280E-05   -0.33194E-05  1232   0.506E-02
   2 F= -.10825643E+02 E0= -.10825643E+02  d E =-.255871E-02
       N       E                     dE             d eps       ncg     rms          rms(c)
DAV:   1    -0.108279806611E+02   -0.23405E-02   -0.29056E-02  1080   0.953E-01    0.138E-01
DAV:   2    -0.108274755427E+02    0.50512E-03   -0.39932E-04  1200   0.128E-01    0.796E-02
DAV:   3    -0.108272178005E+02    0.25774E-03   -0.52919E-04  1056   0.116E-01    0.357E-02
DAV:   4    -0.108272175851E+02    0.21543E-06   -0.44259E-06   664   0.189E-02
   3 F= -.10827218E+02 E0= -.10827218E+02  d E =-.413314E-02
