 vasp.6.3.0 20Jan22 (build Feb 01 2022 16:52:37) complex                        
  
 executed on           TETRA_NSC1 date 2022.02.23  11:09:26
 running    4 mpi-ranks, with    1 threads/rank
 distrk:  each k-point on    4 cores,    1 groups
 distr:  one band on NCORE=   1 cores,    4 groups


--------------------------------------------------------------------------------------------------------


 INCAR:
   SYSTEM = diamond Si
   ISMEAR = 0
   SIGMA = 0.1
   ENMAX = 240
   IBRION = 2
   ISIF = 3
   NSW = 15
   EDIFF = 0.1E-04
   EDIFFG = -0.01

 POTCAR:    PAW_PBE Si 05Jan2001                  
 POTCAR:    PAW_PBE Si 05Jan2001                  
   VRHFIN =Si: s2p2                                                                                 
   LEXCH  = PE                                                                                      
   EATOM  =   103.0669 eV,    7.5752 Ry                                                             
                                                                                                    
   TITEL  = PAW_PBE Si 05Jan2001                                                                    
   LULTRA =        F    use ultrasoft PP ?                                                          
   IUNSCR =        1    unscreen: 0-lin 1-nonlin 2-no                                               
   RPACOR =    1.500    partial core radius                                                         
   POMASS =   28.085; ZVAL   =    4.000    mass and valenz                                          
   RCORE  =    1.900    outmost cutoff radius                                                       
   RWIGS  =    2.480; RWIGS  =    1.312    wigner-seitz radius (au A)                               
   ENMAX  =  245.345; ENMIN  =  184.009 eV                                                          
   ICORE  =        2    local potential                                                             
   LCOR   =        T    correct aug charges                                                         
   LPAW   =        T    paw PP                                                                      
   EAUG   =  322.069                                                                                
   DEXC   =    0.000                                                                                
   RMAX   =    1.950    core radius for proj-oper                                                   
   RAUG   =    1.300    factor for augmentation sphere                                              
   RDEP   =    1.993    radius for radial grids                                                     
   RDEPT  =    1.837    core radius for aug-charge                                                  
                                                                                                    
   Atomic configuration                                                                             
    6 entries                                                                                       
     n  l   j            E        occ.                                                              
     1  0  0.50     -1785.8828   2.0000                                                             
     2  0  0.50      -139.4969   2.0000                                                             
     2  1  1.50       -95.5546   6.0000                                                             
     3  0  0.50       -10.8127   2.0000                                                             
     3  1  0.50        -4.0811   2.0000                                                             
     3  2  1.50        -4.0817   0.0000                                                             
   Description                                                                                      
     l       E           TYP  RCUT    TYP  RCUT                                                     
     0    -10.8127223     23  1.900                                                                 
     0     -7.6451159     23  1.900                                                                 
     1     -4.0811372     23  1.900                                                                 
     1      2.4879257     23  1.900                                                                 
     2     -4.0817478      7  1.900                                                                 
  local pseudopotential read in
  partial core-charges read in
  partial kinetic energy density read in
  atomic valenz-charges read in
  non local Contribution for L=           0  read in
    real space projection operators read in
  non local Contribution for L=           0  read in
    real space projection operators read in
  non local Contribution for L=           1  read in
    real space projection operators read in
  non local Contribution for L=           1  read in
    real space projection operators read in
    PAW grid and wavefunctions read in
 
   number of l-projection  operators is LMAX  =           4
   number of lm-projection operators is LMMAX =           8
 
  PAW_PBE Si 05Jan2001                  :
 energy of atom  1       EATOM= -103.0669
 kinetic energy error for atom=    0.0061 (will be added to EATOM!!)
 
 
 POSCAR: cubic diamond Si
  positions in direct lattice
  No initial velocities read in
 exchange correlation table for  LEXCH =        8
   RHO(1)=    0.500       N(1)  =     2000
   RHO(2)=  100.500       N(2)  =     4000
 


--------------------------------------------------------------------------------------------------------


 ion  position               nearest neighbor table
   1  0.875  0.875  0.875-   2 2.38   2 2.38   2 2.38   2 2.38
   2  0.125  0.125  0.125-   1 2.38   1 2.38   1 2.38   1 2.38
 
  LATTYP: Found a face centered cubic cell.
 ALAT       =     5.5000000000
  
  Lattice vectors:
  
 A1 = (   0.0000000000,   2.7500000000,   2.7500000000)
 A2 = (   2.7500000000,   0.0000000000,   2.7500000000)
 A3 = (   2.7500000000,   2.7500000000,   0.0000000000)


Analysis of symmetry for initial positions (statically):
=====================================================================
 Subroutine PRICEL returns:
 Original cell was already a primitive cell.
 

 Routine SETGRP: Setting up the symmetry group for a 
 face centered cubic supercell.


 Subroutine GETGRP returns: Found 48 space group operations
 (whereof 12 operations were pure point group operations)
 out of a pool of 48 trial point group operations.


The static configuration has the point symmetry D_3d.
 The point group associated with its full space group is O_h .


Analysis of symmetry for dynamics (positions and initial velocities):
=====================================================================
 Subroutine PRICEL returns:
 Original cell was already a primitive cell.
 

 Routine SETGRP: Setting up the symmetry group for a 
 face centered cubic supercell.


 Subroutine GETGRP returns: Found 48 space group operations
 (whereof 12 operations were pure point group operations)
 out of a pool of 48 trial point group operations.


The dynamic configuration has the point symmetry D_3d.
 The point group associated with its full space group is O_h .


 Subroutine INISYM returns: Found 48 space group operations
 (whereof 12 operations are pure point group operations),
 and found     1 'primitive' translations


----------------------------------------------------------------------------------------

                                     Primitive cell                                     

  volume of cell :      41.5938

  direct lattice vectors                    reciprocal lattice vectors
     0.000000000  2.750000000  2.750000000    -0.181818182  0.181818182  0.181818182
     2.750000000  0.000000000  2.750000000     0.181818182 -0.181818182  0.181818182
     2.750000000  2.750000000  0.000000000     0.181818182  0.181818182 -0.181818182

  length of vectors
     3.889087297  3.889087297  3.889087297     0.314918329  0.314918329  0.314918329

  position of ions in fractional coordinates (direct lattice)
     0.875000000  0.875000000  0.875000000
     0.125000000  0.125000000  0.125000000

  ion indices of the primitive-cell ions
   primitive index   ion index
                 1           1
                 2           2

----------------------------------------------------------------------------------------

 
 
 KPOINTS: k-points                                

Automatic generation of k-mesh.
 Grid dimensions read from file:
 generate k-points for:   11   11   11

 Generating k-lattice:

  Cartesian coordinates                     Fractional coordinates (reciprocal lattice)
    -0.016528926  0.016528926  0.016528926     0.090909091  0.000000000  0.000000000
     0.016528926 -0.016528926  0.016528926     0.000000000  0.090909091  0.000000000
     0.016528926  0.016528926 -0.016528926     0.000000000  0.000000000  0.090909091

  Length of vectors
     0.028628939  0.028628939  0.028628939

  Shift w.r.t. Gamma in fractional coordinates (k-lattice)
     0.000000000  0.000000000  0.000000000

 
 Subroutine IBZKPT returns following result:
 ===========================================
 
 Found     56 irreducible k-points:
 
 Following reciprocal coordinates:
            Coordinates               Weight
  0.000000  0.000000  0.000000      1.000000
  0.090909  0.000000  0.000000      8.000000
  0.181818 -0.000000  0.000000      8.000000
  0.272727  0.000000 -0.000000      8.000000
  0.363636 -0.000000  0.000000      8.000000
  0.454545  0.000000 -0.000000      8.000000
  0.090909  0.090909 -0.000000      6.000000
  0.181818  0.090909  0.000000     24.000000
  0.272727  0.090909  0.000000     24.000000
  0.363636  0.090909 -0.000000     24.000000
  0.454545  0.090909  0.000000     24.000000
 -0.454545  0.090909  0.000000     24.000000
 -0.363636  0.090909 -0.000000     24.000000
 -0.272727  0.090909 -0.000000     24.000000
 -0.181818  0.090909  0.000000     24.000000
 -0.090909  0.090909 -0.000000     12.000000
  0.181818  0.181818 -0.000000      6.000000
  0.272727  0.181818  0.000000     24.000000
  0.363636  0.181818  0.000000     24.000000
  0.454545  0.181818  0.000000     24.000000
 -0.454545  0.181818  0.000000     24.000000
 -0.363636  0.181818  0.000000     24.000000
 -0.272727  0.181818  0.000000     24.000000
 -0.181818  0.181818 -0.000000     12.000000
  0.272727  0.272727 -0.000000      6.000000
  0.363636  0.272727  0.000000     24.000000
  0.454545  0.272727 -0.000000     24.000000
 -0.454545  0.272727  0.000000     24.000000
 -0.363636  0.272727  0.000000     24.000000
 -0.272727  0.272727  0.000000     12.000000
  0.363636  0.363636 -0.000000      6.000000
  0.454545  0.363636 -0.000000     24.000000
 -0.454545  0.363636 -0.000000     24.000000
 -0.363636  0.363636 -0.000000     12.000000
  0.454545  0.454545 -0.000000      6.000000
 -0.454545  0.454545  0.000000     12.000000
  0.272727  0.181818  0.090909     24.000000
  0.363636  0.181818  0.090909     48.000000
  0.454545  0.181818  0.090909     48.000000
 -0.454545  0.181818  0.090909     48.000000
  0.363636  0.272727  0.090909     24.000000
  0.454545  0.272727  0.090909     48.000000
 -0.454545  0.272727  0.090909     48.000000
 -0.363636  0.272727  0.090909     48.000000
 -0.272727  0.272727  0.090909     48.000000
 -0.181818  0.272727  0.090909     24.000000
  0.454545  0.363636  0.090909     24.000000
 -0.454545  0.363636  0.090909     48.000000
 -0.363636  0.363636  0.090909     48.000000
 -0.272727  0.363636  0.090909     24.000000
 -0.454545  0.454545  0.090909     24.000000
 -0.363636  0.454545  0.090909     24.000000
 -0.454545  0.363636  0.181818     24.000000
 -0.363636  0.363636  0.181818     48.000000
 -0.363636  0.454545  0.181818     24.000000
 -0.272727  0.454545  0.181818     24.000000
 
 Following cartesian coordinates:
            Coordinates               Weight
  0.000000  0.000000  0.000000      1.000000
 -0.090909  0.090909  0.090909      8.000000
 -0.181818  0.181818  0.181818      8.000000
 -0.272727  0.272727  0.272727      8.000000
 -0.363636  0.363636  0.363636      8.000000
 -0.454545  0.454545  0.454545      8.000000
 -0.000000  0.000000  0.181818      6.000000
 -0.090909  0.090909  0.272727     24.000000
 -0.181818  0.181818  0.363636     24.000000
 -0.272727  0.272727  0.454545     24.000000
 -0.363636  0.363636  0.545455     24.000000
  0.545455 -0.545455 -0.363636     24.000000
  0.454545 -0.454545 -0.272727     24.000000
  0.363636 -0.363636 -0.181818     24.000000
  0.272727 -0.272727 -0.090909     24.000000
  0.181818 -0.181818 -0.000000     12.000000
 -0.000000  0.000000  0.363636      6.000000
 -0.090909  0.090909  0.454545     24.000000
 -0.181818  0.181818  0.545455     24.000000
 -0.272727  0.272727  0.636364     24.000000
  0.636364 -0.636364 -0.272727     24.000000
  0.545455 -0.545455 -0.181818     24.000000
  0.454545 -0.454545 -0.090909     24.000000
  0.363636 -0.363636 -0.000000     12.000000
 -0.000000 -0.000000  0.545455      6.000000
 -0.090909  0.090909  0.636364     24.000000
 -0.181818  0.181818  0.727273     24.000000
  0.727273 -0.727273 -0.181818     24.000000
  0.636364 -0.636364 -0.090909     24.000000
  0.545455 -0.545455 -0.000000     12.000000
 -0.000000  0.000000  0.727273      6.000000
 -0.090909  0.090909  0.818182     24.000000
  0.818182 -0.818182 -0.090909     24.000000
  0.727273 -0.727273 -0.000000     12.000000
 -0.000000  0.000000  0.909091      6.000000
  0.909091 -0.909091 -0.000000     12.000000
  0.000000  0.181818  0.363636     24.000000
 -0.090909  0.272727  0.454545     48.000000
 -0.181818  0.363636  0.545455     48.000000
  0.727273 -0.545455 -0.363636     48.000000
  0.000000  0.181818  0.545455     24.000000
 -0.090909  0.272727  0.636364     48.000000
  0.818182 -0.636364 -0.272727     48.000000
  0.727273 -0.545455 -0.181818     48.000000
  0.636364 -0.454545 -0.090909     48.000000
  0.545455 -0.363636  0.000000     24.000000
  0.000000  0.181818  0.727273     24.000000
  0.909091 -0.727273 -0.181818     48.000000
  0.818182 -0.636364 -0.090909     48.000000
  0.727273 -0.545455 -0.000000     24.000000
  1.000000 -0.818182 -0.090909     24.000000
  0.909091 -0.727273 -0.000000     24.000000
  1.000000 -0.636364 -0.272727     24.000000
  0.909091 -0.545455 -0.181818     48.000000
  1.000000 -0.636364 -0.090909     24.000000
  0.909091 -0.545455 -0.000000     24.000000
 


--------------------------------------------------------------------------------------------------------




 Dimension of arrays:
   k-points           NKPTS =     56   k-points in BZ     NKDIM =     56   number of bands    NBANDS=      8
   number of dos      NEDOS =    301   number of ions     NIONS =      2
   non local maximal  LDIM  =      4   non local SUM 2l+1 LMDIM =      8
   total plane-waves  NPLWV =   4096
   max r-space proj   IRMAX =      1   max aug-charges    IRDMAX=   3492
   dimension x,y,z NGX =    16 NGY =   16 NGZ =   16
   dimension x,y,z NGXF=    32 NGYF=   32 NGZF=   32
   support grid    NGXF=    32 NGYF=   32 NGZF=   32
   ions per type =               2
   NGX,Y,Z   is equivalent  to a cutoff of   6.84,  6.84,  6.84 a.u.
   NGXF,Y,Z  is equivalent  to a cutoff of  13.68, 13.68, 13.68 a.u.

 SYSTEM =  diamond Si                              
 POSCAR =  cubic diamond Si                        

 Startparameter for this run:
   NWRITE =      2    write-flag & timer
   PREC   = normal    normal or accurate (medium, high low for compatibility)
   ISTART =      0    job   : 0-new  1-cont  2-samecut
   ICHARG =      2    charge: 1-file 2-atom 10-const
   ISPIN  =      1    spin polarized calculation?
   LNONCOLLINEAR =      F non collinear calculations
   LSORBIT =      F    spin-orbit coupling
   INIWAV =      1    electr: 0-lowe 1-rand  2-diag
   LASPH  =      F    aspherical Exc in radial PAW
 Electronic Relaxation 1
   ENCUT  =  240.0 eV  17.64 Ry    4.20 a.u.   4.91  4.91  4.91*2*pi/ulx,y,z
   ENINI  =  240.0     initial cutoff
   ENAUG  =  322.1 eV  augmentation charge cutoff
   NELM   =     60;   NELMIN=  2; NELMDL= -5     # of ELM steps 
   EDIFF  = 0.1E-04   stopping-criterion for ELM
   LREAL  =      F    real-space projection
   NLSPLINE    = F    spline interpolate recip. space projectors
   LCOMPAT=      F    compatible to vasp.4.4
   GGA_COMPAT  = T    GGA compatible to vasp.4.4-vasp.4.6
   LMAXPAW     = -100 max onsite density
   LMAXMIX     =    2 max onsite mixed and CHGCAR
   VOSKOWN=      0    Vosko Wilk Nusair interpolation
   ROPT   =    0.00000
 Ionic relaxation
   EDIFFG = -.1E-01   stopping-criterion for IOM
   NSW    =     15    number of steps for IOM
   NBLOCK =      1;   KBLOCK =     15    inner block; outer block 
   IBRION =      2    ionic relax: 0-MD 1-quasi-New 2-CG
   NFREE  =      1    steps in history (QN), initial steepest desc. (CG)
   ISIF   =      3    stress and relaxation
   IWAVPR =     11    prediction:  0-non 1-charg 2-wave 3-comb
   ISYM   =      2    0-nonsym 1-usesym 2-fastsym
   LCORR  =      T    Harris-Foulkes like correction to forces

   POTIM  = 0.5000    time-step for ionic-motion
   TEIN   =    0.0    initial temperature
   TEBEG  =    0.0;   TEEND  =   0.0 temperature during run
   SMASS  =  -3.00    Nose mass-parameter (am)
   estimated Nose-frequenzy (Omega)   =  0.10E-29 period in steps = 0.13E+47 mass=  -0.346E-27a.u.
   SCALEE = 1.0000    scale energy and forces
   NPACO  =    256;   APACO  = 10.0  distance and # of slots for P.C.
   PSTRESS=    0.0 pullay stress

  Mass of Ions in am
   POMASS =  28.09
  Ionic Valenz
   ZVAL   =   4.00
  Atomic Wigner-Seitz radii
   RWIGS  =  -1.00
  virtual crystal weights 
   VCA    =   1.00
   NELECT =       8.0000    total number of electrons
   NUPDOWN=      -1.0000    fix difference up-down

 DOS related values:
   EMIN   =  10.00;   EMAX   =-10.00  energy-range for DOS
   EFERMI =   0.00
   ISMEAR =     0;   SIGMA  =   0.10  broadening in eV -4-tet -1-fermi 0-gaus

 Electronic relaxation 2 (details)
   IALGO  =     38    algorithm
   LDIAG  =      T    sub-space diagonalisation (order eigenvalues)
   LSUBROT=      F    optimize rotation matrix (better conditioning)
   TURBO    =      0    0=normal 1=particle mesh
   IRESTART =      0    0=no restart 2=restart with 2 vectors
   NREBOOT  =      0    no. of reboots
   NMIN     =      0    reboot dimension
   EREF     =   0.00    reference energy to select bands
   IMIX   =      4    mixing-type and parameters
     AMIX     =   0.40;   BMIX     =  1.00
     AMIX_MAG =   1.60;   BMIX_MAG =  1.00
     AMIN     =   0.10
     WC   =   100.;   INIMIX=   1;  MIXPRE=   1;  MAXMIX= -45

 Intra band minimization:
   WEIMIN = 0.0010     energy-eigenvalue tresh-hold
   EBREAK =  0.31E-06  absolut break condition
   DEPER  =   0.30     relativ break condition  

   TIME   =   0.40     timestep for ELM

  volume/ion in A,a.u.               =      20.80       140.34
  Fermi-wavevector in a.u.,A,eV,Ry     =   0.944993  1.785779 12.150174  0.893013
  Thomas-Fermi vector in A             =   2.072852
 
 Write flags
   LWAVE        =      T    write WAVECAR
   LDOWNSAMPLE  =      F    k-point downsampling of WAVECAR
   LCHARG       =      T    write CHGCAR
   LVTOT        =      F    write LOCPOT, total local potential
   LVHAR        =      F    write LOCPOT, Hartree potential only
   LELF         =      F    write electronic localiz. function (ELF)
   LORBIT       =      0    0 simple, 1 ext, 2 COOP (PROOUT), +10 PAW based schemes


 Dipole corrections
   LMONO  =      F    monopole corrections only (constant potential shift)
   LDIPOL =      F    correct potential (dipole corrections)
   IDIPOL =      0    1-x, 2-y, 3-z, 4-all directions 
   EPSILON=  1.0000000 bulk dielectric constant

 Exchange correlation treatment:
   GGA     =    --    GGA type
   LEXCH   =     8    internal setting for exchange type
   LIBXC   =     F    Libxc                    
   VOSKOWN =     0    Vosko Wilk Nusair interpolation
   LHFCALC =     F    Hartree Fock is set to
   LHFONE  =     F    Hartree Fock one center treatment
   AEXX    =    0.0000 exact exchange contribution

 Linear response parameters
   LEPSILON=     F    determine dielectric tensor
   LRPA    =     F    only Hartree local field effects (RPA)
   LNABLA  =     F    use nabla operator in PAW spheres
   LVEL    =     F    velocity operator in full k-point grid
   CSHIFT  =0.1000    complex shift for real part using Kramers Kronig
   OMEGAMAX=  -1.0    maximum frequency
   DEG_THRESHOLD= 0.2000000E-02 threshold for treating states as degnerate
   RTIME   =   -0.100 relaxation time in fs
  (WPLASMAI=    0.000 imaginary part of plasma frequency in eV, 0.658/RTIME)
   DFIELD  = 0.0000000 0.0000000 0.0000000 field for delta impulse in time
 
  Optional k-point grid parameters
   LKPOINTS_OPT  =     F    use optional k-point grid
   KPOINTS_OPT_MODE=     1    mode for optional k-point grid
 
 Orbital magnetization related:
   ORBITALMAG=     F  switch on orbital magnetization
   LCHIMAG   =     F  perturbation theory with respect to B field
   DQ        =  0.001000  dq finite difference perturbation B field
   LLRAUG    =     F  two centre corrections for induced B field



--------------------------------------------------------------------------------------------------------


 conjugate gradient relaxation of ions
 charge density and potential will be updated during run
 non-spin polarized calculation
 Variant of blocked Davidson
 Davidson routine will perform the subspace rotation
 perform sub-space diagonalisation
    after iterative eigenvector-optimisation
 modified Broyden-mixing scheme, WC =      100.0
 initial mixing is a Kerker type mixing with AMIX =  0.4000 and BMIX =      1.0000
 Hartree-type preconditioning will be used
 using additional bands            4
 reciprocal scheme for non local part
 use partial core corrections
 calculate Harris-corrections to forces 
   (improved forces if not selfconsistent)
 use gradient corrections 
 use of overlap-Matrix (Vanderbilt PP)
 Gauss-broadening in eV      SIGMA  =   0.10


--------------------------------------------------------------------------------------------------------


  energy-cutoff  :      240.00
  volume of cell :       41.59
      direct lattice vectors                 reciprocal lattice vectors
     0.000000000  2.750000000  2.750000000    -0.181818182  0.181818182  0.181818182
     2.750000000  0.000000000  2.750000000     0.181818182 -0.181818182  0.181818182
     2.750000000  2.750000000  0.000000000     0.181818182  0.181818182 -0.181818182

  length of vectors
     3.889087297  3.889087297  3.889087297     0.314918329  0.314918329  0.314918329


 
 k-points in units of 2pi/SCALE and weight: k-points                                
   0.00000000  0.00000000  0.00000000       0.001
  -0.09090909  0.09090909  0.09090909       0.006
  -0.18181818  0.18181818  0.18181818       0.006
  -0.27272727  0.27272727  0.27272727       0.006
  -0.36363636  0.36363636  0.36363636       0.006
  -0.45454545  0.45454545  0.45454545       0.006
  -0.00000000  0.00000000  0.18181818       0.005
  -0.09090909  0.09090909  0.27272727       0.018
  -0.18181818  0.18181818  0.36363636       0.018
  -0.27272727  0.27272727  0.45454545       0.018
  -0.36363636  0.36363636  0.54545455       0.018
   0.54545455 -0.54545455 -0.36363636       0.018
   0.45454545 -0.45454545 -0.27272727       0.018
   0.36363636 -0.36363636 -0.18181818       0.018
   0.27272727 -0.27272727 -0.09090909       0.018
   0.18181818 -0.18181818 -0.00000000       0.009
  -0.00000000  0.00000000  0.36363636       0.005
  -0.09090909  0.09090909  0.45454545       0.018
  -0.18181818  0.18181818  0.54545455       0.018
  -0.27272727  0.27272727  0.63636364       0.018
   0.63636364 -0.63636364 -0.27272727       0.018
   0.54545455 -0.54545455 -0.18181818       0.018
   0.45454545 -0.45454545 -0.09090909       0.018
   0.36363636 -0.36363636 -0.00000000       0.009
  -0.00000000 -0.00000000  0.54545455       0.005
  -0.09090909  0.09090909  0.63636364       0.018
  -0.18181818  0.18181818  0.72727273       0.018
   0.72727273 -0.72727273 -0.18181818       0.018
   0.63636364 -0.63636364 -0.09090909       0.018
   0.54545455 -0.54545455 -0.00000000       0.009
  -0.00000000  0.00000000  0.72727273       0.005
  -0.09090909  0.09090909  0.81818182       0.018
   0.81818182 -0.81818182 -0.09090909       0.018
   0.72727273 -0.72727273 -0.00000000       0.009
  -0.00000000  0.00000000  0.90909091       0.005
   0.90909091 -0.90909091 -0.00000000       0.009
   0.00000000  0.18181818  0.36363636       0.018
  -0.09090909  0.27272727  0.45454545       0.036
  -0.18181818  0.36363636  0.54545455       0.036
   0.72727273 -0.54545455 -0.36363636       0.036
   0.00000000  0.18181818  0.54545455       0.018
  -0.09090909  0.27272727  0.63636364       0.036
   0.81818182 -0.63636364 -0.27272727       0.036
   0.72727273 -0.54545455 -0.18181818       0.036
   0.63636364 -0.45454545 -0.09090909       0.036
   0.54545455 -0.36363636  0.00000000       0.018
   0.00000000  0.18181818  0.72727273       0.018
   0.90909091 -0.72727273 -0.18181818       0.036
   0.81818182 -0.63636364 -0.09090909       0.036
   0.72727273 -0.54545455 -0.00000000       0.018
   1.00000000 -0.81818182 -0.09090909       0.018
   0.90909091 -0.72727273 -0.00000000       0.018
   1.00000000 -0.63636364 -0.27272727       0.018
   0.90909091 -0.54545455 -0.18181818       0.036
   1.00000000 -0.63636364 -0.09090909       0.018
   0.90909091 -0.54545455 -0.00000000       0.018
 
 k-points in reciprocal lattice and weights: k-points                                
   0.00000000  0.00000000  0.00000000       0.001
   0.09090909  0.00000000  0.00000000       0.006
   0.18181818 -0.00000000  0.00000000       0.006
   0.27272727  0.00000000 -0.00000000       0.006
   0.36363636 -0.00000000  0.00000000       0.006
   0.45454545  0.00000000 -0.00000000       0.006
   0.09090909  0.09090909 -0.00000000       0.005
   0.18181818  0.09090909  0.00000000       0.018
   0.27272727  0.09090909  0.00000000       0.018
   0.36363636  0.09090909 -0.00000000       0.018
   0.45454545  0.09090909  0.00000000       0.018
  -0.45454545  0.09090909  0.00000000       0.018
  -0.36363636  0.09090909 -0.00000000       0.018
  -0.27272727  0.09090909 -0.00000000       0.018
  -0.18181818  0.09090909  0.00000000       0.018
  -0.09090909  0.09090909 -0.00000000       0.009
   0.18181818  0.18181818 -0.00000000       0.005
   0.27272727  0.18181818  0.00000000       0.018
   0.36363636  0.18181818  0.00000000       0.018
   0.45454545  0.18181818  0.00000000       0.018
  -0.45454545  0.18181818  0.00000000       0.018
  -0.36363636  0.18181818  0.00000000       0.018
  -0.27272727  0.18181818  0.00000000       0.018
  -0.18181818  0.18181818 -0.00000000       0.009
   0.27272727  0.27272727 -0.00000000       0.005
   0.36363636  0.27272727  0.00000000       0.018
   0.45454545  0.27272727 -0.00000000       0.018
  -0.45454545  0.27272727  0.00000000       0.018
  -0.36363636  0.27272727  0.00000000       0.018
  -0.27272727  0.27272727  0.00000000       0.009
   0.36363636  0.36363636 -0.00000000       0.005
   0.45454545  0.36363636 -0.00000000       0.018
  -0.45454545  0.36363636 -0.00000000       0.018
  -0.36363636  0.36363636 -0.00000000       0.009
   0.45454545  0.45454545 -0.00000000       0.005
  -0.45454545  0.45454545  0.00000000       0.009
   0.27272727  0.18181818  0.09090909       0.018
   0.36363636  0.18181818  0.09090909       0.036
   0.45454545  0.18181818  0.09090909       0.036
  -0.45454545  0.18181818  0.09090909       0.036
   0.36363636  0.27272727  0.09090909       0.018
   0.45454545  0.27272727  0.09090909       0.036
  -0.45454545  0.27272727  0.09090909       0.036
  -0.36363636  0.27272727  0.09090909       0.036
  -0.27272727  0.27272727  0.09090909       0.036
  -0.18181818  0.27272727  0.09090909       0.018
   0.45454545  0.36363636  0.09090909       0.018
  -0.45454545  0.36363636  0.09090909       0.036
  -0.36363636  0.36363636  0.09090909       0.036
  -0.27272727  0.36363636  0.09090909       0.018
  -0.45454545  0.45454545  0.09090909       0.018
  -0.36363636  0.45454545  0.09090909       0.018
  -0.45454545  0.36363636  0.18181818       0.018
  -0.36363636  0.36363636  0.18181818       0.036
  -0.36363636  0.45454545  0.18181818       0.018
  -0.27272727  0.45454545  0.18181818       0.018
 
 position of ions in fractional coordinates (direct lattice) 
   0.87500000  0.87500000  0.87500000
   0.12500000  0.12500000  0.12500000
 
 position of ions in cartesian coordinates  (Angst):
   4.81250000  4.81250000  4.81250000
   0.68750000  0.68750000  0.68750000
 


--------------------------------------------------------------------------------------------------------


 k-point   1 :   0.0000 0.0000 0.0000  plane waves:     339
 k-point   2 :   0.0909 0.0000 0.0000  plane waves:     335
 k-point   3 :   0.1818-0.0000 0.0000  plane waves:     344
 k-point   4 :   0.2727 0.0000-0.0000  plane waves:     350
 k-point   5 :   0.3636-0.0000 0.0000  plane waves:     353
 k-point   6 :   0.4545 0.0000-0.0000  plane waves:     356
 k-point   7 :   0.0909 0.0909-0.0000  plane waves:     335
 k-point   8 :   0.1818 0.0909 0.0000  plane waves:     345
 k-point   9 :   0.2727 0.0909 0.0000  plane waves:     343
 k-point  10 :   0.3636 0.0909-0.0000  plane waves:     349
 k-point  11 :   0.4545 0.0909 0.0000  plane waves:     347
 k-point  12 :  -0.4545 0.0909 0.0000  plane waves:     353
 k-point  13 :  -0.3636 0.0909-0.0000  plane waves:     352
 k-point  14 :  -0.2727 0.0909-0.0000  plane waves:     348
 k-point  15 :  -0.1818 0.0909 0.0000  plane waves:     351
 k-point  16 :  -0.0909 0.0909-0.0000  plane waves:     343
 k-point  17 :   0.1818 0.1818-0.0000  plane waves:     347
 k-point  18 :   0.2727 0.1818 0.0000  plane waves:     348
 k-point  19 :   0.3636 0.1818 0.0000  plane waves:     349
 k-point  20 :   0.4545 0.1818 0.0000  plane waves:     348
 k-point  21 :  -0.4545 0.1818 0.0000  plane waves:     360
 k-point  22 :  -0.3636 0.1818 0.0000  plane waves:     354
 k-point  23 :  -0.2727 0.1818 0.0000  plane waves:     351
 k-point  24 :  -0.1818 0.1818-0.0000  plane waves:     349
 k-point  25 :   0.2727 0.2727-0.0000  plane waves:     347
 k-point  26 :   0.3636 0.2727 0.0000  plane waves:     341
 k-point  27 :   0.4545 0.2727-0.0000  plane waves:     346
 k-point  28 :  -0.4545 0.2727 0.0000  plane waves:     359
 k-point  29 :  -0.3636 0.2727 0.0000  plane waves:     358
 k-point  30 :  -0.2727 0.2727 0.0000  plane waves:     351
 k-point  31 :   0.3636 0.3636-0.0000  plane waves:     351
 k-point  32 :   0.4545 0.3636-0.0000  plane waves:     348
 k-point  33 :  -0.4545 0.3636-0.0000  plane waves:     358
 k-point  34 :  -0.3636 0.3636-0.0000  plane waves:     351
 k-point  35 :   0.4545 0.4545-0.0000  plane waves:     343
 k-point  36 :  -0.4545 0.4545 0.0000  plane waves:     347
 k-point  37 :   0.2727 0.1818 0.0909  plane waves:     349
 k-point  38 :   0.3636 0.1818 0.0909  plane waves:     343
 k-point  39 :   0.4545 0.1818 0.0909  plane waves:     348
 k-point  40 :  -0.4545 0.1818 0.0909  plane waves:     354
 k-point  41 :   0.3636 0.2727 0.0909  plane waves:     346
 k-point  42 :   0.4545 0.2727 0.0909  plane waves:     345
 k-point  43 :  -0.4545 0.2727 0.0909  plane waves:     355
 k-point  44 :  -0.3636 0.2727 0.0909  plane waves:     359
 k-point  45 :  -0.2727 0.2727 0.0909  plane waves:     355
 k-point  46 :  -0.1818 0.2727 0.0909  plane waves:     350
 k-point  47 :   0.4545 0.3636 0.0909  plane waves:     342
 k-point  48 :  -0.4545 0.3636 0.0909  plane waves:     349
 k-point  49 :  -0.3636 0.3636 0.0909  plane waves:     356
 k-point  50 :  -0.2727 0.3636 0.0909  plane waves:     355
 k-point  51 :  -0.4545 0.4545 0.0909  plane waves:     357
 k-point  52 :  -0.3636 0.4545 0.0909  plane waves:     357
 k-point  53 :  -0.4545 0.3636 0.1818  plane waves:     349
 k-point  54 :  -0.3636 0.3636 0.1818  plane waves:     359
 k-point  55 :  -0.3636 0.4545 0.1818  plane waves:     355
 k-point  56 :  -0.2727 0.4545 0.1818  plane waves:     355

 maximum and minimum number of plane-waves per node :       360      335

 maximum number of plane-waves:       360
 maximum index in each direction: 
   IXMAX=    5   IYMAX=    4   IZMAX=    4
   IXMIN=   -5   IYMIN=   -5   IZMIN=   -5


 serial   3D FFT for wavefunctions
 parallel 3D FFT for charge:
    minimum data exchange during FFTs selected (reduces bandwidth)


 total amount of memory used by VASP MPI-rank0    32859. kBytes
=======================================================================

   base      :      30000. kBytes
   nonl-proj :       1301. kBytes
   fftplans  :        302. kBytes
   grid      :        577. kBytes
   one-center:          6. kBytes
   wavefun   :        673. kBytes
 
     INWAV:  cpu time      0.0000: real time      0.0001
 Broyden mixing: mesh for mixing (old mesh)
   NGX =  9   NGY =  9   NGZ =  9
  (NGX  = 32   NGY  = 32   NGZ  = 32)
  gives a total of    729 points

 initial charge density was supplied:
 charge density of overlapping atoms calculated
 number of electron       8.0000000 magnetization 
 keeping initial charge density in first step


--------------------------------------------------------------------------------------------------------


 Maximum index for augmentation-charges          805 (set IRDMAX)


--------------------------------------------------------------------------------------------------------


 First call to EWALD:  gamma=   0.512
 Maximum number of real-space cells 3x 3x 3
 Maximum number of reciprocal cells 3x 3x 3

    FEWALD:  cpu time      0.0015: real time      0.0015


--------------------------------------- Iteration      1(   1)  ---------------------------------------


    POTLOK:  cpu time      0.0047: real time      0.0054
    SETDIJ:  cpu time      0.0016: real time      0.0018
     EDDAV:  cpu time      0.0768: real time      0.0775
       DOS:  cpu time      0.0007: real time      0.0009
    --------------------------------------------
      LOOP:  cpu time      0.0839: real time      0.0856

 eigenvalue-minimisations  :   904
 total energy-change (2. order) :-0.1893437E+01  (-0.2004046E+03)
 number of electron       8.0000000 magnetization 
 augmentation part        8.0000000 magnetization 

 Free energy of the ion-electron system (eV)
  ---------------------------------------------------
  alpha Z        PSCENC =         3.23732588
  Ewald energy   TEWEN  =      -225.65453461
  -Hartree energ DENC   =       -11.58535014
  -exchange      EXHF   =         0.00000000
  -V(xc)+E(xc)   XCENC  =       -18.75116554
  PAW double counting   =       176.24759923     -141.06103558
  entropy T*S    EENTRO =        -0.00074188
  eigenvalues    EBANDS =         9.55291282
  atomic energy  EATOM  =       206.12155316
  Solvation  Ediel_sol  =         0.00000000
  ---------------------------------------------------
  free energy    TOTEN  =        -1.89343666 eV

  energy without entropy =       -1.89269479  energy(sigma->0) =       -1.89306573


--------------------------------------------------------------------------------------------------------




--------------------------------------- Iteration      1(   2)  ---------------------------------------


     EDDAV:  cpu time      0.1175: real time      0.1178
       DOS:  cpu time      0.0004: real time      0.0004
    --------------------------------------------
      LOOP:  cpu time      0.1179: real time      0.1183

 eigenvalue-minimisations  :  1440
 total energy-change (2. order) :-0.8999167E+01  (-0.8758611E+01)
 number of electron       8.0000000 magnetization 
 augmentation part        8.0000000 magnetization 

 Free energy of the ion-electron system (eV)
  ---------------------------------------------------
  alpha Z        PSCENC =         3.23732588
  Ewald energy   TEWEN  =      -225.65453461
  -Hartree energ DENC   =       -11.58535014
  -exchange      EXHF   =         0.00000000
  -V(xc)+E(xc)   XCENC  =       -18.75116554
  PAW double counting   =       176.24759923     -141.06103558
  entropy T*S    EENTRO =        -0.00000000
  eigenvalues    EBANDS =         0.55300367
  atomic energy  EATOM  =       206.12155316
  Solvation  Ediel_sol  =         0.00000000
  ---------------------------------------------------
  free energy    TOTEN  =       -10.89260393 eV

  energy without entropy =      -10.89260393  energy(sigma->0) =      -10.89260393


--------------------------------------------------------------------------------------------------------




--------------------------------------- Iteration      1(   3)  ---------------------------------------


     EDDAV:  cpu time      0.0975: real time      0.0978
       DOS:  cpu time      0.0004: real time      0.0004
    --------------------------------------------
      LOOP:  cpu time      0.0979: real time      0.0982

 eigenvalue-minimisations  :  1208
 total energy-change (2. order) :-0.8794923E-01  (-0.8794923E-01)
 number of electron       8.0000000 magnetization 
 augmentation part        8.0000000 magnetization 

 Free energy of the ion-electron system (eV)
  ---------------------------------------------------
  alpha Z        PSCENC =         3.23732588
  Ewald energy   TEWEN  =      -225.65453461
  -Hartree energ DENC   =       -11.58535014
  -exchange      EXHF   =         0.00000000
  -V(xc)+E(xc)   XCENC  =       -18.75116554
  PAW double counting   =       176.24759923     -141.06103558
  entropy T*S    EENTRO =        -0.00000000
  eigenvalues    EBANDS =         0.46505444
  atomic energy  EATOM  =       206.12155316
  Solvation  Ediel_sol  =         0.00000000
  ---------------------------------------------------
  free energy    TOTEN  =       -10.98055317 eV

  energy without entropy =      -10.98055317  energy(sigma->0) =      -10.98055317


--------------------------------------------------------------------------------------------------------




--------------------------------------- Iteration      1(   4)  ---------------------------------------


     EDDAV:  cpu time      0.1103: real time      0.1106
       DOS:  cpu time      0.0004: real time      0.0004
    --------------------------------------------
      LOOP:  cpu time      0.1107: real time      0.1110

 eigenvalue-minimisations  :  1368
 total energy-change (2. order) :-0.1986316E-03  (-0.1986316E-03)
 number of electron       8.0000000 magnetization 
 augmentation part        8.0000000 magnetization 

 Free energy of the ion-electron system (eV)
  ---------------------------------------------------
  alpha Z        PSCENC =         3.23732588
  Ewald energy   TEWEN  =      -225.65453461
  -Hartree energ DENC   =       -11.58535014
  -exchange      EXHF   =         0.00000000
  -V(xc)+E(xc)   XCENC  =       -18.75116554
  PAW double counting   =       176.24759923     -141.06103558
  entropy T*S    EENTRO =        -0.00000000
  eigenvalues    EBANDS =         0.46485581
  atomic energy  EATOM  =       206.12155316
  Solvation  Ediel_sol  =         0.00000000
  ---------------------------------------------------
  free energy    TOTEN  =       -10.98075180 eV

  energy without entropy =      -10.98075180  energy(sigma->0) =      -10.98075180


--------------------------------------------------------------------------------------------------------




--------------------------------------- Iteration      1(   5)  ---------------------------------------


     EDDAV:  cpu time      0.0999: real time      0.1002
       DOS:  cpu time      0.0005: real time      0.0005
    CHARGE:  cpu time      0.0033: real time      0.0036
    MIXING:  cpu time      0.0007: real time      0.0008
    --------------------------------------------
      LOOP:  cpu time      0.1043: real time      0.1051

 eigenvalue-minimisations  :  1256
 total energy-change (2. order) :-0.1130719E-06  (-0.1130965E-06)
 number of electron       8.0000001 magnetization 
 augmentation part       -0.4671975 magnetization 

 Broyden mixing:
  rms(total) = 0.51883E+00    rms(broyden)= 0.51881E+00
  rms(prec ) = 0.93796E+00
  weight for this iteration     100.00

 Free energy of the ion-electron system (eV)
  ---------------------------------------------------
  alpha Z        PSCENC =         3.23732588
  Ewald energy   TEWEN  =      -225.65453461
  -Hartree energ DENC   =       -11.58535014
  -exchange      EXHF   =         0.00000000
  -V(xc)+E(xc)   XCENC  =       -18.75116554
  PAW double counting   =       176.24759923     -141.06103558
  entropy T*S    EENTRO =        -0.00000000
  eigenvalues    EBANDS =         0.46485570
  atomic energy  EATOM  =       206.12155316
  Solvation  Ediel_sol  =         0.00000000
  ---------------------------------------------------
  free energy    TOTEN  =       -10.98075191 eV

  energy without entropy =      -10.98075191  energy(sigma->0) =      -10.98075191


--------------------------------------------------------------------------------------------------------




--------------------------------------- Iteration      1(   6)  ---------------------------------------


    POTLOK:  cpu time      0.0036: real time      0.0036
    SETDIJ:  cpu time      0.0011: real time      0.0011
     EDDAV:  cpu time      0.0836: real time      0.0838
       DOS:  cpu time      0.0005: real time      0.0005
    CHARGE:  cpu time      0.0030: real time      0.0030
    MIXING:  cpu time      0.0006: real time      0.0006
    --------------------------------------------
      LOOP:  cpu time      0.0923: real time      0.0927

 eigenvalue-minimisations  :  1064
 total energy-change (2. order) : 0.1084023E+00  (-0.6916358E-02)
 number of electron       8.0000001 magnetization 
 augmentation part       -0.4619293 magnetization 

 Broyden mixing:
  rms(total) = 0.31702E+00    rms(broyden)= 0.31702E+00
  rms(prec ) = 0.56104E+00
  weight for this iteration     100.00

 eigenvalues of (default mixing * dielectric matrix)
  average eigenvalue GAMMA=   2.5646
  2.5646

 Free energy of the ion-electron system (eV)
  ---------------------------------------------------
  alpha Z        PSCENC =         3.23732588
  Ewald energy   TEWEN  =      -225.65453461
  -Hartree energ DENC   =       -13.01578958
  -exchange      EXHF   =         0.00000000
  -V(xc)+E(xc)   XCENC  =       -18.52133453
  PAW double counting   =       405.66059978     -370.57273296
  entropy T*S    EENTRO =        -0.00000000
  eigenvalues    EBANDS =         1.87256321
  atomic energy  EATOM  =       206.12155316
  Solvation  Ediel_sol  =         0.00000000
  ---------------------------------------------------
  free energy    TOTEN  =       -10.87234965 eV

  energy without entropy =      -10.87234965  energy(sigma->0) =      -10.87234965


--------------------------------------------------------------------------------------------------------




--------------------------------------- Iteration      1(   7)  ---------------------------------------


    POTLOK:  cpu time      0.0036: real time      0.0037
    SETDIJ:  cpu time      0.0011: real time      0.0011
     EDDAV:  cpu time      0.0867: real time      0.0869
       DOS:  cpu time      0.0005: real time      0.0005
    CHARGE:  cpu time      0.0029: real time      0.0029
    MIXING:  cpu time      0.0004: real time      0.0004
    --------------------------------------------
      LOOP:  cpu time      0.0953: real time      0.0955

 eigenvalue-minimisations  :  1120
 total energy-change (2. order) : 0.5053987E-01  (-0.1357494E-01)
 number of electron       8.0000001 magnetization 
 augmentation part       -0.4555347 magnetization 

 Broyden mixing:
  rms(total) = 0.16275E-01    rms(broyden)= 0.16274E-01
  rms(prec ) = 0.38510E-01
  weight for this iteration     100.00

 eigenvalues of (default mixing * dielectric matrix)
  average eigenvalue GAMMA=   2.0356
  1.6722  2.3990

 Free energy of the ion-electron system (eV)
  ---------------------------------------------------
  alpha Z        PSCENC =         3.23732588
  Ewald energy   TEWEN  =      -225.65453461
  -Hartree energ DENC   =       -15.38764408
  -exchange      EXHF   =         0.00000000
  -V(xc)+E(xc)   XCENC  =       -18.13480911
  PAW double counting   =       973.31487737     -938.35538504
  entropy T*S    EENTRO =        -0.00000001
  eigenvalues    EBANDS =         4.03680668
  atomic energy  EATOM  =       206.12155316
  Solvation  Ediel_sol  =         0.00000000
  ---------------------------------------------------
  free energy    TOTEN  =       -10.82180979 eV

  energy without entropy =      -10.82180977  energy(sigma->0) =      -10.82180978


--------------------------------------------------------------------------------------------------------




--------------------------------------- Iteration      1(   8)  ---------------------------------------


    POTLOK:  cpu time      0.0036: real time      0.0036
    SETDIJ:  cpu time      0.0011: real time      0.0011
     EDDAV:  cpu time      0.0717: real time      0.0719
       DOS:  cpu time      0.0005: real time      0.0005
    CHARGE:  cpu time      0.0029: real time      0.0029
    MIXING:  cpu time      0.0004: real time      0.0004
    --------------------------------------------
      LOOP:  cpu time      0.0802: real time      0.0805

 eigenvalue-minimisations  :   944
 total energy-change (2. order) :-0.1034684E-02  (-0.3297197E-03)
 number of electron       8.0000001 magnetization 
 augmentation part       -0.4564233 magnetization 

 Broyden mixing:
  rms(total) = 0.70572E-02    rms(broyden)= 0.70567E-02
  rms(prec ) = 0.13233E-01
  weight for this iteration     100.00

 eigenvalues of (default mixing * dielectric matrix)
  average eigenvalue GAMMA=   2.2190
  2.8419  1.9075  1.9075

 Free energy of the ion-electron system (eV)
  ---------------------------------------------------
  alpha Z        PSCENC =         3.23732588
  Ewald energy   TEWEN  =      -225.65453461
  -Hartree energ DENC   =       -15.31490225
  -exchange      EXHF   =         0.00000000
  -V(xc)+E(xc)   XCENC  =       -18.13675763
  PAW double counting   =       974.16901473     -939.18421856
  entropy T*S    EENTRO =        -0.00000001
  eigenvalues    EBANDS =         3.93967482
  atomic energy  EATOM  =       206.12155316
  Solvation  Ediel_sol  =         0.00000000
  ---------------------------------------------------
  free energy    TOTEN  =       -10.82284447 eV

  energy without entropy =      -10.82284446  energy(sigma->0) =      -10.82284447


--------------------------------------------------------------------------------------------------------




--------------------------------------- Iteration      1(   9)  ---------------------------------------


    POTLOK:  cpu time      0.0037: real time      0.0037
    SETDIJ:  cpu time      0.0011: real time      0.0011
     EDDAV:  cpu time      0.1049: real time      0.1051
       DOS:  cpu time      0.0005: real time      0.0005
    CHARGE:  cpu time      0.0029: real time      0.0029
    MIXING:  cpu time      0.0003: real time      0.0003
    --------------------------------------------
      LOOP:  cpu time      0.1134: real time      0.1137

 eigenvalue-minimisations  :  1312
 total energy-change (2. order) :-0.2169694E-03  (-0.2202796E-04)
 number of electron       8.0000001 magnetization 
 augmentation part       -0.4565582 magnetization 

 Broyden mixing:
  rms(total) = 0.55700E-02    rms(broyden)= 0.55699E-02
  rms(prec ) = 0.63768E-02
  weight for this iteration     100.00

 eigenvalues of (default mixing * dielectric matrix)
  average eigenvalue GAMMA=   2.1024
  0.9467  2.5686  2.5686  2.3258

 Free energy of the ion-electron system (eV)
  ---------------------------------------------------
  alpha Z        PSCENC =         3.23732588
  Ewald energy   TEWEN  =      -225.65453461
  -Hartree energ DENC   =       -15.35869942
  -exchange      EXHF   =         0.00000000
  -V(xc)+E(xc)   XCENC  =       -18.12818758
  PAW double counting   =       977.02875093     -942.04082611
  entropy T*S    EENTRO =        -0.00000000
  eigenvalues    EBANDS =         3.97155632
  atomic energy  EATOM  =       206.12155316
  Solvation  Ediel_sol  =         0.00000000
  ---------------------------------------------------
  free energy    TOTEN  =       -10.82306144 eV

  energy without entropy =      -10.82306143  energy(sigma->0) =      -10.82306144


--------------------------------------------------------------------------------------------------------




--------------------------------------- Iteration      1(  10)  ---------------------------------------


    POTLOK:  cpu time      0.0036: real time      0.0037
    SETDIJ:  cpu time      0.0011: real time      0.0011
     EDDAV:  cpu time      0.0747: real time      0.0749
       DOS:  cpu time      0.0005: real time      0.0005
    CHARGE:  cpu time      0.0029: real time      0.0029
    MIXING:  cpu time      0.0003: real time      0.0003
    --------------------------------------------
      LOOP:  cpu time      0.0831: real time      0.0834

 eigenvalue-minimisations  :  1000
 total energy-change (2. order) :-0.2323755E-04  (-0.2632060E-05)
 number of electron       8.0000001 magnetization 
 augmentation part       -0.4565237 magnetization 

 Broyden mixing:
  rms(total) = 0.81394E-03    rms(broyden)= 0.81392E-03
  rms(prec ) = 0.91986E-03
  weight for this iteration     100.00

 eigenvalues of (default mixing * dielectric matrix)
  average eigenvalue GAMMA=   1.9168
  2.9276  2.4624  2.0597  1.0425  1.0920

 Free energy of the ion-electron system (eV)
  ---------------------------------------------------
  alpha Z        PSCENC =         3.23732588
  Ewald energy   TEWEN  =      -225.65453461
  -Hartree energ DENC   =       -15.36738770
  -exchange      EXHF   =         0.00000000
  -V(xc)+E(xc)   XCENC  =       -18.12795947
  PAW double counting   =       964.60985645     -929.62217354
  entropy T*S    EENTRO =        -0.00000000
  eigenvalues    EBANDS =         3.98023516
  atomic energy  EATOM  =       206.12155316
  Solvation  Ediel_sol  =         0.00000000
  ---------------------------------------------------
  free energy    TOTEN  =       -10.82308468 eV

  energy without entropy =      -10.82308467  energy(sigma->0) =      -10.82308467


--------------------------------------------------------------------------------------------------------




--------------------------------------- Iteration      1(  11)  ---------------------------------------


    POTLOK:  cpu time      0.0035: real time      0.0036
    SETDIJ:  cpu time      0.0011: real time      0.0011
     EDDAV:  cpu time      0.0470: real time      0.0471
       DOS:  cpu time      0.0005: real time      0.0005
    --------------------------------------------
      LOOP:  cpu time      0.0522: real time      0.0524

 eigenvalue-minimisations  :   552
 total energy-change (2. order) : 0.2356384E-06  (-0.5307305E-07)
 number of electron       8.0000001 magnetization 
 augmentation part       -0.4565237 magnetization 

 Free energy of the ion-electron system (eV)
  ---------------------------------------------------
  alpha Z        PSCENC =         3.23732588
  Ewald energy   TEWEN  =      -225.65453461
  -Hartree energ DENC   =       -15.36624297
  -exchange      EXHF   =         0.00000000
  -V(xc)+E(xc)   XCENC  =       -18.12800439
  PAW double counting   =       965.93237059     -930.94424346
  entropy T*S    EENTRO =        -0.00000000
  eigenvalues    EBANDS =         3.97869137
  atomic energy  EATOM  =       206.12155316
  Solvation  Ediel_sol  =         0.00000000
  ---------------------------------------------------
  free energy    TOTEN  =       -10.82308444 eV

  energy without entropy =      -10.82308444  energy(sigma->0) =      -10.82308444


--------------------------------------------------------------------------------------------------------




 average (electrostatic) potential at core
  the test charge radii are     0.9892
  (the norm of the test charge is              1.0000)
       1 -83.6750       2 -83.6750
 
 
 
 E-fermi :   5.7911     XC(G=0):  -9.2620     alpha+bet :-11.5327

 Fermi energy:         5.7911392644

 k-point     1 :       0.0000    0.0000    0.0000
  band No.  band energies     occupation 
      1      -6.2528      2.00000
      2       5.4592      2.00000
      3       5.4592      2.00000
      4       5.4592      2.00000
      5       8.0111      0.00000
      6       8.0111      0.00000
      7       8.0111      0.00000
      8       8.3876      0.00000

 k-point     2 :       0.0909    0.0000    0.0000
  band No.  band energies     occupation 
      1      -6.1480      2.00000
      2       4.4712      2.00000
      3       5.2984      2.00000
      4       5.2984      2.00000
      5       7.9591      0.00000
      6       8.2498      0.00000
      7       8.2498      0.00000
      8       9.2589      0.00000

 k-point     3 :       0.1818   -0.0000    0.0000
  band No.  band energies     occupation 
      1      -5.8380      2.00000
      2       2.8218      2.00000
      3       4.9657      2.00000
      4       4.9657      2.00000
      5       7.6247      0.00000
      6       8.7134      0.00000
      7       8.7135      0.00000
      8      10.8652      0.00000

 k-point     4 :       0.2727    0.0000   -0.0000
  band No.  band energies     occupation 
      1      -5.3394      2.00000
      2       1.2034      2.00000
      3       4.6482      2.00000
      4       4.6483      2.00000
      5       7.2790      0.00000
      6       8.9742      0.00000
      7       8.9743      0.00000
      8      12.4438      0.00000

 k-point     5 :       0.3636   -0.0000    0.0000
  band No.  band energies     occupation 
      1      -4.7038      2.00000
      2      -0.2107      2.00000
      3       4.4204      2.00000
      4       4.4204      2.00000
      5       7.0194      0.00000
      6       8.9380      0.00000
      7       8.9381      0.00000
      8      13.2508      0.00000

 k-point     6 :       0.4545    0.0000   -0.0000
  band No.  band energies     occupation 
      1      -4.1217      2.00000
      2      -1.1884      2.00000
      3       4.3039      2.00000
      4       4.3039      2.00000
      5       6.8833      0.00000
      6       8.8435      0.00000
      7       8.8435      0.00000
      8      13.1580      0.00000

 k-point     7 :       0.0909    0.0909   -0.0000
  band No.  band energies     occupation 
      1      -6.1129      2.00000
      2       4.6226      2.00000
      3       4.9857      2.00000
      4       4.9857      2.00000
      5       7.7014      0.00000
      6       8.6588      0.00000
      7       8.6588      0.00000
      8       9.1600      0.00000

 k-point     8 :       0.1818    0.0909    0.0000
  band No.  band energies     occupation 
      1      -5.8705      2.00000
      2       3.2966      2.00000
      3       4.5995      2.00000
      4       4.7631      2.00000
      5       7.7310      0.00000
      6       8.6379      0.00000
      7       9.2361      0.00000
      8      10.2331      0.00000

 k-point     9 :       0.2727    0.0909    0.0000
  band No.  band energies     occupation 
      1      -5.4321      2.00000
      2       1.7180      2.00000
      3       4.2873      2.00000
      4       4.3966      2.00000
      5       7.8133      0.00000
      6       8.6680      0.00000
      7       9.5947      0.00000
      8      10.7806      0.00000

 k-point    10 :       0.3636    0.0909   -0.0000
  band No.  band energies     occupation 
      1      -4.8323      2.00000
      2       0.2532      2.00000
      3       4.0229      2.00000
      4       4.1027      2.00000
      5       7.6343      0.00000
      6       8.7550      0.00000
      7       9.5495      0.00000
      8      11.5405      0.00000

 k-point    11 :       0.4545    0.0909    0.0000
  band No.  band energies     occupation 
      1      -4.1907      2.00000
      2      -0.8991      2.00000
      3       3.7330      2.00000
      4       4.0609      2.00000
      5       7.4860      0.00000
      6       8.7392      0.00000
      7       9.3331      0.00000
      8      12.7473      0.00000

 k-point    12 :      -0.4545    0.0909    0.0000
  band No.  band energies     occupation 
      1      -3.9353      2.00000
      2      -1.2830      2.00000
      3       3.5619      2.00000
      4       4.1567      2.00000
      5       7.4508      0.00000
      6       8.8032      0.00000
      7       9.1541      0.00000
      8      13.4426      0.00000

 k-point    13 :      -0.3636    0.0909   -0.0000
  band No.  band energies     occupation 
      1      -4.3947      2.00000
      2      -0.5648      2.00000
      3       3.5308      2.00000
      4       4.3765      2.00000
      5       7.5468      0.00000
      6       8.9885      0.00000
      7       9.0707      0.00000
      8      13.1034      0.00000

 k-point    14 :      -0.2727    0.0909   -0.0000
  band No.  band energies     occupation 
      1      -5.0476      2.00000
      2       0.7216      2.00000
      3       3.6540      2.00000
      4       4.6916      2.00000
      5       7.7589      0.00000
      6       8.9872      0.00000
      7       9.1821      0.00000
      8      12.0352      0.00000

 k-point    15 :      -0.1818    0.0909    0.0000
  band No.  band energies     occupation 
      1      -5.5999      2.00000
      2       2.2277      2.00000
      3       3.9497      2.00000
      4       5.0467      2.00000
      5       8.0523      0.00000
      6       8.6947      0.00000
      7       9.0338      0.00000
      8      11.1178      0.00000

 k-point    16 :      -0.0909    0.0909   -0.0000
  band No.  band energies     occupation 
      1      -5.9746      2.00000
      2       3.6652      2.00000
      3       4.5046      2.00000
      4       5.3162      2.00000
      5       8.2800      0.00000
      6       8.3008      0.00000
      7       8.4567      0.00000
      8      10.1747      0.00000

 k-point    17 :       0.1818    0.1818   -0.0000
  band No.  band energies     occupation 
      1      -5.6959      2.00000
      2       3.1219      2.00000
      3       4.1786      2.00000
      4       4.1786      2.00000
      5       7.0733      0.00000
      6       9.4772      0.00000
      7       9.9717      0.00000
      8       9.9717      0.00000

 k-point    18 :       0.2727    0.1818    0.0000
  band No.  band energies     occupation 
      1      -5.3213      2.00000
      2       1.9982      2.00000
      3       3.7642      2.00000
      4       3.8442      2.00000
      5       7.1247      0.00000
      6       9.1173      0.00000
      7      10.2590      0.00000
      8      10.5488      0.00000

 k-point    19 :       0.3636    0.1818    0.0000
  band No.  band energies     occupation 
      1      -4.7696      2.00000
      2       0.6711      2.00000
      3       3.2416      2.00000
      4       3.6514      2.00000
      5       7.3579      0.00000
      6       9.4679      0.00000
      7      10.0638      0.00000
      8      10.6490      0.00000

 k-point    20 :       0.4545    0.1818    0.0000
  band No.  band energies     occupation 
      1      -4.1154      2.00000
      2      -0.5232      2.00000
      3       2.7766      2.00000
      4       3.6178      2.00000
      5       7.3971      0.00000
      6       9.8075      0.00000
      7      10.4165      0.00000
      8      10.6861      0.00000

 k-point    21 :      -0.4545    0.1818    0.0000
  band No.  band energies     occupation 
      1      -3.6566      2.00000
      2      -1.2027      2.00000
      3       2.4515      2.00000
      4       3.7427      2.00000
      5       7.4860      0.00000
      6       9.6913      0.00000
      7      10.1345      0.00000
      8      12.2707      0.00000

 k-point    22 :      -0.3636    0.1818    0.0000
  band No.  band energies     occupation 
      1      -3.9277      2.00000
      2      -0.8092      2.00000
      3       2.3074      2.00000
      4       4.0114      2.00000
      5       7.7187      0.00000
      6       9.6941      0.00000
      7       9.9081      0.00000
      8      13.0432      0.00000

 k-point    23 :      -0.2727    0.1818    0.0000
  band No.  band energies     occupation 
      1      -4.5721      2.00000
      2       0.2659      2.00000
      3       2.3954      2.00000
      4       4.3860      2.00000
      5       8.0585      0.00000
      6       9.6514      0.00000
      7       9.7574      0.00000
      8      11.6622      0.00000

 k-point    24 :      -0.1818    0.1818   -0.0000
  band No.  band energies     occupation 
      1      -5.1669      2.00000
      2       1.4210      2.00000
      3       2.8733      2.00000
      4       4.7868      2.00000
      5       8.3509      0.00000
      6       9.1632      0.00000
      7       9.4516      0.00000
      8      11.0000      0.00000

 k-point    25 :       0.2727    0.2727   -0.0000
  band No.  band energies     occupation 
      1      -5.0100      2.00000
      2       1.5298      2.00000
      3       3.4773      2.00000
      4       3.4773      2.00000
      5       6.5032      0.00000
      6       8.2869      0.00000
      7      11.5011      0.00000
      8      11.5012      0.00000

 k-point    26 :       0.3636    0.2727    0.0000
  band No.  band energies     occupation 
      1      -4.5130      2.00000
      2       0.6015      2.00000
      3       2.9584      2.00000
      4       3.2515      2.00000
      5       6.6359      0.00000
      6       8.0067      0.00000
      7      11.7673      0.00000
      8      11.9712      0.00000

 k-point    27 :       0.4545    0.2727   -0.0000
  band No.  band energies     occupation 
      1      -3.8768      2.00000
      2      -0.3943      2.00000
      3       2.2559      2.00000
      4       3.1904      2.00000
      5       6.8403      0.00000
      6       8.7307      0.00000
      7      11.5942      0.00000
      8      11.8575      0.00000

 k-point    28 :      -0.4545    0.2727    0.0000
  band No.  band energies     occupation 
      1      -3.2897      2.00000
      2      -1.1636      2.00000
      3       1.7014      2.00000
      4       3.2979      2.00000
      5       6.9702      0.00000
      6      10.1814      0.00000
      7      11.4154      0.00000
      8      11.5412      0.00000

 k-point    29 :      -0.3636    0.2727    0.0000
  band No.  band energies     occupation 
      1      -3.3452      2.00000
      2      -1.0860      2.00000
      3       1.4288      2.00000
      4       3.5631      2.00000
      5       7.2468      0.00000
      6      11.1847      0.00000
      7      11.2075      0.00000
      8      12.0528      0.00000

 k-point    30 :      -0.2727    0.2727    0.0000
  band No.  band energies     occupation 
      1      -3.9542      2.00000
      2      -0.3527      2.00000
      3       1.5875      2.00000
      4       3.9524      2.00000
      5       7.6676      0.00000
      6      10.5830      0.00000
      7      10.9444      0.00000
      8      11.6862      0.00000

 k-point    31 :       0.3636    0.3636   -0.0000
  band No.  band energies     occupation 
      1      -4.0705      2.00000
      2      -0.0464      2.00000
      3       2.9835      2.00000
      4       2.9835      2.00000
      5       6.1635      0.00000
      6       7.1847      0.00000
      7      13.1234      0.00000
      8      13.1234      0.00000

 k-point    32 :       0.4545    0.3636   -0.0000
  band No.  band energies     occupation 
      1      -3.4691      2.00000
      2      -0.8386      2.00000
      3       2.4727      2.00000
      4       2.8810      2.00000
      5       6.3727      0.00000
      6       7.1880      0.00000
      7      13.4293      0.00000
      8      13.4624      0.00000

 k-point    33 :      -0.4545    0.3636   -0.0000
  band No.  band energies     occupation 
      1      -2.8210      2.00000
      2      -1.5336      2.00000
      3       1.7285      2.00000
      4       2.9511      2.00000
      5       6.5424      0.00000
      6       8.3345      0.00000
      7      13.1877      0.00000
      8      13.2858      0.00000

 k-point    34 :      -0.3636    0.3636   -0.0000
  band No.  band energies     occupation 
      1      -2.7661      2.00000
      2      -1.5590      2.00000
      3       1.2638      2.00000
      4       3.1877      2.00000
      5       6.8103      0.00000
      6      10.0233      0.00000
      7      12.5079      0.00000
      8      13.0460      0.00000

 k-point    35 :       0.4545    0.4545   -0.0000
  band No.  band energies     occupation 
      1      -2.9029      2.00000
      2      -1.5446      2.00000
      3       2.7318      2.00000
      4       2.7318      2.00000
      5       6.1345      0.00000
      6       6.4629      0.00000
      7      14.7662      0.00000
      8      14.7662      0.00000

 k-point    36 :      -0.4545    0.4545    0.0000
  band No.  band energies     occupation 
      1      -2.2806      2.00000
      2      -2.1683      2.00000
      3       2.3122      2.00000
      4       2.7559      2.00000
      5       6.3157      0.00000
      6       6.8780      0.00000
      7      14.6769      0.00000
      8      14.8724      0.00000

 k-point    37 :       0.2727    0.1818    0.0909
  band No.  band energies     occupation 
      1      -5.5625      2.00000
      2       2.4407      2.00000
      3       3.6911      2.00000
      4       4.6539      2.00000
      5       7.7922      0.00000
      6       8.9417      0.00000
      7       9.7710      0.00000
      8      10.2148      0.00000

 k-point    38 :       0.3636    0.1818    0.0909
  band No.  band energies     occupation 
      1      -5.0666      2.00000
      2       1.1589      2.00000
      3       3.1373      2.00000
      4       4.3459      2.00000
      5       8.0873      0.00000
      6       8.9297      0.00000
      7      10.1120      0.00000
      8      10.3375      0.00000

 k-point    39 :       0.4545    0.1818    0.0909
  band No.  band energies     occupation 
      1      -4.4322      2.00000
      2      -0.1397      2.00000
      3       2.8777      2.00000
      4       4.0153      2.00000
      5       8.0940      0.00000
      6       8.7957      0.00000
      7      10.1996      0.00000
      8      11.1573      0.00000

 k-point    40 :      -0.4545    0.1818    0.0909
  band No.  band energies     occupation 
      1      -3.8451      2.00000
      2      -1.0834      2.00000
      3       2.7752      2.00000
      4       3.8135      2.00000
      5       8.0494      0.00000
      6       8.6293      0.00000
      7      10.1422      0.00000
      8      12.5798      0.00000

 k-point    41 :       0.3636    0.2727    0.0909
  band No.  band energies     occupation 
      1      -4.8866      2.00000
      2       1.1648      2.00000
      3       2.9963      2.00000
      4       3.6840      2.00000
      5       7.2497      0.00000
      6       8.7636      0.00000
      7      10.3590      0.00000
      8      11.3874      0.00000

 k-point    42 :       0.4545    0.2727    0.0909
  band No.  band energies     occupation 
      1      -4.2901      2.00000
      2       0.1175      2.00000
      3       2.4343      2.00000
      4       3.3844      2.00000
      5       7.6076      0.00000
      6       9.1712      0.00000
      7      10.0482      0.00000
      8      11.7783      0.00000

 k-point    43 :      -0.4545    0.2727    0.0909
  band No.  band energies     occupation 
      1      -3.6441      2.00000
      2      -0.8531      2.00000
      3       2.0550      2.00000
      4       3.2355      2.00000
      5       7.7397      0.00000
      6       9.6881      0.00000
      7      10.4819      0.00000
      8      11.7363      0.00000

 k-point    44 :      -0.3636    0.2727    0.0909
  band No.  band energies     occupation 
      1      -3.3912      2.00000
      2      -1.1856      2.00000
      3       1.8327      2.00000
      4       3.3214      2.00000
      5       7.9425      0.00000
      6       9.4258      0.00000
      7      11.6163      0.00000
      8      12.1536      0.00000

 k-point    45 :      -0.2727    0.2727    0.0909
  band No.  band energies     occupation 
      1      -3.8746      2.00000
      2      -0.5262      2.00000
      3       1.8293      2.00000
      4       3.6052      2.00000
      5       8.2848      0.00000
      6       9.2436      0.00000
      7      10.9261      0.00000
      8      11.5745      0.00000

 k-point    46 :      -0.1818    0.2727    0.0909
  band No.  band energies     occupation 
      1      -4.5249      2.00000
      2       0.4235      2.00000
      3       2.2010      2.00000
      4       4.0039      2.00000
      5       8.6908      0.00000
      6       8.8308      0.00000
      7      10.0857      0.00000
      8      11.1071      0.00000

 k-point    47 :       0.4545    0.3636    0.0909
  band No.  band energies     occupation 
      1      -3.9658      2.00000
      2      -0.1792      2.00000
      3       2.5350      2.00000
      4       2.9143      2.00000
      5       6.9088      0.00000
      6       7.7668      0.00000
      7      11.7106      0.00000
      8      13.0950      0.00000

 k-point    48 :      -0.4545    0.3636    0.0909
  band No.  band energies     occupation 
      1      -3.3099      2.00000
      2      -0.9784      2.00000
      3       1.9181      2.00000
      4       2.7429      2.00000
      5       7.2532      0.00000
      6       8.5510      0.00000
      7      11.3690      0.00000
      8      13.4421      0.00000

 k-point    49 :      -0.3636    0.3636    0.0909
  band No.  band energies     occupation 
      1      -2.8631      2.00000
      2      -1.4570      2.00000
      3       1.4178      2.00000
      4       2.8544      2.00000
      5       7.4618      0.00000
      6      10.0953      0.00000
      7      11.0681      0.00000
      8      12.6369      0.00000

 k-point    50 :      -0.2727    0.3636    0.0909
  band No.  band energies     occupation 
      1      -3.2355      2.00000
      2      -1.0675      2.00000
      3       1.3175      2.00000
      4       3.1659      2.00000
      5       7.8192      0.00000
      6      10.4882      0.00000
      7      11.1899      0.00000
      8      12.0761      0.00000

 k-point    51 :      -0.4545    0.4545    0.0909
  band No.  band energies     occupation 
      1      -2.8339      2.00000
      2      -1.5445      2.00000
      3       2.3492      2.00000
      4       2.4681      2.00000
      5       6.8482      0.00000
      6       7.1208      0.00000
      7      13.2122      0.00000
      8      14.5457      0.00000

 k-point    52 :      -0.3636    0.4545    0.0909
  band No.  band energies     occupation 
      1      -2.3513      2.00000
      2      -1.9759      2.00000
      3       1.7209      2.00000
      4       2.5377      2.00000
      5       7.1256      0.00000
      6       8.3447      0.00000
      7      12.7718      0.00000
      8      12.9964      0.00000

 k-point    53 :      -0.4545    0.3636    0.1818
  band No.  band energies     occupation 
      1      -3.6688      2.00000
      2      -0.5594      2.00000
      3       1.8074      2.00000
      4       2.9400      2.00000
      5       8.5246      0.00000
      6       9.1950      0.00000
      7       9.6692      0.00000
      8      13.0031      0.00000

 k-point    54 :      -0.3636    0.3636    0.1818
  band No.  band energies     occupation 
      1      -3.0594      2.00000
      2      -1.2378      2.00000
      3       1.5362      2.00000
      4       2.6329      2.00000
      5       8.9074      0.00000
      6       9.2284      0.00000
      7      10.4742      0.00000
      8      12.3003      0.00000

 k-point    55 :      -0.3636    0.4545    0.1818
  band No.  band energies     occupation 
      1      -2.6587      2.00000
      2      -1.5900      2.00000
      3       1.7629      2.00000
      4       2.1341      2.00000
      5       8.4512      0.00000
      6       8.6645      0.00000
      7      10.9703      0.00000
      8      12.5320      0.00000

 k-point    56 :      -0.2727    0.4545    0.1818
  band No.  band energies     occupation 
      1      -2.4691      2.00000
      2      -1.7485      2.00000
      3       1.4968      2.00000
      4       2.1690      2.00000
      5       8.7988      0.00000
      6      10.0829      0.00000
      7      10.7205      0.00000
      8      10.7514      0.00000


--------------------------------------------------------------------------------------------------------


 soft charge-density along one line, spin component           1
         0         1         2         3         4         5         6         7         8         9
 total charge-density along one line
 
 pseudopotential strength for first ion, spin component:           1
 18.459  25.753  -0.000  -0.000  -0.000  -0.000  -0.000  -0.000
 25.753  35.935  -0.000  -0.000  -0.000  -0.000  -0.000  -0.000
 -0.000  -0.000   4.183  -0.000  -0.000   7.796  -0.000  -0.000
 -0.000  -0.000  -0.000   4.183  -0.000  -0.000   7.796  -0.000
 -0.000  -0.000  -0.000  -0.000   4.183  -0.000  -0.000   7.796
 -0.000  -0.000   7.796  -0.000  -0.000  14.538  -0.000  -0.000
 -0.000  -0.000  -0.000   7.796  -0.000  -0.000  14.538  -0.000
 -0.000  -0.000  -0.000  -0.000   7.796  -0.000  -0.000  14.538
 total augmentation occupancy for first ion, spin component:           1
  5.840  -2.223   0.000   0.000  -0.000  -0.000  -0.000   0.000
 -2.223   0.956   0.000   0.000  -0.000   0.000   0.000  -0.000
 -0.000  -0.000   3.281  -0.000   0.000  -0.799   0.000  -0.000
 -0.000  -0.000  -0.000   3.281   0.000   0.000  -0.799   0.000
  0.000  -0.000   0.000   0.000   3.281   0.000  -0.000  -0.799
  0.000  -0.000  -0.799  -0.000   0.000   0.202   0.000   0.000
 -0.000   0.000  -0.000  -0.799   0.000   0.000   0.202  -0.000
  0.000  -0.000  -0.000   0.000  -0.799  -0.000   0.000   0.202


------------------------ aborting loop because EDIFF is reached ----------------------------------------


    CHARGE:  cpu time      0.0029: real time      0.0029
    FORLOC:  cpu time      0.0003: real time      0.0004
    FORNL :  cpu time      0.0046: real time      0.0047
    STRESS:  cpu time      0.0755: real time      0.0757
    FORCOR:  cpu time      0.0035: real time      0.0036
    FORHAR:  cpu time      0.0008: real time      0.0009
    MIXING:  cpu time      0.0003: real time      0.0003
    OFIELD:  cpu time      0.0000: real time      0.0000

  FORCE on cell =-STRESS in cart. coord.  units (eV):
  Direction    XX          YY          ZZ          XY          YZ          ZX
  --------------------------------------------------------------------------------------
  Alpha Z     3.23733     3.23733     3.23733
  Ewald     -75.21821   -75.21821   -75.21821     0.00000     0.00000    -0.00000
  Hartree     5.12271     5.12271     5.12271    -0.00000    -0.00000    -0.00000
  E(xc)     -25.16977   -25.16977   -25.16977     0.00001     0.00001     0.00001
  Local     -29.89094   -29.89094   -29.89094     0.00005     0.00005     0.00005
  n-local    78.30928    79.68582    73.96938     2.16956    -1.26117     0.52926
  augment   -11.60610   -11.60610   -11.60610    -0.00005    -0.00005    -0.00005
  Kinetic    57.93241    55.49465    53.90946     3.56881    -0.70547     1.03109
  Fock        0.00000     0.00000     0.00000     0.00000     0.00000     0.00000
  -------------------------------------------------------------------------------------
  Total      -0.42466    -0.42466    -0.42466     0.00000    -0.00000    -0.00000
  in kB     -16.35774   -16.35774   -16.35774     0.00000    -0.00000    -0.00000
  external pressure =      -16.36 kB  Pullay stress =        0.00 kB


 VOLUME and BASIS-vectors are now :
 -----------------------------------------------------------------------------
  energy-cutoff  :      240.00
  volume of cell :       41.59
      direct lattice vectors                 reciprocal lattice vectors
     0.000000000  2.750000000  2.750000000    -0.181818182  0.181818182  0.181818182
     2.750000000  0.000000000  2.750000000     0.181818182 -0.181818182  0.181818182
     2.750000000  2.750000000  0.000000000     0.181818182  0.181818182 -0.181818182

  length of vectors
     3.889087297  3.889087297  3.889087297     0.314918329  0.314918329  0.314918329


 FORCES acting on ions
    electron-ion (+dipol)            ewald-force                    non-local-force                 convergence-correction
 -----------------------------------------------------------------------------------------------
   0.422E-05 0.422E-05 0.432E-05   -.386E-15 0.509E-15 0.564E-15   0.460E-16 -.130E-16 -.408E-16   0.153E-06 0.153E-06 0.153E-06
   -.422E-05 -.422E-05 -.432E-05   0.608E-15 -.112E-14 -.912E-15   -.997E-17 -.204E-16 0.273E-16   -.153E-06 -.153E-06 -.153E-06
 -----------------------------------------------------------------------------------------------
   -.125E-12 -.324E-13 0.167E-13   0.223E-15 -.610E-15 -.348E-15   0.360E-16 -.334E-16 -.134E-16   0.214E-15 0.686E-15 0.637E-15
 
 
 POSITION                                       TOTAL-FORCE (eV/Angst)
 -----------------------------------------------------------------------------------
      4.81250      4.81250      4.81250        -0.000000     -0.000000     -0.000000
      0.68750      0.68750      0.68750         0.000000      0.000000      0.000000
 -----------------------------------------------------------------------------------
    total drift:                               -0.000000     -0.000000      0.000000


--------------------------------------------------------------------------------------------------------



  FREE ENERGIE OF THE ION-ELECTRON SYSTEM (eV)
  ---------------------------------------------------
  free  energy   TOTEN  =       -10.82308444 eV

  energy  without entropy=      -10.82308444  energy(sigma->0) =      -10.82308444
 


--------------------------------------------------------------------------------------------------------


    POTLOK:  cpu time      0.0049: real time      0.0049


--------------------------------------------------------------------------------------------------------




--------------------------------------------------------------------------------------------------------


    WAVPRE:  cpu time      0.0409: real time      0.0445
    FEWALD:  cpu time      0.0002: real time      0.0002
    GENKIN:  cpu time      0.0032: real time      0.0032
    ORTHCH:  cpu time      0.0050: real time      0.0051
     LOOP+:  cpu time      1.1825: real time      1.1922


--------------------------------------- Iteration      2(   1)  ---------------------------------------


    POTLOK:  cpu time      0.0033: real time      0.0034
    SETDIJ:  cpu time      0.0012: real time      0.0012
     EDDAV:  cpu time      0.0833: real time      0.0835
       DOS:  cpu time      0.0005: real time      0.0005
    CHARGE:  cpu time      0.0030: real time      0.0030
    MIXING:  cpu time      0.0003: real time      0.0003
    --------------------------------------------
      LOOP:  cpu time      0.0916: real time      0.0919

 eigenvalue-minimisations  :  1072
 total energy-change (2. order) :-0.7836630E-02  (-0.2089532E-01)
 number of electron       7.9999994 magnetization 
 augmentation part       -0.4545012 magnetization 

 Broyden mixing:
  rms(total) = 0.41617E-01    rms(broyden)= 0.41576E-01
  rms(prec ) = 0.10969E+00
  weight for this iteration     100.00

 Free energy of the ion-electron system (eV)
  ---------------------------------------------------
[...]
  band No.  band energies     occupation 
      1      -3.8217      2.00000
      2      -0.6821      2.00000
      3       2.4457      2.00000
      4       4.1768      2.00000
      5       7.9236      0.00000
      6       9.9292      0.00000
      7      10.1153      0.00000
      8      13.3289      0.00000

 k-point    23 :      -0.2727    0.1818    0.0000
  band No.  band energies     occupation 
      1      -4.4809      2.00000
      2       0.4169      2.00000
      3       2.5296      2.00000
      4       4.5589      2.00000
      5       8.2809      0.00000
      6       9.8659      0.00000
      7       9.9852      0.00000
      8      11.9392      0.00000

 k-point    24 :      -0.1818    0.1818   -0.0000
  band No.  band energies     occupation 
      1      -5.0871      2.00000
      2       1.5928      2.00000
      3       3.0104      2.00000
      4       4.9676      2.00000
      5       8.5954      0.00000
      6       9.3774      0.00000
      7       9.6766      0.00000
      8      11.2664      0.00000

 k-point    25 :       0.2727    0.2727   -0.0000
  band No.  band energies     occupation 
      1      -4.9282      2.00000
      2       1.7194      2.00000
      3       3.6292      2.00000
      4       3.6292      2.00000
      5       6.6723      0.00000
      6       8.4685      0.00000
      7      11.7590      0.00000
      8      11.7590      0.00000

 k-point    26 :       0.3636    0.2727    0.0000
  band No.  band energies     occupation 
      1      -4.4224      2.00000
      2       0.7761      2.00000
      3       3.1000      2.00000
      4       3.4001      2.00000
      5       6.8059      0.00000
      6       8.1827      0.00000
      7      12.0415      0.00000
      8      12.2275      0.00000

 k-point    27 :       0.4545    0.2727   -0.0000
  band No.  band energies     occupation 
      1      -3.7737      2.00000
      2      -0.2390      2.00000
      3       2.3838      2.00000
      4       3.3388      2.00000
      5       7.0082      0.00000
      6       8.9235      0.00000
      7      11.8756      0.00000
      8      12.0991      0.00000

 k-point    28 :      -0.4545    0.2727    0.0000
  band No.  band energies     occupation 
      1      -3.1719      2.00000
      2      -1.0270      2.00000
      3       1.8189      2.00000
      4       3.4488      2.00000
      5       7.1404      0.00000
      6      10.3903      0.00000
      7      11.7018      0.00000
      8      11.7740      0.00000

 k-point    29 :      -0.3636    0.2727    0.0000
  band No.  band energies     occupation 
      1      -3.2277      2.00000
      2      -0.9485      2.00000
      3       1.5392      2.00000
      4       3.7193      2.00000
      5       7.4252      0.00000
      6      11.4186      0.00000
      7      11.4481      0.00000
      8      12.3206      0.00000

 k-point    30 :      -0.2727    0.2727    0.0000
  band No.  band energies     occupation 
      1      -3.8506      2.00000
      2      -0.2004      2.00000
      3       1.6988      2.00000
      4       4.1163      2.00000
      5       7.8611      0.00000
      6      10.8183      0.00000
      7      11.1801      0.00000
      8      11.9837      0.00000

 k-point    31 :       0.3636    0.3636   -0.0000
  band No.  band energies     occupation 
      1      -3.9725      2.00000
      2       0.1203      2.00000
      3       3.1278      2.00000
      4       3.1278      2.00000
      5       6.3233      0.00000
      6       7.3447      0.00000
      7      13.4057      0.00000
      8      13.4057      0.00000

 k-point    32 :       0.4545    0.3636   -0.0000
  band No.  band energies     occupation 
      1      -3.3602      2.00000
      2      -0.6844      2.00000
      3       2.6037      2.00000
      4       3.0239      2.00000
      5       6.5326      0.00000
      6       7.3542      0.00000
      7      13.7285      0.00000
      8      13.7391      0.00000

 k-point    33 :      -0.4545    0.3636   -0.0000
  band No.  band energies     occupation 
      1      -2.6979      2.00000
      2      -1.3916      2.00000
      3       1.8402      2.00000
      4       3.0956      2.00000
      5       6.7020      0.00000
      6       8.5238      0.00000
      7      13.4558      0.00000
      8      13.5894      0.00000

 k-point    34 :      -0.3636    0.3636   -0.0000
  band No.  band energies     occupation 
      1      -2.6374      2.00000
      2      -1.4210      2.00000
      3       1.3640      2.00000
      4       3.3367      2.00000
      5       6.9761      0.00000
      6      10.2334      0.00000
      7      12.7758      0.00000
      8      13.3220      0.00000

 k-point    35 :       0.4545    0.4545   -0.0000
  band No.  band energies     occupation 
      1      -2.7846      2.00000
      2      -1.4028      2.00000
      3       2.8723      2.00000
      4       2.8723      2.00000
      5       6.2886      0.00000
      6       6.6162      0.00000
      7      15.0856      0.00000
      8      15.0857      0.00000

 k-point    36 :      -0.4545    0.4545    0.0000
  band No.  band energies     occupation 
      1      -2.1497      2.00000
      2      -2.0377      2.00000
      3       2.4401      2.00000
      4       2.8969      2.00000
      5       6.4700      0.00000
      6       7.0442      0.00000
      7      15.0000      0.00000
      8      15.2231      0.00000

 k-point    37 :       0.2727    0.1818    0.0909
  band No.  band energies     occupation 
      1      -5.4899      2.00000
      2       2.6264      2.00000
      3       3.8437      2.00000
      4       4.8334      2.00000
      5       7.9867      0.00000
      6       9.2132      0.00000
      7      10.0012      0.00000
      8      10.4258      0.00000

 k-point    38 :       0.3636    0.1818    0.0909
  band No.  band energies     occupation 
      1      -4.9850      2.00000
      2       1.3229      2.00000
      3       3.2853      2.00000
      4       4.5187      2.00000
      5       8.2946      0.00000
      6       9.1782      0.00000
      7      10.3338      0.00000
      8      10.5467      0.00000

 k-point    39 :       0.4545    0.1818    0.0909
  band No.  band energies     occupation 
      1      -4.3378      2.00000
      2      -0.0012      2.00000
      3       3.0275      2.00000
      4       4.1804      2.00000
      5       8.3195      0.00000
      6       8.9992      0.00000
      7      10.4288      0.00000
      8      11.3791      0.00000

 k-point    40 :      -0.4545    0.1818    0.0909
  band No.  band energies     occupation 
      1      -3.7359      2.00000
      2      -0.9661      2.00000
      3       2.9269      2.00000
      4       3.9734      2.00000
      5       8.2877      0.00000
      6       8.8089      0.00000
      7      10.3654      0.00000
      8      12.8284      0.00000

 k-point    41 :       0.3636    0.2727    0.0909
  band No.  band energies     occupation 
      1      -4.8023      2.00000
      2       1.3435      2.00000
      3       3.1371      2.00000
      4       3.8417      2.00000
      5       7.4330      0.00000
      6       8.9606      0.00000
      7      10.6027      0.00000
      8      11.6422      0.00000

 k-point    42 :       0.4545    0.2727    0.0909
  band No.  band energies     occupation 
      1      -4.1945      2.00000
      2       0.2773      2.00000
      3       2.5678      2.00000
      4       3.5341      2.00000
      5       7.7938      0.00000
      6       9.3709      0.00000
      7      10.2899      0.00000
      8      12.0346      0.00000

 k-point    43 :      -0.4545    0.2727    0.0909
  band No.  band energies     occupation 
      1      -3.5339      2.00000
      2      -0.7156      2.00000
      3       2.1854      2.00000
      4       3.3812      2.00000
      5       7.9270      0.00000
      6       9.9069      0.00000
      7      10.7157      0.00000
      8      11.9905      0.00000

 k-point    44 :      -0.3636    0.2727    0.0909
  band No.  band energies     occupation 
      1      -3.2734      2.00000
      2      -1.0576      2.00000
      3       1.9587      2.00000
      4       3.4693      2.00000
      5       8.1361      0.00000
      6       9.6418      0.00000
      7      11.8748      0.00000
      8      12.3934      0.00000

 k-point    45 :      -0.2727    0.2727    0.0909
  band No.  band energies     occupation 
      1      -3.7693      2.00000
      2      -0.3811      2.00000
      3       1.9508      2.00000
      4       3.7598      2.00000
      5       8.4907      0.00000
      6       9.4543      0.00000
      7      11.1692      0.00000
      8      11.8135      0.00000

 k-point    46 :      -0.1818    0.2727    0.0909
  band No.  band energies     occupation 
      1      -4.4333      2.00000
      2       0.5869      2.00000
      3       2.3254      2.00000
      4       4.1679      2.00000
      5       8.9180      0.00000
      6       9.0394      0.00000
      7      10.2982      0.00000
      8      11.3538      0.00000

 k-point    47 :       0.4545    0.3636    0.0909
  band No.  band energies     occupation 
      1      -3.8653      2.00000
      2      -0.0148      2.00000
      3       2.6678      2.00000
      4       3.0537      2.00000
      5       7.0832      0.00000
      6       7.9395      0.00000
      7      11.9738      0.00000
      8      13.3763      0.00000

 k-point    48 :      -0.4545    0.3636    0.0909
  band No.  band energies     occupation 
      1      -3.1961      2.00000
      2      -0.8272      2.00000
      3       2.0359      2.00000
      4       2.8784      2.00000
      5       7.4282      0.00000
      6       8.7418      0.00000
      7      11.6247      0.00000
      8      13.7337      0.00000

 k-point    49 :      -0.3636    0.3636    0.0909
  band No.  band energies     occupation 
      1      -2.7369      2.00000
      2      -1.3174      2.00000
      3       1.5235      2.00000
      4       2.9926      2.00000
      5       7.6404      0.00000
      6      10.3014      0.00000
      7      11.3227      0.00000
      8      12.9129      0.00000

 k-point    50 :      -0.2727    0.3636    0.0909
  band No.  band energies     occupation 
      1      -3.1169      2.00000
      2      -0.9218      2.00000
      3       1.4209      2.00000
      4       3.3108      2.00000
      5       8.0068      0.00000
      6      10.7112      0.00000
      7      11.4349      0.00000
      8      12.3231      0.00000

 k-point    51 :      -0.4545    0.4545    0.0909
  band No.  band energies     occupation 
      1      -2.7132      2.00000
      2      -1.4013      2.00000
      3       2.4782      2.00000
      4       2.5986      2.00000
      5       7.0170      0.00000
      6       7.2881      0.00000
      7      13.4935      0.00000
      8      14.8782      0.00000

 k-point    52 :      -0.3636    0.4545    0.0909
  band No.  band energies     occupation 
      1      -2.2180      2.00000
      2      -1.8413      2.00000
      3       1.8318      2.00000
      4       2.6699      2.00000
      5       7.2967      0.00000
      6       8.5346      0.00000
      7      13.0436      0.00000
      8      13.2734      0.00000

 k-point    53 :      -0.4545    0.3636    0.1818
  band No.  band energies     occupation 
      1      -3.5610      2.00000
      2      -0.4031      2.00000
      3       1.9233      2.00000
      4       3.0777      2.00000
      5       8.7247      0.00000
      6       9.3793      0.00000
      7       9.9150      0.00000
      8      13.2795      0.00000

 k-point    54 :      -0.3636    0.3636    0.1818
  band No.  band energies     occupation 
      1      -2.9376      2.00000
      2      -1.0943      2.00000
      3       1.6469      2.00000
      4       2.7630      2.00000
      5       9.0999      0.00000
      6       9.4454      0.00000
      7      10.7073      0.00000
      8      12.5610      0.00000

 k-point    55 :      -0.3636    0.4545    0.1818
  band No.  band energies     occupation 
      1      -2.5319      2.00000
      2      -1.4454      2.00000
      3       1.8756      2.00000
      4       2.2529      2.00000
      5       8.6454      0.00000
      6       8.8555      0.00000
      7      11.2184      0.00000
      8      12.7979      0.00000

 k-point    56 :      -0.2727    0.4545    0.1818
  band No.  band energies     occupation 
      1      -2.3364      2.00000
      2      -1.6074      2.00000
      3       1.6017      2.00000
      4       2.2889      2.00000
      5       8.9943      0.00000
      6      10.2767      0.00000
      7      10.9825      0.00000
      8      10.9940      0.00000


--------------------------------------------------------------------------------------------------------


 soft charge-density along one line, spin component           1
         0         1         2         3         4         5         6         7         8         9
 total charge-density along one line
 
 pseudopotential strength for first ion, spin component:           1
 18.438  25.724  -0.000  -0.000  -0.000  -0.000  -0.000  -0.000
 25.724  35.894  -0.000  -0.000  -0.000  -0.000  -0.000  -0.000
 -0.000  -0.000   4.181  -0.000  -0.000   7.792  -0.000  -0.000
 -0.000  -0.000  -0.000   4.181  -0.000  -0.000   7.792  -0.000
 -0.000  -0.000  -0.000  -0.000   4.181  -0.000  -0.000   7.792
 -0.000  -0.000   7.792  -0.000  -0.000  14.531  -0.000  -0.000
 -0.000  -0.000  -0.000   7.792  -0.000  -0.000  14.531  -0.000
 -0.000  -0.000  -0.000  -0.000   7.792  -0.000  -0.000  14.531
 total augmentation occupancy for first ion, spin component:           1
  5.963  -2.292  -0.000  -0.000   0.000   0.000  -0.000   0.000
 -2.292   0.990   0.000   0.000  -0.000   0.000  -0.000   0.000
 -0.000  -0.000   3.337  -0.000   0.000  -0.815   0.000  -0.000
 -0.000  -0.000  -0.000   3.337   0.000   0.000  -0.815  -0.000
  0.000   0.000   0.000   0.000   3.337  -0.000  -0.000  -0.815
  0.000   0.000  -0.815   0.000  -0.000   0.207  -0.000   0.000
  0.000   0.000   0.000  -0.815  -0.000  -0.000   0.207   0.000
  0.000   0.000  -0.000  -0.000  -0.815   0.000   0.000   0.207


------------------------ aborting loop because EDIFF is reached ----------------------------------------


    CHARGE:  cpu time      0.0029: real time      0.0029
    FORLOC:  cpu time      0.0002: real time      0.0002
    FORNL :  cpu time      0.0046: real time      0.0047
    STRESS:  cpu time      0.0755: real time      0.0756
    FORCOR:  cpu time      0.0035: real time      0.0035
    FORHAR:  cpu time      0.0008: real time      0.0008
    MIXING:  cpu time      0.0003: real time      0.0003
    OFIELD:  cpu time      0.0000: real time      0.0000

  FORCE on cell =-STRESS in cart. coord.  units (eV):
  Direction    XX          YY          ZZ          XY          YZ          ZX
  --------------------------------------------------------------------------------------
  Alpha Z     3.30013     3.30013     3.30013
  Ewald     -75.70150   -75.70150   -75.70150     0.00000    -0.00000     0.00000
  Hartree     5.04552     5.04552     5.04552    -0.00000    -0.00000    -0.00000
  E(xc)     -25.27793   -25.27793   -25.27793     0.00001     0.00001     0.00001
  Local     -29.61378   -29.61378   -29.61378     0.00005     0.00005     0.00005
  n-local    78.64025    80.02113    74.28523     2.20767    -1.28967     0.54537
  augment   -11.61114   -11.61114   -11.61114    -0.00005    -0.00005    -0.00005
  Kinetic    58.37338    55.77760    54.48459     3.56965    -0.67235     1.03333
  Fock        0.00000     0.00000     0.00000     0.00000     0.00000     0.00000
  -------------------------------------------------------------------------------------
  Total       0.00202     0.00202     0.00202    -0.00000     0.00000    -0.00000
  in kB       0.07947     0.07947     0.07947    -0.00000     0.00000    -0.00000
  external pressure =        0.08 kB  Pullay stress =        0.00 kB


 VOLUME and BASIS-vectors are now :
 -----------------------------------------------------------------------------
  energy-cutoff  :      240.00
  volume of cell :       40.80
      direct lattice vectors                 reciprocal lattice vectors
    -0.000000000  2.732443802  2.732443802    -0.182986380  0.182986380  0.182986380
     2.732443802 -0.000000000  2.732443802     0.182986380 -0.182986380  0.182986380
     2.732443802  2.732443802 -0.000000000     0.182986380  0.182986380 -0.182986380

  length of vectors
     3.864259083  3.864259083  3.864259083     0.316941707  0.316941707  0.316941707


 FORCES acting on ions
    electron-ion (+dipol)            ewald-force                    non-local-force                 convergence-correction
 -----------------------------------------------------------------------------------------------
   0.360E-05 0.360E-05 0.359E-05   0.252E-14 -.291E-15 -.115E-13   -.107E-16 0.135E-16 -.718E-17   -.472E-06 -.472E-06 -.472E-06
   -.360E-05 -.360E-05 -.359E-05   -.276E-14 0.322E-15 0.121E-13   0.422E-16 -.989E-17 0.470E-16   0.472E-06 0.472E-06 0.472E-06
 -----------------------------------------------------------------------------------------------
   -.125E-12 -.636E-13 0.242E-13   -.240E-15 0.312E-16 0.689E-15   0.314E-16 0.365E-17 0.398E-16   0.283E-15 -.551E-15 -.661E-15
 
 
 POSITION                                       TOTAL-FORCE (eV/Angst)
 -----------------------------------------------------------------------------------
      4.78178      4.78178      4.78178         0.000000      0.000000      0.000000
      0.68311      0.68311      0.68311        -0.000000     -0.000000     -0.000000
 -----------------------------------------------------------------------------------
    total drift:                               -0.000000     -0.000000      0.000000


--------------------------------------------------------------------------------------------------------



  FREE ENERGIE OF THE ION-ELECTRON SYSTEM (eV)
  ---------------------------------------------------
  free  energy   TOTEN  =       -10.82721759 eV

  energy  without entropy=      -10.82721757  energy(sigma->0) =      -10.82721758
 
 d Force = 0.0000000E+00[ 0.000E+00, 0.000E+00]  d Energy = 0.1574438E-02-0.157E-02
 d Force = 0.0000000E+00[ 0.000E+00, 0.000E+00]  d Ewald  =-0.8855300E+00 0.886E+00


--------------------------------------------------------------------------------------------------------


    POTLOK:  cpu time      0.0049: real time      0.0049


--------------------------------------------------------------------------------------------------------




--------------------------------------------------------------------------------------------------------


  
 reached required accuracy - stopping structural energy minimisation
 writing wavefunctions
     LOOP+:  cpu time      0.4511: real time      0.4562
    4ORBIT:  cpu time      0.0000: real time      0.0000

 total amount of memory used by VASP MPI-rank0    32859. kBytes
=======================================================================

   base      :      30000. kBytes
   nonl-proj :       1301. kBytes
   fftplans  :        302. kBytes
   grid      :        577. kBytes
   one-center:          6. kBytes
   wavefun   :        673. kBytes
 
  
  
 General timing and accounting informations for this job:
 ========================================================
  
                  Total CPU time used (sec):        2.441
                            User time (sec):        2.270
                          System time (sec):        0.171
                         Elapsed time (sec):        2.534
  
                   Maximum memory used (kb):       47976.
                   Average memory used (kb):          N/A
  
                          Minor page faults:        11661
                          Major page faults:            0
                 Voluntary context switches:         2542
