<?xml version="1.0" encoding="ISO-8859-1"?>
<modeling>
 <generator>
  <i name="program" type="string">vasp </i>
  <i name="version" type="string">6.3.0  </i>
  <i name="subversion" type="string">20Jan22 (build Feb 01 2022 16:52:37) complex                          parallel </i>
  <i name="platform" type="string">TETRA_NSC1 </i>
  <i name="date" type="string">2022 02 23 </i>
  <i name="time" type="string">11:09:26 </i>
 </generator>
 <incar>
  <i type="string" name="SYSTEM">diamond Si</i>
  <i type="int" name="IBRION">     2</i>
  <i name="EDIFF">      0.00001000</i>
  <i name="EDIFFG">     -0.01000000</i>
  <i type="int" name="NSW">    15</i>
  <i type="int" name="ISIF">     3</i>
  <i name="ENMAX">    240.00000000</i>
  <i type="int" name="ISMEAR">     0</i>
  <i name="SIGMA">      0.10000000</i>
 </incar>
 <primitive_cell>
  <structure name="primitive_cell" >
   <crystal>
    <varray name="basis" >
     <v>       0.00000000       2.75000000       2.75000000 </v>
     <v>       2.75000000       0.00000000       2.75000000 </v>
     <v>       2.75000000       2.75000000       0.00000000 </v>
    </varray>
    <i name="volume">     41.59375000 </i>
    <varray name="rec_basis" >
     <v>      -0.18181818       0.18181818       0.18181818 </v>
     <v>       0.18181818      -0.18181818       0.18181818 </v>
     <v>       0.18181818       0.18181818      -0.18181818 </v>
    </varray>
   </crystal>
   <varray name="positions" >
    <v>       0.87500000       0.87500000       0.87500000 </v>
    <v>       0.12500000       0.12500000       0.12500000 </v>
   </varray>
  </structure>
  <varray name="primitive_index" >
   <v type="int" >        1 </v>
   <v type="int" >        2 </v>
  </varray>
 </primitive_cell>
 <kpoints>
  <generation param="Monkhorst-Pack">
   <v type="int" name="divisions">      11       11       11 </v>
   <v name="usershift">      0.00000000       0.00000000       0.00000000 </v>
   <v name="genvec1">      0.09090909       0.00000000       0.00000000 </v>
   <v name="genvec2">      0.00000000       0.09090909       0.00000000 </v>
   <v name="genvec3">      0.00000000       0.00000000       0.09090909 </v>
   <v name="shift">      0.00000000       0.00000000       0.00000000 </v>
  </generation>
  <varray name="kpointlist" >
   <v>       0.00000000       0.00000000       0.00000000 </v>
   <v>       0.09090909       0.00000000       0.00000000 </v>
   <v>       0.18181818      -0.00000000       0.00000000 </v>
   <v>       0.27272727       0.00000000      -0.00000000 </v>
   <v>       0.36363636      -0.00000000       0.00000000 </v>
   <v>       0.45454545       0.00000000      -0.00000000 </v>
   <v>       0.09090909       0.09090909      -0.00000000 </v>
   <v>       0.18181818       0.09090909       0.00000000 </v>
   <v>       0.27272727       0.09090909       0.00000000 </v>
   <v>       0.36363636       0.09090909      -0.00000000 </v>
   <v>       0.45454545       0.09090909       0.00000000 </v>
   <v>      -0.45454545       0.09090909       0.00000000 </v>
   <v>      -0.36363636       0.09090909      -0.00000000 </v>
   <v>      -0.27272727       0.09090909      -0.00000000 </v>
   <v>      -0.18181818       0.09090909       0.00000000 </v>
   <v>      -0.09090909       0.09090909      -0.00000000 </v>
   <v>       0.18181818       0.18181818      -0.00000000 </v>
   <v>       0.27272727       0.18181818       0.00000000 </v>
   <v>       0.36363636       0.18181818       0.00000000 </v>
   <v>       0.45454545       0.18181818       0.00000000 </v>
   <v>      -0.45454545       0.18181818       0.00000000 </v>
   <v>      -0.36363636       0.18181818       0.00000000 </v>
   <v>      -0.27272727       0.18181818       0.00000000 </v>
   <v>      -0.18181818       0.18181818      -0.00000000 </v>
   <v>       0.27272727       0.27272727      -0.00000000 </v>
   <v>       0.36363636       0.27272727       0.00000000 </v>
   <v>       0.45454545       0.27272727      -0.00000000 </v>
   <v>      -0.45454545       0.27272727       0.00000000 </v>
   <v>      -0.36363636       0.27272727       0.00000000 </v>
   <v>      -0.27272727       0.27272727       0.00000000 </v>
   <v>       0.36363636       0.36363636      -0.00000000 </v>
   <v>       0.45454545       0.36363636      -0.00000000 </v>
   <v>      -0.45454545       0.36363636      -0.00000000 </v>
   <v>      -0.36363636       0.36363636      -0.00000000 </v>
   <v>       0.45454545       0.45454545      -0.00000000 </v>
   <v>      -0.45454545       0.45454545       0.00000000 </v>
   <v>       0.27272727       0.18181818       0.09090909 </v>
   <v>       0.36363636       0.18181818       0.09090909 </v>
   <v>       0.45454545       0.18181818       0.09090909 </v>
   <v>      -0.45454545       0.18181818       0.09090909 </v>
   <v>       0.36363636       0.27272727       0.09090909 </v>
   <v>       0.45454545       0.27272727       0.09090909 </v>
   <v>      -0.45454545       0.27272727       0.09090909 </v>
   <v>      -0.36363636       0.27272727       0.09090909 </v>
   <v>      -0.27272727       0.27272727       0.09090909 </v>
   <v>      -0.18181818       0.27272727       0.09090909 </v>
   <v>       0.45454545       0.36363636       0.09090909 </v>
   <v>      -0.45454545       0.36363636       0.09090909 </v>
   <v>      -0.36363636       0.36363636       0.09090909 </v>
   <v>      -0.27272727       0.36363636       0.09090909 </v>
   <v>      -0.45454545       0.45454545       0.09090909 </v>
   <v>      -0.36363636       0.45454545       0.09090909 </v>
   <v>      -0.45454545       0.36363636       0.18181818 </v>
   <v>      -0.36363636       0.36363636       0.18181818 </v>
   <v>      -0.36363636       0.45454545       0.18181818 </v>
   <v>      -0.27272727       0.45454545       0.18181818 </v>
  </varray>
  <varray name="weights" >
   <v>       0.00075131 </v>
   <v>       0.00601052 </v>
   <v>       0.00601052 </v>
   <v>       0.00601052 </v>
   <v>       0.00601052 </v>
   <v>       0.00601052 </v>
   <v>       0.00450789 </v>
   <v>       0.01803156 </v>
   <v>       0.01803156 </v>
   <v>       0.01803156 </v>
   <v>       0.01803156 </v>
   <v>       0.01803156 </v>
   <v>       0.01803156 </v>
   <v>       0.01803156 </v>
   <v>       0.01803156 </v>
   <v>       0.00901578 </v>
   <v>       0.00450789 </v>
   <v>       0.01803156 </v>
   <v>       0.01803156 </v>
   <v>       0.01803156 </v>
   <v>       0.01803156 </v>
   <v>       0.01803156 </v>
   <v>       0.01803156 </v>
   <v>       0.00901578 </v>
   <v>       0.00450789 </v>
   <v>       0.01803156 </v>
   <v>       0.01803156 </v>
   <v>       0.01803156 </v>
   <v>       0.01803156 </v>
   <v>       0.00901578 </v>
   <v>       0.00450789 </v>
   <v>       0.01803156 </v>
   <v>       0.01803156 </v>
   <v>       0.00901578 </v>
   <v>       0.00450789 </v>
   <v>       0.00901578 </v>
   <v>       0.01803156 </v>
   <v>       0.03606311 </v>
   <v>       0.03606311 </v>
   <v>       0.03606311 </v>
   <v>       0.01803156 </v>
   <v>       0.03606311 </v>
   <v>       0.03606311 </v>
   <v>       0.03606311 </v>
   <v>       0.03606311 </v>
   <v>       0.01803156 </v>
   <v>       0.01803156 </v>
   <v>       0.03606311 </v>
   <v>       0.03606311 </v>
   <v>       0.01803156 </v>
   <v>       0.01803156 </v>
   <v>       0.01803156 </v>
   <v>       0.01803156 </v>
   <v>       0.03606311 </v>
   <v>       0.01803156 </v>
   <v>       0.01803156 </v>
  </varray>
 </kpoints>
 <parameters>
  <separator name="general" >
   <i type="string" name="SYSTEM">diamond Si</i>
   <i type="logical" name="LCOMPAT"> F  </i>
  </separator>
  <separator name="electronic" >
   <i type="string" name="PREC">normal</i>
   <i name="ENMAX">    240.00000000</i>
   <i name="ENAUG">    322.06900000</i>
   <i name="EDIFF">      0.00001000</i>
   <i type="int" name="IALGO">    38</i>
   <i type="int" name="IWAVPR">    11</i>
   <i type="int" name="NBANDS">     8</i>
   <i type="int" name="NBANDSLOW">    -1</i>
   <i type="int" name="NBANDSHIGH">    -1</i>
   <i name="NELECT">      8.00000000</i>
   <i type="int" name="TURBO">     0</i>
   <i type="int" name="IRESTART">     0</i>
   <i type="int" name="NREBOOT">     0</i>
   <i type="int" name="NMIN">     0</i>
   <i name="EREF">      0.00000000</i>
   <separator name="electronic smearing" >
    <i type="int" name="ISMEAR">     0</i>
    <i name="SIGMA">      0.10000000</i>
    <i name="KSPACING">      0.50000000</i>
    <i type="logical" name="KGAMMA"> T  </i>
    <i type="logical" name="KBLOWUP"> T  </i>
   </separator>
   <separator name="electronic projectors" >
    <i type="logical" name="LREAL"> F  </i>
    <v name="ROPT">      0.00000000</v>
    <i type="int" name="LMAXPAW">  -100</i>
    <i type="int" name="LMAXMIX">     2</i>
    <i type="logical" name="NLSPLINE"> F  </i>
   </separator>
   <separator name="electronic startup" >
    <i type="int" name="ISTART">     0</i>
    <i type="int" name="ICHARG">     2</i>
    <i type="int" name="INIWAV">     1</i>
   </separator>
   <separator name="electronic spin" >
    <i type="int" name="ISPIN">     1</i>
    <i type="logical" name="LNONCOLLINEAR"> F  </i>
    <v name="MAGMOM">      1.00000000      1.00000000</v>
    <i name="NUPDOWN">     -1.00000000</i>
    <i type="logical" name="LSORBIT"> F  </i>
    <v name="SAXIS">      0.00000000      0.00000000      1.00000000</v>
    <i type="logical" name="LSPIRAL"> F  </i>
    <v name="QSPIRAL">      0.00000000      0.00000000      0.00000000</v>
    <i type="logical" name="LZEROZ"> F  </i>
   </separator>
   <separator name="electronic exchange-correlation" >
    <i type="logical" name="LASPH"> F  </i>
    <i type="logical" name="LMETAGGA"> F  </i>
   </separator>
   <separator name="electronic convergence" >
    <i type="int" name="NELM">    60</i>
    <i type="int" name="NELMDL">    -5</i>
    <i type="int" name="NELMIN">     2</i>
    <i name="ENINI">    240.00000000</i>
    <separator name="electronic convergence detail" >
     <i type="logical" name="LDIAG"> T  </i>
     <i type="logical" name="LSUBROT"> F  </i>
     <i name="WEIMIN">      0.00100000</i>
     <i name="EBREAK">      0.00000031</i>
     <i name="DEPER">      0.30000000</i>
     <i type="int" name="NRMM">     4</i>
     <i name="TIME">      0.40000000</i>
    </separator>
   </separator>
   <separator name="electronic mixer" >
    <i name="AMIX">      0.40000000</i>
    <i name="BMIX">      1.00000000</i>
    <i name="AMIN">      0.10000000</i>
    <i name="AMIX_MAG">      1.60000000</i>
    <i name="BMIX_MAG">      1.00000000</i>
    <separator name="electronic mixer details" >
     <i type="int" name="IMIX">     4</i>
     <i type="logical" name="MIXFIRST"> F  </i>
     <i type="int" name="MAXMIX">   -45</i>
     <i name="WC">    100.00000000</i>
     <i type="int" name="INIMIX">     1</i>
     <i type="int" name="MIXPRE">     1</i>
     <i type="int" name="MREMOVE">     5</i>
    </separator>
   </separator>
   <separator name="electronic dipolcorrection" >
    <i type="logical" name="LDIPOL"> F  </i>
    <i type="logical" name="LMONO"> F  </i>
    <i type="int" name="IDIPOL">     0</i>
    <i name="EPSILON">      1.00000000</i>
    <v name="DIPOL">   -100.00000000   -100.00000000   -100.00000000</v>
    <i name="EFIELD">      0.00000000</i>
   </separator>
  </separator>
  <separator name="grids" >
   <i type="int" name="NGX">    16</i>
   <i type="int" name="NGY">    16</i>
   <i type="int" name="NGZ">    16</i>
   <i type="int" name="NGXF">    32</i>
   <i type="int" name="NGYF">    32</i>
   <i type="int" name="NGZF">    32</i>
   <i type="logical" name="ADDGRID"> F  </i>
  </separator>
  <separator name="ionic" >
   <i type="int" name="NSW">    15</i>
   <i type="int" name="IBRION">     2</i>
   <i type="int" name="MDALGO">     0</i>
   <i type="int" name="ISIF">     3</i>
   <i name="PSTRESS">      0.00000000</i>
   <i name="EDIFFG">     -0.01000000</i>
   <i type="int" name="NFREE">     1</i>
   <i name="POTIM">      0.50000000</i>
   <i name="SMASS">     -3.00000000</i>
   <i name="SCALEE">      1.00000000</i>
  </separator>
  <separator name="ionic md" >
   <i name="TEBEG">      0.00010000</i>
   <i name="TEEND">      0.00010000</i>
   <i type="int" name="NBLOCK">     1</i>
   <i type="int" name="KBLOCK">    15</i>
   <i type="int" name="NPACO">   256</i>
   <i name="APACO">     10.00000000</i>
  </separator>
  <separator name="symmetry" >
   <i type="int" name="ISYM">     2</i>
   <i name="SYMPREC">      0.00001000</i>
  </separator>
  <separator name="dos" >
   <i type="int" name="LORBIT">     0</i>
   <v name="RWIGS">     -1.00000000</v>
   <i type="int" name="NEDOS">   301</i>
   <i name="EMIN">     10.00000000</i>
   <i name="EMAX">    -10.00000000</i>
   <i name="EFERMI">      0.00000000</i>
  </separator>
  <separator name="writing" >
   <i type="int" name="NWRITE">     2</i>
   <i type="logical" name="LWAVE"> T  </i>
   <i type="logical" name="LDOWNSAMPLE"> F  </i>
   <i type="logical" name="LCHARG"> T  </i>
   <i type="logical" name="LPARD"> F  </i>
   <i type="logical" name="LVTOT"> F  </i>
   <i type="logical" name="LVHAR"> F  </i>
   <i type="logical" name="LELF"> F  </i>
   <i type="logical" name="LOPTICS"> F  </i>
   <v name="STM">      0.00000000      0.00000000      0.00000000      0.00000000      0.00000000      0.00000000      0.00000000</v>
  </separator>
  <separator name="performance" >
   <i type="int" name="NPAR">     4</i>
   <i type="int" name="NSIM">     4</i>
   <i type="int" name="NBLK">    -1</i>
   <i type="logical" name="LPLANE"> T  </i>
   <i type="logical" name="LSCALAPACK"> T  </i>
   <i type="logical" name="LSCAAWARE"> F  </i>
   <i type="logical" name="LSCALU"> F  </i>
   <i type="logical" name="LASYNC"> F  </i>
   <i type="logical" name="LORBITALREAL"> F  </i>
  </separator>
  <separator name="miscellaneous" >
   <i type="int" name="IDIOT">     3</i>
   <i type="int" name="PHON_NSTRUCT">    -1</i>
   <i type="logical" name="LMUSIC"> F  </i>
   <v name="POMASS">     28.08500000</v>
   <v name="DARWINR">      0.00000000</v>
   <v name="DARWINV">      1.00000000</v>
   <i type="logical" name="LCORR"> T  </i>
  </separator>
  <i type="logical" name="GGA_COMPAT"> T  </i>
  <i type="logical" name="LBERRY"> F  </i>
  <i type="int" name="ICORELEVEL">     0</i>
  <i type="logical" name="LDAU"> F  </i>
  <i type="int" name="I_CONSTRAINED_M">     0</i>
  <separator name="electronic exchange-correlation" >
   <i type="string" name="GGA">--</i>
   <i type="int" name="VOSKOWN">     0</i>
   <i type="logical" name="LHFCALC"> F  </i>
   <i type="string" name="PRECFOCK"></i>
   <i type="logical" name="LSYMGRAD"> F  </i>
   <i type="logical" name="LHFONE"> F  </i>
   <i type="logical" name="LRHFCALC"> F  </i>
   <i type="logical" name="LTHOMAS"> F  </i>
   <i type="logical" name="LMODELHF"> F  </i>
   <i type="logical" name="LFOCKACE"> F  </i>
   <i name="ENCUT4O">     -1.00000000</i>
   <i type="int" name="EXXOEP">     0</i>
   <i type="int" name="FOURORBIT">     0</i>
   <i name="AEXX">      0.00000000</i>
   <i name="HFALPHA">      0.00000000</i>
   <i name="MCALPHA">      0.00000000</i>
   <i name="ALDAX">      1.00000000</i>
   <i name="AGGAX">      1.00000000</i>
   <i name="ALDAC">      1.00000000</i>
   <i name="AGGAC">      1.00000000</i>
   <i type="int" name="NKREDX">     1</i>
   <i type="int" name="NKREDY">     1</i>
   <i type="int" name="NKREDZ">     1</i>
   <i type="logical" name="SHIFTRED"> F  </i>
   <i type="logical" name="ODDONLY"> F  </i>
   <i type="logical" name="EVENONLY"> F  </i>
   <i type="int" name="LMAXFOCK">     0</i>
   <i type="int" name="NMAXFOCKAE">     0</i>
   <i type="logical" name="LFOCKAEDFT"> F  </i>
   <i name="HFSCREEN">      0.00000000</i>
   <i name="HFSCREENC">      0.00000000</i>
   <i type="int" name="NBANDSGWLOW">     0</i>
  </separator>
  <separator name="vdW DFT" >
   <i type="logical" name="LUSE_VDW"> F  </i>
   <i name="Zab_VDW">     -0.84910000</i>
   <i name="PARAM1">      0.12340000</i>
   <i name="PARAM2">      1.00000000</i>
   <i name="PARAM3">      0.00000000</i>
  </separator>
  <separator name="model GW" >
   <i type="int" name="MODEL_GW">     0</i>
   <i name="MODEL_EPS0">     12.47812500</i>
   <i name="MODEL_ALPHA">      1.00000000</i>
  </separator>
  <separator name="linear response parameters" >
   <i type="logical" name="LEPSILON"> F  </i>
   <i type="logical" name="LRPA"> F  </i>
   <i type="logical" name="LNABLA"> F  </i>
   <i type="logical" name="LVEL"> F  </i>
   <i name="CSHIFT">      0.10000000</i>
   <i name="OMEGAMAX">     -1.00000000</i>
   <i name="DEG_THRESHOLD">      0.00200000</i>
   <i name="RTIME">     -0.10000000</i>
   <i name="WPLASMAI">      0.00000000</i>
   <v name="DFIELD">      0.00000000      0.00000000      0.00000000</v>
   <v name="WPLASMA">      0.00000000      0.00000000      0.00000000      0.00000000      0.00000000      0.00000000      0.00000000      0.00000000      0.00000000</v>
  </separator>
  <separator name="orbital magnetization" >
   <i type="logical" name="NUCIND"> F  </i>
   <v name="MAGPOS">      0.00000000      0.00000000      0.00000000</v>
   <i type="logical" name="LNICSALL"> T  </i>
   <i type="logical" name="ORBITALMAG"> F  </i>
   <i type="logical" name="LMAGBLOCH"> F  </i>
   <i type="logical" name="LCHIMAG"> F  </i>
   <i type="logical" name="LGAUGE"> T  </i>
   <i type="int" name="MAGATOM">     0</i>
   <v name="MAGDIPOL">      0.00000000      0.00000000      0.00000000</v>
   <v name="AVECCONST">      0.00000000      0.00000000      0.00000000</v>
  </separator>
  <separator name="response functions" >
   <i type="logical" name="LFINITE_TEMPERATURE"> F  </i>
   <i type="logical" name="LADDER"> F  </i>
   <i type="logical" name="LRPAFORCE"> F  </i>
   <i type="logical" name="LFXC"> F  </i>
   <i type="logical" name="LHARTREE"> T  </i>
   <i type="int" name="IBSE">     0</i>
   <v type="int" name="KPOINT">    -1     0     0     0</v>
   <i type="logical" name="LTCTC"> F  </i>
   <i type="logical" name="LTCTE"> F  </i>
   <i type="logical" name="LTETE"> F  </i>
   <i type="logical" name="LTRIPLET"> F  </i>
   <i type="logical" name="LFXCEPS"> F  </i>
   <i type="logical" name="LFXHEG"> F  </i>
   <i type="int" name="NATURALO">     2</i>
   <i type="logical" name="LHOLEGF"> F  </i>
   <i type="logical" name="L2ORDER"> F  </i>
   <i type="logical" name="LDMP1"> F  </i>
   <i type="logical" name="LMP2LT"> F  </i>
   <i type="logical" name="LSMP2LT"> F  </i>
   <i type="logical" name="LGWLF"> F  </i>
   <i name="ENCUTGW">     -2.00000000</i>
   <i name="ENCUTGWSOFT">     -2.00000000</i>
   <i name="ENCUTLF">     -1.00000000</i>
   <i type="logical" name="LESF_SPLINES"> F  </i>
   <i type="int" name="LMAXMP2">    -1</i>
   <i name="SCISSOR">      0.00000000</i>
   <i type="int" name="NOMEGA">     0</i>
   <i type="int" name="NOMEGAR">     0</i>
   <i type="int" name="NBANDSGW">    -1</i>
   <i type="int" name="NBANDSO">    -1</i>
   <i type="int" name="NBANDSV">    -1</i>
   <i type="int" name="NELMGW">     1</i>
   <i type="int" name="NELMHF">     1</i>
   <i type="int" name="DIM">     3</i>
   <i type="int" name="IESPILON">     4</i>
   <i type="int" name="ANTIRES">     0</i>
   <i name="OMEGAMAX">    -30.00000000</i>
   <i name="OMEGAMIN">    -30.00000000</i>
   <i name="OMEGATL">   -200.00000000</i>
   <i type="int" name="OMEGAGRID">     0</i>
   <i name="CSHIFT">     -0.10000000</i>
   <i type="logical" name="LSELFENERGY"> F  </i>
   <i type="logical" name="LSPECTRAL"> F  </i>
   <i type="logical" name="LSPECTRALGW"> F  </i>
   <i type="logical" name="LSINGLES"> F  </i>
   <i type="logical" name="LFERMIGW"> F  </i>
   <i type="logical" name="ODDONLYGW"> F  </i>
   <i type="logical" name="EVENONLYGW"> F  </i>
   <i type="int" name="NKREDLFX">     1</i>
   <i type="int" name="NKREDLFY">     1</i>
   <i type="int" name="NKREDLFZ">     1</i>
   <i type="int" name="MAXMEM">  2800</i>
   <i type="int" name="TELESCOPE">     0</i>
   <i type="int" name="NTAUPAR">    -1</i>
   <i type="int" name="NOMEGAPAR">    -1</i>
   <i name="DAMP_NEWTON">      0.80000001</i>
   <i name="LAMBDA">      1.00000000</i>
  </separator>
  <separator name="External order field" >
   <i name="OFIELD_KAPPA">      0.00000000</i>
   <v name="OFIELD_K">      0.00000000      0.00000000      0.00000000</v>
   <i name="OFIELD_Q6_NEAR">      0.00000000</i>
   <i name="OFIELD_Q6_FAR">      0.00000000</i>
   <i name="OFIELD_A">      0.00000000</i>
  </separator>
  <separator name="optional k-points parameters" >
   <i type="int" name="KPOINTS_OPT_MODE">     1</i>
   <i type="logical" name="LKPOINTS_OPT"> F  </i>
  </separator>
 </parameters>
 <atominfo>
  <atoms>       2 </atoms>
  <types>       1 </types>
  <array name="atoms" >
   <dimension dim="1">ion</dimension>
   <field type="string">element</field>
   <field type="int">atomtype</field>
   <set>
    <rc><c>Si</c><c>   1</c></rc>
    <rc><c>Si</c><c>   1</c></rc>
   </set>
  </array>
  <array name="atomtypes" >
   <dimension dim="1">type</dimension>
   <field type="int">atomspertype</field>
   <field type="string">element</field>
   <field>mass</field>
   <field>valence</field>
   <field type="string">pseudopotential</field>
   <set>
    <rc><c>   2</c><c>Si</c><c>     28.08500000</c><c>      4.00000000</c><c>  PAW_PBE Si 05Jan2001                  </c></rc>
   </set>
  </array>
 </atominfo>
 <structure name="initialpos" >
  <crystal>
   <varray name="basis" >
    <v>       0.00000000       2.75000000       2.75000000 </v>
    <v>       2.75000000       0.00000000       2.75000000 </v>
    <v>       2.75000000       2.75000000       0.00000000 </v>
   </varray>
   <i name="volume">     41.59375000 </i>
   <varray name="rec_basis" >
    <v>      -0.18181818       0.18181818       0.18181818 </v>
    <v>       0.18181818      -0.18181818       0.18181818 </v>
    <v>       0.18181818       0.18181818      -0.18181818 </v>
   </varray>
  </crystal>
  <varray name="positions" >
   <v>       0.87500000       0.87500000       0.87500000 </v>
   <v>       0.12500000       0.12500000       0.12500000 </v>
  </varray>
 </structure>
 <calculation>
  <scstep>
   <time name="dav">    0.08    0.08</time>
   <time name="total">    0.08    0.09</time>
   <energy>
    <i name="alphaZ">      3.23732588 </i>
    <i name="ewald">   -225.65453461 </i>
    <i name="hartreedc">    -11.58535014 </i>
    <i name="XCdc">    -18.75116554 </i>
    <i name="pawpsdc">    176.24759923 </i>
    <i name="pawaedc">   -141.06103558 </i>
    <i name="eentropy">     -0.00074188 </i>
    <i name="bandstr">      9.55291282 </i>
    <i name="atom">    206.12155316 </i>
    <i name="e_fr_energy">     -1.89343666 </i>
    <i name="e_wo_entrp">     -1.89269479 </i>
    <i name="e_0_energy">     -1.89306573 </i>
   </energy>
  </scstep>
  <scstep>
   <time name="dav">    0.12    0.12</time>
   <time name="total">    0.12    0.12</time>
   <energy>
    <i name="e_fr_energy">    -10.89260393 </i>
    <i name="e_wo_entrp">    -10.89260393 </i>
    <i name="e_0_energy">    -10.89260393 </i>
   </energy>
  </scstep>
  <scstep>
   <time name="dav">    0.10    0.10</time>
   <time name="total">    0.10    0.10</time>
   <energy>
    <i name="e_fr_energy">    -10.98055317 </i>
    <i name="e_wo_entrp">    -10.98055317 </i>
    <i name="e_0_energy">    -10.98055317 </i>
   </energy>
  </scstep>
  <scstep>
   <time name="dav">    0.11    0.11</time>
   <time name="total">    0.11    0.11</time>
   <energy>
    <i name="e_fr_energy">    -10.98075180 </i>
    <i name="e_wo_entrp">    -10.98075180 </i>
    <i name="e_0_energy">    -10.98075180 </i>
   </energy>
  </scstep>
  <scstep>
   <time name="dav">    0.10    0.10</time>
   <time name="total">    0.10    0.11</time>
   <energy>
    <i name="e_fr_energy">    -10.98075191 </i>
    <i name="e_wo_entrp">    -10.98075191 </i>
    <i name="e_0_energy">    -10.98075191 </i>
   </energy>
  </scstep>
  <scstep>
   <time name="dav">    0.08    0.08</time>
   <time name="total">    0.09    0.09</time>
   <energy>
    <i name="e_fr_energy">    -10.87234965 </i>
    <i name="e_wo_entrp">    -10.87234965 </i>
    <i name="e_0_energy">    -10.87234965 </i>
   </energy>
  </scstep>
  <scstep>
   <time name="dav">    0.09    0.09</time>
   <time name="total">    0.10    0.10</time>
   <energy>
    <i name="e_fr_energy">    -10.82180979 </i>
    <i name="e_wo_entrp">    -10.82180977 </i>
    <i name="e_0_energy">    -10.82180978 </i>
   </energy>
  </scstep>
  <scstep>
   <time name="dav">    0.07    0.07</time>
   <time name="total">    0.08    0.08</time>
   <energy>
    <i name="e_fr_energy">    -10.82284447 </i>
    <i name="e_wo_entrp">    -10.82284446 </i>
    <i name="e_0_energy">    -10.82284447 </i>
   </energy>
  </scstep>
  <scstep>
   <time name="dav">    0.10    0.11</time>
   <time name="total">    0.11    0.11</time>
   <energy>
    <i name="e_fr_energy">    -10.82306144 </i>
    <i name="e_wo_entrp">    -10.82306143 </i>
    <i name="e_0_energy">    -10.82306144 </i>
   </energy>
  </scstep>
  <scstep>
   <time name="dav">    0.07    0.07</time>
   <time name="total">    0.08    0.08</time>
   <energy>
    <i name="e_fr_energy">    -10.82308468 </i>
    <i name="e_wo_entrp">    -10.82308467 </i>
    <i name="e_0_energy">    -10.82308467 </i>
   </energy>
  </scstep>
  <scstep>
   <time name="dav">    0.05    0.05</time>
   <time name="total">    0.05    0.05</time>
   <energy>
    <i name="alphaZ">      3.23732588 </i>
    <i name="ewald">   -225.65453461 </i>
    <i name="hartreedc">    -15.36624297 </i>
    <i name="XCdc">    -18.12800439 </i>
    <i name="pawpsdc">    965.93237059 </i>
    <i name="pawaedc">   -930.94424346 </i>
    <i name="eentropy">     -0.00000000 </i>
    <i name="bandstr">      3.97869137 </i>
    <i name="atom">    206.12155316 </i>
    <i name="e_fr_energy">    -10.82308444 </i>
    <i name="e_wo_entrp">    -10.82308444 </i>
    <i name="e_0_energy">    -10.82308444 </i>
   </energy>
  </scstep>
  <structure>
   <crystal>
    <varray name="basis" >
     <v>       0.00000000       2.75000000       2.75000000 </v>
     <v>       2.75000000       0.00000000       2.75000000 </v>
     <v>       2.75000000       2.75000000       0.00000000 </v>
    </varray>
    <i name="volume">     41.59375000 </i>
    <varray name="rec_basis" >
     <v>      -0.18181818       0.18181818       0.18181818 </v>
     <v>       0.18181818      -0.18181818       0.18181818 </v>
     <v>       0.18181818       0.18181818      -0.18181818 </v>
    </varray>
   </crystal>
   <varray name="positions" >
    <v>       0.87500000       0.87500000       0.87500000 </v>
    <v>       0.12500000       0.12500000       0.12500000 </v>
   </varray>
  </structure>
  <varray name="forces" >
   <v>      -0.00000000      -0.00000000      -0.00000000 </v>
   <v>       0.00000000       0.00000000       0.00000000 </v>
  </varray>
  <varray name="stress" >
   <v>     -16.35774288      -0.00000000      -0.00000000 </v>
   <v>       0.00000000     -16.35774288      -0.00000000 </v>
   <v>      -0.00000000      -0.00000000     -16.35774288 </v>
  </varray>
  <energy>
   <i name="e_fr_energy">    -10.82308444 </i>
   <i name="e_wo_entrp">    -10.82308444 </i>
   <i name="e_0_energy">    -10.82308444 </i>
  </energy>
  <time name="totalsc">    1.18    1.19</time>
 </calculation>
 <calculation>
  <scstep>
   <time name="dav">    0.08    0.08</time>
   <time name="total">    0.09    0.09</time>
   <energy>
    <i name="alphaZ">      3.33888250 </i>
    <i name="ewald">   -227.98991542 </i>
    <i name="hartreedc">    -15.52709134 </i>
    <i name="XCdc">    -17.97866184 </i>
    <i name="pawpsdc">    966.11060490 </i>
    <i name="pawaedc">   -931.12251410 </i>
    <i name="eentropy">     -0.00000011 </i>
    <i name="bandstr">      6.21622095 </i>
    <i name="atom">    206.12155316 </i>
    <i name="e_fr_energy">    -10.83092131 </i>
    <i name="e_wo_entrp">    -10.83092119 </i>
    <i name="e_0_energy">    -10.83092125 </i>
   </energy>
  </scstep>
  <scstep>
   <time name="dav">    0.09    0.09</time>
   <time name="total">    0.10    0.10</time>
   <energy>
    <i name="e_fr_energy">    -10.82743989 </i>
    <i name="e_wo_entrp">    -10.82743983 </i>
    <i name="e_0_energy">    -10.82743986 </i>
   </energy>
  </scstep>
  <scstep>
   <time name="dav">    0.08    0.08</time>
   <time name="total">    0.09    0.09</time>
   <energy>
    <i name="e_fr_energy">    -10.82564012 </i>
    <i name="e_wo_entrp">    -10.82564009 </i>
    <i name="e_0_energy">    -10.82564011 </i>
   </energy>
  </scstep>
  <scstep>
   <time name="dav">    0.10    0.10</time>
   <time name="total">    0.10    0.10</time>
   <energy>
    <i name="alphaZ">      3.33888250 </i>
    <i name="ewald">   -227.98991542 </i>
    <i name="hartreedc">    -14.99869968 </i>
    <i name="XCdc">    -17.99089479 </i>
    <i name="pawpsdc">   1033.74080446 </i>
    <i name="pawaedc">   -998.77297756 </i>
    <i name="eentropy">     -0.00000003 </i>
    <i name="bandstr">      5.72560422 </i>
    <i name="atom">    206.12155316 </i>
    <i name="e_fr_energy">    -10.82564315 </i>
    <i name="e_wo_entrp">    -10.82564312 </i>
    <i name="e_0_energy">    -10.82564313 </i>
   </energy>
  </scstep>
  <structure>
   <crystal>
    <varray name="basis" >
     <v>      -0.00000000       2.72183078       2.72183078 </v>
     <v>       2.72183078      -0.00000000       2.72183078 </v>
     <v>       2.72183078       2.72183078      -0.00000000 </v>
    </varray>
    <i name="volume">     40.32861994 </i>
    <varray name="rec_basis" >
     <v>      -0.18369988       0.18369988       0.18369988 </v>
     <v>       0.18369988      -0.18369988       0.18369988 </v>
     <v>       0.18369988       0.18369988      -0.18369988 </v>
    </varray>
   </crystal>
   <varray name="positions" >
    <v>       0.87500000       0.87500000       0.87500000 </v>
    <v>       0.12500000       0.12500000       0.12500000 </v>
   </varray>
  </structure>
  <varray name="forces" >
   <v>       0.00000000      -0.00000000      -0.00000000 </v>
   <v>      -0.00000000       0.00000000       0.00000000 </v>
  </varray>
  <varray name="stress" >
   <v>      10.68740691       0.00000000       0.00000000 </v>
   <v>       0.00000000      10.68740691       0.00000000 </v>
   <v>      -0.00000000      -0.00000000      10.68740691 </v>
  </varray>
  <energy>
   <i name="e_fr_energy">    -10.82564315 </i>
   <i name="e_wo_entrp">    -10.82564312 </i>
   <i name="e_0_energy">    -10.82564313 </i>
  </energy>
  <time name="totalsc">    0.50    0.50</time>
 </calculation>
 <calculation>
  <scstep>
   <time name="dav">    0.08    0.09</time>
   <time name="total">    0.09    0.09</time>
   <energy>
    <i name="alphaZ">      3.30012800 </i>
    <i name="ewald">   -227.10438537 </i>
    <i name="hartreedc">    -14.94040923 </i>
    <i name="XCdc">    -18.04487371 </i>
    <i name="pawpsdc">   1011.09373980 </i>
    <i name="pawaedc">   -976.13203377 </i>
    <i name="eentropy">     -0.00000001 </i>
    <i name="bandstr">      4.87830047 </i>
    <i name="atom">    206.12155316 </i>
    <i name="e_fr_energy">    -10.82798066 </i>
    <i name="e_wo_entrp">    -10.82798065 </i>
    <i name="e_0_energy">    -10.82798066 </i>
   </energy>
  </scstep>
  <scstep>
   <time name="dav">    0.09    0.09</time>
   <time name="total">    0.10    0.10</time>
   <energy>
    <i name="e_fr_energy">    -10.82747554 </i>
    <i name="e_wo_entrp">    -10.82747553 </i>
    <i name="e_0_energy">    -10.82747554 </i>
   </energy>
  </scstep>
  <scstep>
   <time name="dav">    0.08    0.08</time>
   <time name="total">    0.09    0.09</time>
   <energy>
    <i name="e_fr_energy">    -10.82721780 </i>
    <i name="e_wo_entrp">    -10.82721779 </i>
    <i name="e_0_energy">    -10.82721779 </i>
   </energy>
  </scstep>
  <scstep>
   <time name="dav">    0.05    0.05</time>
   <time name="total">    0.06    0.06</time>
   <energy>
    <i name="alphaZ">      3.30012800 </i>
    <i name="ewald">   -227.10438537 </i>
    <i name="hartreedc">    -15.13761011 </i>
    <i name="XCdc">    -18.03996112 </i>
    <i name="pawpsdc">    990.74498342 </i>
    <i name="pawaedc">   -955.77514454 </i>
    <i name="eentropy">     -0.00000001 </i>
    <i name="bandstr">      5.06321900 </i>
    <i name="atom">    206.12155316 </i>
    <i name="e_fr_energy">    -10.82721759 </i>
    <i name="e_wo_entrp">    -10.82721757 </i>
    <i name="e_0_energy">    -10.82721758 </i>
   </energy>
  </scstep>
  <structure>
   <crystal>
    <varray name="basis" >
     <v>      -0.00000000       2.73244380       2.73244380 </v>
     <v>       2.73244380      -0.00000000       2.73244380 </v>
     <v>       2.73244380       2.73244380      -0.00000000 </v>
    </varray>
    <i name="volume">     40.80221232 </i>
    <varray name="rec_basis" >
     <v>      -0.18298638       0.18298638       0.18298638 </v>
     <v>       0.18298638      -0.18298638       0.18298638 </v>
     <v>       0.18298638       0.18298638      -0.18298638 </v>
    </varray>
   </crystal>
   <varray name="positions" >
    <v>       0.87500000       0.87500000       0.87500000 </v>
    <v>       0.12500000       0.12500000       0.12500000 </v>
   </varray>
  </structure>
  <varray name="forces" >
   <v>       0.00000000       0.00000000       0.00000000 </v>
   <v>      -0.00000000      -0.00000000      -0.00000000 </v>
  </varray>
  <varray name="stress" >
   <v>       0.07946768      -0.00000000      -0.00000000 </v>
   <v>      -0.00000000       0.07946768      -0.00000000 </v>
   <v>       0.00000000       0.00000000       0.07946768 </v>
  </varray>
  <energy>
   <i name="e_fr_energy">    -10.82721759 </i>
   <i name="e_wo_entrp">    -10.82721757 </i>
   <i name="e_0_energy">    -10.82721758 </i>
  </energy>
  <time name="totalsc">    0.45    0.46</time>
  <eigenvalues>
   <array>
    <dimension dim="1">band</dimension>
    <dimension dim="2">kpoint</dimension>
    <dimension dim="3">spin</dimension>
    <field>eigene</field>
    <field>occ</field>
    <set>
     <set comment="spin 1">
      <set comment="kpoint 1">
       <r>   -6.1921    1.0000 </r>
       <r>    5.6489    1.0000 </r>
       <r>    5.6489    1.0000 </r>
       <r>    5.6489    1.0000 </r>
       <r>    8.2091    0.0000 </r>
       <r>    8.2091    0.0000 </r>
       <r>    8.2091    0.0000 </r>
       <r>    8.7949    0.0000 </r>
      </set>
      <set comment="kpoint 2">
       <r>   -6.0854    1.0000 </r>
       <r>    4.6617    1.0000 </r>
       <r>    5.4847    1.0000 </r>
       <r>    5.4847    1.0000 </r>
       <r>    8.2017    0.0000 </r>
       <r>    8.4526    0.0000 </r>
       <r>    8.4526    0.0000 </r>
       <r>    9.6167    0.0000 </r>
      </set>
      <set comment="kpoint 3">
       <r>   -5.7701    1.0000 </r>
       <r>    2.9955    1.0000 </r>
       <r>    5.1464    1.0000 </r>
       <r>    5.1465    1.0000 </r>
       <r>    7.8807    0.0000 </r>
       <r>    8.9223    0.0000 </r>
       <r>    8.9224    0.0000 </r>
       <r>   11.2139    0.0000 </r>
      </set>
      <set comment="kpoint 4">
       <r>   -5.2625    1.0000 </r>
       <r>    1.3542    1.0000 </r>
       <r>    4.8248    1.0000 </r>
       <r>    4.8249    1.0000 </r>
       <r>    7.5364    0.0000 </r>
       <r>    9.1773    0.0000 </r>
       <r>    9.1773    0.0000 </r>
       <r>   12.7830    0.0000 </r>
      </set>
      <set comment="kpoint 5">
       <r>   -4.6140    1.0000 </r>
       <r>   -0.0832    1.0000 </r>
       <r>    4.5945    1.0000 </r>
       <r>    4.5945    1.0000 </r>
       <r>    7.2768    0.0000 </r>
       <r>    9.1285    0.0000 </r>
       <r>    9.1286    0.0000 </r>
       <r>   13.4936    0.0000 </r>
      </set>
      <set comment="kpoint 6">
       <r>   -4.0168    1.0000 </r>
       <r>   -1.0814    1.0000 </r>
       <r>    4.4770    1.0000 </r>
       <r>    4.4770    1.0000 </r>
       <r>    7.1405    0.0000 </r>
       <r>    9.0265    0.0000 </r>
       <r>    9.0266    0.0000 </r>
       <r>   13.3746    0.0000 </r>
      </set>
      <set comment="kpoint 7">
       <r>   -6.0497    1.0000 </r>
       <r>    4.8300    1.0000 </r>
       <r>    5.1641    1.0000 </r>
       <r>    5.1641    1.0000 </r>
       <r>    7.8937    0.0000 </r>
       <r>    8.8707    0.0000 </r>
       <r>    8.8707    0.0000 </r>
       <r>    9.5447    0.0000 </r>
      </set>
      <set comment="kpoint 8">
       <r>   -5.8032    1.0000 </r>
       <r>    3.4840    1.0000 </r>
       <r>    4.7710    1.0000 </r>
       <r>    4.9462    1.0000 </r>
       <r>    7.9275    0.0000 </r>
       <r>    8.8968    0.0000 </r>
       <r>    9.4571    0.0000 </r>
       <r>   10.5304    0.0000 </r>
      </set>
      <set comment="kpoint 9">
       <r>   -5.3571    1.0000 </r>
       <r>    1.8812    1.0000 </r>
       <r>    4.4545    1.0000 </r>
       <r>    4.5757    1.0000 </r>
       <r>    8.0377    0.0000 </r>
       <r>    8.9037    0.0000 </r>
       <r>    9.8136    0.0000 </r>
       <r>   11.0000    0.0000 </r>
      </set>
      <set comment="kpoint 10">
       <r>   -4.7457    1.0000 </r>
       <r>    0.3920    1.0000 </r>
       <r>    4.1969    1.0000 </r>
       <r>    4.2683    1.0000 </r>
       <r>    7.8745    0.0000 </r>
       <r>    8.9609    0.0000 </r>
       <r>    9.7548    0.0000 </r>
       <r>   11.7656    0.0000 </r>
      </set>
      <set comment="kpoint 11">
       <r>   -4.0891    1.0000 </r>
       <r>   -0.7829    1.0000 </r>
       <r>    3.9023    1.0000 </r>
       <r>    4.2274    1.0000 </r>
       <r>    7.7315    0.0000 </r>
       <r>    8.9305    0.0000 </r>
       <r>    9.5270    0.0000 </r>
       <r>   12.9919    0.0000 </r>
      </set>
      <set comment="kpoint 12">
       <r>   -3.8259    1.0000 </r>
       <r>   -1.1764    1.0000 </r>
       <r>    3.7271    1.0000 </r>
       <r>    4.3261    1.0000 </r>
       <r>    7.7005    0.0000 </r>
       <r>    8.9901    0.0000 </r>
       <r>    9.3430    0.0000 </r>
       <r>   13.6828    0.0000 </r>
      </set>
      <set comment="kpoint 13">
       <r>   -4.2983    1.0000 </r>
       <r>   -0.4414    1.0000 </r>
       <r>    3.6933    1.0000 </r>
       <r>    4.5503    1.0000 </r>
       <r>    7.8005    0.0000 </r>
       <r>    9.1788    0.0000 </r>
       <r>    9.2619    0.0000 </r>
       <r>   13.3671    0.0000 </r>
      </set>
      <set comment="kpoint 14">
       <r>   -4.9653    1.0000 </r>
       <r>    0.8686    1.0000 </r>
       <r>    3.8154    1.0000 </r>
       <r>    4.8709    1.0000 </r>
       <r>    8.0154    0.0000 </r>
       <r>    9.1876    0.0000 </r>
       <r>    9.3842    0.0000 </r>
       <r>   12.3101    0.0000 </r>
      </set>
      <set comment="kpoint 15">
       <r>   -5.5278    1.0000 </r>
       <r>    2.3995    1.0000 </r>
       <r>    4.1117    1.0000 </r>
       <r>    5.2319    1.0000 </r>
       <r>    8.3098    0.0000 </r>
       <r>    8.9008    0.0000 </r>
       <r>    9.2513    0.0000 </r>
       <r>   11.4133    0.0000 </r>
      </set>
      <set comment="kpoint 16">
       <r>   -5.9091    1.0000 </r>
       <r>    3.8567    1.0000 </r>
       <r>    4.6723    1.0000 </r>
       <r>    5.5054    1.0000 </r>
       <r>    8.5028    0.0000 </r>
       <r>    8.5427    0.0000 </r>
       <r>    8.6672    0.0000 </r>
       <r>   10.5091    0.0000 </r>
      </set>
      <set comment="kpoint 17">
       <r>   -5.6258    1.0000 </r>
       <r>    3.3279    1.0000 </r>
       <r>    4.3420    1.0000 </r>
       <r>    4.3420    1.0000 </r>
       <r>    7.2540    0.0000 </r>
       <r>    9.7354    0.0000 </r>
       <r>   10.2062    0.0000 </r>
       <r>   10.2062    0.0000 </r>
      </set>
      <set comment="kpoint 18">
       <r>   -5.2446    1.0000 </r>
       <r>    2.1835    1.0000 </r>
       <r>    3.9259    1.0000 </r>
       <r>    4.0024    1.0000 </r>
       <r>    7.3066    0.0000 </r>
       <r>    9.3407    0.0000 </r>
       <r>   10.4929    0.0000 </r>
       <r>   10.7883    0.0000 </r>
      </set>
      <set comment="kpoint 19">
       <r>   -4.6827    1.0000 </r>
       <r>    0.8301    1.0000 </r>
       <r>    3.3980    1.0000 </r>
       <r>    3.8073    1.0000 </r>
       <r>    7.5428    0.0000 </r>
       <r>    9.6981    0.0000 </r>
       <r>   10.2937    0.0000 </r>
       <r>   10.8772    0.0000 </r>
      </set>
      <set comment="kpoint 20">
       <r>   -4.0147    1.0000 </r>
       <r>   -0.3889    1.0000 </r>
       <r>    2.9265    1.0000 </r>
       <r>    3.7744    1.0000 </r>
       <r>    7.5836    0.0000 </r>
       <r>   10.0595    0.0000 </r>
       <r>   10.6312    0.0000 </r>
       <r>   10.9093    0.0000 </r>
      </set>
      <set comment="kpoint 21">
       <r>   -3.5430    1.0000 </r>
       <r>   -1.0856    1.0000 </r>
       <r>    2.5952    1.0000 </r>
       <r>    3.9026    1.0000 </r>
       <r>    7.6787    0.0000 </r>
       <r>    9.9335    0.0000 </r>
       <r>   10.3418    0.0000 </r>
       <r>   12.5208    0.0000 </r>
      </set>
      <set comment="kpoint 22">
       <r>   -3.8217    1.0000 </r>
       <r>   -0.6821    1.0000 </r>
       <r>    2.4457    1.0000 </r>
       <r>    4.1768    1.0000 </r>
       <r>    7.9236    0.0000 </r>
       <r>    9.9292    0.0000 </r>
       <r>   10.1153    0.0000 </r>
       <r>   13.3289    0.0000 </r>
      </set>
      <set comment="kpoint 23">
       <r>   -4.4809    1.0000 </r>
       <r>    0.4169    1.0000 </r>
       <r>    2.5296    1.0000 </r>
       <r>    4.5589    1.0000 </r>
       <r>    8.2809    0.0000 </r>
       <r>    9.8659    0.0000 </r>
       <r>    9.9852    0.0000 </r>
       <r>   11.9392    0.0000 </r>
      </set>
      <set comment="kpoint 24">
       <r>   -5.0871    1.0000 </r>
       <r>    1.5928    1.0000 </r>
       <r>    3.0104    1.0000 </r>
       <r>    4.9676    1.0000 </r>
       <r>    8.5954    0.0000 </r>
       <r>    9.3774    0.0000 </r>
       <r>    9.6766    0.0000 </r>
       <r>   11.2664    0.0000 </r>
      </set>
      <set comment="kpoint 25">
       <r>   -4.9282    1.0000 </r>
       <r>    1.7194    1.0000 </r>
       <r>    3.6292    1.0000 </r>
       <r>    3.6292    1.0000 </r>
       <r>    6.6723    0.0000 </r>
       <r>    8.4685    0.0000 </r>
       <r>   11.7590    0.0000 </r>
       <r>   11.7590    0.0000 </r>
      </set>
      <set comment="kpoint 26">
       <r>   -4.4224    1.0000 </r>
       <r>    0.7761    1.0000 </r>
       <r>    3.1000    1.0000 </r>
       <r>    3.4001    1.0000 </r>
       <r>    6.8059    0.0000 </r>
       <r>    8.1827    0.0000 </r>
       <r>   12.0415    0.0000 </r>
       <r>   12.2275    0.0000 </r>
      </set>
      <set comment="kpoint 27">
       <r>   -3.7737    1.0000 </r>
       <r>   -0.2390    1.0000 </r>
       <r>    2.3838    1.0000 </r>
       <r>    3.3388    1.0000 </r>
       <r>    7.0082    0.0000 </r>
       <r>    8.9235    0.0000 </r>
       <r>   11.8756    0.0000 </r>
       <r>   12.0991    0.0000 </r>
      </set>
      <set comment="kpoint 28">
       <r>   -3.1719    1.0000 </r>
       <r>   -1.0270    1.0000 </r>
       <r>    1.8189    1.0000 </r>
       <r>    3.4488    1.0000 </r>
       <r>    7.1404    0.0000 </r>
       <r>   10.3903    0.0000 </r>
       <r>   11.7018    0.0000 </r>
       <r>   11.7740    0.0000 </r>
      </set>
      <set comment="kpoint 29">
       <r>   -3.2277    1.0000 </r>
       <r>   -0.9485    1.0000 </r>
       <r>    1.5392    1.0000 </r>
       <r>    3.7193    1.0000 </r>
       <r>    7.4252    0.0000 </r>
       <r>   11.4186    0.0000 </r>
       <r>   11.4481    0.0000 </r>
       <r>   12.3206    0.0000 </r>
      </set>
      <set comment="kpoint 30">
       <r>   -3.8506    1.0000 </r>
       <r>   -0.2004    1.0000 </r>
       <r>    1.6988    1.0000 </r>
       <r>    4.1163    1.0000 </r>
       <r>    7.8611    0.0000 </r>
       <r>   10.8183    0.0000 </r>
       <r>   11.1801    0.0000 </r>
       <r>   11.9837    0.0000 </r>
      </set>
      <set comment="kpoint 31">
       <r>   -3.9725    1.0000 </r>
       <r>    0.1203    1.0000 </r>
       <r>    3.1278    1.0000 </r>
       <r>    3.1278    1.0000 </r>
       <r>    6.3233    0.0000 </r>
       <r>    7.3447    0.0000 </r>
       <r>   13.4057    0.0000 </r>
       <r>   13.4057    0.0000 </r>
      </set>
      <set comment="kpoint 32">
       <r>   -3.3602    1.0000 </r>
       <r>   -0.6844    1.0000 </r>
       <r>    2.6037    1.0000 </r>
       <r>    3.0239    1.0000 </r>
       <r>    6.5326    0.0000 </r>
       <r>    7.3542    0.0000 </r>
       <r>   13.7285    0.0000 </r>
       <r>   13.7391    0.0000 </r>
      </set>
      <set comment="kpoint 33">
       <r>   -2.6979    1.0000 </r>
       <r>   -1.3916    1.0000 </r>
       <r>    1.8402    1.0000 </r>
       <r>    3.0956    1.0000 </r>
       <r>    6.7020    0.0000 </r>
       <r>    8.5238    0.0000 </r>
       <r>   13.4558    0.0000 </r>
       <r>   13.5894    0.0000 </r>
      </set>
      <set comment="kpoint 34">
       <r>   -2.6374    1.0000 </r>
       <r>   -1.4210    1.0000 </r>
       <r>    1.3640    1.0000 </r>
       <r>    3.3367    1.0000 </r>
       <r>    6.9761    0.0000 </r>
       <r>   10.2334    0.0000 </r>
       <r>   12.7758    0.0000 </r>
       <r>   13.3220    0.0000 </r>
      </set>
      <set comment="kpoint 35">
       <r>   -2.7846    1.0000 </r>
       <r>   -1.4028    1.0000 </r>
       <r>    2.8723    1.0000 </r>
       <r>    2.8723    1.0000 </r>
       <r>    6.2886    0.0000 </r>
       <r>    6.6162    0.0000 </r>
       <r>   15.0856    0.0000 </r>
       <r>   15.0857    0.0000 </r>
      </set>
      <set comment="kpoint 36">
       <r>   -2.1497    1.0000 </r>
       <r>   -2.0377    1.0000 </r>
       <r>    2.4401    1.0000 </r>
       <r>    2.8969    1.0000 </r>
       <r>    6.4700    0.0000 </r>
       <r>    7.0442    0.0000 </r>
       <r>   15.0000    0.0000 </r>
       <r>   15.2231    0.0000 </r>
      </set>
      <set comment="kpoint 37">
       <r>   -5.4899    1.0000 </r>
       <r>    2.6264    1.0000 </r>
       <r>    3.8437    1.0000 </r>
       <r>    4.8334    1.0000 </r>
       <r>    7.9867    0.0000 </r>
       <r>    9.2132    0.0000 </r>
       <r>   10.0012    0.0000 </r>
       <r>   10.4258    0.0000 </r>
      </set>
      <set comment="kpoint 38">
       <r>   -4.9850    1.0000 </r>
       <r>    1.3229    1.0000 </r>
       <r>    3.2853    1.0000 </r>
       <r>    4.5187    1.0000 </r>
       <r>    8.2946    0.0000 </r>
       <r>    9.1782    0.0000 </r>
       <r>   10.3338    0.0000 </r>
       <r>   10.5467    0.0000 </r>
      </set>
      <set comment="kpoint 39">
       <r>   -4.3378    1.0000 </r>
       <r>   -0.0012    1.0000 </r>
       <r>    3.0275    1.0000 </r>
       <r>    4.1804    1.0000 </r>
       <r>    8.3195    0.0000 </r>
       <r>    8.9992    0.0000 </r>
       <r>   10.4288    0.0000 </r>
       <r>   11.3791    0.0000 </r>
      </set>
      <set comment="kpoint 40">
       <r>   -3.7359    1.0000 </r>
       <r>   -0.9661    1.0000 </r>
       <r>    2.9269    1.0000 </r>
       <r>    3.9734    1.0000 </r>
       <r>    8.2877    0.0000 </r>
       <r>    8.8089    0.0000 </r>
       <r>   10.3654    0.0000 </r>
       <r>   12.8284    0.0000 </r>
      </set>
      <set comment="kpoint 41">
       <r>   -4.8023    1.0000 </r>
       <r>    1.3435    1.0000 </r>
       <r>    3.1371    1.0000 </r>
       <r>    3.8417    1.0000 </r>
       <r>    7.4330    0.0000 </r>
       <r>    8.9606    0.0000 </r>
       <r>   10.6027    0.0000 </r>
       <r>   11.6422    0.0000 </r>
      </set>
      <set comment="kpoint 42">
       <r>   -4.1945    1.0000 </r>
       <r>    0.2773    1.0000 </r>
       <r>    2.5678    1.0000 </r>
       <r>    3.5341    1.0000 </r>
       <r>    7.7938    0.0000 </r>
       <r>    9.3709    0.0000 </r>
       <r>   10.2899    0.0000 </r>
       <r>   12.0346    0.0000 </r>
      </set>
      <set comment="kpoint 43">
       <r>   -3.5339    1.0000 </r>
       <r>   -0.7156    1.0000 </r>
       <r>    2.1854    1.0000 </r>
       <r>    3.3812    1.0000 </r>
       <r>    7.9270    0.0000 </r>
       <r>    9.9069    0.0000 </r>
       <r>   10.7157    0.0000 </r>
       <r>   11.9905    0.0000 </r>
      </set>
      <set comment="kpoint 44">
       <r>   -3.2734    1.0000 </r>
       <r>   -1.0576    1.0000 </r>
       <r>    1.9587    1.0000 </r>
       <r>    3.4693    1.0000 </r>
       <r>    8.1361    0.0000 </r>
       <r>    9.6418    0.0000 </r>
       <r>   11.8748    0.0000 </r>
       <r>   12.3934    0.0000 </r>
      </set>
      <set comment="kpoint 45">
       <r>   -3.7693    1.0000 </r>
       <r>   -0.3811    1.0000 </r>
       <r>    1.9508    1.0000 </r>
       <r>    3.7598    1.0000 </r>
       <r>    8.4907    0.0000 </r>
       <r>    9.4543    0.0000 </r>
       <r>   11.1692    0.0000 </r>
       <r>   11.8135    0.0000 </r>
      </set>
      <set comment="kpoint 46">
       <r>   -4.4333    1.0000 </r>
       <r>    0.5869    1.0000 </r>
       <r>    2.3254    1.0000 </r>
       <r>    4.1679    1.0000 </r>
       <r>    8.9180    0.0000 </r>
       <r>    9.0394    0.0000 </r>
       <r>   10.2982    0.0000 </r>
       <r>   11.3538    0.0000 </r>
      </set>
      <set comment="kpoint 47">
       <r>   -3.8653    1.0000 </r>
       <r>   -0.0148    1.0000 </r>
       <r>    2.6678    1.0000 </r>
       <r>    3.0537    1.0000 </r>
       <r>    7.0832    0.0000 </r>
       <r>    7.9395    0.0000 </r>
       <r>   11.9738    0.0000 </r>
       <r>   13.3763    0.0000 </r>
      </set>
      <set comment="kpoint 48">
       <r>   -3.1961    1.0000 </r>
       <r>   -0.8272    1.0000 </r>
       <r>    2.0359    1.0000 </r>
       <r>    2.8784    1.0000 </r>
       <r>    7.4282    0.0000 </r>
       <r>    8.7418    0.0000 </r>
       <r>   11.6247    0.0000 </r>
       <r>   13.7337    0.0000 </r>
      </set>
      <set comment="kpoint 49">
       <r>   -2.7369    1.0000 </r>
       <r>   -1.3174    1.0000 </r>
       <r>    1.5235    1.0000 </r>
       <r>    2.9926    1.0000 </r>
       <r>    7.6404    0.0000 </r>
       <r>   10.3014    0.0000 </r>
       <r>   11.3227    0.0000 </r>
       <r>   12.9129    0.0000 </r>
      </set>
      <set comment="kpoint 50">
       <r>   -3.1169    1.0000 </r>
       <r>   -0.9218    1.0000 </r>
       <r>    1.4209    1.0000 </r>
       <r>    3.3108    1.0000 </r>
       <r>    8.0068    0.0000 </r>
       <r>   10.7112    0.0000 </r>
       <r>   11.4349    0.0000 </r>
       <r>   12.3231    0.0000 </r>
      </set>
      <set comment="kpoint 51">
       <r>   -2.7132    1.0000 </r>
       <r>   -1.4013    1.0000 </r>
       <r>    2.4782    1.0000 </r>
       <r>    2.5986    1.0000 </r>
       <r>    7.0170    0.0000 </r>
       <r>    7.2881    0.0000 </r>
       <r>   13.4935    0.0000 </r>
       <r>   14.8782    0.0000 </r>
      </set>
      <set comment="kpoint 52">
       <r>   -2.2180    1.0000 </r>
       <r>   -1.8413    1.0000 </r>
       <r>    1.8318    1.0000 </r>
       <r>    2.6699    1.0000 </r>
       <r>    7.2967    0.0000 </r>
       <r>    8.5346    0.0000 </r>
       <r>   13.0436    0.0000 </r>
       <r>   13.2734    0.0000 </r>
      </set>
      <set comment="kpoint 53">
       <r>   -3.5610    1.0000 </r>
       <r>   -0.4031    1.0000 </r>
       <r>    1.9233    1.0000 </r>
       <r>    3.0777    1.0000 </r>
       <r>    8.7247    0.0000 </r>
       <r>    9.3793    0.0000 </r>
       <r>    9.9150    0.0000 </r>
       <r>   13.2795    0.0000 </r>
      </set>
      <set comment="kpoint 54">
       <r>   -2.9376    1.0000 </r>
       <r>   -1.0943    1.0000 </r>
       <r>    1.6469    1.0000 </r>
       <r>    2.7630    1.0000 </r>
       <r>    9.0999    0.0000 </r>
       <r>    9.4454    0.0000 </r>
       <r>   10.7073    0.0000 </r>
       <r>   12.5610    0.0000 </r>
      </set>
      <set comment="kpoint 55">
       <r>   -2.5319    1.0000 </r>
       <r>   -1.4454    1.0000 </r>
       <r>    1.8756    1.0000 </r>
       <r>    2.2529    1.0000 </r>
       <r>    8.6454    0.0000 </r>
       <r>    8.8555    0.0000 </r>
       <r>   11.2184    0.0000 </r>
       <r>   12.7979    0.0000 </r>
      </set>
      <set comment="kpoint 56">
       <r>   -2.3364    1.0000 </r>
       <r>   -1.6074    1.0000 </r>
       <r>    1.6017    1.0000 </r>
       <r>    2.2889    1.0000 </r>
       <r>    8.9943    0.0000 </r>
       <r>   10.2767    0.0000 </r>
       <r>   10.9825    0.0000 </r>
       <r>   10.9940    0.0000 </r>
      </set>
     </set>
    </set>
   </array>
  </eigenvalues>
  <separator name="orbital magnetization" >
   <v name="MAGDIPOLOUT">      0.00000000      0.00000000      0.00000000</v>
  </separator>
  <dos>
   <i name="efermi">      5.96291178 </i>
   <total>
    <array>
     <dimension dim="1">gridpoints</dimension>
     <dimension dim="2">spin</dimension>
     <field>energy</field>
     <field>total</field>
     <field>integrated</field>
     <set>
      <set comment="spin 1">
       <r>    -7.2628     0.0000     0.0000 </r>
       <r>    -7.1843     0.0000     0.0000 </r>
       <r>    -7.1058     0.0000     0.0000 </r>
       <r>    -7.0272     0.0000     0.0000 </r>
       <r>    -6.9487     0.0000     0.0000 </r>
       <r>    -6.8702     0.0000     0.0000 </r>
       <r>    -6.7917     0.0000     0.0000 </r>
       <r>    -6.7132     0.0000     0.0000 </r>
       <r>    -6.6346     0.0000     0.0000 </r>
       <r>    -6.5561     0.0000     0.0000 </r>
       <r>    -6.4776     0.0000     0.0000 </r>
       <r>    -6.3991     0.0000     0.0000 </r>
       <r>    -6.3205     0.0007     0.0001 </r>
       <r>    -6.2420     0.0063     0.0006 </r>
       <r>    -6.1635     0.0324     0.0031 </r>
       <r>    -6.0850     0.0924     0.0104 </r>
       <r>    -6.0065     0.1242     0.0201 </r>
       <r>    -5.9279     0.1346     0.0307 </r>
       <r>    -5.8494     0.2180     0.0478 </r>
       <r>    -5.7709     0.2911     0.0707 </r>
       <r>    -5.6924     0.2068     0.0869 </r>
       <r>    -5.6139     0.1535     0.0989 </r>
       <r>    -5.5353     0.3047     0.1229 </r>
       <r>    -5.4568     0.4149     0.1554 </r>
       <r>    -5.3783     0.3453     0.1826 </r>
       <r>    -5.2998     0.3450     0.2097 </r>
       <r>    -5.2212     0.3456     0.2368 </r>
       <r>    -5.1427     0.2410     0.2557 </r>
       <r>    -5.0642     0.2797     0.2777 </r>
       <r>    -4.9857     0.5696     0.3224 </r>
       <r>    -4.9072     0.6236     0.3714 </r>
       <r>    -4.8286     0.4205     0.4044 </r>
       <r>    -4.7501     0.4590     0.4404 </r>
       <r>    -4.6716     0.4755     0.4778 </r>
       <r>    -4.5931     0.3242     0.5032 </r>
       <r>    -4.5145     0.3155     0.5280 </r>
       <r>    -4.4360     0.6054     0.5755 </r>
       <r>    -4.3575     0.8301     0.6407 </r>
       <r>    -4.2790     0.8078     0.7042 </r>
       <r>    -4.2005     0.6701     0.7568 </r>
       <r>    -4.1219     0.5695     0.8015 </r>
       <r>    -4.0434     0.5132     0.8418 </r>
       <r>    -3.9649     0.4849     0.8799 </r>
       <r>    -3.8864     0.6127     0.9280 </r>
       <r>    -3.8078     1.1551     1.0187 </r>
       <r>    -3.7293     1.3715     1.1264 </r>
       <r>    -3.6508     0.8535     1.1934 </r>
       <r>    -3.5723     0.6671     1.2458 </r>
       <r>    -3.4938     0.7856     1.3075 </r>
       <r>    -3.4152     0.4935     1.3462 </r>
       <r>    -3.3367     0.4550     1.3819 </r>
       <r>    -3.2582     0.8406     1.4479 </r>
       <r>    -3.1797     1.1238     1.5362 </r>
       <r>    -3.1011     0.8408     1.6022 </r>
       <r>    -3.0226     0.4065     1.6341 </r>
       <r>    -2.9441     0.3772     1.6637 </r>
       <r>    -2.8656     0.4090     1.6959 </r>
       <r>    -2.7871     0.4639     1.7323 </r>
       <r>    -2.7085     0.8035     1.7954 </r>
       <r>    -2.6300     0.7370     1.8532 </r>
       <r>    -2.5515     0.3977     1.8845 </r>
       <r>    -2.4730     0.2395     1.9033 </r>
       <r>    -2.3944     0.1690     1.9166 </r>
       <r>    -2.3159     0.2362     1.9351 </r>
       <r>    -2.2374     0.3056     1.9591 </r>
       <r>    -2.1589     0.3088     1.9833 </r>
       <r>    -2.0804     0.2256     2.0011 </r>
       <r>    -2.0018     0.1465     2.0126 </r>
       <r>    -1.9233     0.1139     2.0215 </r>
       <r>    -1.8448     0.1758     2.0353 </r>
       <r>    -1.7663     0.1786     2.0493 </r>
       <r>    -1.6877     0.1127     2.0582 </r>
       <r>    -1.6092     0.1797     2.0723 </r>
       <r>    -1.5307     0.2618     2.0928 </r>
       <r>    -1.4522     0.4992     2.1320 </r>
       <r>    -1.3737     0.8742     2.2007 </r>
       <r>    -1.2951     0.8185     2.2650 </r>
       <r>    -1.2166     0.5390     2.3073 </r>
       <r>    -1.1381     0.7311     2.3647 </r>
       <r>    -1.0596     1.3260     2.4688 </r>
       <r>    -0.9810     1.4825     2.5852 </r>
       <r>    -0.9025     1.1931     2.6789 </r>
       <r>    -0.8240     0.9532     2.7538 </r>
       <r>    -0.7455     0.9997     2.8323 </r>
       <r>    -0.6670     0.9748     2.9088 </r>
       <r>    -0.5884     0.5309     2.9505 </r>
       <r>    -0.5099     0.2540     2.9704 </r>
       <r>    -0.4314     0.6105     3.0184 </r>
       <r>    -0.3529     0.9497     3.0929 </r>
       <r>    -0.2744     0.6585     3.1447 </r>
       <r>    -0.1958     0.3909     3.1753 </r>
       <r>    -0.1173     0.3069     3.1994 </r>
       <r>    -0.0388     0.4711     3.2364 </r>
       <r>     0.0397     0.6277     3.2857 </r>
       <r>     0.1183     0.3626     3.3142 </r>
       <r>     0.1968     0.2031     3.3301 </r>
       <r>     0.2753     0.3805     3.3600 </r>
       <r>     0.3538     0.5311     3.4017 </r>
       <r>     0.4323     0.4991     3.4409 </r>
       <r>     0.5109     0.3278     3.4666 </r>
       <r>     0.5894     0.2327     3.4849 </r>
       <r>     0.6679     0.2027     3.5008 </r>
       <r>     0.7464     0.2461     3.5202 </r>
       <r>     0.8250     0.4633     3.5565 </r>
       <r>     0.9035     0.4635     3.5929 </r>
       <r>     0.9820     0.1948     3.6082 </r>
       <r>     1.0605     0.0314     3.6107 </r>
       <r>     1.1390     0.0072     3.6112 </r>
       <r>     1.2176     0.0837     3.6178 </r>
       <r>     1.2961     0.4383     3.6522 </r>
       <r>     1.3746     0.8467     3.7187 </r>
       <r>     1.4531     0.8172     3.7829 </r>
       <r>     1.5317     0.8751     3.8516 </r>
       <r>     1.6102     1.0542     3.9344 </r>
       <r>     1.6887     0.9186     4.0065 </r>
       <r>     1.7672     0.7221     4.0632 </r>
       <r>     1.8457     1.0596     4.1464 </r>
       <r>     1.9243     1.5553     4.2685 </r>
       <r>     2.0028     1.5029     4.3866 </r>
       <r>     2.0813     0.9698     4.4627 </r>
       <r>     2.1598     0.7343     4.5204 </r>
       <r>     2.2384     0.9114     4.5919 </r>
       <r>     2.3169     0.9502     4.6665 </r>
       <r>     2.3954     0.9822     4.7437 </r>
       <r>     2.4739     1.1065     4.8305 </r>
       <r>     2.5524     1.3622     4.9375 </r>
       <r>     2.6310     1.6196     5.0647 </r>
       <r>     2.7095     1.2998     5.1667 </r>
       <r>     2.7880     0.9046     5.2378 </r>
       <r>     2.8665     1.0648     5.3214 </r>
       <r>     2.9451     1.6423     5.4503 </r>
       <r>     3.0236     2.0619     5.6122 </r>
       <r>     3.1021     1.9362     5.7643 </r>
       <r>     3.1806     1.2005     5.8585 </r>
       <r>     3.2591     0.8371     5.9243 </r>
       <r>     3.3377     1.3344     6.0291 </r>
       <r>     3.4162     1.7733     6.1683 </r>
       <r>     3.4947     1.6600     6.2986 </r>
       <r>     3.5732     1.1243     6.3869 </r>
       <r>     3.6518     0.7692     6.4473 </r>
       <r>     3.7303     1.1901     6.5408 </r>
       <r>     3.8088     1.7561     6.6787 </r>
       <r>     3.8873     1.7773     6.8182 </r>
       <r>     3.9658     1.4583     6.9327 </r>
       <r>     4.0444     1.0362     7.0141 </r>
       <r>     4.1229     1.0040     7.0929 </r>
       <r>     4.2014     1.4259     7.2049 </r>
       <r>     4.2799     1.2776     7.3052 </r>
       <r>     4.3585     0.7718     7.3658 </r>
       <r>     4.4370     0.6434     7.4163 </r>
       <r>     4.5155     1.0359     7.4977 </r>
       <r>     4.5940     1.2383     7.5949 </r>
       <r>     4.6725     0.8119     7.6587 </r>
       <r>     4.7511     0.5322     7.7005 </r>
       <r>     4.8296     0.6950     7.7550 </r>
       <r>     4.9081     0.7556     7.8144 </r>
       <r>     4.9866     0.5245     7.8555 </r>
       <r>     5.0652     0.2702     7.8768 </r>
       <r>     5.1437     0.2642     7.8975 </r>
       <r>     5.2222     0.3666     7.9263 </r>
       <r>     5.3007     0.2609     7.9468 </r>
       <r>     5.3792     0.1051     7.9550 </r>
       <r>     5.4578     0.1447     7.9664 </r>
       <r>     5.5363     0.2267     7.9842 </r>
       <r>     5.6148     0.1381     7.9950 </r>
       <r>     5.6933     0.0468     7.9987 </r>
       <r>     5.7718     0.0142     7.9998 </r>
       <r>     5.8504     0.0023     8.0000 </r>
       <r>     5.9289     0.0001     8.0000 </r>
       <r>     6.0074     0.0000     8.0000 </r>
       <r>     6.0859     0.0003     8.0000 </r>
       <r>     6.1645     0.0057     8.0005 </r>
       <r>     6.2430     0.0387     8.0035 </r>
       <r>     6.3215     0.0943     8.0109 </r>
       <r>     6.4000     0.1192     8.0203 </r>
       <r>     6.4785     0.2010     8.0361 </r>
       <r>     6.5571     0.3052     8.0600 </r>
       <r>     6.6356     0.3066     8.0841 </r>
       <r>     6.7141     0.3390     8.1107 </r>
       <r>     6.7926     0.3432     8.1377 </r>
       <r>     6.8712     0.2668     8.1586 </r>
       <r>     6.9497     0.3268     8.1843 </r>
       <r>     7.0282     0.6648     8.2365 </r>
       <r>     7.1067     0.7900     8.2985 </r>
       <r>     7.1852     0.6262     8.3477 </r>
       <r>     7.2638     0.7086     8.4033 </r>
       <r>     7.3423     1.0832     8.4884 </r>
       <r>     7.4208     1.2302     8.5850 </r>
       <r>     7.4993     1.0652     8.6686 </r>
       <r>     7.5779     0.9029     8.7395 </r>
       <r>     7.6564     1.0613     8.8228 </r>
       <r>     7.7349     1.2050     8.9175 </r>
       <r>     7.8134     1.2900     9.0188 </r>
       <r>     7.8919     1.5715     9.1422 </r>
       <r>     7.9705     1.8265     9.2856 </r>
       <r>     8.0490     1.4838     9.4021 </r>
       <r>     8.1275     1.0194     9.4821 </r>
       <r>     8.2060     1.0535     9.5649 </r>
       <r>     8.2846     1.5361     9.6855 </r>
       <r>     8.3631     1.5970     9.8109 </r>
       <r>     8.4416     1.0846     9.8960 </r>
       <r>     8.5201     1.1627     9.9873 </r>
       <r>     8.5986     1.1041    10.0740 </r>
       <r>     8.6772     0.8998    10.1447 </r>
       <r>     8.7557     1.0841    10.2298 </r>
       <r>     8.8342     1.4859    10.3465 </r>
       <r>     8.9127     2.2045    10.5196 </r>
       <r>     8.9913     2.6026    10.7240 </r>
       <r>     9.0698     2.1062    10.8893 </r>
       <r>     9.1483     1.7458    11.0264 </r>
       <r>     9.2268     1.7716    11.1655 </r>
       <r>     9.3053     1.6210    11.2928 </r>
       <r>     9.3839     1.8524    11.4383 </r>
       <r>     9.4624     1.9592    11.5921 </r>
       <r>     9.5409     1.3419    11.6975 </r>
       <r>     9.6194     0.8797    11.7666 </r>
       <r>     9.6980     0.9107    11.8381 </r>
       <r>     9.7765     0.8786    11.9071 </r>
       <r>     9.8550     1.0137    11.9867 </r>
       <r>     9.9335     1.4224    12.0983 </r>
       <r>    10.0120     1.3282    12.2026 </r>
       <r>    10.0906     0.8439    12.2689 </r>
       <r>    10.1691     0.6378    12.3190 </r>
       <r>    10.2476     1.2098    12.4140 </r>
       <r>    10.3261     2.3489    12.5984 </r>
       <r>    10.4047     2.4873    12.7937 </r>
       <r>    10.4832     1.8191    12.9366 </r>
       <r>    10.5617     1.4236    13.0484 </r>
       <r>    10.6402     1.2806    13.1489 </r>
       <r>    10.7187     1.3638    13.2560 </r>
       <r>    10.7973     1.2012    13.3503 </r>
       <r>    10.8758     0.8447    13.4166 </r>
       <r>    10.9543     0.8133    13.4805 </r>
       <r>    11.0328     0.7779    13.5416 </r>
       <r>    11.1113     0.5923    13.5881 </r>
       <r>    11.1899     0.7631    13.6480 </r>
       <r>    11.2684     0.9976    13.7264 </r>
       <r>    11.3469     1.2912    13.8277 </r>
       <r>    11.4254     1.5366    13.9484 </r>
       <r>    11.5040     1.0598    14.0316 </r>
       <r>    11.5825     0.6059    14.0792 </r>
       <r>    11.6610     0.7992    14.1419 </r>
       <r>    11.7395     1.0486    14.2243 </r>
       <r>    11.8180     1.3045    14.3267 </r>
       <r>    11.8966     1.4466    14.4403 </r>
       <r>    11.9751     1.5408    14.5613 </r>
       <r>    12.0536     1.5101    14.6799 </r>
       <r>    12.1321     0.9415    14.7538 </r>
       <r>    12.2107     0.4988    14.7930 </r>
       <r>    12.2892     0.6625    14.8450 </r>
       <r>    12.3677     0.9260    14.9177 </r>
       <r>    12.4462     0.7806    14.9790 </r>
       <r>    12.5247     0.6309    15.0285 </r>
       <r>    12.6033     0.5847    15.0744 </r>
       <r>    12.6818     0.3338    15.1007 </r>
       <r>    12.7603     0.4267    15.1342 </r>
       <r>    12.8388     0.8384    15.2000 </r>
       <r>    12.9174     0.9072    15.2712 </r>
       <r>    12.9959     0.7127    15.3272 </r>
       <r>    13.0744     0.4675    15.3639 </r>
       <r>    13.1529     0.2262    15.3817 </r>
       <r>    13.2314     0.3185    15.4067 </r>
       <r>    13.3100     0.8150    15.4707 </r>
       <r>    13.3885     1.1288    15.5593 </r>
       <r>    13.4670     0.9715    15.6356 </r>
       <r>    13.5455     0.6768    15.6887 </r>
       <r>    13.6241     0.5567    15.7324 </r>
       <r>    13.7026     0.8230    15.7971 </r>
       <r>    13.7811     0.9343    15.8704 </r>
       <r>    13.8596     0.4298    15.9042 </r>
       <r>    13.9381     0.0685    15.9096 </r>
       <r>    14.0167     0.0036    15.9098 </r>
       <r>    14.0952     0.0001    15.9098 </r>
       <r>    14.1737     0.0000    15.9098 </r>
       <r>    14.2522     0.0000    15.9098 </r>
       <r>    14.3308     0.0000    15.9098 </r>
       <r>    14.4093     0.0000    15.9098 </r>
       <r>    14.4878     0.0000    15.9098 </r>
       <r>    14.5663     0.0000    15.9098 </r>
       <r>    14.6448     0.0002    15.9099 </r>
       <r>    14.7234     0.0064    15.9104 </r>
       <r>    14.8019     0.0585    15.9149 </r>
       <r>    14.8804     0.1812    15.9292 </r>
       <r>    14.9589     0.2277    15.9471 </r>
       <r>    15.0375     0.1988    15.9627 </r>
       <r>    15.1160     0.1722    15.9762 </r>
       <r>    15.1945     0.1375    15.9870 </r>
       <r>    15.2730     0.1097    15.9956 </r>
       <r>    15.3515     0.0481    15.9994 </r>
       <r>    15.4301     0.0076    16.0000 </r>
       <r>    15.5086     0.0004    16.0000 </r>
       <r>    15.5871     0.0000    16.0000 </r>
       <r>    15.6656     0.0000    16.0000 </r>
       <r>    15.7442     0.0000    16.0000 </r>
       <r>    15.8227     0.0000    16.0000 </r>
       <r>    15.9012     0.0000    16.0000 </r>
       <r>    15.9797     0.0000    16.0000 </r>
       <r>    16.0582     0.0000    16.0000 </r>
       <r>    16.1368     0.0000    16.0000 </r>
       <r>    16.2153     0.0000    16.0000 </r>
       <r>    16.2938     0.0000    16.0000 </r>
      </set>
     </set>
    </array>
   </total>
  </dos>
 </calculation>
 <structure name="finalpos" >
  <crystal>
   <varray name="basis" >
    <v>      -0.00000000       2.73244380       2.73244380 </v>
    <v>       2.73244380      -0.00000000       2.73244380 </v>
    <v>       2.73244380       2.73244380      -0.00000000 </v>
   </varray>
   <i name="volume">     40.80221232 </i>
   <varray name="rec_basis" >
    <v>      -0.18298638       0.18298638       0.18298638 </v>
    <v>       0.18298638      -0.18298638       0.18298638 </v>
    <v>       0.18298638       0.18298638      -0.18298638 </v>
   </varray>
  </crystal>
  <varray name="positions" >
   <v>       0.87500000       0.87500000       0.87500000 </v>
   <v>       0.12500000       0.12500000       0.12500000 </v>
  </varray>
 </structure>
</modeling>
