diamond Si                              
           1
     0.000000    2.750000    2.750000
     2.750000    0.000000    2.750000
     2.750000    2.750000    0.000000
   Si
     2
Direct configuration=     1
   0.87500000  0.87500000  0.87500000
   0.12500000  0.12500000  0.12500000
diamond Si                              
           1
    -0.000000    2.721831    2.721831
     2.721831   -0.000000    2.721831
     2.721831    2.721831   -0.000000
   Si
     2
Direct configuration=     2
   0.87500000  0.87500000  0.87500000
   0.12500000  0.12500000  0.12500000
diamond Si                              
           1
    -0.000000    2.732444    2.732444
     2.732444   -0.000000    2.732444
     2.732444    2.732444   -0.000000
   Si
     2
Direct configuration=     3
   0.87500000  0.87500000  0.87500000
   0.12500000  0.12500000  0.12500000
