fcc Si                                  
   4.10000000000000     
     0.500000    0.500000    0.000000
     0.000000    0.500000    0.500000
     0.500000    0.000000    0.500000
   Si
     1
Direct
  0.000000  0.000000  0.000000
 
   24   24   24
 -2.8819     -2.1750     -.28892      2.1689      4.4640      6.0163      6.5911      6.3280      5.6152      4.8704    
  4.2809      3.9096      3.7835      3.9096      4.2809      4.8704      5.6152      6.3280      6.5911      6.0163    
  4.4640      2.1689     -.28892     -2.1750     -2.1750     -.88017      1.2795      3.6214      5.4822      6.4597    
  6.5227      5.9558      5.1860      4.5135      4.0328      3.7851      3.7851      4.0328      4.5135      5.1860    
  5.9558      6.5227      6.4597      5.4822      3.6215      1.2795     -.88017     -2.1750     -.28892      1.2795    
  3.2958      5.1262      6.2811      6.5820      6.1799      5.4373      4.7119      4.1444      3.7891      3.6689    
  3.7891      4.1443      4.7119      5.4373      6.1799      6.5820      6.2812      5.1263      3.2959      1.2795    
 -.28890     -.88017      2.1689      3.6214      5.1262      6.2017      6.5828      6.2971      5.6095      4.8621    
  4.2352      3.7940      3.5686      3.5685      3.7939      4.2351      4.8621      5.6095      6.2972      6.5828    
  6.2018      5.1263      3.6215      2.1689      1.2795      1.2795      4.4640      5.4822      6.2811      6.5828    
  6.3322      5.6954      4.9551      4.2987      3.7980      3.4893      3.3856      3.4893      3.7980      4.2986    
  4.9551      5.6954      6.3322      6.5828      6.2812      5.4823      4.4641      3.6215      3.2959      3.6215    
  6.0163      6.4597      6.5820      6.2971      5.6954      4.9865      4.3311      3.8004      3.4346      3.2498    
  3.2498      3.4346      3.8005      4.3311      4.9865      5.6954      6.2971      6.5820      6.4597      6.0163    
  5.4823      5.1263      5.1263      5.4822      6.5911      6.5227      6.1799      5.6095      4.9551      4.3311    
  3.8012      3.4066      3.1667      3.0866      3.1667      3.4067      3.8013      4.3312      4.9551      5.6095    
  6.1799      6.5227      6.5911      6.4597      6.2812      6.2018      6.2812      6.4597      6.3280      5.9558    
  5.4373      4.8621      4.2987      3.8004      3.4066      3.1387      3.0042      3.0042      3.1388      3.4067    
  3.8005      4.2987      4.8622      5.4374      5.9558      6.3279      6.5227      6.5820      6.5828      6.5828    
  6.5820      6.5227      5.6152      5.1860      4.7119      4.2352      3.7980      3.4346      3.1667      3.0042    
  2.9500      3.0042      3.1667      3.4346      3.7980      4.2352      4.7120      5.1860      5.6152      5.9558    
  6.1799      6.2971      6.3322      6.2972      6.1799      5.9558      4.8704      4.5135      4.1444      3.7940    
  3.4893      3.2498      3.0866      3.0042      3.0042      3.0865      3.2498      3.4893      3.7940      4.1444    
  4.5135      4.8705      5.1860      5.4374      5.6095      5.6954      5.6954      5.6095      5.4373      5.1860    
  4.2809      4.0328      3.7891      3.5686      3.3856      3.2498      3.1667      3.1388      3.1667      3.2498    
  3.3855      3.5685      3.7891      4.0328      4.2810      4.5135      4.7120      4.8622      4.9551      4.9865    
  4.9551      4.8621      4.7119      4.5135      3.9096      3.7851      3.6689      3.5685      3.4893      3.4346    
  3.4067      3.4067      3.4346      3.4893      3.5685      3.6688      3.7850      3.9095      4.0328      4.1444    
  4.2352      4.2987      4.3312      4.3311      4.2986      4.2351      4.1443      4.0328      3.7835      3.7851    
  3.7891      3.7939      3.7980      3.8005      3.8013      3.8005      3.7980      3.7940      3.7891      3.7850    
  3.7834      3.7850      3.7891      3.7940      3.7980      3.8005      3.8013      3.8005      3.7980      3.7939    
  3.7891      3.7851      3.9096      4.0328      4.1443      4.2351      4.2986      4.3311      4.3312      4.2987    
  4.2352      4.1444      4.0328      3.9095      3.7850      3.6688      3.5685      3.4893      3.4346      3.4067    
  3.4067      3.4346      3.4893      3.5685      3.6689      3.7851      4.2809      4.5135      4.7119      4.8621    
  4.9551      4.9865      4.9551      4.8622      4.7120      4.5135      4.2810      4.0328      3.7891      3.5685    
  3.3855      3.2498      3.1667      3.1388      3.1667      3.2498      3.3856      3.5686      3.7891      4.0328    
  4.8704      5.1860      5.4373      5.6095      5.6954      5.6954      5.6095      5.4374      5.1860      4.8705    
  4.5135      4.1444      3.7940      3.4893      3.2498      3.0865      3.0042      3.0042      3.0866      3.2498    
  3.4893      3.7940      4.1444      4.5135      5.6152      5.9558      6.1799      6.2972      6.3322      6.2971    
  6.1799      5.9558      5.6152      5.1860      4.7120      4.2352      3.7980      3.4346      3.1667      3.0042    
  2.9500      3.0042      3.1667      3.4346      3.7980      4.2352      4.7119      5.1860      6.3280      6.5227    
  6.5820      6.5828      6.5828      6.5820      6.5227      6.3279      5.9558      5.4374      4.8622      4.2987    
  3.8005      3.4067      3.1388      3.0042      3.0042      3.1387      3.4066      3.8004      4.2987      4.8621    
  5.4373      5.9558      6.5911      6.4597      6.2812      6.2018      6.2812      6.4597      6.5911      6.5227    
  6.1799      5.6095      4.9551      4.3312      3.8013      3.4067      3.1667      3.0866      3.1667      3.4066    
  3.8012      4.3311      4.9551      5.6095      6.1799      6.5227      6.0163      5.4822      5.1263      5.1263    
  5.4823      6.0163      6.4597      6.5820      6.2971      5.6954      4.9865      4.3311      3.8005      3.4346    
  3.2498      3.2498      3.4346      3.8004      4.3311      4.9865      5.6954      6.2971      6.5820      6.4597    
  4.4640      3.6215      3.2959      3.6215      4.4641      5.4823      6.2812      6.5828      6.3322      5.6954    
  4.9551      4.2986      3.7980      3.4893      3.3856      3.4893      3.7980      4.2987      4.9551      5.6954    
  6.3322      6.5828      6.2811      5.4822      2.1689      1.2795      1.2795      2.1689      3.6215      5.1263    
  6.2018      6.5828      6.2972      5.6095      4.8621      4.2351      3.7939      3.5685      3.5686      3.7940    
  4.2352      4.8621      5.6095      6.2971      6.5828      6.2017      5.1262      3.6214     -.28892     -.88017    
 -.28890      1.2795      3.2959      5.1263      6.2812      6.5820      6.1799      5.4373      4.7119      4.1443    
  3.7891      3.6689      3.7891      4.1444      4.7119      5.4373      6.1799      6.5820      6.2811      5.1262    
  3.2958      1.2795     -2.1750     -2.1750     -.88017      1.2795      3.6215      5.4822      6.4597      6.5227    
  5.9558      5.1860      4.5135      4.0328      3.7851      3.7851      4.0328      4.5135      5.1860      5.9558    
  6.5227      6.4597      5.4822      3.6214      1.2795     -.88017     -2.1750     -.88017      1.2795      3.6214    
  5.4822      6.4597      6.5227      5.9558      5.1860      4.5135      4.0328      3.7851      3.7851      4.0328    
  4.5135      5.1860      5.9558      6.5227      6.4597      5.4822      3.6215      1.2795     -.88017     -2.1750    
 -.88017     0.79261      2.9531      4.9338      6.2156      6.6025      6.2424      5.5070      4.7742      4.1988    
  3.8380      3.7158      3.8380      4.1988      4.7742      5.5070      6.2424      6.6025      6.2157      4.9338    
  2.9531     0.79263     -.88017     -1.5096      1.2795      2.9531      4.7168      6.0314      6.5900      6.4035    
  5.7449      4.9858      4.3425      3.8877      3.6547      3.6547      3.8876      4.3424      4.9857      5.7448    
  6.4035      6.5901      6.0315      4.7168      2.9531      1.2796     0.26266     0.26265      3.6214      4.9338    
  6.0314      6.5734      6.4701      5.8863      5.1338      4.4526      3.9291      3.6050      3.4959      3.6050    
  3.9291      4.4525      5.1338      5.8863      6.4702      6.5735      6.0315      4.9339      3.6215      2.5627    
  2.1576      2.5627      5.4822      6.2156      6.5900      6.4701      5.9326      5.2098      4.5214      3.9585    
  3.5683      3.3706      3.3706      3.5683      3.9585      4.5214      5.2097      5.9326      6.4701      6.5900    
  6.2157      5.4823      4.6923      4.1862      4.1861      4.6922      6.4597      6.6025      6.4035      5.8863    
  5.2098      4.5448      3.9737      3.5458      3.2846      3.1973      3.2847      3.5458      3.9737      4.5448    
  5.2097      5.8863      6.4035      6.6025      6.4597      6.1033      5.7526      5.6087      5.7525      6.1032    
  6.5227      6.2424      5.7449      5.1338      4.5214      3.9737      3.5381      3.2410      3.0916      3.0917    
  3.2410      3.5382      3.9738      4.5214      5.1338      5.7448      6.2423      6.5227      6.5806      6.5049    
  6.4223      6.4223      6.5049      6.5806      5.9558      5.5070      4.9858      4.4526      3.9585      3.5458    
  3.2410      3.0562      2.9946      3.0562      3.2410      3.5458      3.9586      4.4526      4.9858      5.5070    
  5.9557      6.2675      6.4336      6.4963      6.5093      6.4963      6.4336      6.2676      5.1860      4.7742    
  4.3425      3.9291      3.5683      3.2846      3.0916      2.9946      2.9946      3.0916      3.2846      3.5683    
  3.9292      4.3425      4.7742      5.1860      5.5433      5.8162      5.9885      6.0685      6.0685      5.9886    
  5.8162      5.5433      4.5135      4.1988      3.8877      3.6050      3.3706      3.1973      3.0917      3.0562    
  3.0916      3.1972      3.3705      3.6050      3.8877      4.1989      4.5135      4.8053      5.0513      5.2351    
  5.3478      5.3856      5.3477      5.2351      5.0512      4.8053      4.0328      3.8380      3.6547      3.4959    
  3.3706      3.2847      3.2410      3.2410      3.2846      3.3705      3.4958      3.6546      3.8380      4.0328    
  4.2235      4.3944      4.5322      4.6279      4.6767      4.6766      4.6278      4.5321      4.3943      4.2235    
  3.7851      3.7158      3.6547      3.6050      3.5683      3.5458      3.5382      3.5458      3.5683      3.6050    
  3.6546      3.7157      3.7850      3.8577      3.9274      3.9876      4.0331      4.0611      4.0704      4.0610    
  4.0330      3.9875      3.9274      3.8578      3.7851      3.8380      3.8876      3.9291      3.9585      3.9737    
  3.9738      3.9586      3.9292      3.8877      3.8380      3.7850      3.7337      3.6875      3.6485      3.6179    
  3.5964      3.5853      3.5853      3.5964      3.6178      3.6485      3.6875      3.7337      4.0328      4.1988    
  4.3424      4.4525      4.5214      4.5448      4.5214      4.4526      4.3425      4.1989      4.0328      3.8577    
  3.6875      3.5340      3.4066      3.3116      3.2531      3.2333      3.2531      3.3117      3.4067      3.5341    
  3.6876      3.8578      4.5135      4.7742      4.9857      5.1338      5.2097      5.2097      5.1338      4.9858    
  4.7742      4.5135      4.2235      3.9274      3.6485      3.4066      3.2162      3.0858      3.0198      3.0198    
  3.0858      3.2163      3.4067      3.6486      3.9274      4.2235      5.1860      5.5070      5.7448      5.8863    
  5.9326      5.8863      5.7448      5.5070      5.1860      4.8053      4.3944      3.9876      3.6179      3.3116    
  3.0858      2.9485      2.9026      2.9485      3.0858      3.3117      3.6179      3.9875      4.3943      4.8053    
  5.9558      6.2424      6.4035      6.4702      6.4701      6.4035      6.2423      5.9557      5.5433      5.0513    
  4.5322      4.0331      3.5964      3.2531      3.0198      2.9026      2.9026      3.0197      3.2530      3.5964    
  4.0330      4.5322      5.0512      5.5433      6.5227      6.6025      6.5901      6.5735      6.5900      6.6025    
  6.5227      6.2675      5.8162      5.2351      4.6279      4.0611      3.5853      3.2333      3.0198      2.9485    
  3.0197      3.2332      3.5853      4.0610      4.6279      5.2351      5.8162      6.2676      6.4597      6.2157    
  6.0315      6.0315      6.2157      6.4597      6.5806      6.4336      5.9885      5.3478      4.6767      4.0704    
  3.5853      3.2531      3.0858      3.0858      3.2530      3.5853      4.0704      4.6767      5.3478      5.9886    
  6.4336      6.5806      5.4822      4.9338      4.7168      4.9339      5.4823      6.1033      6.5049      6.4963    
  6.0685      5.3856      4.6766      4.0610      3.5964      3.3117      3.2163      3.3117      3.5964      4.0610    
  4.6767      5.3856      6.0685      6.4963      6.5049      6.1032      3.6215      2.9531      2.9531      3.6215    
  4.6923      5.7526      6.4223      6.5093      6.0685      5.3477      4.6278      4.0330      3.6178      3.4067    
  3.4067      3.6179      4.0330      4.6279      5.3478      6.0685      6.5092      6.4222      5.7525      4.6922    
  1.2795     0.79263      1.2796      2.5627      4.1862      5.6087      6.4223      6.4963      5.9886      5.2351    
  4.5321      3.9875      3.6485      3.5341      3.6486      3.9875      4.5322      5.2351      5.9886      6.4963    
  6.4222      5.6086      4.1861      2.5627     -.88017     -.88017     0.26266      2.1576      4.1861      5.7525    
  6.5049      6.4336      5.8162      5.0512      4.3943      3.9274      3.6875      3.6876      3.9274      4.3943    
  5.0512      5.8162      6.4336      6.5049      5.7525      4.1861      2.1575     0.26265     -2.1750     -1.5096    
 0.26265      2.5627      4.6922      6.1032      6.5806      6.2676      5.5433      4.8053      4.2235      3.8578    
  3.7337      3.8578      4.2235      4.8053      5.5433      6.2676      6.5806      6.1032      4.6922      2.5627    
 0.26265     -1.5096     -.28893      1.2795      3.2958      5.1262      6.2811      6.5820      6.1799      5.4373    
  4.7119      4.1444      3.7891      3.6689      3.7891      4.1443      4.7119      5.4373      6.1799      6.5820    
  6.2812      5.1263      3.2959      1.2795     -.28890     -.88017      1.2795      2.9531      4.7168      6.0314    
  6.5900      6.4035      5.7449      4.9858      4.3425      3.8877      3.6547      3.6547      3.8876      4.3424    
  4.9857      5.7448      6.4035      6.5901      6.0315      4.7168      2.9531      1.2795     0.26266     0.26265    
  3.2958      4.7168      5.9254      6.5578      6.5115      5.9503      5.1954      4.5059      3.9746      3.6452    
  3.5342      3.6451      3.9746      4.5058      5.1954      5.9503      6.5115      6.5579      5.9255      4.7169    
  3.2959      2.1576      1.7232      2.1575      5.1262      6.0314      6.5578      6.5417      6.0505      5.3266    
  4.6218      4.0423      3.6393      3.4347      3.4347      3.6392      4.0423      4.6218      5.3266      6.0505    
  6.5417      6.5579      6.0315      5.1263      4.1862      3.5923      3.5923      4.1861      6.2811      6.5900    
  6.5115      6.0505      5.3712      4.6819      4.0851      3.6358      3.3609      3.2689      3.3609      3.6358    
  4.0851      4.6818      5.3712      6.0504      6.5114      6.5900      6.2811      5.7525      5.2718      5.0794    
  5.2717      5.7525      6.5820      6.4035      5.9503      5.3266      4.6819      4.0997      3.6342      3.3156    
  3.1554      3.1554      3.3157      3.6343      4.0997      4.6819      5.3266      5.9502      6.4034      6.5820    
  6.5049      6.3019      6.1421      6.1421      6.3019      6.5049      6.1799      5.7449      5.1954      4.6218    
  4.0851      3.6342      3.3004      3.0979      3.0303      3.0979      3.3005      3.6343      4.0852      4.6218    
  5.1954      5.7448      6.1798      6.4335      6.5206      6.5165      6.5034      6.5165      6.5207      6.4336    
  5.4373      4.9858      4.5059      4.0423      3.6358      3.3156      3.0979      2.9885      2.9885      3.0979    
  3.3157      3.6359      4.0424      4.5059      4.9858      5.4373      5.8161      6.0804      6.2288      6.2898    
  6.2898      6.2288      6.0805      5.8162      4.7119      4.3425      3.9746      3.6393      3.3609      3.1554    
  3.0303      2.9885      3.0303      3.1553      3.3609      3.6393      3.9747      4.3425      4.7120      5.0513    
  5.3339      5.5417      5.6649      5.7051      5.6650      5.5417      5.3339      5.0512      4.1444      3.8877    
  3.6452      3.4347      3.2689      3.1554      3.0979      3.0979      3.1553      3.2688      3.4346      3.6451    
  3.8877      4.1444      4.3944      4.6171      4.7957      4.9191      4.9818      4.9818      4.9190      4.7956    
  4.6170      4.3943      3.7891      3.6547      3.5342      3.4347      3.3609      3.3157      3.3005      3.3157    
  3.3609      3.4346      3.5341      3.6546      3.7891      3.9274      4.0581      4.1700      4.2546      4.3068    
  4.3244      4.3067      4.2545      4.1699      4.0580      3.9274      3.6689      3.6547      3.6451      3.6392    
  3.6358      3.6343      3.6343      3.6359      3.6393      3.6451      3.6546      3.6688      3.6875      3.7088    
  3.7295      3.7468      3.7585      3.7643      3.7643      3.7585      3.7467      3.7295      3.7088      3.6876    
  3.7891      3.8876      3.9746      4.0423      4.0851      4.0997      4.0852      4.0424      3.9747      3.8877    
  3.7891      3.6875      3.5906      3.5045      3.4331      3.3797      3.3464      3.3351      3.3464      3.3797    
  3.4332      3.5045      3.5907      3.6875      4.1443      4.3424      4.5058      4.6218      4.6818      4.6819    
  4.6218      4.5059      4.3425      4.1444      3.9274      3.7088      3.5045      3.3277      3.1880      3.0918    
  3.0428      3.0428      3.0918      3.1881      3.3278      3.5045      3.7088      3.9274      4.7119      4.9857    
  5.1954      5.3266      5.3712      5.3266      5.1954      4.9858      4.7120      4.3944      4.0581      3.7295    
  3.4331      3.1880      3.0067      2.8960      2.8589      2.8961      3.0068      3.1881      3.4332      3.7295    
  4.0580      4.3943      5.4373      5.7448      5.9503      6.0505      6.0504      5.9502      5.7448      5.4373    
  5.0513      4.6171      4.1700      3.7468      3.3797      3.0918      2.8960      2.7975      2.7975      2.8960    
  3.0918      3.3797      3.7467      4.1699      4.6170      5.0512      6.1799      6.4035      6.5115      6.5417    
  6.5114      6.4034      6.1798      5.8161      5.3339      4.7957      4.2546      3.7585      3.3464      3.0428    
  2.8589      2.7975      2.8589      3.0428      3.3463      3.7585      4.2545      4.7956      5.3339      5.8162    
  6.5820      6.5901      6.5579      6.5579      6.5900      6.5820      6.4335      6.0804      5.5417      4.9191    
  4.3068      3.7643      3.3351      3.0428      2.8961      2.8960      3.0428      3.3350      3.7643      4.3068    
  4.9191      5.5417      6.0805      6.4336      6.2812      6.0315      5.9255      6.0315      6.2811      6.5049    
  6.5206      6.2288      5.6649      4.9818      4.3244      3.7643      3.3464      3.0918      3.0068      3.0918    
  3.3463      3.7643      4.3244      4.9818      5.6650      6.2288      6.5207      6.5049      5.1263      4.7168    
  4.7169      5.1263      5.7525      6.3019      6.5165      6.2898      5.7051      4.9818      4.3067      3.7585    
  3.3797      3.1881      3.1881      3.3797      3.7585      4.3068      4.9818      5.7052      6.2898      6.5165    
  6.3019      5.7525      3.2959      2.9531      3.2959      4.1862      5.2718      6.1421      6.5034      6.2898    
  5.6650      4.9190      4.2545      3.7467      3.4332      3.3278      3.4332      3.7467      4.2545      4.9191    
  5.6650      6.2898      6.5034      6.1421      5.2717      4.1861      1.2795      1.2795      2.1576      3.5923    
  5.0794      6.1421      6.5165      6.2288      5.5417      4.7956      4.1699      3.7295      3.5045      3.5045    
  3.7295      4.1699      4.7956      5.5417      6.2288      6.5165      6.1421      5.0794      3.5923      2.1576    
 -.28890     0.26266      1.7232      3.5923      5.2717      6.3019      6.5207      6.0805      5.3339      4.6170    
  4.0580      3.7088      3.5907      3.7088      4.0580      4.6170      5.3339      6.0805      6.5207      6.3019    
  5.2717      3.5923      1.7232     0.26266     -.88017     0.26265      2.1575      4.1861      5.7525      6.5049    
  6.4336      5.8162      5.0512      4.3943      3.9274      3.6876      3.6875      3.9274      4.3943      5.0512    
  5.8162      6.4336      6.5049      5.7525      4.1861      2.1576     0.26266     -.88017      2.1689      3.6214    
  5.1262      6.2017      6.5828      6.2971      5.6095      4.8621      4.2352      3.7940      3.5686      3.5685    
  3.7939      4.2351      4.8621      5.6095      6.2972      6.5828      6.2018      5.1263      3.6215      2.1689    
  1.2795      1.2795      3.6214      4.9338      6.0314      6.5734      6.4701      5.8863      5.1338      4.4526    
  3.9291      3.6050      3.4959      3.6050      3.9291      4.4525      5.1338      5.8863      6.4702      6.5735    
  6.0315      4.9339      3.6215      2.5627      2.1576      2.5627      5.1262      6.0314      6.5578      6.5417    
  6.0505      5.3266      4.6218      4.0423      3.6393      3.4347      3.4347      3.6392      4.0423      4.6218    
  5.3266      6.0505      6.5417      6.5579      6.0315      5.1263      4.1862      3.5923      3.5923      4.1861    
  6.2017      6.5734      6.5417      6.1042      5.4265      4.7291      4.1236      3.6670      3.3873      3.2936    
  3.3873      3.6670      4.1236      4.7291      5.4264      6.1041      6.5416      6.5734      6.2017      5.6087    
  5.0795      4.8691      5.0794      5.6086      6.5828      6.4701      6.0505      5.4265      4.7659      4.1660    
  3.6848      3.3550      3.1889      3.1889      3.3550      3.6849      4.1660      4.7658      5.4264      6.0504    
  6.4700      6.5827      6.4222      6.1421      5.9361      5.9361      6.1421      6.4222      6.2971      5.8863    
  5.3266      4.7291      4.1660      3.6910      3.3385      3.1245      3.0531      3.1246      3.3386      3.6911    
  4.1661      4.7291      5.3266      5.8862      6.2970      6.4961      6.5164      6.4579      6.4240      6.4579    
  6.5165      6.4963      5.6095      5.1338      4.6218      4.1236      3.6848      3.3385      3.1029      2.9845    
  2.9845      3.1029      3.3386      3.6849      4.1237      4.6219      5.1338      5.6095      5.9884      6.2287    
  6.3447      6.3834      6.3834      6.3448      6.2288      5.9886      4.8621      4.4526      4.0423      3.6670    
  3.3550      3.1245      2.9845      2.9376      2.9844      3.1245      3.3550      3.6670      4.0424      4.4526    
  4.8621      5.2351      5.5417      5.7580      5.8797      5.9181      5.8798      5.7581      5.5417      5.2351    
  4.2352      3.9291      3.6393      3.3873      3.1889      3.0531      2.9845      2.9844      3.0531      3.1888    
  3.3873      3.6393      3.9292      4.2352      4.5322      4.7957      5.0060      5.1508      5.2242      5.2242    
  5.1508      5.0060      4.7956      4.5322      3.7940      3.6050      3.4347      3.2936      3.1889      3.1246    
  3.1029      3.1245      3.1888      3.2935      3.4346      3.6050      3.7940      3.9876      4.1700      4.3262    
  4.4447      4.5180      4.5427      4.5179      4.4446      4.3262      4.1699      3.9875      3.5686      3.4959    
  3.4347      3.3873      3.3550      3.3386      3.3386      3.3550      3.3873      3.4346      3.4958      3.5685    
  3.6485      3.7295      3.8040      3.8651      3.9077      3.9294      3.9294      3.9076      3.8650      3.8040    
  3.7295      3.6486      3.5685      3.6050      3.6392      3.6670      3.6849      3.6911      3.6849      3.6670    
  3.6393      3.6050      3.5685      3.5340      3.5044      3.4806      3.4620      3.4484      3.4397      3.4367    
  3.4397      3.4483      3.4620      3.4806      3.5045      3.5341      3.7939      3.9291      4.0423      4.1236    
  4.1660      4.1661      4.1237      4.0424      3.9292      3.7940      3.6485      3.5044      3.3716      3.2575    
  3.1672      3.1047      3.0726      3.0726      3.1047      3.1672      3.2575      3.3717      3.5045      3.6485    
  4.2351      4.4525      4.6218      4.7291      4.7658      4.7291      4.6219      4.4526      4.2352      3.9876    
  3.7295      3.4806      3.2575      3.0730      2.9360      2.8520      2.8236      2.8520      2.9361      3.0731    
  3.2575      3.4806      3.7295      3.9875      4.8621      5.1338      5.3266      5.4264      5.4264      5.3266    
  5.1338      4.8621      4.5322      4.1700      3.8040      3.4620      3.1672      2.9360      2.7784      2.6987    
  2.6988      2.7784      2.9361      3.1672      3.4620      3.8040      4.1699      4.5321      5.6095      5.8863    
  6.0505      6.1041      6.0504      5.8862      5.6095      5.2351      4.7957      4.3262      3.8651      3.4484    
  3.1047      2.8520      2.6987      2.6476      2.6988      2.8520      3.1046      3.4483      3.8650      4.3262    
  4.7956      5.2351      6.2972      6.4702      6.5417      6.5416      6.4700      6.2970      5.9884      5.5417    
  5.0060      4.4447      3.9077      3.4397      3.0726      2.8236      2.6988      2.6988      2.8236      3.0726    
  3.4396      3.9076      4.4446      5.0060      5.5417      5.9886      6.5828      6.5735      6.5579      6.5734    
  6.5827      6.4961      6.2287      5.7580      5.1508      4.5180      3.9294      3.4367      3.0726      2.8520    
  2.7784      2.8520      3.0726      3.4366      3.9294      4.5180      5.1509      5.7581      6.2288      6.4963    
  6.2018      6.0315      6.0315      6.2017      6.4222      6.5164      6.3447      5.8797      5.2242      4.5427    
  3.9294      3.4397      3.1047      2.9361      2.9361      3.1046      3.4396      3.9294      4.5427      5.2243    
  5.8798      6.3448      6.5165      6.4223      5.1263      4.9339      5.1263      5.6087      6.1421      6.4579    
  6.3834      5.9181      5.2242      4.5179      3.9076      3.4483      3.1672      3.0731      3.1672      3.4483    
  3.9076      4.5180      5.2243      5.9182      6.3835      6.4579      6.1421      5.6087      3.6215      3.6215    
  4.1862      5.0795      5.9361      6.4240      6.3834      5.8798      5.1508      4.4446      3.8650      3.4620    
  3.2575      3.2575      3.4620      3.8650      4.4446      5.1509      5.8798      6.3835      6.4240      5.9361    
  5.0794      4.1862      2.1689      2.5627      3.5923      4.8691      5.9361      6.4579      6.3448      5.7581    
  5.0060      4.3262      3.8040      3.4806      3.3717      3.4806      3.8040      4.3262      5.0060      5.7581    
  6.3448      6.4579      5.9361      4.8691      3.5923      2.5627      1.2795      2.1576      3.5923      5.0794    
  6.1421      6.5165      6.2288      5.5417      4.7956      4.1699      3.7295      3.5045      3.5045      3.7295    
  4.1699      4.7956      5.5417      6.2288      6.5165      6.1421      5.0794      3.5923      2.1576      1.2796    
  1.2795      2.5627      4.1861      5.6086      6.4222      6.4963      5.9886      5.2351      4.5322      3.9875    
  3.6486      3.5341      3.6485      3.9875      4.5321      5.2351      5.9886      6.4963      6.4223      5.6087    
  4.1862      2.5627      1.2796     0.79263      4.4640      5.4822      6.2811      6.5828      6.3322      5.6954    
  4.9551      4.2987      3.7980      3.4893      3.3856      3.4893      3.7980      4.2986      4.9551      5.6954    
  6.3322      6.5828      6.2812      5.4823      4.4641      3.6215      3.2959      3.6215      5.4822      6.2156    
  6.5900      6.4701      5.9326      5.2098      4.5214      3.9585      3.5683      3.3706      3.3706      3.5683    
  3.9585      4.5214      5.2097      5.9326      6.4701      6.5900      6.2157      5.4823      4.6923      4.1862    
  4.1861      4.6922      6.2811      6.5900      6.5115      6.0505      5.3712      4.6819      4.0851      3.6358    
  3.3609      3.2689      3.3610      3.6358      4.0851      4.6818      5.3712      6.0504      6.5114      6.5900    
  6.2811      5.7525      5.2718      5.0794      5.2717      5.7525      6.5828      6.4701      6.0505      5.4265    
  4.7659      4.1660      3.6848      3.3550      3.1889      3.1889      3.3550      3.6849      4.1660      4.7658    
  5.4264      6.0504      6.4700      6.5827      6.4222      6.1421      5.9361      5.9361      6.1421      6.4222    
  6.3322      5.9326      5.3712      4.7659      4.1939      3.7106      3.3517      3.1337      3.0609      3.1337    
  3.3517      3.7106      4.1939      4.7658      5.3712      5.9325      6.3320      6.5091      6.5033      6.4239    
  6.3821      6.4240      6.5034      6.5092      5.6954      5.2098      4.6819      4.1660      3.7106      3.3506    
  3.1055      2.9823      2.9823      3.1055      3.3507      3.7106      4.1661      4.6819      5.2097      5.6953    
  6.0683      6.2896      6.3833      6.4073      6.4074      6.3835      6.2898      6.0685      4.9551      4.5214    