fcc Si                                  
   4.10000000000000     
     0.500000    0.500000    0.000000
     0.000000    0.500000    0.500000
     0.500000    0.000000    0.500000
   Si
     1
Direct
  0.000000  0.000000  0.000000
 
   24   24   24
 -.28818786485E+01 -.21749570382E+01 -.28892456476E+00 0.21688556074E+01 0.44639947696E+01
 0.60162511585E+01 0.65911140420E+01 0.63279544034E+01 0.56151838407E+01 0.48704192631E+01
 0.42809277798E+01 0.39095760017E+01 0.37835119412E+01 0.39095760017E+01 0.42809277798E+01
 0.48704192631E+01 0.56151838407E+01 0.63279544034E+01 0.65911140420E+01 0.60162511585E+01
 0.44639947696E+01 0.21688556074E+01 -.28892456476E+00 -.21749570382E+01 -.21749570382E+01
 -.88017134009E+00 0.12794995756E+01 0.36214271814E+01 0.54821541190E+01 0.64596655213E+01
 0.65227209772E+01 0.59557739801E+01 0.51859759473E+01 0.45134688631E+01 0.40327702739E+01
 0.37850945449E+01 0.37850871301E+01 0.40327546299E+01 0.45134568717E+01 0.51859755672E+01
 0.59557862830E+01 0.65227467169E+01 0.64597035843E+01 0.54821970152E+01 0.36214607569E+01
 0.12795130723E+01 -.88017214261E+00 -.21749594141E+01 -.28892456476E+00 0.12794995756E+01
 0.32958329262E+01 0.51261795813E+01 0.62810892711E+01 0.65819916104E+01 0.61798758097E+01
 0.54373478374E+01 0.47119222748E+01 0.41443513760E+01 0.37891259085E+01 0.36689007542E+01
 0.37891049175E+01 0.41443200923E+01 0.47118959336E+01 0.54373406160E+01 0.61798963546E+01
 0.65820405509E+01 0.62811571823E+01 0.51262513436E+01 0.32958949221E+01 0.12795432585E+01
 -.28890211759E+00 -.88017214261E+00 0.21688556074E+01 0.36214271814E+01 0.51261795813E+01
 0.62016812699E+01 0.65827570144E+01 0.62971409806E+01 0.56095474644E+01 0.48621220817E+01
 0.42351701227E+01 0.37939521863E+01 0.35685608862E+01 0.35685494776E+01 0.37939201884E+01
 0.42351262826E+01 0.48620819008E+01 0.56095305207E+01 0.62971605777E+01 0.65828144169E+01
 0.62017668821E+01 0.51262805892E+01 0.36215284315E+01 0.21689338561E+01 0.12795432585E+01
 0.12795130723E+01 0.44639947696E+01 0.54821541190E+01 0.62810892711E+01 0.65827570144E+01
 0.63321859824E+01 0.56954165709E+01 0.49551306420E+01 0.42986524144E+01 0.37979889899E+01
 0.34893138974E+01 0.33855909550E+01 0.34893034919E+01 0.37979675304E+01 0.42986206425E+01
 0.49550952095E+01 0.56953935116E+01 0.63321954462E+01 0.65828114217E+01 0.62811864489E+01
 0.54822739721E+01 0.44641056033E+01 0.36215284315E+01 0.32958949221E+01 0.36214607569E+01
 0.60162511585E+01 0.64596655213E+01 0.65819916104E+01 0.62971409806E+01 0.56954165709E+01
 0.49865476776E+01 0.43311168054E+01 0.38004301929E+01 0.34346008226E+01 0.32498344396E+01
 0.32498447615E+01 0.34346265489E+01 0.38004552897E+01 0.43311233819E+01 0.49865299420E+01
 0.56953909920E+01 0.62971376372E+01 0.65820310837E+01 0.64597460682E+01 0.60163475591E+01
 0.54822739721E+01 0.51262805892E+01 0.51262513436E+01 0.54821970152E+01 0.65911140420E+01
 0.65227209772E+01 0.61798758097E+01 0.56095474644E+01 0.49551306420E+01 0.43311168054E+01
 0.38012116087E+01 0.34066494375E+01 0.31666859287E+01 0.30865705359E+01 0.31667335132E+01
 0.34067238652E+01 0.38012810984E+01 0.43311550056E+01 0.49551328211E+01 0.56095292130E+01
 0.61798636890E+01 0.65227307247E+01 0.65911471414E+01 0.64597460682E+01 0.62811864489E+01
 0.62017668821E+01 0.62811571823E+01 0.64597035843E+01 0.63279544034E+01 0.59557739801E+01
 0.54373478374E+01 0.48621220817E+01 0.42986524144E+01 0.38004301929E+01 0.34066494375E+01
 0.31387193208E+01 0.30042244398E+01 0.30042450949E+01 0.31387741977E+01 0.34067204884E+01
 0.38004979842E+01 0.42987024196E+01 0.48621501054E+01 0.54373536493E+01 0.59557640972E+01
 0.63279381693E+01 0.65227307247E+01 0.65820310837E+01 0.65828114217E+01 0.65828144169E+01
 0.65820405509E+01 0.65227467169E+01 0.56151838407E+01 0.51859759473E+01 0.47119222748E+01
 0.42351701227E+01 0.37979889899E+01 0.34346008226E+01 0.31666859287E+01 0.30042244398E+01
 0.29499770595E+01 0.30042149115E+01 0.31666786312E+01 0.34346106742E+01 0.37980248041E+01
 0.42352256665E+01 0.47119801367E+01 0.51860146641E+01 0.56151889232E+01 0.59557640972E+01
 0.61798636890E+01 0.62971376372E+01 0.63321954462E+01 0.62971605777E+01 0.61798963546E+01
 0.59557862830E+01 0.48704192631E+01 0.45134688631E+01 0.41443513760E+01 0.37939521863E+01
 0.34893138974E+01 0.32498344396E+01 0.30865705359E+01 0.30042450949E+01 0.30042149115E+01
 0.30864955462E+01 0.32497524227E+01 0.34892629801E+01 0.37939526436E+01 0.41443975239E+01
 0.45135363998E+01 0.48704820914E+01 0.51860146641E+01 0.54373536493E+01 0.56095292130E+01
 0.56953909920E+01 0.56953935116E+01 0.56095305207E+01 0.54373406160E+01 0.51859755672E+01
 0.42809277798E+01 0.40327702739E+01 0.37891259085E+01 0.35685608862E+01 0.33855909550E+01
 0.32498447615E+01 0.31667335132E+01 0.31387741977E+01 0.31666786312E+01 0.32497524227E+01
 0.33854899562E+01 0.35684800076E+01 0.37890865365E+01 0.40327805651E+01 0.42809809532E+01
 0.45135363998E+01 0.47119801367E+01 0.48621501054E+01 0.49551328211E+01 0.49865299420E+01
 0.49550952095E+01 0.48620819008E+01 0.47118959336E+01 0.45134568717E+01 0.39095760017E+01
 0.37850945449E+01 0.36689007542E+01 0.35685494776E+01 0.34893034919E+01 0.34346265489E+01
 0.34067238652E+01 0.34067204884E+01 0.34346106742E+01 0.34892629801E+01 0.35684800076E+01
 0.36688147600E+01 0.37850198089E+01 0.39095435378E+01 0.40327805651E+01 0.41443975239E+01
 0.42352256665E+01 0.42987024196E+01 0.43311550056E+01 0.43311233819E+01 0.42986206425E+01
 0.42351262826E+01 0.41443200923E+01 0.40327546299E+01 0.37835119412E+01 0.37850871301E+01
 0.37891049175E+01 0.37939201884E+01 0.37979675304E+01 0.38004552897E+01 0.38012810984E+01
 0.38004979842E+01 0.37980248041E+01 0.37939526436E+01 0.37890865365E+01 0.37850198089E+01
 0.37834243749E+01 0.37850198089E+01 0.37890865365E+01 0.37939526436E+01 0.37980248041E+01
 0.38004979842E+01 0.38012810984E+01 0.38004552897E+01 0.37979675304E+01 0.37939201884E+01
 0.37891049175E+01 0.37850871301E+01 0.39095760017E+01 0.40327546299E+01 0.41443200923E+01
 0.42351262826E+01 0.42986206425E+01 0.43311233819E+01 0.43311550056E+01 0.42987024196E+01
 0.42352256665E+01 0.41443975239E+01 0.40327805651E+01 0.39095435378E+01 0.37850198089E+01
 0.36688147600E+01 0.35684800076E+01 0.34892629801E+01 0.34346106742E+01 0.34067204884E+01
 0.34067238652E+01 0.34346265489E+01 0.34893034919E+01 0.35685494776E+01 0.36689007542E+01
 0.37850945449E+01 0.42809277798E+01 0.45134568717E+01 0.47118959336E+01 0.48620819008E+01
 0.49550952095E+01 0.49865299420E+01 0.49551328211E+01 0.48621501054E+01 0.47119801367E+01
 0.45135363998E+01 0.42809809532E+01 0.40327805651E+01 0.37890865365E+01 0.35684800076E+01
 0.33854899562E+01 0.32497524227E+01 0.31666786312E+01 0.31387741977E+01 0.31667335132E+01
 0.32498447615E+01 0.33855909550E+01 0.35685608862E+01 0.37891259085E+01 0.40327702739E+01
 0.48704192631E+01 0.51859755672E+01 0.54373406160E+01 0.56095305207E+01 0.56953935116E+01
 0.56953909920E+01 0.56095292130E+01 0.54373536493E+01 0.51860146641E+01 0.48704820914E+01
 0.45135363998E+01 0.41443975239E+01 0.37939526436E+01 0.34892629801E+01 0.32497524227E+01
 0.30864955462E+01 0.30042149115E+01 0.30042450949E+01 0.30865705359E+01 0.32498344396E+01
 0.34893138974E+01 0.37939521863E+01 0.41443513760E+01 0.45134688631E+01 0.56151838407E+01
 0.59557862830E+01 0.61798963546E+01 0.62971605777E+01 0.63321954462E+01 0.62971376372E+01
 0.61798636890E+01 0.59557640972E+01 0.56151889232E+01 0.51860146641E+01 0.47119801367E+01
 0.42352256665E+01 0.37980248041E+01 0.34346106742E+01 0.31666786312E+01 0.30042149115E+01
 0.29499770595E+01 0.30042244398E+01 0.31666859287E+01 0.34346008226E+01 0.37979889899E+01
 0.42351701227E+01 0.47119222748E+01 0.51859759473E+01 0.63279544034E+01 0.65227467169E+01
 0.65820405509E+01 0.65828144169E+01 0.65828114217E+01 0.65820310837E+01 0.65227307247E+01
 0.63279381693E+01 0.59557640972E+01 0.54373536493E+01 0.48621501054E+01 0.42987024196E+01
 0.38004979842E+01 0.34067204884E+01 0.31387741977E+01 0.30042450949E+01 0.30042244398E+01
 0.31387193208E+01 0.34066494375E+01 0.38004301929E+01 0.42986524144E+01 0.48621220817E+01
 0.54373478374E+01 0.59557739801E+01 0.65911140420E+01 0.64597035843E+01 0.62811571823E+01
 0.62017668821E+01 0.62811864489E+01 0.64597460682E+01 0.65911471414E+01 0.65227307247E+01
 0.61798636890E+01 0.56095292130E+01 0.49551328211E+01 0.43311550056E+01 0.38012810984E+01
 0.34067238652E+01 0.31667335132E+01 0.30865705359E+01 0.31666859287E+01 0.34066494375E+01
 0.38012116087E+01 0.43311168054E+01 0.49551306420E+01 0.56095474644E+01 0.61798758097E+01
 0.65227209772E+01 0.60162511585E+01 0.54821970152E+01 0.51262513436E+01 0.51262805892E+01
 0.54822739721E+01 0.60163475591E+01 0.64597460682E+01 0.65820310837E+01 0.62971376372E+01
 0.56953909920E+01 0.49865299420E+01 0.43311233819E+01 0.38004552897E+01 0.34346265489E+01
 0.32498447615E+01 0.32498344396E+01 0.34346008226E+01 0.38004301929E+01 0.43311168054E+01
 0.49865476776E+01 0.56954165709E+01 0.62971409806E+01 0.65819916104E+01 0.64596655213E+01
 0.44639947696E+01 0.36214607569E+01 0.32958949221E+01 0.36215284315E+01 0.44641056033E+01
 0.54822739721E+01 0.62811864489E+01 0.65828114217E+01 0.63321954462E+01 0.56953935116E+01
 0.49550952095E+01 0.42986206425E+01 0.37979675304E+01 0.34893034919E+01 0.33855909550E+01
 0.34893138974E+01 0.37979889899E+01 0.42986524144E+01 0.49551306420E+01 0.56954165709E+01
 0.63321859824E+01 0.65827570144E+01 0.62810892711E+01 0.54821541190E+01 0.21688556074E+01
 0.12795130723E+01 0.12795432585E+01 0.21689338561E+01 0.36215284315E+01 0.51262805892E+01
 0.62017668821E+01 0.65828144169E+01 0.62971605777E+01 0.56095305207E+01 0.48620819008E+01
 0.42351262826E+01 0.37939201884E+01 0.35685494776E+01 0.35685608862E+01 0.37939521863E+01
 0.42351701227E+01 0.48621220817E+01 0.56095474644E+01 0.62971409806E+01 0.65827570144E+01
 0.62016812699E+01 0.51261795813E+01 0.36214271814E+01 -.28892456476E+00 -.88017214261E+00
 -.28890211759E+00 0.12795432585E+01 0.32958949221E+01 0.51262513436E+01 0.62811571823E+01
 0.65820405509E+01 0.61798963546E+01 0.54373406160E+01 0.47118959336E+01 0.41443200923E+01
 0.37891049175E+01 0.36689007542E+01 0.37891259085E+01 0.41443513760E+01 0.47119222748E+01
 0.54373478374E+01 0.61798758097E+01 0.65819916104E+01 0.62810892711E+01 0.51261795813E+01
 0.32958329262E+01 0.12794995756E+01 -.21749570382E+01 -.21749594141E+01 -.88017214261E+00
 0.12795130723E+01 0.36214607569E+01 0.54821970152E+01 0.64597035843E+01 0.65227467169E+01
 0.59557862830E+01 0.51859755672E+01 0.45134568717E+01 0.40327546299E+01 0.37850871301E+01
 0.37850945449E+01 0.40327702739E+01 0.45134688631E+01 0.51859759473E+01 0.59557739801E+01
 0.65227209772E+01 0.64596655213E+01 0.54821541190E+01 0.36214271814E+01 0.12794995756E+01
 -.88017134009E+00 -.21749575670E+01 -.88017217852E+00 0.12794990316E+01 0.36214269586E+01
 0.54821538612E+01 0.64596653383E+01 0.65227212198E+01 0.59557744198E+01 0.51859760705E+01
 0.45134687612E+01 0.40327703886E+01 0.37850947761E+01 0.37850870604E+01 0.40327543866E+01
 0.45134568915E+01 0.51859757491E+01 0.59557862432E+01 0.65227466399E+01 0.64597039401E+01
 0.54821976572E+01 0.36214611578E+01 0.12795132150E+01 -.88017195968E+00 -.21749593853E+01
 -.88017217852E+00 0.79261277689E+00 0.29530630696E+01 0.49337554820E+01 0.62156183684E+01
 0.66024814138E+01 0.62423832380E+01 0.55069654246E+01 0.47741777081E+01 0.41988256554E+01
 0.38380045031E+01 0.37157696892E+01 0.38379832387E+01 0.41987941289E+01 0.47741514637E+01
 0.55069597911E+01 0.62424093663E+01 0.66025412414E+01 0.62156964605E+01 0.49338276854E+01
 0.29531101557E+01 0.79263307629E+00 -.88016697578E+00 -.15095609772E+01 0.12794990316E+01
 0.29530630696E+01 0.47167534826E+01 0.60314404355E+01 0.65899798767E+01 0.64035157720E+01
 0.57448545578E+01 0.49857560283E+01 0.43424817486E+01 0.38876580043E+01 0.36547224375E+01
 0.36547078194E+01 0.38876181191E+01 0.43424293533E+01 0.49857115054E+01 0.57448411989E+01
 0.64035470134E+01 0.65900507864E+01 0.60315306501E+01 0.47168424864E+01 0.29531385370E+01
 0.12795504420E+01 0.26266447810E+00 0.26264604182E+00 0.36214269586E+01 0.49337554820E+01
 0.60314404355E+01 0.65734461975E+01 0.64701492890E+01 0.58863473663E+01 0.51338283602E+01
 0.44525700707E+01 0.39291233612E+01 0.36050071598E+01 0.34958694986E+01 0.36049792519E+01
 0.39290749900E+01 0.44525129060E+01 0.51337766953E+01 0.58863193090E+01 0.64701607176E+01
 0.65735044824E+01 0.60315380772E+01 0.49338722885E+01 0.36215343273E+01 0.25627360055E+01
 0.21575562243E+01 0.25626708909E+01 0.54821538612E+01 0.62156183684E+01 0.65899798767E+01
 0.64701492890E+01 0.59326383448E+01 0.52097812298E+01 0.45213945527E+01 0.39585453684E+01
 0.35683240023E+01 0.33706379442E+01 0.33706355891E+01 0.35683160481E+01 0.39585263260E+01
 0.45213578159E+01 0.52097288380E+01 0.59325919566E+01 0.64701397189E+01 0.65900270548E+01
 0.62157156999E+01 0.54822686655E+01 0.46923256922E+01 0.41861839551E+01 0.41861489870E+01
 0.46922337929E+01 0.64596653383E+01 0.66024814138E+01 0.64035157720E+01 0.58863473663E+01
 0.52097812298E+01 0.45447663389E+01 0.39736972773E+01 0.35457687179E+01 0.32846412676E+01
 0.31973330187E+01 0.32846751871E+01 0.35458156964E+01 0.39737269182E+01 0.45447584181E+01
 0.52097394252E+01 0.58862989940E+01 0.64034933325E+01 0.66025026124E+01 0.64597251344E+01
 0.61033132751E+01 0.57525623088E+01 0.56086679344E+01 0.57525149973E+01 0.61032423844E+01
 0.65227212198E+01 0.62423832380E+01 0.57448545578E+01 0.51338283602E+01 0.45213945527E+01
 0.39736972773E+01 0.35381434783E+01 0.32409618915E+01 0.30916474361E+01 0.30916762009E+01
 0.32410339376E+01 0.35382265701E+01 0.39737572401E+01 0.45214142493E+01 0.51338104539E+01
 0.57448167392E+01 0.62423494367E+01 0.65227071423E+01 0.65806391321E+01 0.65049210608E+01
 0.64222884159E+01 0.64222784662E+01 0.65049011776E+01 0.65806298427E+01 0.59557744198E+01
 0.55069654246E+01 0.49857560283E+01 0.44525700707E+01 0.39585453684E+01 0.35457687179E+01
 0.32409618915E+01 0.30562087088E+01 0.29945785523E+01 0.30562377198E+01 0.32410128489E+01
 0.35458291772E+01 0.39586010925E+01 0.44526078149E+01 0.49857700884E+01 0.55069546861E+01
 0.59557487108E+01 0.62675333710E+01 0.64335927455E+01 0.64962660309E+01 0.65092623980E+01
 0.64962782584E+01 0.64336160293E+01 0.62675620016E+01 0.51859760705E+01 0.47741777081E+01
 0.43424817486E+01 0.39291233612E+01 0.35683240023E+01 0.32846412676E+01 0.30916474361E+01
 0.29945785523E+01 0.29945651149E+01 0.30916165682E+01 0.32846153614E+01 0.35683232004E+01
 0.39291542737E+01 0.43425325232E+01 0.47742287779E+01 0.51860082855E+01 0.55433139935E+01
 0.58161814943E+01 0.59885384364E+01 0.60684703714E+01 0.60684799062E+01 0.59885598324E+01
 0.58161983227E+01 0.55433102794E+01 0.45134687612E+01 0.41988256554E+01 0.38876580043E+01
 0.36050071598E+01 0.33706379442E+01 0.31973330187E+01 0.30916762009E+01 0.30562377198E+01
 0.30916165682E+01 0.31972391467E+01 0.33705485165E+01 0.36049557024E+01 0.38876594488E+01
 0.41988711715E+01 0.45135357137E+01 0.48053192853E+01 0.50512698327E+01 0.52350964084E+01
 0.53477524464E+01 0.53855658457E+01 0.53477387406E+01 0.52350655104E+01 0.50512189494E+01
 0.48052527818E+01 0.40327703886E+01 0.38380045031E+01 0.36547224375E+01 0.34958694986E+01
 0.33706355891E+01 0.32846751871E+01 0.32410339376E+01 0.32410128489E+01 0.32846153614E+01
 0.33705485165E+01 0.34957753433E+01 0.36546448895E+01 0.38379649875E+01 0.40327801899E+01
 0.42235190299E+01 0.43944178475E+01 0.45322296784E+01 0.46279186712E+01 0.46766630074E+01
 0.46766350478E+01 0.46278443931E+01 0.45321334659E+01 0.43943288280E+01 0.42234623157E+01
 0.37850947761E+01 0.37157696892E+01 0.36547078194E+01 0.36049792519E+01 0.35683160481E+01
 0.35458156964E+01 0.35382265701E+01 0.35458291772E+01 0.35683232004E+01 0.36049557024E+01
 0.36546448895E+01 0.37156827477E+01 0.37850179070E+01 0.38577317706E+01 0.39274230165E+01
 0.39875691027E+01 0.40330834765E+01 0.40610717180E+01 0.40704465959E+01 0.40610111498E+01
 0.40329915020E+01 0.39874895619E+01 0.39273930765E+01 0.38577633102E+01 0.37850870604E+01
 0.38379832387E+01 0.38876181191E+01 0.39290749900E+01 0.39585263260E+01 0.39737269182E+01
 0.39737572401E+01 0.39586010925E+01 0.39291542737E+01 0.38876594488E+01 0.38379649875E+01
 0.37850179070E+01 0.37336586566E+01 0.36874774009E+01 0.36485126442E+01 0.36178518277E+01
 0.35964388141E+01 0.35853334345E+01 0.35853189117E+01 0.35964079487E+01 0.36178344519E+01
 0.36485349445E+01 0.36875433270E+01 0.37337456607E+01 0.40327543866E+01 0.41987941289E+01
 0.43424293533E+01 0.44525129060E+01 0.45213578159E+01 0.45447584181E+01 0.45214142493E+01
 0.44526078149E+01 0.43425325232E+01 0.41988711715E+01 0.40327801899E+01 0.38577317706E+01
 0.36874774009E+01 0.35340465287E+01 0.34066413219E+01 0.33116192986E+01 0.32530634672E+01
 0.32332984929E+01 0.32530914904E+01 0.33116755674E+01 0.34067212840E+01 0.35341353075E+01
 0.36875507581E+01 0.38577628357E+01 0.45134568915E+01 0.47741514637E+01 0.49857115054E+01
 0.51337766953E+01 0.52097288380E+01 0.52097394252E+01 0.51338104539E+01 0.49857700884E+01
 0.47742287779E+01 0.45135357137E+01 0.42235190299E+01 0.39274230165E+01 0.36485126442E+01
 0.34066413219E+01 0.32161581430E+01 0.30857522405E+01 0.30197522522E+01 0.30197841437E+01
 0.30858352889E+01 0.32162600354E+01 0.34067257324E+01 0.36485529121E+01 0.39274097199E+01
 0.42234622209E+01 0.51859757491E+01 0.55069597911E+01 0.57448411989E+01 0.58863193090E+01
 0.59325919566E+01 0.58862989940E+01 0.57448167392E+01 0.55069546861E+01 0.51860082855E+01
 0.48053192853E+01 0.43944178475E+01 0.39875691027E+01 0.36178518277E+01 0.33116192986E+01
 0.30857522405E+01 0.29484909555E+01 0.29025940860E+01 0.29485363184E+01 0.30858162121E+01
 0.33116640992E+01 0.36178502371E+01 0.39875190225E+01 0.43943434560E+01 0.48052530656E+01
 0.59557862432E+01 0.62424093663E+01 0.64035470134E+01 0.64701607176E+01 0.64701397189E+01
 0.64034933325E+01 0.62423494367E+01 0.59557487108E+01 0.55433139935E+01 0.50512698327E+01
 0.45322296784E+01 0.40330834765E+01 0.35964388141E+01 0.32530634672E+01 0.30197522522E+01
 0.29025940860E+01 0.29025933388E+01 0.30197454159E+01 0.32530419052E+01 0.35963951239E+01
 0.40330209598E+01 0.45321640005E+01 0.50512242923E+01 0.55433101163E+01 0.65227466399E+01
 0.66025412414E+01 0.65900507864E+01 0.65735044824E+01 0.65900270548E+01 0.66025026124E+01
 0.65227071423E+01 0.62675333710E+01 0.58161814943E+01 0.52350964084E+01 0.46279186712E+01
 0.40610717180E+01 0.35853334345E+01 0.32332984929E+01 0.30197841437E+01 0.29485363184E+01
 0.30197454159E+01 0.32332323847E+01 0.35852593212E+01 0.40610105792E+01 0.46278820750E+01
 0.52350864290E+01 0.58161938204E+01 0.62675614849E+01 0.64597039401E+01 0.62156964605E+01
 0.60315306501E+01 0.60315380772E+01 0.62157156999E+01 0.64597251344E+01 0.65806391321E+01
 0.64335927455E+01 0.59885384364E+01 0.53477524464E+01 0.46766630074E+01 0.40704465959E+01
 0.35853189117E+01 0.32530914904E+01 0.30858352889E+01 0.30858162121E+01 0.32530419052E+01
 0.35852593212E+01 0.40704035217E+01 0.46766523118E+01 0.53477696917E+01 0.59885616078E+01
 0.64336021742E+01 0.65806299559E+01 0.54821976572E+01 0.49338276854E+01 0.47168424864E+01
 0.49338722885E+01 0.54822686655E+01 0.61033132751E+01 0.65049210608E+01 0.64962660309E+01
 0.60684703714E+01 0.53855658457E+01 0.46766350478E+01 0.40610111498E+01 0.35964079487E+01
 0.33116755674E+01 0.32162600354E+01 0.33116640992E+01 0.35963951239E+01 0.40610105792E+01
 0.46766523118E+01 0.53855928520E+01 0.60684872062E+01 0.64962551733E+01 0.65048758032E+01
 0.61032432093E+01 0.36214611578E+01 0.29531101557E+01 0.29531385370E+01 0.36215343273E+01
 0.46923256922E+01 0.57525623088E+01 0.64222884159E+01 0.65092623980E+01 0.60684799062E+01
 0.53477387406E+01 0.46278443931E+01 0.40329915020E+01 0.36178344519E+01 0.34067212840E+01
 0.34067257324E+01 0.36178502371E+01 0.40330209598E+01 0.46278820750E+01 0.53477696917E+01
 0.60684872062E+01 0.65092366403E+01 0.64222293436E+01 0.57524784518E+01 0.46922344517E+01
 0.12795132150E+01 0.79263307629E+00 0.12795504420E+01 0.25627360055E+01 0.41861839551E+01
 0.56086679344E+01 0.64222784662E+01 0.64962782584E+01 0.59885598324E+01 0.52350655104E+01
 0.45321334659E+01 0.39874895619E+01 0.36485349445E+01 0.35341353075E+01 0.36485529121E+01
 0.39875190225E+01 0.45321640005E+01 0.52350864290E+01 0.59885616078E+01 0.64962551733E+01
 0.64222293436E+01 0.56085996980E+01 0.41861088285E+01 0.25626712564E+01 -.88017195968E+00
 -.88016697578E+00 0.26266447810E+00 0.21575562243E+01 0.41861489870E+01 0.57525149973E+01
 0.65049011776E+01 0.64336160293E+01 0.58161983227E+01 0.50512189494E+01 0.43943288280E+01
 0.39273930765E+01 0.36875433270E+01 0.36875507581E+01 0.39274097199E+01 0.43943434560E+01
 0.50512242923E+01 0.58161938204E+01 0.64336021742E+01 0.65048758032E+01 0.57524784518E+01
 0.41861088285E+01 0.21575239371E+01 0.26264676878E+00 -.21749593853E+01 -.15095609772E+01
 0.26264604182E+00 0.25626708909E+01 0.46922337929E+01 0.61032423844E+01 0.65806298427E+01
 0.62675620016E+01 0.55433102794E+01 0.48052527818E+01 0.42234623157E+01 0.38577633102E+01
 0.37337456607E+01 0.38577628357E+01 0.42234622209E+01 0.48052530656E+01 0.55433101163E+01
 0.62675614849E+01 0.65806299559E+01 0.61032432093E+01 0.46922344517E+01 0.25626712564E+01
 0.26264676878E+00 -.15095601099E+01 -.28892572264E+00 0.12794984025E+01 0.32958326654E+01
 0.51261798647E+01 0.62810893140E+01 0.65819917060E+01 0.61798765085E+01 0.54373485635E+01
 0.47119222579E+01 0.41443510925E+01 0.37891261433E+01 0.36689011055E+01 0.37891046779E+01
 0.41443197166E+01 0.47118961685E+01 0.54373410596E+01 0.61798963376E+01 0.65820405501E+01
 0.62811578810E+01 0.51262521662E+01 0.32958949649E+01 0.12795428150E+01 -.28890237840E+00
 -.88017258876E+00 0.12794984025E+01 0.29530627349E+01 0.47167537658E+01 0.60314409417E+01
 0.65899801773E+01 0.64035160506E+01 0.57448550140E+01 0.49857563148E+01 0.43424816085E+01
 0.38876578227E+01 0.36547225577E+01 0.36547079396E+01 0.38876179492E+01 0.43424292210E+01
 0.49857117204E+01 0.57448414605E+01 0.64035470363E+01 0.65900508626E+01 0.60315309930E+01
 0.47168426670E+01 0.29531381789E+01 0.12795498557E+01 0.26266403437E+00 0.26264556688E+00
 0.32958326654E+01 0.47167537658E+01 0.59254289319E+01 0.65578344223E+01 0.65114870138E+01
 0.59503009383E+01 0.51954257128E+01 0.45058816376E+01 0.39746378290E+01 0.36451787687E+01
 0.35341584093E+01 0.36451441134E+01 0.39745781540E+01 0.45058126463E+01 0.51953653744E+01
 0.59502686651E+01 0.65114969320E+01 0.65578902035E+01 0.59255190427E+01 0.47168583578E+01
 0.32959266108E+01 0.21575789711E+01 0.17231802887E+01 0.21575234934E+01 0.51261798647E+01
 0.60314409417E+01 0.65578344223E+01 0.65416821326E+01 0.60505309341E+01 0.53266375993E+01
 0.46218374793E+01 0.40423459200E+01 0.36392647931E+01 0.34346987796E+01 0.34346868627E+01
 0.36392312685E+01 0.40422941242E+01 0.46217693624E+01 0.53265597263E+01 0.60504633012E+01
 0.65416524537E+01 0.65578633225E+01 0.60315241442E+01 0.51262873845E+01 0.41861991043E+01
 0.35923497614E+01 0.35923148341E+01 0.41861089692E+01 0.62810893140E+01 0.65899801773E+01
 0.65114870138E+01 0.60505309341E+01 0.53712462992E+01 0.46818847714E+01 0.40851174319E+01
 0.36358218076E+01 0.33609383161E+01 0.32689158321E+01 0.33609498675E+01 0.36358294000E+01
 0.40850989831E+01 0.46818277297E+01 0.53711587435E+01 0.60504430034E+01 0.65114327845E+01
 0.65899807514E+01 0.62811391638E+01 0.57525461471E+01 0.52717516943E+01 0.50794364304E+01
 0.52717043166E+01 0.57524780937E+01 0.65819917060E+01 0.64035160506E+01 0.59503009383E+01
 0.53266375993E+01 0.46818847714E+01 0.40997173621E+01 0.36341984359E+01 0.33156487775E+01
 0.31553876012E+01 0.31554119308E+01 0.33157060659E+01 0.36342534405E+01 0.40997365090E+01
 0.46818555020E+01 0.53265693692E+01 0.59502187560E+01 0.64034461465E+01 0.65819505471E+01
 0.65048657356E+01 0.63018619530E+01 0.61421358590E+01 0.61421308495E+01 0.63018548872E+01
 0.65048752568E+01 0.61798765085E+01 0.57448550140E+01 0.51954257128E+01 0.46218374793E+01
 0.40851174319E+01 0.36341984359E+01 0.33003816392E+01 0.30978899461E+01 0.30303443435E+01
 0.30979351488E+01 0.33004542195E+01 0.36342714572E+01 0.40851654907E+01 0.46218458189E+01
 0.51953927324E+01 0.57447907689E+01 0.61798008109E+01 0.64335315285E+01 0.65206042972E+01
 0.65164558385E+01 0.65034269566E+01 0.65164831647E+01 0.65206569188E+01 0.64336025171E+01
 0.54373485635E+01 0.49857563148E+01 0.45058816376E+01 0.40423459200E+01 0.36358218076E+01
 0.33156487775E+01 0.30978899461E+01 0.29884765397E+01 0.29884806955E+01 0.30979056345E+01
 0.33156808287E+01 0.36358691477E+01 0.40423968957E+01 0.45059182056E+01 0.49857651452E+01
 0.54373232617E+01 0.58161426666E+01 0.60804320365E+01 0.62287846657E+01 0.62897878188E+01
 0.62898072301E+01 0.62288356096E+01 0.60804938079E+01 0.58161946236E+01 0.47119222579E+01
 0.43424816085E+01 0.39746378290E+01 0.36392647931E+01 0.33609383161E+01 0.31553876012E+01
 0.30303443435E+01 0.29884806955E+01 0.30303066171E+01 0.31553329841E+01 0.33608969583E+01
 0.36392590111E+01 0.39746709330E+01 0.43425362969E+01 0.47119744185E+01 0.50512543295E+01
 0.53338553890E+01 0.55417100238E+01 0.56649355147E+01 0.57051110353E+01 0.56649514579E+01
 0.55417270297E+01 0.53338544421E+01 0.50512243152E+01 0.41443510925E+01 0.38876578227E+01
 0.36451787687E+01 0.34346987796E+01 0.32689158321E+01 0.31554119308E+01 0.30979351488E+01
 0.30979056345E+01 0.31553329841E+01 0.32688138758E+01 0.34346081714E+01 0.36451283539E+01
 0.38876601868E+01 0.41443985015E+01 0.43944156487E+01 0.46171063433E+01 0.47956761352E+01
 0.49190911446E+01 0.49817737766E+01 0.49817592315E+01 0.49190486035E+01 0.47956109004E+01
 0.46170291608E+01 0.43943429906E+01 0.37891261433E+01 0.36547225577E+01 0.35341584093E+01
 0.34346868627E+01 0.33609498675E+01 0.33157060659E+01 0.33004542195E+01 0.33156808287E+01
 0.33608969583E+01 0.34346081714E+01 0.35340670534E+01 0.36546414123E+01 0.37890820087E+01
 0.39274212610E+01 0.40580851592E+01 0.41699929962E+01 0.42546056804E+01 0.43068113505E+01
 0.43243727804E+01 0.43067485027E+01 0.42545044517E+01 0.41698907312E+01 0.40580179437E+01
 0.39274099349E+01 0.36689011055E+01 0.36547079396E+01 0.36451441134E+01 0.36392312685E+01
 0.36358294000E+01 0.36342534405E+01 0.36342714572E+01 0.36358691477E+01 0.36392590111E+01
 0.36451283539E+01 0.36546414123E+01 0.36688069180E+01 0.36874717786E+01 0.37087557296E+01
 0.37295394365E+01 0.37467568495E+01 0.37585292425E+01 0.37643373177E+01 0.37643080528E+01
 0.37584573939E+01 0.37466819488E+01 0.37295046131E+01 0.37087833662E+01 0.36875513527E+01
 0.37891046779E+01 0.38876179492E+01 0.39745781540E+01 0.40422941242E+01 0.40850989831E+01
 0.40997365090E+01 0.40851654907E+01 0.40423968957E+01 0.39746709330E+01 0.38876601868E+01
 0.37890820087E+01 0.36874717786E+01 0.35906057371E+01 0.35044515406E+01 0.34331441577E+01
 0.33796588453E+01 0.33463800223E+01 0.33350601340E+01 0.33463736224E+01 0.33796608763E+01
 0.34331739271E+01 0.35045160355E+01 0.35906903184E+01 0.36875431570E+01 0.41443197166E+01
 0.43424292210E+01 0.45058126463E+01 0.46217693624E+01 0.46818277297E+01 0.46818555020E+01
 0.46218458189E+01 0.45059182056E+01 0.43425362969E+01 0.41443985015E+01 0.39274212610E+01
 0.37087557296E+01 0.35044515406E+01 0.33276680585E+01 0.31879965743E+01 0.30917744532E+01
 0.30427865252E+01 0.30428083031E+01 0.30918353168E+01 0.31880833200E+01 0.33277591904E+01
 0.35045221291E+01 0.37087826392E+01 0.39273924697E+01 0.47118961685E+01 0.49857117204E+01
 0.51953653744E+01 0.53265597263E+01 0.53711587435E+01 0.53265693692E+01 0.51953927324E+01
 0.49857651452E+01 0.47119744185E+01 0.43944156487E+01 0.40580851592E+01 0.37295394365E+01
 0.34331441577E+01 0.31879965743E+01 0.30066784086E+01 0.28960045312E+01 0.28588875088E+01
 0.28960625478E+01 0.30067682362E+01 0.31880781744E+01 0.34331827699E+01 0.37295197992E+01
 0.40580179437E+01 0.43943289482E+01 0.54373410596E+01 0.57448414605E+01 0.59502686651E+01
 0.60504633012E+01 0.60504430034E+01 0.59502187560E+01 0.57447907689E+01 0.54373232617E+01
 0.50512543295E+01 0.46171063433E+01 0.41699929962E+01 0.37467568495E+01 0.33796588453E+01
 0.30917744532E+01 0.28960045312E+01 0.27975127191E+01 0.27975308262E+01 0.28960457193E+01
 0.30918067401E+01 0.33796520647E+01 0.37467009216E+01 0.41699081515E+01 0.46170298878E+01
 0.50512194948E+01 0.61798963376E+01 0.64035470363E+01 0.65114969320E+01 0.65416524537E+01
 0.65114327845E+01 0.64034461465E+01 0.61798008109E+01 0.58161426666E+01 0.53338553890E+01
 0.47956761352E+01 0.42546056804E+01 0.37585292425E+01 0.33463800223E+01 0.30427865252E+01
 0.28588875088E+01 0.27975308262E+01 0.28588793398E+01 0.30427618572E+01 0.33463314495E+01
 0.37584596481E+01 0.42545334712E+01 0.47956265891E+01 0.53338544421E+01 0.58161981826E+01
 0.65820405501E+01 0.65900508626E+01 0.65578902035E+01 0.65578633225E+01 0.65899807514E+01
 0.65819505471E+01 0.64335315285E+01 0.60804320365E+01 0.55417100238E+01 0.49190911446E+01
 0.43068113505E+01 0.37643373177E+01 0.33350601340E+01 0.30428083031E+01 0.28960625478E+01
 0.28960457193E+01 0.30427618572E+01 0.33349955706E+01 0.37642745970E+01 0.43067704216E+01
 0.49190842033E+01 0.55417399936E+01 0.60804930809E+01 0.64336155888E+01 0.62811578810E+01
 0.60315309930E+01 0.59255190427E+01 0.60315241442E+01 0.62811391638E+01 0.65048657356E+01
 0.65206042972E+01 0.62287846657E+01 0.56649355147E+01 0.49817737766E+01 0.43243727804E+01
 0.37643080528E+01 0.33463736224E+01 0.30918353168E+01 0.30067682362E+01 0.30918067401E+01
 0.33463314495E+01 0.37642745970E+01 0.43243658863E+01 0.49817991853E+01 0.56649855730E+01
 0.62288433009E+01 0.65206569188E+01 0.65049016337E+01 0.51262521662E+01 0.47168426670E+01
 0.47168583578E+01 0.51262873845E+01 0.57525461471E+01 0.63018619530E+01 0.65164558385E+01
 0.62897878188E+01 0.57051110353E+01 0.49817592315E+01 0.43067485027E+01 0.37584573939E+01
 0.33796608763E+01 0.31880833200E+01 0.31880781744E+01 0.33796520647E+01 0.37584596481E+01
 0.43067704216E+01 0.49817991853E+01 0.57051583073E+01 0.62898292803E+01 0.65164782609E+01