   1   1   0   0
  0.1723025E+02  0.2899138E-09  0.2899138E-09  0.2899138E-09  0.5000000E-15
  1.000000000000000E-004
  CAR 
 fcc Si                                  
     33.48009766     -6.74751854  301      7.89279834      1.00000000
     -6.748  0.0000E+00  0.0000E+00
     -6.613  0.0000E+00  0.0000E+00
     -6.479  0.0000E+00  0.0000E+00
     -6.345  0.0000E+00  0.0000E+00
     -6.211  0.0000E+00  0.0000E+00
     -6.077  0.0000E+00  0.0000E+00
     -5.943  0.0000E+00  0.0000E+00
     -5.809  0.0000E+00  0.0000E+00
     -5.675  0.0000E+00  0.0000E+00
     -5.541  0.0000E+00  0.0000E+00
     -5.407  0.3001E-13  0.4024E-14
     -5.273  0.3221E-08  0.4319E-09
     -5.138  0.1073E-04  0.1439E-05
     -5.004  0.1265E-02  0.1711E-03
     -4.870  0.8130E-02  0.1261E-02
     -4.736  0.3713E-01  0.6240E-02
     -4.602  0.9388E-01  0.1883E-01
     -4.468  0.3384E-01  0.2337E-01
     -4.334  0.7553E-01  0.3349E-01
     -4.200  0.1068E+00  0.4782E-01
     -4.066  0.2219E+00  0.7757E-01
     -3.932  0.8127E-01  0.8846E-01
     -3.797  0.3090E-01  0.9261E-01
     -3.663  0.6690E-01  0.1016E+00
     -3.529  0.2680E+00  0.1375E+00
     -3.395  0.2249E+00  0.1677E+00
     -3.261  0.9608E-01  0.1806E+00
     -3.127  0.1843E+00  0.2053E+00
     -2.993  0.2217E+00  0.2350E+00
     -2.859  0.1363E+00  0.2533E+00
     -2.725  0.3057E-01  0.2574E+00
     -2.591  0.1023E+00  0.2711E+00
     -2.457  0.3133E+00  0.3131E+00
     -2.322  0.4846E+00  0.3781E+00
     -2.188  0.1104E+00  0.3929E+00
     -2.054  0.1759E+00  0.4165E+00
     -1.920  0.1891E+00  0.4418E+00
     -1.786  0.3190E+00  0.4846E+00
     -1.652  0.1011E+00  0.4981E+00
     -1.518  0.6049E-01  0.5063E+00
     -1.384  0.1726E+00  0.5294E+00
     -1.250  0.4933E+00  0.5955E+00
     -1.116  0.1862E+00  0.6205E+00
     -0.982  0.3012E+00  0.6609E+00
     -0.847  0.3731E+00  0.7109E+00
     -0.713  0.5323E+00  0.7823E+00
     -0.579  0.1160E+00  0.7979E+00
     -0.445  0.2745E-01  0.8015E+00
     -0.311  0.1042E+00  0.8155E+00
     -0.177  0.4315E+00  0.8734E+00
     -0.043  0.2977E+00  0.9133E+00
      0.091  0.1750E+00  0.9368E+00
      0.225  0.3503E+00  0.9837E+00
      0.359  0.5512E+00  0.1058E+01
      0.493  0.2322E+00  0.1089E+01
      0.628  0.1059E+00  0.1103E+01
      0.762  0.3938E+00  0.1156E+01
      0.896  0.7642E+00  0.1258E+01
      1.030  0.5764E+00  0.1336E+01
      1.164  0.4692E-01  0.1342E+01
      1.298  0.3019E-01  0.1346E+01
      1.432  0.3611E+00  0.1394E+01
      1.566  0.3742E+00  0.1444E+01
      1.700  0.4507E-01  0.1451E+01
      1.834  0.1597E+00  0.1472E+01
      1.968  0.5682E+00  0.1548E+01
      2.103  0.5716E+00  0.1625E+01
      2.237  0.1507E+00  0.1645E+01
      2.371  0.3778E+00  0.1696E+01
      2.505  0.6281E+00  0.1780E+01
      2.639  0.2627E+00  0.1815E+01
      2.773  0.4855E-01  0.1822E+01
      2.907  0.1310E+00  0.1839E+01
      3.041  0.3417E+00  0.1885E+01
      3.175  0.5286E+00  0.1956E+01
      3.309  0.2304E+00  0.1987E+01
      3.443  0.5220E+00  0.2057E+01
      3.578  0.6298E+00  0.2141E+01
      3.712  0.2545E+00  0.2175E+01
      3.846  0.1893E+00  0.2201E+01
      3.980  0.2459E+00  0.2234E+01
      4.114  0.3914E+00  0.2286E+01
      4.248  0.2480E+00  0.2319E+01
      4.382  0.3995E+00  0.2373E+01
      4.516  0.7698E+00  0.2476E+01
      4.650  0.3202E+00  0.2519E+01
      4.784  0.3157E+00  0.2562E+01
      4.918  0.5689E+00  0.2638E+01
      5.053  0.4674E+00  0.2700E+01
      5.187  0.3227E+00  0.2744E+01
      5.321  0.6082E+00  0.2825E+01
      5.455  0.3496E+00  0.2872E+01
      5.589  0.9320E-01  0.2885E+01
      5.723  0.5595E+00  0.2960E+01
      5.857  0.7863E+00  0.3065E+01
      5.991  0.4371E+00  0.3124E+01
      6.125  0.2470E+00  0.3157E+01
      6.259  0.8894E-01  0.3169E+01
      6.394  0.7919E-01  0.3179E+01
      6.528  0.6130E+00  0.3262E+01
      6.662  0.6527E+00  0.3349E+01
      6.796  0.6354E+00  0.3434E+01
      6.930  0.7390E+00  0.3533E+01
      7.064  0.2940E+00  0.3573E+01
      7.198  0.2068E+00  0.3601E+01
      7.332  0.2651E+00  0.3636E+01
      7.466  0.6623E+00  0.3725E+01
      7.600  0.1050E+01  0.3866E+01
      7.734  0.6114E+00  0.3948E+01
      7.869  0.3363E+00  0.3993E+01
      8.003  0.4222E+00  0.4049E+01
      8.137  0.3908E+00  0.4102E+01
      8.271  0.7210E-01  0.4111E+01
      8.405  0.3485E+00  0.4158E+01
      8.539  0.4701E+00  0.4221E+01
      8.673  0.5257E+00  0.4292E+01
      8.807  0.2306E+00  0.4323E+01
      8.941  0.7479E+00  0.4423E+01
      9.075  0.9387E+00  0.4549E+01
      9.209  0.4895E+00  0.4614E+01
      9.344  0.2917E+00  0.4654E+01
      9.478  0.4574E+00  0.4715E+01
      9.612  0.8379E+00  0.4827E+01
      9.746  0.5704E+00  0.4904E+01
      9.880  0.4725E+00  0.4967E+01
     10.014  0.6337E+00  0.5052E+01
     10.148  0.8431E+00  0.5165E+01
     10.282  0.8014E+00  0.5273E+01
     10.416  0.2996E+00  0.5313E+01
     10.550  0.4308E+00  0.5371E+01
     10.684  0.5143E+00  0.5440E+01
     10.819  0.4182E+00  0.5496E+01
     10.953  0.3615E+00  0.5544E+01
     11.087  0.6834E+00  0.5636E+01
     11.221  0.5002E+00  0.5703E+01
     11.355  0.5916E+00  0.5782E+01
     11.489  0.1089E+01  0.5928E+01
     11.623  0.1237E+01  0.6094E+01
     11.757  0.6142E+00  0.6176E+01
     11.891  0.4771E+00  0.6240E+01
     12.025  0.3376E+00  0.6286E+01
     12.159  0.5848E+00  0.6364E+01
     12.294  0.5057E+00  0.6432E+01
     12.428  0.1847E+00  0.6457E+01
     12.562  0.1101E+00  0.6471E+01
     12.696  0.3299E+00  0.6516E+01
     12.830  0.9552E+00  0.6644E+01
     12.964  0.1003E+01  0.6778E+01
     13.098  0.5109E+00  0.6847E+01
     13.232  0.3912E+00  0.6899E+01
     13.366  0.5206E+00  0.6969E+01
     13.500  0.3887E+00  0.7021E+01
     13.634  0.3399E+00  0.7067E+01
     13.769  0.7910E+00  0.7173E+01
     13.903  0.6879E+00  0.7265E+01
     14.037  0.8413E+00  0.7378E+01
     14.171  0.5129E+00  0.7446E+01
     14.305  0.1991E+00  0.7473E+01
     14.439  0.1158E+00  0.7489E+01
     14.573  0.5783E+00  0.7566E+01
     14.707  0.7403E+00  0.7665E+01
     14.841  0.6955E+00  0.7759E+01
     14.975  0.5705E+00  0.7835E+01
     15.109  0.3915E+00  0.7888E+01
     15.244  0.6027E+00  0.7969E+01
     15.378  0.3421E+00  0.8014E+01
     15.512  0.2523E+00  0.8048E+01
     15.646  0.3359E+00  0.8093E+01
     15.780  0.6947E+00  0.8186E+01
     15.914  0.1076E+01  0.8331E+01
     16.048  0.9586E+00  0.8459E+01
     16.182  0.8163E+00  0.8569E+01
     16.316  0.4650E+00  0.8631E+01
     16.450  0.2182E+00  0.8660E+01
     16.584  0.6284E+00  0.8745E+01
     16.719  0.7149E+00  0.8840E+01
     16.853  0.5386E+00  0.8913E+01
     16.987  0.5574E+00  0.8987E+01
     17.121  0.6051E+00  0.9069E+01
     17.255  0.2852E+00  0.9107E+01
     17.389  0.3286E+00  0.9151E+01
     17.523  0.3537E+00  0.9198E+01
     17.657  0.7283E+00  0.9296E+01
     17.791  0.4300E+00  0.9354E+01
     17.925  0.7387E-01  0.9364E+01
     18.060  0.4223E+00  0.9420E+01
     18.194  0.9312E+00  0.9545E+01
     18.328  0.1071E+01  0.9689E+01
     18.462  0.1122E+01  0.9839E+01
     18.596  0.7851E+00  0.9944E+01
     18.730  0.3303E+00  0.9989E+01
     18.864  0.5481E+00  0.1006E+02
     18.998  0.4520E+00  0.1012E+02
     19.132  0.3904E+00  0.1018E+02
     19.266  0.5540E+00  0.1025E+02
     19.400  0.1450E+01  0.1044E+02
     19.535  0.1279E+01  0.1062E+02
     19.669  0.5826E+00  0.1069E+02
     19.803  0.5505E+00  0.1077E+02
     19.937  0.5541E+00  0.1084E+02
     20.071  0.4645E+00  0.1090E+02
     20.205  0.6774E+00  0.1099E+02
     20.339  0.7906E+00  0.1110E+02
     20.473  0.5454E+00  0.1117E+02
     20.607  0.2521E+00  0.1121E+02
     20.741  0.8026E+00  0.1132E+02
     20.875  0.1111E+01  0.1146E+02
     21.010  0.9812E+00  0.1160E+02
     21.144  0.1220E+01  0.1176E+02
     21.278  0.7979E+00  0.1187E+02
     21.412  0.6583E+00  0.1195E+02
     21.546  0.4590E+00  0.1202E+02
     21.680  0.7151E+00  0.1211E+02
     21.814  0.8492E+00  0.1223E+02
     21.948  0.6463E+00  0.1231E+02
     22.082  0.5739E+00  0.1239E+02
     22.216  0.4737E+00  0.1245E+02
     22.350  0.1783E+00  0.1248E+02
     22.485  0.5449E+00  0.1255E+02
     22.619  0.8946E+00  0.1267E+02
     22.753  0.9461E+00  0.1280E+02
     22.887  0.1020E+01  0.1293E+02
     23.021  0.8349E+00  0.1305E+02
     23.155  0.1141E+01  0.1320E+02
     23.289  0.9715E+00  0.1333E+02
     23.423  0.3677E+00  0.1338E+02
     23.557  0.1638E+00  0.1340E+02
     23.691  0.2410E+00  0.1343E+02
     23.825  0.5808E+00  0.1351E+02
     23.960  0.5653E+00  0.1359E+02
     24.094  0.2732E+00  0.1362E+02
     24.228  0.7279E+00  0.1372E+02
     24.362  0.1123E+01  0.1387E+02
     24.496  0.7235E+00  0.1397E+02
     24.630  0.7362E+00  0.1407E+02
     24.764  0.5668E+00  0.1414E+02
     24.898  0.6726E+00  0.1423E+02
     25.032  0.9851E+00  0.1436E+02
     25.166  0.5782E+00  0.1444E+02
     25.300  0.2226E+00  0.1447E+02
     25.435  0.5067E+00  0.1454E+02
     25.569  0.6405E+00  0.1463E+02
     25.703  0.1574E+00  0.1465E+02
     25.837  0.1011E+00  0.1466E+02
     25.971  0.6507E+00  0.1475E+02
     26.105  0.7183E+00  0.1484E+02
     26.239  0.1725E+00  0.1487E+02
     26.373  0.2684E+00  0.1490E+02
     26.507  0.9239E+00  0.1503E+02
     26.641  0.1467E+01  0.1522E+02
     26.775  0.6345E+00  0.1531E+02
     26.910  0.2312E+00  0.1534E+02
     27.044  0.4173E+00  0.1540E+02
     27.178  0.1154E+00  0.1541E+02
     27.312  0.3379E+00  0.1546E+02
     27.446  0.4537E+00  0.1552E+02
     27.580  0.3134E+00  0.1556E+02
     27.714  0.2785E+00  0.1560E+02
     27.848  0.4564E-01  0.1560E+02
     27.982  0.5800E-02  0.1560E+02
     28.116  0.1123E+00  0.1562E+02
     28.251  0.1454E+00  0.1564E+02
     28.385  0.1643E+00  0.1566E+02
     28.519  0.3221E+00  0.1570E+02
     28.653  0.5751E-01  0.1571E+02
     28.787  0.7655E-01  0.1572E+02
     28.921  0.3522E+00  0.1577E+02
     29.055  0.1591E+00  0.1579E+02
     29.189  0.2200E+00  0.1582E+02
     29.323  0.7415E-01  0.1583E+02
     29.457  0.1349E+00  0.1585E+02
     29.591  0.1413E+00  0.1587E+02
     29.726  0.8294E-01  0.1588E+02
     29.860  0.9514E-01  0.1589E+02
     29.994  0.1620E+00  0.1591E+02
     30.128  0.3217E+00  0.1596E+02
     30.262  0.6828E-01  0.1596E+02
     30.396  0.4305E-01  0.1597E+02
     30.530  0.1792E-01  0.1597E+02
     30.664  0.4157E-03  0.1597E+02
     30.798  0.3757E-06  0.1597E+02
     30.932  0.4427E-04  0.1597E+02
     31.066  0.8767E-02  0.1597E+02
     31.201  0.7865E-01  0.1598E+02
     31.335  0.4550E-01  0.1599E+02
     31.469  0.1833E-02  0.1599E+02
     31.603  0.1616E-01  0.1599E+02
     31.737  0.4310E-01  0.1600E+02
     31.871  0.7584E-02  0.1600E+02
     32.005  0.6436E-04  0.1600E+02
     32.139  0.1933E-07  0.1600E+02
     32.273  0.1800E-12  0.1600E+02
     32.407  0.0000E+00  0.1600E+02
     32.541  0.0000E+00  0.1600E+02
     32.676  0.0000E+00  0.1600E+02
     32.810  0.0000E+00  0.1600E+02
     32.944  0.0000E+00  0.1600E+02
     33.078  0.0000E+00  0.1600E+02
     33.212  0.0000E+00  0.1600E+02
     33.346  0.0000E+00  0.1600E+02
     33.480  0.0000E+00  0.1600E+02
