    1    1    1    1
  0.1723025E+02  0.2899138E-09  0.2899138E-09  0.2899138E-09  0.5000000E-15
  1.000000000000000E-004
  CAR 
 fcc Si                                  
      4     56      8
 
  0.0000000E+00  0.0000000E+00  0.0000000E+00  0.7513148E-03
      1         -4.918991   1.000000
      2         17.189849   0.000000
      3         17.189889   0.000000
      4         17.189889   0.000000
      5         19.406906   0.000000
      6         19.406933   0.000000
      7         19.406933   0.000000
      8         24.256573   0.000000
 
  0.9090909E-01 -0.2132825E-17 -0.2132825E-17  0.6010518E-02
      1         -4.706355   1.000000
      2         14.987220   0.000000
      3         16.683502   0.000000
      4         16.683541   0.000000
      5         19.886235   0.000000
      6         20.113091   0.000000
      7         20.113166   0.000000
      8         24.536511   0.000000
 
  0.1818182E+00 -0.7962035E-18 -0.7962035E-18  0.6010518E-02
      1         -4.069242   1.000000
      2         11.642710   0.000000
      3         15.961670   0.000000
      4         15.961712   0.000000
      5         19.847575   0.000000
      6         20.923862   0.000000
      7         20.924070   0.000000
      8         23.779224   0.000000
 
  0.2727273E+00  0.4183338E-17  0.4183338E-17  0.6010518E-02
      1         -3.014323   1.000000
      2          8.375018   0.000000
      3         15.452168   0.000000
      4         15.452209   0.000000
      5         19.648485   0.000000
      6         20.162968   0.000000
      7         20.163182   0.000000
      8         24.971887   0.000000
 
  0.3636364E+00 -0.5061854E-17 -0.5061854E-17  0.6010518E-02
      1         -1.556511   1.000000
      2          5.396364   1.000000
      3         15.188337   0.000000
      4         15.188375   0.000000
      5         19.132838   0.000000
      6         19.133029   0.000000
      7         19.563188   0.000000
      8         23.717725   0.000000
 
  0.4545455E+00  0.1761187E-16  0.1761187E-16  0.6010518E-02
      1          0.222792   1.000000
      2          2.847189   1.000000
      3         15.102172   0.000000
      4         15.102206   0.000000
      5         18.518753   0.000000
      6         18.518942   0.000000
      7         19.585043   0.000000
      8         22.985391   0.000000
 
  0.9090909E-01  0.9090909E-01  0.7768555E-17  0.4507889E-02
      1         -4.635404   1.000000
      2         15.644843   0.000000
      3         15.644872   0.000000
      4         16.472248   0.000000
      5         18.068296   0.000000
      6         21.271980   0.000000
      7         21.272014   0.000000
      8         22.853698   0.000000
 
  0.1818182E+00  0.9090909E-01  0.1683566E-17  0.1803156E-01
      1         -4.139726   1.000000
      2         12.892327   0.000000
      3         14.768547   0.000000
      4         16.030282   0.000000
      5         18.334360   0.000000
      6         21.135767   0.000000
      7         22.017828   0.000000
      8         22.460044   0.000000
 
  0.2727273E+00  0.9090909E-01 -0.7962035E-18  0.1803156E-01
      1         -3.223679   1.000000
      2          9.600367   0.000000
      3         14.202318   0.000000
      4         15.294125   0.000000
      5         18.327112   0.000000
      6         20.881108   0.000000
      7         22.162032   0.000000
      8         22.598809   0.000000
 
  0.3636364E+00  0.9090909E-01  0.4183338E-17  0.1803156E-01
      1         -1.898456   1.000000
      2          6.523832   1.000000
      3         13.973825   0.000000
      4         14.565429   0.000000
      5         17.610478   0.000000
      6         21.014844   0.000000
      7         21.036383   0.000000
      8         24.357051   0.000000
 
  0.4545455E+00  0.9090909E-01 -0.1592407E-17  0.1803156E-01
      1         -0.202512   1.000000
      2          3.807825   1.000000
      3         13.859874   0.000000
      4         14.080552   0.000000
      5         17.380855   0.000000
      6         20.015323   0.000000
      7         20.990162   0.000000
      8         24.780679   0.000000
 
 -0.4545455E+00  0.9090909E-01 -0.8366675E-17  0.1803156E-01
      1          0.928555   1.000000
      2          2.420367   1.000000
      3         13.286405   0.000000
      4         14.493465   0.000000
      5         17.729953   0.000000
      6         19.385917   0.000000
      7         20.864507   0.000000
      8         24.689333   0.000000
 
 -0.3636364E+00  0.9090909E-01 -0.1344853E-16  0.1803156E-01
      1         -0.802844   1.000000
      2          4.664655   1.000000
      3         12.967567   0.000000
      4         15.147229   0.000000
      5         18.557928   0.000000
      6         19.217350   0.000000
      7         20.722055   0.000000
      8         25.180274   0.000000
 
 -0.2727273E+00  0.9090909E-01  0.5061854E-17  0.1803156E-01
      1         -2.384786   1.000000
      2          7.516832   1.000000
      3         12.969401   0.000000
      4         15.930839   0.000000
      5         19.586427   0.000000
      6         19.762166   0.000000
      7         20.667408   0.000000
      8         24.343080   0.000000
 
 -0.1818182E+00  0.9090909E-01 -0.4183338E-17  0.1803156E-01
      1         -3.575339   1.000000
      2         10.689024   0.000000
      3         13.317477   0.000000
      4         16.708466   0.000000
      5         20.289434   0.000000
      6         20.617641   0.000000
      7         21.138118   0.000000
      8         22.414622   0.000000
 
 -0.9090909E-01  0.9090909E-01  0.4265650E-17  0.9015778E-02
      1         -4.352045   1.000000
      2         13.985740   0.000000
      3         14.029804   0.000000
      4         17.203673   0.000000
      5         19.952969   0.000000
      6         20.289170   0.000000
      7         21.478902   0.000000
      8         22.834394   0.000000
 
  0.1818182E+00  0.1818182E+00  0.8598216E-17  0.4507889E-02
      1         -3.785945   1.000000
      2         13.768027   0.000000
      3         13.768053   0.000000
      4         14.659375   0.000000
      5         16.095680   0.000000
      6         18.953822   0.000000
      7         24.126028   0.000000
      8         24.126071   0.000000
 
  0.2727273E+00  0.1818182E+00  0.4979541E-17  0.1803156E-01
      1         -3.011190   1.000000
      2         11.110533   0.000000
      3         13.090709   0.000000
      4         13.780930   0.000000
      5         16.249669   0.000000
      6         18.197766   0.000000
      7         24.619623   0.000000
      8         24.876511   0.000000
 
  0.3636364E+00  0.1818182E+00  0.9265193E-17  0.1803156E-01
      1         -1.823498   1.000000
      2          8.012610   0.045095
      3         12.581396   0.000000
      4         12.767040   0.000000
      5         15.915266   0.000000
      6         19.898065   0.000000
      7         23.596896   0.000000
      8         24.903734   0.000000
 
  0.4545455E+00  0.1818182E+00  0.5969449E-16  0.1803156E-01
      1         -0.245337   1.000000
      2          5.187581   1.000000
      3         11.460073   0.000000
      4         12.804577   0.000000
      5         15.820551   0.000000
      6         22.038869   0.000000
      7         22.487772   0.000000
      8         25.051309   0.000000
 
 -0.4545455E+00  0.1818182E+00 -0.2590931E-17  0.1803156E-01
      1          1.484931   1.000000
      2          2.952729   1.000000
      3         10.593232   0.000000
      4         13.197151   0.000000
      5         16.197466   0.000000
      6         21.665147   0.000000
      7         22.981131   0.000000
      8         26.379824   0.000000
 
 -0.3636364E+00  0.1818182E+00 -0.8366675E-17  0.1803156E-01
      1          0.350148   1.000000
      2          4.343468   1.000000
      3         10.059767   0.000000
      4         13.924382   0.000000
      5         17.009149   0.000000
      6         21.201665   0.000000
      7         22.867336   0.000000
      8         26.673384   0.000000
 
 -0.2727273E+00  0.1818182E+00  0.6634875E-16  0.1803156E-01
      1         -1.341599   1.000000
      2          7.046258   1.000000
      3          9.892556   0.000000
      4         14.933353   0.000000
      5         18.206501   0.000000
      6         21.153883   0.000000
      7         22.535859   0.000000
      8         23.896004   0.000000
 
 -0.1818182E+00  0.1818182E+00  0.1592407E-17  0.9015778E-02
      1         -2.662519   1.000000
      2         10.017566   0.000000
      3         10.181494   0.000000
      4         16.067658   0.000000
      5         19.708792   0.000000
      6         21.517166   0.000000
      7         21.593273   0.000000
      8         21.858035   0.000000
 
  0.2727273E+00  0.2727273E+00  0.2142039E-17  0.4507889E-02
      1         -2.378600   1.000000
      2         11.825878   0.000000
      3         12.294281   0.000000
      4         12.294304   0.000000
      5         14.472859   0.000000
      6         16.160386   0.000000
      7         26.975877   0.000000
      8         26.975963   0.000000
 
  0.3636364E+00  0.2727273E+00  0.1885733E-16  0.1803156E-01
      1         -1.331407   1.000000
      2          9.582235   0.000000
      3         10.689779   0.000000
      4         11.855547   0.000000
      5         14.613626   0.000000
      6         16.590114   0.000000
      7         26.488795   0.000000
      8         27.637032   0.000000
 
  0.4545455E+00  0.2727273E+00  0.4187799E-16  0.1803156E-01
      1          0.115832   1.000000
      2          6.877128   1.000000
      3          9.156580   0.000000
      4         11.784049   0.000000
      5         14.590840   0.000000
      6         18.979377   0.000000
      7         25.414013   0.000000
      8         27.346667   0.000000
 
 -0.4545455E+00  0.2727273E+00 -0.1342053E-15  0.1803156E-01
      1          1.885387   1.000000
      2          4.410990   1.000000
      3          8.040572   0.018317
      4         12.079137   0.000000
      5         14.907007   0.000000
      6         21.793797   0.000000
      7         24.482123   0.000000
      8         26.676106   0.000000
 
 -0.3636364E+00  0.2727273E+00 -0.2757095E-16  0.1803156E-01
      1          1.864412   1.000000
      2          4.449166   1.000000
      3          7.318678   1.000000
      4         12.732115   0.000000
      5         15.634135   0.000000
      6         23.834882   0.000000
      7         24.392377   0.000000
      8         25.930596   0.000000
 
 -0.2727273E+00  0.2727273E+00 -0.8366675E-17  0.9015778E-02
      1          0.100507   1.000000
      2          6.839307   1.000000
      3          7.122002   1.000000
      4         13.715077   0.000000
      5         16.752939   0.000000
      6         23.195756   0.000000
      7         24.262413   0.000000
      8         24.299239   0.000000
 
  0.3636364E+00  0.3636364E+00  0.2413533E-16  0.4507889E-02
      1         -0.426025   1.000000
      2          8.365226   0.000000
      3         11.295751   0.000000
      4         11.295773   0.000000
      5         13.370474   0.000000
      6         14.702069   0.000000
      7         29.105437   0.000000
      8         29.625648   0.000000
 
  0.4545455E+00  0.3636364E+00  0.3655151E-16  0.1803156E-01
      1          0.883283   1.000000
      2          6.733006   1.000000
      3          9.257062   0.000000
      4         11.105462   0.000000
      5         13.707530   0.000000
      6         15.746571   0.000000
      7         28.450134   0.000000
      8         30.009079   0.000000
 
 -0.4545455E+00  0.3636364E+00  0.1589945E-16  0.1803156E-01
      1          2.557575   1.000000
      2          5.332374   1.000000
      3          6.826003   1.000000
      4         11.286786   0.000000
      5         13.986497   0.000000
      6         18.498023   0.000000
      7         27.485354   0.000000
      8         29.133572   0.000000
 
 -0.3636364E+00  0.3636364E+00  0.1012371E-16  0.9015778E-02
      1          3.519748   1.000000
      2          4.687935   1.000000
      3          5.405639   1.000000
      4         11.834855   0.000000
      5         14.612746   0.000000
      6         21.640553   0.000000
      7         26.308718   0.000000
      8         27.607513   0.000000
 
  0.4545455E+00  0.4545455E+00  0.3918972E-16  0.4507889E-02
      1          2.050971   1.000000
      2          5.010546   1.000000
      3         10.793273   0.000000
      4         10.793294   0.000000
      5         12.806870   0.000000
      6         14.059758   0.000000
      7         30.353211   0.000000
      8         31.651570   0.000000
 
 -0.4545455E+00  0.4545455E+00  0.2167520E-16  0.9015778E-02
      1          3.591091   1.000000
      2          3.605321   1.000000
      3          8.952866   0.000000
      4         10.854020   0.000000
      5         13.410763   0.000000
      6         15.465691   0.000000
      7         29.768687   0.000000
      8         31.173210   0.000000
 
  0.2727273E+00  0.1818182E+00  0.9090909E-01  0.1803156E-01
      1         -3.504421   1.000000
      2         12.052955   0.000000
      3         12.088110   0.000000
      4         15.845861   0.000000
      5         18.285161   0.000000
      6         19.778325   0.000000
      7         22.687919   0.000000
      8         23.271873   0.000000
 
  0.3636364E+00  0.1818182E+00  0.9090909E-01  0.3606311E-01
      1         -2.452340   1.000000
      2          8.874413   0.000000
      3         11.598694   0.000000
      4         14.795549   0.000000
      5         18.329987   0.000000
      6         20.383432   0.000000
      7         21.899444   0.000000
      8         23.809960   0.000000
 
  0.4545455E+00  0.1818182E+00  0.9090909E-01  0.3606311E-01
      1         -0.998630   1.000000
      2          5.921835   1.000000
      3         11.471925   0.000000
      4         13.664845   0.000000
      5         18.068725   0.000000
      6         20.173853   0.000000
      7         22.624193   0.000000
      8         24.582494   0.000000
 
 -0.4545455E+00  0.1818182E+00  0.9090909E-01  0.3606311E-01
      1          0.778176   1.000000
      2          3.383156   1.000000
      3         11.602907   0.000000
      4         12.862355   0.000000
      5         18.099104   0.000000
      6         19.458310   0.000000
      7         23.105463   0.000000
      8         26.576361   0.000000
 
  0.3636364E+00  0.2727273E+00  0.9090909E-01  0.1803156E-01
      1         -2.100242   1.000000
      2         10.461261   0.000000
      3         10.503826   0.000000
      4         12.778057   0.000000
      5         16.769379   0.000000
      6         17.634069   0.000000
      7         24.189368   0.000000
      8         26.526338   0.000000
 
  0.4545455E+00  0.2727273E+00  0.9090909E-01  0.3606311E-01
      1         -0.782341   1.000000
      2          7.526564   1.000000
      3         10.116946   0.000000
      4         11.496595   0.000000
      5         16.918331   0.000000
      6         19.461976   0.000000
      7         23.115403   0.000000
      8         26.944868   0.000000
 
 -0.4545455E+00  0.2727273E+00  0.9090909E-01  0.3606311E-01
      1          0.905698   1.000000
      2          4.857526   1.000000
      3          9.628378   0.000000
      4         10.978055   0.000000
      5         17.074811   0.000000
      6         21.375502   0.000000
      7         22.848854   0.000000
      8         26.597789   0.000000
 
 -0.3636364E+00  0.2727273E+00  0.9090909E-01  0.3606311E-01
      1          2.032152   1.000000
      2          3.485820   1.000000
      3          8.976350   0.000000
      4         11.361030   0.000000
      5         17.589810   0.000000
      6         21.063993   0.000000
      7         24.928337   0.000000
      8         25.525353   0.000000
 
 -0.2727273E+00  0.2727273E+00  0.9090909E-01  0.3606311E-01
      1          0.302766   1.000000
      2          5.718618   1.000000
      3          8.577661   0.000000
      4         12.238827   0.000000
      5         18.413923   0.000000
      6         20.751040   0.000000
      7         23.159298   0.000000
      8         26.041242   0.000000
 
 -0.1818182E+00  0.2727273E+00  0.9090909E-01  0.1803156E-01
      1         -1.269451   1.000000
      2          8.435710   0.000000
      3          8.631611   0.000000
      4         13.465971   0.000000
      5         19.333500   0.000000
      6         20.316339   0.000000
      7         21.356865   0.000000
      8         25.439737   0.000000
 
  0.4545455E+00  0.3636364E+00  0.9090909E-01  0.1803156E-01
      1         -0.153356   1.000000
      2          8.371260   0.000000
      3          9.454575   0.000000
      4         10.199850   0.000000
      5         15.721347   0.000000
      6         16.470423   0.000000
      7         26.035558   0.000000
      8         29.452062   0.000000
 
 -0.4545455E+00  0.3636364E+00  0.9090909E-01  0.3606311E-01
      1          1.411697   1.000000
      2          6.475967   1.000000
      3          7.687345   0.998167
      4          9.853532   0.000000
      5         16.117227   0.000000
      6         18.789519   0.000000
      7         25.031772   0.000000
      8         28.862411   0.000000
 
 -0.3636364E+00  0.3636364E+00  0.9090909E-01  0.3606311E-01
      1          3.127307   1.000000
      2          4.456976   1.000000
      3          6.574401   1.000000
      4         10.242903   0.000000
      5         16.567947   0.000000
      6         21.693503   0.000000
      7         24.272613   0.000000
      8         26.474980   0.000000
 
 -0.2727273E+00  0.3636364E+00  0.9090909E-01  0.1803156E-01
      1          1.966251   1.000000
      2          5.764809   1.000000
      3          6.095083   1.000000
      4         11.055092   0.000000
      5         17.368700   0.000000
      6         23.237453   0.000000
      7         23.388413   0.000000
      8         25.389076   0.000000
 
 -0.4545455E+00  0.4545455E+00  0.9090909E-01  0.1803156E-01
      1          2.311356   1.000000
      2          5.237497   1.000000
      3          8.927404   0.000000
      4          9.422102   0.000000
      5         15.193536   0.000000
      6         15.920643   0.000000
      7         28.127499   0.000000
      8         30.064594   0.000000
 
 -0.3636364E+00  0.4545455E+00  0.9090909E-01  0.1803156E-01
      1          3.982073   1.000000
      2          4.147317   1.000000
      3          6.768199   1.000000
      4          9.530403   0.000000
      5         15.852079   0.000000
      6         18.554190   0.000000
      7         27.245043   0.000000
      8         27.349969   0.000000
 
 -0.4545455E+00  0.3636364E+00  0.1818182E+00  0.1803156E-01
      1          0.656151   1.000000
      2          7.369271   1.000000
      3          7.439580   1.000000
      4         10.006136   0.000000
      5         19.292809   0.000000
      6         19.329135   0.000000
      7         22.148488   0.000000
      8         28.400231   0.000000
 
 -0.3636364E+00  0.3636364E+00  0.1818182E+00  0.3606311E-01
      1          2.416698   1.000000
      2          4.944123   1.000000
      3          7.549606   0.999999
      4          9.052672   0.000000
      5         19.353435   0.000000
      6         20.808563   0.000000
      7         22.744993   0.000000
      8         25.915139   0.000000
 
 -0.3636364E+00  0.4545455E+00  0.1818182E+00  0.1803156E-01
      1          3.066392   1.000000
      2          5.754045   1.000000
      3          6.833110   1.000000
      4          7.821146   0.844545
      5         18.824328   0.000000
      6         19.016764   0.000000
      7         24.093826   0.000000
      8         26.574284   0.000000
 
 -0.2727273E+00  0.4545455E+00  0.1818182E+00  0.1803156E-01
      1          4.050718   1.000000
      2          5.225772   1.000000
      3          5.717449   1.000000
      4          7.970027   0.137377
      5         19.375063   0.000000
      6         21.704614   0.000000
      7         22.927208   0.000000
      8         24.229924   0.000000
