       N       E                     dE             d eps       ncg     rms          rms(c)
DAV:   1    -0.386837752917E+01   -0.38684E+01   -0.10692E+03   968   0.206E+02
DAV:   2    -0.479777324697E+01   -0.92940E+00   -0.89002E+00  1400   0.168E+01
DAV:   3    -0.480165974411E+01   -0.38865E-02   -0.38858E-02   984   0.108E+00
DAV:   4    -0.480166209422E+01   -0.23501E-05   -0.23493E-05  1440   0.264E-02
DAV:   5    -0.480166209448E+01   -0.26611E-09   -0.26334E-09   936   0.172E-04    0.226E+00
DAV:   6    -0.479106930554E+01    0.10593E-01   -0.44213E-03   992   0.285E-01    0.124E+00
DAV:   7    -0.478531410843E+01    0.57552E-02   -0.84512E-03  1008   0.392E-01    0.126E-01
DAV:   8    -0.478529712508E+01    0.16983E-04   -0.32458E-05  1096   0.426E-02
   1 F= -.47852971E+01 E0= -.47845193E+01  d E =-.155573E-02
