 vasp.6.3.0 20Jan22 (build Feb 01 2022 16:52:37) complex                        
  
 executed on           TETRA_NSC1 date 2022.02.22  16:07:19
 running    4 mpi-ranks, with    1 threads/rank
 distrk:  each k-point on    4 cores,    1 groups
 distr:  one band on NCORE=   1 cores,    4 groups


--------------------------------------------------------------------------------------------------------


 INCAR:
   SYSTEM = fcc Si
   ISTART = 0
   ICHARG = 2
   ENCUT = 240
   ISMEAR = 0
   SIGMA = 0.1

 POTCAR:    PAW_PBE Si 05Jan2001                  
 POTCAR:    PAW_PBE Si 05Jan2001                  
   VRHFIN =Si: s2p2                                                                                 
   LEXCH  = PE                                                                                      
   EATOM  =   103.0669 eV,    7.5752 Ry                                                             
                                                                                                    
   TITEL  = PAW_PBE Si 05Jan2001                                                                    
   LULTRA =        F    use ultrasoft PP ?                                                          
   IUNSCR =        1    unscreen: 0-lin 1-nonlin 2-no                                               
   RPACOR =    1.500    partial core radius                                                         
   POMASS =   28.085; ZVAL   =    4.000    mass and valenz                                          
   RCORE  =    1.900    outmost cutoff radius                                                       
   RWIGS  =    2.480; RWIGS  =    1.312    wigner-seitz radius (au A)                               
   ENMAX  =  245.345; ENMIN  =  184.009 eV                                                          
   ICORE  =        2    local potential                                                             
   LCOR   =        T    correct aug charges                                                         
   LPAW   =        T    paw PP                                                                      
   EAUG   =  322.069                                                                                
   DEXC   =    0.000                                                                                
   RMAX   =    1.950    core radius for proj-oper                                                   
   RAUG   =    1.300    factor for augmentation sphere                                              
   RDEP   =    1.993    radius for radial grids                                                     
   RDEPT  =    1.837    core radius for aug-charge                                                  
                                                                                                    
   Atomic configuration                                                                             
    6 entries                                                                                       
     n  l   j            E        occ.                                                              
     1  0  0.50     -1785.8828   2.0000                                                             
     2  0  0.50      -139.4969   2.0000                                                             
     2  1  1.50       -95.5546   6.0000                                                             
     3  0  0.50       -10.8127   2.0000                                                             
     3  1  0.50        -4.0811   2.0000                                                             
     3  2  1.50        -4.0817   0.0000                                                             
   Description                                                                                      
     l       E           TYP  RCUT    TYP  RCUT                                                     
     0    -10.8127223     23  1.900                                                                 
     0     -7.6451159     23  1.900                                                                 
     1     -4.0811372     23  1.900                                                                 
     1      2.4879257     23  1.900                                                                 
     2     -4.0817478      7  1.900                                                                 
  local pseudopotential read in
  partial core-charges read in
  partial kinetic energy density read in
  atomic valenz-charges read in
  non local Contribution for L=           0  read in
    real space projection operators read in
  non local Contribution for L=           0  read in
    real space projection operators read in
  non local Contribution for L=           1  read in
    real space projection operators read in
  non local Contribution for L=           1  read in
    real space projection operators read in
    PAW grid and wavefunctions read in
 
   number of l-projection  operators is LMAX  =           4
   number of lm-projection operators is LMMAX =           8
 
  PAW_PBE Si 05Jan2001                  :
 energy of atom  1       EATOM= -103.0669
 kinetic energy error for atom=    0.0061 (will be added to EATOM!!)
 
 
 POSCAR: fcc:
  positions in cartesian coordinates
  No initial velocities read in
 exchange correlation table for  LEXCH =        8
   RHO(1)=    0.500       N(1)  =     2000
   RHO(2)=  100.500       N(2)  =     4000
 


--------------------------------------------------------------------------------------------------------


 ion  position               nearest neighbor table
   1  0.000  0.000  0.000-
 
  LATTYP: Found a face centered cubic cell.
 ALAT       =     4.1000000000
  
  Lattice vectors:
  
 A1 = (   2.0500000000,   2.0500000000,   0.0000000000)
 A2 = (   0.0000000000,   2.0500000000,   2.0500000000)
 A3 = (   2.0500000000,   0.0000000000,   2.0500000000)


Analysis of symmetry for initial positions (statically):
=====================================================================
 Subroutine PRICEL returns:
 Original cell was already a primitive cell.
 

 Routine SETGRP: Setting up the symmetry group for a 
 face centered cubic supercell.


 Subroutine GETGRP returns: Found 48 space group operations
 (whereof 48 operations were pure point group operations)
 out of a pool of 48 trial point group operations.


The static configuration has the point symmetry O_h .


Analysis of symmetry for dynamics (positions and initial velocities):
=====================================================================
 Subroutine PRICEL returns:
 Original cell was already a primitive cell.
 

 Routine SETGRP: Setting up the symmetry group for a 
 face centered cubic supercell.


 Subroutine GETGRP returns: Found 48 space group operations
 (whereof 48 operations were pure point group operations)
 out of a pool of 48 trial point group operations.


The dynamic configuration has the point symmetry O_h .


 Subroutine INISYM returns: Found 48 space group operations
 (whereof 48 operations are pure point group operations),
 and found     1 'primitive' translations


----------------------------------------------------------------------------------------

                                     Primitive cell                                     

  volume of cell :      17.2302

  direct lattice vectors                    reciprocal lattice vectors
     2.050000000  2.050000000  0.000000000     0.243902439  0.243902439 -0.243902439
     0.000000000  2.050000000  2.050000000    -0.243902439  0.243902439  0.243902439
     2.050000000  0.000000000  2.050000000     0.243902439 -0.243902439  0.243902439

  length of vectors
     2.899137803  2.899137803  2.899137803     0.422451416  0.422451416  0.422451416

  position of ions in fractional coordinates (direct lattice)
     0.000000000  0.000000000  0.000000000

  ion indices of the primitive-cell ions
   primitive index   ion index
                 1           1

----------------------------------------------------------------------------------------

 
 
 KPOINTS: k-points                                

Automatic generation of k-mesh.
 Grid dimensions read from file:
 generate k-points for:   11   11   11

 Generating k-lattice:

  Cartesian coordinates                     Fractional coordinates (reciprocal lattice)
     0.022172949  0.022172949 -0.022172949     0.090909091  0.000000000  0.000000000
    -0.022172949  0.022172949  0.022172949     0.000000000  0.090909091 -0.000000000
     0.022172949 -0.022172949  0.022172949    -0.000000000 -0.000000000  0.090909091

  Length of vectors
     0.038404674  0.038404674  0.038404674

  Shift w.r.t. Gamma in fractional coordinates (k-lattice)
     0.000000000  0.000000000  0.000000000

 
 Subroutine IBZKPT returns following result:
 ===========================================
 
 Found     56 irreducible k-points:
 
 Following reciprocal coordinates:
            Coordinates               Weight
  0.000000  0.000000  0.000000      1.000000
  0.090909 -0.000000 -0.000000      8.000000
  0.181818 -0.000000 -0.000000      8.000000
  0.272727  0.000000  0.000000      8.000000
  0.363636 -0.000000 -0.000000      8.000000
  0.454545  0.000000  0.000000      8.000000
  0.090909  0.090909  0.000000      6.000000
  0.181818  0.090909  0.000000     24.000000
  0.272727  0.090909 -0.000000     24.000000
  0.363636  0.090909  0.000000     24.000000
  0.454545  0.090909 -0.000000     24.000000
 -0.454545  0.090909 -0.000000     24.000000
 -0.363636  0.090909 -0.000000     24.000000
 -0.272727  0.090909  0.000000     24.000000
 -0.181818  0.090909 -0.000000     24.000000
 -0.090909  0.090909  0.000000     12.000000
  0.181818  0.181818  0.000000      6.000000
  0.272727  0.181818  0.000000     24.000000
  0.363636  0.181818  0.000000     24.000000
  0.454545  0.181818  0.000000     24.000000
 -0.454545  0.181818 -0.000000     24.000000
 -0.363636  0.181818 -0.000000     24.000000
 -0.272727  0.181818  0.000000     24.000000
 -0.181818  0.181818  0.000000     12.000000
  0.272727  0.272727  0.000000      6.000000
  0.363636  0.272727  0.000000     24.000000
  0.454545  0.272727  0.000000     24.000000
 -0.454545  0.272727 -0.000000     24.000000
 -0.363636  0.272727 -0.000000     24.000000
 -0.272727  0.272727 -0.000000     12.000000
  0.363636  0.363636  0.000000      6.000000
  0.454545  0.363636  0.000000     24.000000
 -0.454545  0.363636  0.000000     24.000000
 -0.363636  0.363636  0.000000     12.000000
  0.454545  0.454545  0.000000      6.000000
 -0.454545  0.454545  0.000000     12.000000
  0.272727  0.181818  0.090909     24.000000
  0.363636  0.181818  0.090909     48.000000
  0.454545  0.181818  0.090909     48.000000
 -0.454545  0.181818  0.090909     48.000000
  0.363636  0.272727  0.090909     24.000000
  0.454545  0.272727  0.090909     48.000000
 -0.454545  0.272727  0.090909     48.000000
 -0.363636  0.272727  0.090909     48.000000
 -0.272727  0.272727  0.090909     48.000000
 -0.181818  0.272727  0.090909     24.000000
  0.454545  0.363636  0.090909     24.000000
 -0.454545  0.363636  0.090909     48.000000
 -0.363636  0.363636  0.090909     48.000000
 -0.272727  0.363636  0.090909     24.000000
 -0.454545  0.454545  0.090909     24.000000
 -0.363636  0.454545  0.090909     24.000000
 -0.454545  0.363636  0.181818     24.000000
 -0.363636  0.363636  0.181818     48.000000
 -0.363636  0.454545  0.181818     24.000000
 -0.272727  0.454545  0.181818     24.000000
 
 Following cartesian coordinates:
            Coordinates               Weight
  0.000000  0.000000  0.000000      1.000000
  0.090909  0.090909 -0.090909      8.000000
  0.181818  0.181818 -0.181818      8.000000
  0.272727  0.272727 -0.272727      8.000000
  0.363636  0.363636 -0.363636      8.000000
  0.454545  0.454545 -0.454545      8.000000
  0.000000  0.181818  0.000000      6.000000
  0.090909  0.272727 -0.090909     24.000000
  0.181818  0.363636 -0.181818     24.000000
  0.272727  0.454545 -0.272727     24.000000
  0.363636  0.545455 -0.363636     24.000000
 -0.545455 -0.363636  0.545455     24.000000
 -0.454545 -0.272727  0.454545     24.000000
 -0.363636 -0.181818  0.363636     24.000000
 -0.272727 -0.090909  0.272727     24.000000
 -0.181818 -0.000000  0.181818     12.000000
  0.000000  0.363636  0.000000      6.000000
  0.090909  0.454545 -0.090909     24.000000
  0.181818  0.545455 -0.181818     24.000000
  0.272727  0.636364 -0.272727     24.000000
 -0.636364 -0.272727  0.636364     24.000000
 -0.545455 -0.181818  0.545455     24.000000
 -0.454545 -0.090909  0.454545     24.000000
 -0.363636 -0.000000  0.363636     12.000000
  0.000000  0.545455 -0.000000      6.000000
  0.090909  0.636364 -0.090909     24.000000
  0.181818  0.727273 -0.181818     24.000000
 -0.727273 -0.181818  0.727273     24.000000
 -0.636364 -0.090909  0.636364     24.000000
 -0.545455 -0.000000  0.545455     12.000000
  0.000000  0.727273  0.000000      6.000000
  0.090909  0.818182 -0.090909     24.000000
 -0.818182 -0.090909  0.818182     24.000000
 -0.727273 -0.000000  0.727273     12.000000
 -0.000000  0.909091  0.000000      6.000000
 -0.909091 -0.000000  0.909091     12.000000
  0.181818  0.363636 -0.000000     24.000000
  0.272727  0.454545 -0.090909     48.000000
  0.363636  0.545455 -0.181818     48.000000
 -0.545455 -0.363636  0.727273     48.000000
  0.181818  0.545455  0.000000     24.000000
  0.272727  0.636364 -0.090909     48.000000
 -0.636364 -0.272727  0.818182     48.000000
 -0.545455 -0.181818  0.727273     48.000000
 -0.454545 -0.090909  0.636364     48.000000
 -0.363636  0.000000  0.545455     24.000000
  0.181818  0.727273  0.000000     24.000000
 -0.727273 -0.181818  0.909091     48.000000
 -0.636364 -0.090909  0.818182     48.000000
 -0.545455 -0.000000  0.727273     24.000000
 -0.818182 -0.090909  1.000000     24.000000
 -0.727273 -0.000000  0.909091     24.000000
 -0.636364 -0.272727  1.000000     24.000000
 -0.545455 -0.181818  0.909091     48.000000
 -0.636364 -0.090909  1.000000     24.000000
 -0.545455  0.000000  0.909091     24.000000
 


--------------------------------------------------------------------------------------------------------




 Dimension of arrays:
   k-points           NKPTS =     56   k-points in BZ     NKDIM =     56   number of bands    NBANDS=      8
   number of dos      NEDOS =    301   number of ions     NIONS =      1
   non local maximal  LDIM  =      4   non local SUM 2l+1 LMDIM =      8
   total plane-waves  NPLWV =   1728
   max r-space proj   IRMAX =      1   max aug-charges    IRDMAX=   3552
   dimension x,y,z NGX =    12 NGY =   12 NGZ =   12
   dimension x,y,z NGXF=    24 NGYF=   24 NGZF=   24
   support grid    NGXF=    24 NGYF=   24 NGZF=   24
   ions per type =               1
   NGX,Y,Z   is equivalent  to a cutoff of   6.88,  6.88,  6.88 a.u.
   NGXF,Y,Z  is equivalent  to a cutoff of  13.76, 13.76, 13.76 a.u.

 SYSTEM =  fcc Si                                  
 POSCAR =  fcc:                                    

 Startparameter for this run:
   NWRITE =      2    write-flag & timer
   PREC   = normal    normal or accurate (medium, high low for compatibility)
   ISTART =      0    job   : 0-new  1-cont  2-samecut
   ICHARG =      2    charge: 1-file 2-atom 10-const
   ISPIN  =      1    spin polarized calculation?
   LNONCOLLINEAR =      F non collinear calculations
   LSORBIT =      F    spin-orbit coupling
   INIWAV =      1    electr: 0-lowe 1-rand  2-diag
   LASPH  =      F    aspherical Exc in radial PAW
 Electronic Relaxation 1
   ENCUT  =  240.0 eV  17.64 Ry    4.20 a.u.   3.66  3.66  3.66*2*pi/ulx,y,z
   ENINI  =  240.0     initial cutoff
   ENAUG  =  322.1 eV  augmentation charge cutoff
   NELM   =     60;   NELMIN=  2; NELMDL= -5     # of ELM steps 
   EDIFF  = 0.1E-03   stopping-criterion for ELM
   LREAL  =      F    real-space projection
   NLSPLINE    = F    spline interpolate recip. space projectors
   LCOMPAT=      F    compatible to vasp.4.4
   GGA_COMPAT  = T    GGA compatible to vasp.4.4-vasp.4.6
   LMAXPAW     = -100 max onsite density
   LMAXMIX     =    2 max onsite mixed and CHGCAR
   VOSKOWN=      0    Vosko Wilk Nusair interpolation
   ROPT   =    0.00000
 Ionic relaxation
   EDIFFG = 0.1E-02   stopping-criterion for IOM
   NSW    =      0    number of steps for IOM
   NBLOCK =      1;   KBLOCK =      1    inner block; outer block 
   IBRION =     -1    ionic relax: 0-MD 1-quasi-New 2-CG
   NFREE  =      0    steps in history (QN), initial steepest desc. (CG)
   ISIF   =      2    stress and relaxation
   IWAVPR =     10    prediction:  0-non 1-charg 2-wave 3-comb
   ISYM   =      2    0-nonsym 1-usesym 2-fastsym
   LCORR  =      T    Harris-Foulkes like correction to forces

   POTIM  = 0.5000    time-step for ionic-motion
   TEIN   =    0.0    initial temperature
   TEBEG  =    0.0;   TEEND  =   0.0 temperature during run
   SMASS  =  -3.00    Nose mass-parameter (am)
   estimated Nose-frequenzy (Omega)   =  0.10E-29 period in steps = 0.13E+47 mass=  -0.192E-27a.u.
   SCALEE = 1.0000    scale energy and forces
   NPACO  =    256;   APACO  = 10.0  distance and # of slots for P.C.
   PSTRESS=    0.0 pullay stress

  Mass of Ions in am
   POMASS =  28.09
  Ionic Valenz
   ZVAL   =   4.00
  Atomic Wigner-Seitz radii
   RWIGS  =  -1.00
  virtual crystal weights 
   VCA    =   1.00
   NELECT =       4.0000    total number of electrons
   NUPDOWN=      -1.0000    fix difference up-down

 DOS related values:
   EMIN   =  10.00;   EMAX   =-10.00  energy-range for DOS
   EFERMI =   0.00
   ISMEAR =     0;   SIGMA  =   0.10  broadening in eV -4-tet -1-fermi 0-gaus

 Electronic relaxation 2 (details)
   IALGO  =     38    algorithm
   LDIAG  =      T    sub-space diagonalisation (order eigenvalues)
   LSUBROT=      F    optimize rotation matrix (better conditioning)
   TURBO    =      0    0=normal 1=particle mesh
   IRESTART =      0    0=no restart 2=restart with 2 vectors
   NREBOOT  =      0    no. of reboots
   NMIN     =      0    reboot dimension
   EREF     =   0.00    reference energy to select bands
   IMIX   =      4    mixing-type and parameters
     AMIX     =   0.40;   BMIX     =  1.00
     AMIX_MAG =   1.60;   BMIX_MAG =  1.00
     AMIN     =   0.10
     WC   =   100.;   INIMIX=   1;  MIXPRE=   1;  MAXMIX= -45

 Intra band minimization:
   WEIMIN = 0.0000     energy-eigenvalue tresh-hold
   EBREAK =  0.31E-05  absolut break condition
   DEPER  =   0.30     relativ break condition  

   TIME   =   0.40     timestep for ELM

  volume/ion in A,a.u.               =      17.23       116.28
  Fermi-wavevector in a.u.,A,eV,Ry     =   1.006154  1.901355 13.773792  1.012345
  Thomas-Fermi vector in A             =   2.138878
 
 Write flags
   LWAVE        =      T    write WAVECAR
   LDOWNSAMPLE  =      F    k-point downsampling of WAVECAR
   LCHARG       =      T    write CHGCAR
   LVTOT        =      F    write LOCPOT, total local potential
   LVHAR        =      F    write LOCPOT, Hartree potential only
   LELF         =      F    write electronic localiz. function (ELF)
   LORBIT       =      0    0 simple, 1 ext, 2 COOP (PROOUT), +10 PAW based schemes


 Dipole corrections
   LMONO  =      F    monopole corrections only (constant potential shift)
   LDIPOL =      F    correct potential (dipole corrections)
   IDIPOL =      0    1-x, 2-y, 3-z, 4-all directions 
   EPSILON=  1.0000000 bulk dielectric constant

 Exchange correlation treatment:
   GGA     =    --    GGA type
   LEXCH   =     8    internal setting for exchange type
   LIBXC   =     F    Libxc                    
   VOSKOWN =     0    Vosko Wilk Nusair interpolation
   LHFCALC =     F    Hartree Fock is set to
   LHFONE  =     F    Hartree Fock one center treatment
   AEXX    =    0.0000 exact exchange contribution

 Linear response parameters
   LEPSILON=     F    determine dielectric tensor
   LRPA    =     F    only Hartree local field effects (RPA)
   LNABLA  =     F    use nabla operator in PAW spheres
   LVEL    =     F    velocity operator in full k-point grid
   CSHIFT  =0.1000    complex shift for real part using Kramers Kronig
   OMEGAMAX=  -1.0    maximum frequency
   DEG_THRESHOLD= 0.2000000E-02 threshold for treating states as degnerate
   RTIME   =   -0.100 relaxation time in fs
  (WPLASMAI=    0.000 imaginary part of plasma frequency in eV, 0.658/RTIME)
   DFIELD  = 0.0000000 0.0000000 0.0000000 field for delta impulse in time
 
  Optional k-point grid parameters
   LKPOINTS_OPT  =     F    use optional k-point grid
   KPOINTS_OPT_MODE=     1    mode for optional k-point grid
 
 Orbital magnetization related:
   ORBITALMAG=     F  switch on orbital magnetization
   LCHIMAG   =     F  perturbation theory with respect to B field
   DQ        =  0.001000  dq finite difference perturbation B field
   LLRAUG    =     F  two centre corrections for induced B field



--------------------------------------------------------------------------------------------------------


 Static calculation
 charge density and potential will be updated during run
 non-spin polarized calculation
 Variant of blocked Davidson
 Davidson routine will perform the subspace rotation
 perform sub-space diagonalisation
    after iterative eigenvector-optimisation
 modified Broyden-mixing scheme, WC =      100.0
 initial mixing is a Kerker type mixing with AMIX =  0.4000 and BMIX =      1.0000
 Hartree-type preconditioning will be used
 using additional bands            6
 reciprocal scheme for non local part
 use partial core corrections
 calculate Harris-corrections to forces 
   (improved forces if not selfconsistent)
 use gradient corrections 
 use of overlap-Matrix (Vanderbilt PP)
 Gauss-broadening in eV      SIGMA  =   0.10


--------------------------------------------------------------------------------------------------------


  energy-cutoff  :      240.00
  volume of cell :       17.23
      direct lattice vectors                 reciprocal lattice vectors
     2.050000000  2.050000000  0.000000000     0.243902439  0.243902439 -0.243902439
     0.000000000  2.050000000  2.050000000    -0.243902439  0.243902439  0.243902439
     2.050000000  0.000000000  2.050000000     0.243902439 -0.243902439  0.243902439

  length of vectors
     2.899137803  2.899137803  2.899137803     0.422451416  0.422451416  0.422451416


 
 k-points in units of 2pi/SCALE and weight: k-points                                
   0.00000000  0.00000000  0.00000000       0.001
   0.09090909  0.09090909 -0.09090909       0.006
   0.18181818  0.18181818 -0.18181818       0.006
   0.27272727  0.27272727 -0.27272727       0.006
   0.36363636  0.36363636 -0.36363636       0.006
   0.45454545  0.45454545 -0.45454545       0.006
   0.00000000  0.18181818  0.00000000       0.005
   0.09090909  0.27272727 -0.09090909       0.018
   0.18181818  0.36363636 -0.18181818       0.018
   0.27272727  0.45454545 -0.27272727       0.018
   0.36363636  0.54545455 -0.36363636       0.018
  -0.54545455 -0.36363636  0.54545455       0.018
  -0.45454545 -0.27272727  0.45454545       0.018
  -0.36363636 -0.18181818  0.36363636       0.018
  -0.27272727 -0.09090909  0.27272727       0.018
  -0.18181818 -0.00000000  0.18181818       0.009
   0.00000000  0.36363636  0.00000000       0.005
   0.09090909  0.45454545 -0.09090909       0.018
   0.18181818  0.54545455 -0.18181818       0.018
   0.27272727  0.63636364 -0.27272727       0.018
  -0.63636364 -0.27272727  0.63636364       0.018
  -0.54545455 -0.18181818  0.54545455       0.018
  -0.45454545 -0.09090909  0.45454545       0.018
  -0.36363636 -0.00000000  0.36363636       0.009
   0.00000000  0.54545455 -0.00000000       0.005
   0.09090909  0.63636364 -0.09090909       0.018
   0.18181818  0.72727273 -0.18181818       0.018
  -0.72727273 -0.18181818  0.72727273       0.018
  -0.63636364 -0.09090909  0.63636364       0.018
  -0.54545455 -0.00000000  0.54545455       0.009
   0.00000000  0.72727273  0.00000000       0.005
   0.09090909  0.81818182 -0.09090909       0.018
  -0.81818182 -0.09090909  0.81818182       0.018
  -0.72727273 -0.00000000  0.72727273       0.009
  -0.00000000  0.90909091  0.00000000       0.005
  -0.90909091 -0.00000000  0.90909091       0.009
   0.18181818  0.36363636 -0.00000000       0.018
   0.27272727  0.45454545 -0.09090909       0.036
   0.36363636  0.54545455 -0.18181818       0.036
  -0.54545455 -0.36363636  0.72727273       0.036
   0.18181818  0.54545455  0.00000000       0.018
   0.27272727  0.63636364 -0.09090909       0.036
  -0.63636364 -0.27272727  0.81818182       0.036
  -0.54545455 -0.18181818  0.72727273       0.036
  -0.45454545 -0.09090909  0.63636364       0.036
  -0.36363636  0.00000000  0.54545455       0.018
   0.18181818  0.72727273  0.00000000       0.018
  -0.72727273 -0.18181818  0.90909091       0.036
  -0.63636364 -0.09090909  0.81818182       0.036
  -0.54545455 -0.00000000  0.72727273       0.018
  -0.81818182 -0.09090909  1.00000000       0.018
  -0.72727273 -0.00000000  0.90909091       0.018
  -0.63636364 -0.27272727  1.00000000       0.018
  -0.54545455 -0.18181818  0.90909091       0.036
  -0.63636364 -0.09090909  1.00000000       0.018
  -0.54545455  0.00000000  0.90909091       0.018
 
 k-points in reciprocal lattice and weights: k-points                                
   0.00000000  0.00000000  0.00000000       0.001
   0.09090909 -0.00000000 -0.00000000       0.006
   0.18181818 -0.00000000 -0.00000000       0.006
   0.27272727  0.00000000  0.00000000       0.006
   0.36363636 -0.00000000 -0.00000000       0.006
   0.45454545  0.00000000  0.00000000       0.006
   0.09090909  0.09090909  0.00000000       0.005
   0.18181818  0.09090909  0.00000000       0.018
   0.27272727  0.09090909 -0.00000000       0.018
   0.36363636  0.09090909  0.00000000       0.018
   0.45454545  0.09090909 -0.00000000       0.018
  -0.45454545  0.09090909 -0.00000000       0.018
  -0.36363636  0.09090909 -0.00000000       0.018
  -0.27272727  0.09090909  0.00000000       0.018
  -0.18181818  0.09090909 -0.00000000       0.018
  -0.09090909  0.09090909  0.00000000       0.009
   0.18181818  0.18181818  0.00000000       0.005
   0.27272727  0.18181818  0.00000000       0.018
   0.36363636  0.18181818  0.00000000       0.018
   0.45454545  0.18181818  0.00000000       0.018
  -0.45454545  0.18181818 -0.00000000       0.018
  -0.36363636  0.18181818 -0.00000000       0.018
  -0.27272727  0.18181818  0.00000000       0.018
  -0.18181818  0.18181818  0.00000000       0.009
   0.27272727  0.27272727  0.00000000       0.005
   0.36363636  0.27272727  0.00000000       0.018
   0.45454545  0.27272727  0.00000000       0.018
  -0.45454545  0.27272727 -0.00000000       0.018
  -0.36363636  0.27272727 -0.00000000       0.018
  -0.27272727  0.27272727 -0.00000000       0.009
   0.36363636  0.36363636  0.00000000       0.005
   0.45454545  0.36363636  0.00000000       0.018
  -0.45454545  0.36363636  0.00000000       0.018
  -0.36363636  0.36363636  0.00000000       0.009
   0.45454545  0.45454545  0.00000000       0.005
  -0.45454545  0.45454545  0.00000000       0.009
   0.27272727  0.18181818  0.09090909       0.018
   0.36363636  0.18181818  0.09090909       0.036
   0.45454545  0.18181818  0.09090909       0.036
  -0.45454545  0.18181818  0.09090909       0.036
   0.36363636  0.27272727  0.09090909       0.018
   0.45454545  0.27272727  0.09090909       0.036
  -0.45454545  0.27272727  0.09090909       0.036
  -0.36363636  0.27272727  0.09090909       0.036
  -0.27272727  0.27272727  0.09090909       0.036
  -0.18181818  0.27272727  0.09090909       0.018
   0.45454545  0.36363636  0.09090909       0.018
  -0.45454545  0.36363636  0.09090909       0.036
  -0.36363636  0.36363636  0.09090909       0.036
  -0.27272727  0.36363636  0.09090909       0.018
  -0.45454545  0.45454545  0.09090909       0.018
  -0.36363636  0.45454545  0.09090909       0.018
  -0.45454545  0.36363636  0.18181818       0.018
  -0.36363636  0.36363636  0.18181818       0.036
  -0.36363636  0.45454545  0.18181818       0.018
  -0.27272727  0.45454545  0.18181818       0.018
 
 position of ions in fractional coordinates (direct lattice) 
   0.00000000  0.00000000  0.00000000
 
 position of ions in cartesian coordinates  (Angst):
   0.00000000  0.00000000  0.00000000
 


--------------------------------------------------------------------------------------------------------


 k-point   1 :   0.0000 0.0000 0.0000  plane waves:     137
 k-point   2 :   0.0909-0.0000-0.0000  plane waves:     153
 k-point   3 :   0.1818-0.0000-0.0000  plane waves:     150
 k-point   4 :   0.2727 0.0000 0.0000  plane waves:     150
 k-point   5 :   0.3636-0.0000-0.0000  plane waves:     147
 k-point   6 :   0.4545 0.0000 0.0000  plane waves:     147
 k-point   7 :   0.0909 0.0909 0.0000  plane waves:     153
 k-point   8 :   0.1818 0.0909 0.0000  plane waves:     150
 k-point   9 :   0.2727 0.0909-0.0000  plane waves:     147
 k-point  10 :   0.3636 0.0909 0.0000  plane waves:     148
 k-point  11 :   0.4545 0.0909-0.0000  plane waves:     149
 k-point  12 :  -0.4545 0.0909-0.0000  plane waves:     147
 k-point  13 :  -0.3636 0.0909-0.0000  plane waves:     149
 k-point  14 :  -0.2727 0.0909 0.0000  plane waves:     148
 k-point  15 :  -0.1818 0.0909-0.0000  plane waves:     147
 k-point  16 :  -0.0909 0.0909 0.0000  plane waves:     149
 k-point  17 :   0.1818 0.1818 0.0000  plane waves:     149
 k-point  18 :   0.2727 0.1818 0.0000  plane waves:     143
 k-point  19 :   0.3636 0.1818 0.0000  plane waves:     145
 k-point  20 :   0.4545 0.1818 0.0000  plane waves:     146
 k-point  21 :  -0.4545 0.1818-0.0000  plane waves:     146
 k-point  22 :  -0.3636 0.1818-0.0000  plane waves:     147
 k-point  23 :  -0.2727 0.1818 0.0000  plane waves:     146
 k-point  24 :  -0.1818 0.1818 0.0000  plane waves:     144
 k-point  25 :   0.2727 0.2727 0.0000  plane waves:     149
 k-point  26 :   0.3636 0.2727 0.0000  plane waves:     143
 k-point  27 :   0.4545 0.2727 0.0000  plane waves:     141
 k-point  28 :  -0.4545 0.2727-0.0000  plane waves:     143
 k-point  29 :  -0.3636 0.2727-0.0000  plane waves:     141
 k-point  30 :  -0.2727 0.2727-0.0000  plane waves:     142
 k-point  31 :   0.3636 0.3636 0.0000  plane waves:     145
 k-point  32 :   0.4545 0.3636 0.0000  plane waves:     139
 k-point  33 :  -0.4545 0.3636 0.0000  plane waves:     142
 k-point  34 :  -0.3636 0.3636 0.0000  plane waves:     138
 k-point  35 :   0.4545 0.4545 0.0000  plane waves:     150
 k-point  36 :  -0.4545 0.4545 0.0000  plane waves:     148
 k-point  37 :   0.2727 0.1818 0.0909  plane waves:     149
 k-point  38 :   0.3636 0.1818 0.0909  plane waves:     148
 k-point  39 :   0.4545 0.1818 0.0909  plane waves:     147
 k-point  40 :  -0.4545 0.1818 0.0909  plane waves:     143
 k-point  41 :   0.3636 0.2727 0.0909  plane waves:     146
 k-point  42 :   0.4545 0.2727 0.0909  plane waves:     146
 k-point  43 :  -0.4545 0.2727 0.0909  plane waves:     146
 k-point  44 :  -0.3636 0.2727 0.0909  plane waves:     144
 k-point  45 :  -0.2727 0.2727 0.0909  plane waves:     146
 k-point  46 :  -0.1818 0.2727 0.0909  plane waves:     144
 k-point  47 :   0.4545 0.3636 0.0909  plane waves:     145
 k-point  48 :  -0.4545 0.3636 0.0909  plane waves:     144
 k-point  49 :  -0.3636 0.3636 0.0909  plane waves:     145
 k-point  50 :  -0.2727 0.3636 0.0909  plane waves:     146
 k-point  51 :  -0.4545 0.4545 0.0909  plane waves:     143
 k-point  52 :  -0.3636 0.4545 0.0909  plane waves:     141
 k-point  53 :  -0.4545 0.3636 0.1818  plane waves:     145
 k-point  54 :  -0.3636 0.3636 0.1818  plane waves:     145
 k-point  55 :  -0.3636 0.4545 0.1818  plane waves:     145
 k-point  56 :  -0.2727 0.4545 0.1818  plane waves:     149

 maximum and minimum number of plane-waves per node :       153      137

 maximum number of plane-waves:       153
 maximum index in each direction: 
   IXMAX=    4   IYMAX=    3   IZMAX=    3
   IXMIN=   -4   IYMIN=   -4   IZMIN=   -3


 serial   3D FFT for wavefunctions
 parallel 3D FFT for charge:
    minimum data exchange during FFTs selected (reduces bandwidth)


 total amount of memory used by VASP MPI-rank0    31237. kBytes
=======================================================================

   base      :      30000. kBytes
   nonl-proj :        561. kBytes
   fftplans  :        134. kBytes
   grid      :        246. kBytes
   one-center:          3. kBytes
   wavefun   :        293. kBytes
 
     INWAV:  cpu time      0.0000: real time      0.0001
 Broyden mixing: mesh for mixing (old mesh)
   NGX =  7   NGY =  7   NGZ =  7
  (NGX  = 24   NGY  = 24   NGZ  = 24)
  gives a total of    343 points

 initial charge density was supplied:
 charge density of overlapping atoms calculated
 number of electron       4.0000000 magnetization 
 keeping initial charge density in first step


--------------------------------------------------------------------------------------------------------


 Maximum index for augmentation-charges          847 (set IRDMAX)


--------------------------------------------------------------------------------------------------------


 First call to EWALD:  gamma=   0.686
 Maximum number of real-space cells 3x 3x 3
 Maximum number of reciprocal cells 3x 3x 3

    FEWALD:  cpu time      0.0013: real time      0.0013


--------------------------------------- Iteration      1(   1)  ---------------------------------------


    POTLOK:  cpu time      0.0025: real time      0.0027
    SETDIJ:  cpu time      0.0013: real time      0.0013
     EDDAV:  cpu time      0.0464: real time      0.0466
       DOS:  cpu time      0.0005: real time      0.0005
    --------------------------------------------
      LOOP:  cpu time      0.0507: real time      0.0510

 eigenvalue-minimisations  :   968
 total energy-change (2. order) :-0.3868378E+01  (-0.1069218E+03)
 number of electron       4.0000000 magnetization 
 augmentation part        4.0000000 magnetization 

 Free energy of the ion-electron system (eV)
  ---------------------------------------------------
  alpha Z        PSCENC =         1.95372271
  Ewald energy   TEWEN  =      -128.82153765
  -Hartree energ DENC   =        -1.07558932
  -exchange      EXHF   =         0.00000000
  -V(xc)+E(xc)   XCENC  =        -9.24377005
  PAW double counting   =        88.12379961      -70.53051779
  entropy T*S    EENTRO =        -0.00309773
  eigenvalues    EBANDS =        12.66783610
  atomic energy  EATOM  =       103.06077658
  Solvation  Ediel_sol  =         0.00000000
  ---------------------------------------------------
  free energy    TOTEN  =        -3.86837753 eV

  energy without entropy =       -3.86527980  energy(sigma->0) =       -3.86682867


--------------------------------------------------------------------------------------------------------




--------------------------------------- Iteration      1(   2)  ---------------------------------------


     EDDAV:  cpu time      0.0692: real time      0.0694
       DOS:  cpu time      0.0004: real time      0.0004
    --------------------------------------------
      LOOP:  cpu time      0.0695: real time      0.0698

 eigenvalue-minimisations  :  1400
 total energy-change (2. order) :-0.9293957E+00  (-0.8900207E+00)
 number of electron       4.0000000 magnetization 
 augmentation part        4.0000000 magnetization 

 Free energy of the ion-electron system (eV)
  ---------------------------------------------------
  alpha Z        PSCENC =         1.95372271
  Ewald energy   TEWEN  =      -128.82153765
  -Hartree energ DENC   =        -1.07558932
  -exchange      EXHF   =         0.00000000
  -V(xc)+E(xc)   XCENC  =        -9.24377005
  PAW double counting   =        88.12379961      -70.53051779
  entropy T*S    EENTRO =        -0.00131452
  eigenvalues    EBANDS =        11.73665717
  atomic energy  EATOM  =       103.06077658
  Solvation  Ediel_sol  =         0.00000000
  ---------------------------------------------------
  free energy    TOTEN  =        -4.79777325 eV

  energy without entropy =       -4.79645873  energy(sigma->0) =       -4.79711599


--------------------------------------------------------------------------------------------------------




--------------------------------------- Iteration      1(   3)  ---------------------------------------


     EDDAV:  cpu time      0.0449: real time      0.0450
       DOS:  cpu time      0.0004: real time      0.0004
    --------------------------------------------
      LOOP:  cpu time      0.0453: real time      0.0454

 eigenvalue-minimisations  :   984
 total energy-change (2. order) :-0.3886497E-02  (-0.3885787E-02)
 number of electron       4.0000000 magnetization 
 augmentation part        4.0000000 magnetization 

 Free energy of the ion-electron system (eV)
  ---------------------------------------------------
  alpha Z        PSCENC =         1.95372271
  Ewald energy   TEWEN  =      -128.82153765
  -Hartree energ DENC   =        -1.07558932
  -exchange      EXHF   =         0.00000000
  -V(xc)+E(xc)   XCENC  =        -9.24377005
  PAW double counting   =        88.12379961      -70.53051779
  entropy T*S    EENTRO =        -0.00134150
  eigenvalues    EBANDS =        11.73279765
  atomic energy  EATOM  =       103.06077658
  Solvation  Ediel_sol  =         0.00000000
  ---------------------------------------------------
  free energy    TOTEN  =        -4.80165974 eV

  energy without entropy =       -4.80031825  energy(sigma->0) =       -4.80098900


--------------------------------------------------------------------------------------------------------




--------------------------------------- Iteration      1(   4)  ---------------------------------------


     EDDAV:  cpu time      0.0757: real time      0.0760
       DOS:  cpu time      0.0004: real time      0.0004
    --------------------------------------------
      LOOP:  cpu time      0.0761: real time      0.0764

 eigenvalue-minimisations  :  1440
 total energy-change (2. order) :-0.2350110E-05  (-0.2349343E-05)
 number of electron       4.0000000 magnetization 
 augmentation part        4.0000000 magnetization 

 Free energy of the ion-electron system (eV)
  ---------------------------------------------------
  alpha Z        PSCENC =         1.95372271
  Ewald energy   TEWEN  =      -128.82153765
  -Hartree energ DENC   =        -1.07558932
  -exchange      EXHF   =         0.00000000
  -V(xc)+E(xc)   XCENC  =        -9.24377005
  PAW double counting   =        88.12379961      -70.53051779
  entropy T*S    EENTRO =        -0.00134151
  eigenvalues    EBANDS =        11.73279531
  atomic energy  EATOM  =       103.06077658
  Solvation  Ediel_sol  =         0.00000000
  ---------------------------------------------------
  free energy    TOTEN  =        -4.80166209 eV

  energy without entropy =       -4.80032058  energy(sigma->0) =       -4.80099134


--------------------------------------------------------------------------------------------------------




--------------------------------------- Iteration      1(   5)  ---------------------------------------


     EDDAV:  cpu time      0.0337: real time      0.0338
       DOS:  cpu time      0.0003: real time      0.0003
    CHARGE:  cpu time      0.0010: real time      0.0010
    MIXING:  cpu time      0.0002: real time      0.0002
    --------------------------------------------
      LOOP:  cpu time      0.0352: real time      0.0353

 eigenvalue-minimisations  :   936
 total energy-change (2. order) :-0.2661125E-09  (-0.2633443E-09)
 number of electron       3.9999998 magnetization 
 augmentation part       -0.2476335 magnetization 

 Broyden mixing:
  rms(total) = 0.22625E+00    rms(broyden)= 0.22624E+00
  rms(prec ) = 0.34909E+00
  weight for this iteration     100.00

 Free energy of the ion-electron system (eV)
  ---------------------------------------------------
  alpha Z        PSCENC =         1.95372271
  Ewald energy   TEWEN  =      -128.82153765
  -Hartree energ DENC   =        -1.07558932
  -exchange      EXHF   =         0.00000000
  -V(xc)+E(xc)   XCENC  =        -9.24377005
  PAW double counting   =        88.12379961      -70.53051779
  entropy T*S    EENTRO =        -0.00134151
  eigenvalues    EBANDS =        11.73279531
  atomic energy  EATOM  =       103.06077658
  Solvation  Ediel_sol  =         0.00000000
  ---------------------------------------------------
  free energy    TOTEN  =        -4.80166209 eV

  energy without entropy =       -4.80032058  energy(sigma->0) =       -4.80099134


--------------------------------------------------------------------------------------------------------




--------------------------------------- Iteration      1(   6)  ---------------------------------------


    POTLOK:  cpu time      0.0014: real time      0.0015
    SETDIJ:  cpu time      0.0007: real time      0.0007
     EDDAV:  cpu time      0.0353: real time      0.0354
       DOS:  cpu time      0.0003: real time      0.0003
    CHARGE:  cpu time      0.0009: real time      0.0009
    MIXING:  cpu time      0.0002: real time      0.0002
    --------------------------------------------
      LOOP:  cpu time      0.0388: real time      0.0389

 eigenvalue-minimisations  :   992
 total energy-change (2. order) : 0.1059279E-01  (-0.4421272E-03)
 number of electron       3.9999998 magnetization 
 augmentation part       -0.2499049 magnetization 

 Broyden mixing:
  rms(total) = 0.12382E+00    rms(broyden)= 0.12382E+00
  rms(prec ) = 0.20061E+00
  weight for this iteration     100.00

 eigenvalues of (default mixing * dielectric matrix)
  average eigenvalue GAMMA=   2.1930
  2.1930

 Free energy of the ion-electron system (eV)
  ---------------------------------------------------
  alpha Z        PSCENC =         1.95372271
  Ewald energy   TEWEN  =      -128.82153765
  -Hartree energ DENC   =        -0.95658391
  -exchange      EXHF   =         0.00000000
  -V(xc)+E(xc)   XCENC  =        -9.23923484
  PAW double counting   =       153.26675519     -135.66332024
  entropy T*S    EENTRO =        -0.00142467
  eigenvalues    EBANDS =        11.60977753
  atomic energy  EATOM  =       103.06077658
  Solvation  Ediel_sol  =         0.00000000
  ---------------------------------------------------
  free energy    TOTEN  =        -4.79106931 eV

  energy without entropy =       -4.78964463  energy(sigma->0) =       -4.79035697


--------------------------------------------------------------------------------------------------------




--------------------------------------- Iteration      1(   7)  ---------------------------------------


    POTLOK:  cpu time      0.0019: real time      0.0019
    SETDIJ:  cpu time      0.0006: real time      0.0006
     EDDAV:  cpu time      0.0350: real time      0.0350
       DOS:  cpu time      0.0003: real time      0.0003
    CHARGE:  cpu time      0.0007: real time      0.0007
    MIXING:  cpu time      0.0001: real time      0.0001
    --------------------------------------------
      LOOP:  cpu time      0.0386: real time      0.0387

 eigenvalue-minimisations  :  1008
 total energy-change (2. order) : 0.5755197E-02  (-0.8451223E-03)
 number of electron       3.9999998 magnetization 
 augmentation part       -0.2531139 magnetization 

 Broyden mixing:
  rms(total) = 0.12614E-01    rms(broyden)= 0.12613E-01
  rms(prec ) = 0.16516E-01
  weight for this iteration     100.00

 eigenvalues of (default mixing * dielectric matrix)
  average eigenvalue GAMMA=   2.4080
  2.4080  2.4080

 Free energy of the ion-electron system (eV)
  ---------------------------------------------------
  alpha Z        PSCENC =         1.95372271
  Ewald energy   TEWEN  =      -128.82153765
  -Hartree energ DENC   =        -0.81551167
  -exchange      EXHF   =         0.00000000
  -V(xc)+E(xc)   XCENC  =        -9.23032011
  PAW double counting   =       268.96402824     -251.35090539
  entropy T*S    EENTRO =        -0.00155514
  eigenvalues    EBANDS =        11.45598832
  atomic energy  EATOM  =       103.06077658
  Solvation  Ediel_sol  =         0.00000000
  ---------------------------------------------------
  free energy    TOTEN  =        -4.78531411 eV

  energy without entropy =       -4.78375897  energy(sigma->0) =       -4.78453654


--------------------------------------------------------------------------------------------------------




--------------------------------------- Iteration      1(   8)  ---------------------------------------


    POTLOK:  cpu time      0.0015: real time      0.0016
    SETDIJ:  cpu time      0.0007: real time      0.0007
     EDDAV:  cpu time      0.0417: real time      0.0418
       DOS:  cpu time      0.0003: real time      0.0003
    --------------------------------------------
      LOOP:  cpu time      0.0442: real time      0.0444

 eigenvalue-minimisations  :  1096
 total energy-change (2. order) : 0.1698335E-04  (-0.3245805E-05)
 number of electron       3.9999998 magnetization 
 augmentation part       -0.2531139 magnetization 

 Free energy of the ion-electron system (eV)
  ---------------------------------------------------
  alpha Z        PSCENC =         1.95372271
  Ewald energy   TEWEN  =      -128.82153765
  -Hartree energ DENC   =        -0.81412911
  -exchange      EXHF   =         0.00000000
  -V(xc)+E(xc)   XCENC  =        -9.22829479
  PAW double counting   =       257.14451813     -239.53751994
  entropy T*S    EENTRO =        -0.00155573
  eigenvalues    EBANDS =        11.45872268
  atomic energy  EATOM  =       103.06077658
  Solvation  Ediel_sol  =         0.00000000
  ---------------------------------------------------
  free energy    TOTEN  =        -4.78529713 eV

  energy without entropy =       -4.78374140  energy(sigma->0) =       -4.78451926


--------------------------------------------------------------------------------------------------------




 average (electrostatic) potential at core
  the test charge radii are     0.9892
  (the norm of the test charge is              1.0000)
       1 -82.1369
 
 
 
 E-fermi :   7.8928     XC(G=0): -10.5010     alpha+bet :-13.9200

 Fermi energy:         7.8927983417

 k-point     1 :       0.0000    0.0000    0.0000
  band No.  band energies     occupation 
      1      -4.9190      2.00000
      2      17.1898      0.00000
      3      17.1899      0.00000
      4      17.1899      0.00000
      5      19.4069      0.00000
      6      19.4069      0.00000
      7      19.4069      0.00000
      8      24.2566      0.00000

 k-point     2 :       0.0909   -0.0000   -0.0000
  band No.  band energies     occupation 
      1      -4.7064      2.00000
      2      14.9872      0.00000
      3      16.6835      0.00000
      4      16.6835      0.00000
      5      19.8862      0.00000
      6      20.1131      0.00000
      7      20.1132      0.00000
      8      24.5365      0.00000

 k-point     3 :       0.1818   -0.0000   -0.0000
  band No.  band energies     occupation 
      1      -4.0692      2.00000
      2      11.6427      0.00000
      3      15.9617      0.00000
      4      15.9617      0.00000
      5      19.8476      0.00000
      6      20.9239      0.00000
      7      20.9241      0.00000
      8      23.7792      0.00000

 k-point     4 :       0.2727    0.0000    0.0000
  band No.  band energies     occupation 
      1      -3.0143      2.00000
      2       8.3750      0.00000
      3      15.4522      0.00000
      4      15.4522      0.00000
      5      19.6485      0.00000
      6      20.1630      0.00000
      7      20.1632      0.00000
      8      24.9719      0.00000

 k-point     5 :       0.3636   -0.0000   -0.0000
  band No.  band energies     occupation 
      1      -1.5565      2.00000
      2       5.3964      2.00000
      3      15.1883      0.00000
      4      15.1884      0.00000
      5      19.1328      0.00000
      6      19.1330      0.00000
      7      19.5632      0.00000
      8      23.7177      0.00000

 k-point     6 :       0.4545    0.0000    0.0000
  band No.  band energies     occupation 
      1       0.2228      2.00000
      2       2.8472      2.00000
      3      15.1022      0.00000
      4      15.1022      0.00000
      5      18.5188      0.00000
      6      18.5189      0.00000
      7      19.5850      0.00000
      8      22.9854      0.00000

 k-point     7 :       0.0909    0.0909    0.0000
  band No.  band energies     occupation 
      1      -4.6354      2.00000
      2      15.6448      0.00000
      3      15.6449      0.00000
      4      16.4722      0.00000
      5      18.0683      0.00000
      6      21.2720      0.00000
      7      21.2720      0.00000
      8      22.8537      0.00000

 k-point     8 :       0.1818    0.0909    0.0000
  band No.  band energies     occupation 
      1      -4.1397      2.00000
      2      12.8923      0.00000
      3      14.7685      0.00000
      4      16.0303      0.00000
      5      18.3344      0.00000
      6      21.1358      0.00000
      7      22.0178      0.00000
      8      22.4600      0.00000

 k-point     9 :       0.2727    0.0909   -0.0000
  band No.  band energies     occupation 
      1      -3.2237      2.00000
      2       9.6004      0.00000
      3      14.2023      0.00000
      4      15.2941      0.00000
      5      18.3271      0.00000
      6      20.8811      0.00000
      7      22.1620      0.00000
      8      22.5988      0.00000

 k-point    10 :       0.3636    0.0909    0.0000
  band No.  band energies     occupation 
      1      -1.8985      2.00000
      2       6.5238      2.00000
      3      13.9738      0.00000
      4      14.5654      0.00000
      5      17.6105      0.00000
      6      21.0148      0.00000
      7      21.0364      0.00000
      8      24.3571      0.00000

 k-point    11 :       0.4545    0.0909   -0.0000
  band No.  band energies     occupation 
      1      -0.2025      2.00000
      2       3.8078      2.00000
      3      13.8599      0.00000
      4      14.0806      0.00000
      5      17.3809      0.00000
      6      20.0153      0.00000
      7      20.9902      0.00000
      8      24.7807      0.00000

 k-point    12 :      -0.4545    0.0909   -0.0000
  band No.  band energies     occupation 
      1       0.9286      2.00000
      2       2.4204      2.00000
      3      13.2864      0.00000
      4      14.4935      0.00000
      5      17.7300      0.00000
      6      19.3859      0.00000
      7      20.8645      0.00000
      8      24.6893      0.00000

 k-point    13 :      -0.3636    0.0909   -0.0000
  band No.  band energies     occupation 
      1      -0.8028      2.00000
      2       4.6647      2.00000
      3      12.9676      0.00000
      4      15.1472      0.00000
      5      18.5579      0.00000
      6      19.2173      0.00000
      7      20.7221      0.00000
      8      25.1803      0.00000

 k-point    14 :      -0.2727    0.0909    0.0000
  band No.  band energies     occupation 
      1      -2.3848      2.00000
      2       7.5168      2.00000
      3      12.9694      0.00000
      4      15.9308      0.00000
      5      19.5864      0.00000
      6      19.7622      0.00000
      7      20.6674      0.00000
      8      24.3431      0.00000

 k-point    15 :      -0.1818    0.0909   -0.0000
  band No.  band energies     occupation 
      1      -3.5753      2.00000
      2      10.6890      0.00000
      3      13.3175      0.00000
      4      16.7085      0.00000
      5      20.2894      0.00000
      6      20.6176      0.00000
      7      21.1381      0.00000
      8      22.4146      0.00000

 k-point    16 :      -0.0909    0.0909    0.0000
  band No.  band energies     occupation 
      1      -4.3520      2.00000
      2      13.9857      0.00000
      3      14.0298      0.00000
      4      17.2037      0.00000
      5      19.9530      0.00000
      6      20.2892      0.00000
      7      21.4789      0.00000
      8      22.8344      0.00000

 k-point    17 :       0.1818    0.1818    0.0000
  band No.  band energies     occupation 
      1      -3.7859      2.00000
      2      13.7680      0.00000
      3      13.7681      0.00000
      4      14.6594      0.00000
      5      16.0957      0.00000
      6      18.9538      0.00000
      7      24.1260      0.00000
      8      24.1261      0.00000

 k-point    18 :       0.2727    0.1818    0.0000
  band No.  band energies     occupation 
      1      -3.0112      2.00000
      2      11.1105      0.00000
      3      13.0907      0.00000
      4      13.7809      0.00000
      5      16.2497      0.00000
      6      18.1978      0.00000
      7      24.6196      0.00000
      8      24.8765      0.00000

 k-point    19 :       0.3636    0.1818    0.0000
  band No.  band energies     occupation 
      1      -1.8235      2.00000
      2       8.0126      0.09019
      3      12.5814      0.00000
      4      12.7670      0.00000
      5      15.9153      0.00000
      6      19.8981      0.00000
      7      23.5969      0.00000
      8      24.9037      0.00000

 k-point    20 :       0.4545    0.1818    0.0000
  band No.  band energies     occupation 
      1      -0.2453      2.00000
      2       5.1876      2.00000
      3      11.4601      0.00000
      4      12.8046      0.00000
      5      15.8206      0.00000
      6      22.0389      0.00000
      7      22.4878      0.00000
      8      25.0513      0.00000

 k-point    21 :      -0.4545    0.1818   -0.0000
  band No.  band energies     occupation 
      1       1.4849      2.00000
      2       2.9527      2.00000
      3      10.5932      0.00000
      4      13.1972      0.00000
      5      16.1975      0.00000
      6      21.6651      0.00000
      7      22.9811      0.00000
      8      26.3798      0.00000

 k-point    22 :      -0.3636    0.1818   -0.0000
  band No.  band energies     occupation 
      1       0.3501      2.00000
      2       4.3435      2.00000
      3      10.0598      0.00000
      4      13.9244      0.00000
      5      17.0091      0.00000
      6      21.2017      0.00000
      7      22.8673      0.00000
      8      26.6734      0.00000

 k-point    23 :      -0.2727    0.1818    0.0000
  band No.  band energies     occupation 
      1      -1.3416      2.00000
      2       7.0463      2.00000
      3       9.8926      0.00000
      4      14.9334      0.00000
      5      18.2065      0.00000
      6      21.1539      0.00000
      7      22.5359      0.00000
      8      23.8960      0.00000

 k-point    24 :      -0.1818    0.1818    0.0000
  band No.  band energies     occupation 
      1      -2.6625      2.00000
      2      10.0176      0.00000
      3      10.1815      0.00000
      4      16.0677      0.00000
      5      19.7088      0.00000
      6      21.5172      0.00000
      7      21.5933      0.00000
      8      21.8580      0.00000

 k-point    25 :       0.2727    0.2727    0.0000
  band No.  band energies     occupation 
      1      -2.3786      2.00000
      2      11.8259      0.00000
      3      12.2943      0.00000
      4      12.2943      0.00000
      5      14.4729      0.00000
      6      16.1604      0.00000
      7      26.9759      0.00000
      8      26.9760      0.00000

 k-point    26 :       0.3636    0.2727    0.0000
  band No.  band energies     occupation 
      1      -1.3314      2.00000
      2       9.5822      0.00000
      3      10.6898      0.00000
      4      11.8555      0.00000
      5      14.6136      0.00000
      6      16.5901      0.00000
      7      26.4888      0.00000
      8      27.6370      0.00000

 k-point    27 :       0.4545    0.2727    0.0000
  band No.  band energies     occupation 
      1       0.1158      2.00000
      2       6.8771      2.00000
      3       9.1566      0.00000
      4      11.7840      0.00000
      5      14.5908      0.00000
      6      18.9794      0.00000
      7      25.4140      0.00000
      8      27.3467      0.00000

 k-point    28 :      -0.4545    0.2727   -0.0000
  band No.  band energies     occupation 
      1       1.8854      2.00000
      2       4.4110      2.00000
      3       8.0406      0.03663
      4      12.0791      0.00000
      5      14.9070      0.00000
      6      21.7938      0.00000
      7      24.4821      0.00000
      8      26.6761      0.00000

 k-point    29 :      -0.3636    0.2727   -0.0000
  band No.  band energies     occupation 
      1       1.8644      2.00000
      2       4.4492      2.00000
      3       7.3187      2.00000
      4      12.7321      0.00000
      5      15.6341      0.00000
      6      23.8349      0.00000
      7      24.3924      0.00000
      8      25.9306      0.00000

 k-point    30 :      -0.2727    0.2727   -0.0000
  band No.  band energies     occupation 
      1       0.1005      2.00000
      2       6.8393      2.00000
      3       7.1220      2.00000
      4      13.7151      0.00000
      5      16.7529      0.00000
      6      23.1958      0.00000
      7      24.2624      0.00000
      8      24.2992      0.00000

 k-point    31 :       0.3636    0.3636    0.0000
  band No.  band energies     occupation 
      1      -0.4260      2.00000
      2       8.3652      0.00000
      3      11.2958      0.00000
      4      11.2958      0.00000
      5      13.3705      0.00000
      6      14.7021      0.00000
      7      29.1054      0.00000
      8      29.6256      0.00000

 k-point    32 :       0.4545    0.3636    0.0000
  band No.  band energies     occupation 
      1       0.8833      2.00000
      2       6.7330      2.00000
      3       9.2571      0.00000
      4      11.1055      0.00000
      5      13.7075      0.00000
      6      15.7466      0.00000
      7      28.4501      0.00000
      8      30.0091      0.00000

 k-point    33 :      -0.4545    0.3636    0.0000
  band No.  band energies     occupation 
      1       2.5576      2.00000
      2       5.3324      2.00000
      3       6.8260      2.00000
      4      11.2868      0.00000
      5      13.9865      0.00000
      6      18.4980      0.00000
      7      27.4854      0.00000
      8      29.1336      0.00000

 k-point    34 :      -0.3636    0.3636    0.0000
  band No.  band energies     occupation 
      1       3.5197      2.00000
      2       4.6879      2.00000
      3       5.4056      2.00000
      4      11.8349      0.00000
      5      14.6127      0.00000
      6      21.6406      0.00000
      7      26.3087      0.00000
      8      27.6075      0.00000

 k-point    35 :       0.4545    0.4545    0.0000
  band No.  band energies     occupation 
      1       2.0510      2.00000
      2       5.0105      2.00000
      3      10.7933      0.00000
      4      10.7933      0.00000
      5      12.8069      0.00000
      6      14.0598      0.00000
      7      30.3532      0.00000
      8      31.6516      0.00000

 k-point    36 :      -0.4545    0.4545    0.0000
  band No.  band energies     occupation 
      1       3.5911      2.00000
      2       3.6053      2.00000
      3       8.9529      0.00000
      4      10.8540      0.00000
      5      13.4108      0.00000
      6      15.4657      0.00000
      7      29.7687      0.00000
      8      31.1732      0.00000

 k-point    37 :       0.2727    0.1818    0.0909
  band No.  band energies     occupation 
      1      -3.5044      2.00000
      2      12.0530      0.00000
      3      12.0881      0.00000
      4      15.8459      0.00000
      5      18.2852      0.00000
      6      19.7783      0.00000
      7      22.6879      0.00000
      8      23.2719      0.00000

 k-point    38 :       0.3636    0.1818    0.0909
  band No.  band energies     occupation 
      1      -2.4523      2.00000
      2       8.8744      0.00000
      3      11.5987      0.00000
      4      14.7955      0.00000
      5      18.3300      0.00000
      6      20.3834      0.00000
      7      21.8994      0.00000
      8      23.8100      0.00000

 k-point    39 :       0.4545    0.1818    0.0909
  band No.  band energies     occupation 
      1      -0.9986      2.00000
      2       5.9218      2.00000
      3      11.4719      0.00000
      4      13.6648      0.00000
      5      18.0687      0.00000
      6      20.1739      0.00000
      7      22.6242      0.00000
      8      24.5825      0.00000

 k-point    40 :      -0.4545    0.1818    0.0909
  band No.  band energies     occupation 
      1       0.7782      2.00000
      2       3.3832      2.00000
      3      11.6029      0.00000
      4      12.8624      0.00000
      5      18.0991      0.00000
      6      19.4583      0.00000
      7      23.1055      0.00000
      8      26.5764      0.00000

 k-point    41 :       0.3636    0.2727    0.0909
  band No.  band energies     occupation 
      1      -2.1002      2.00000
      2      10.4613      0.00000
      3      10.5038      0.00000
      4      12.7781      0.00000
      5      16.7694      0.00000
      6      17.6341      0.00000
      7      24.1894      0.00000
      8      26.5263      0.00000

 k-point    42 :       0.4545    0.2727    0.0909
  band No.  band energies     occupation 
      1      -0.7823      2.00000
      2       7.5266      2.00000
      3      10.1169      0.00000
      4      11.4966      0.00000
      5      16.9183      0.00000
      6      19.4620      0.00000
      7      23.1154      0.00000
      8      26.9449      0.00000

 k-point    43 :      -0.4545    0.2727    0.0909
  band No.  band energies     occupation 
      1       0.9057      2.00000
      2       4.8575      2.00000
      3       9.6284      0.00000
      4      10.9781      0.00000
      5      17.0748      0.00000
      6      21.3755      0.00000
      7      22.8489      0.00000
      8      26.5978      0.00000

 k-point    44 :      -0.3636    0.2727    0.0909
  band No.  band energies     occupation 
      1       2.0322      2.00000
      2       3.4858      2.00000
      3       8.9764      0.00000
      4      11.3610      0.00000
      5      17.5898      0.00000
      6      21.0640      0.00000
      7      24.9283      0.00000
      8      25.5254      0.00000

 k-point    45 :      -0.2727    0.2727    0.0909
  band No.  band energies     occupation 
      1       0.3028      2.00000
      2       5.7186      2.00000
      3       8.5777      0.00000
      4      12.2388      0.00000
      5      18.4139      0.00000
      6      20.7510      0.00000
      7      23.1593      0.00000
      8      26.0412      0.00000

 k-point    46 :      -0.1818    0.2727    0.0909
  band No.  band energies     occupation 
      1      -1.2695      2.00000
      2       8.4357      0.00000
      3       8.6316      0.00000
      4      13.4660      0.00000
      5      19.3335      0.00000
      6      20.3163      0.00000
      7      21.3569      0.00000
      8      25.4397      0.00000

 k-point    47 :       0.4545    0.3636    0.0909
  band No.  band energies     occupation 
      1      -0.1534      2.00000
      2       8.3713      0.00000
      3       9.4546      0.00000
      4      10.1998      0.00000
      5      15.7213      0.00000
      6      16.4704      0.00000
      7      26.0356      0.00000
      8      29.4521      0.00000

 k-point    48 :      -0.4545    0.3636    0.0909
  band No.  band energies     occupation 
      1       1.4117      2.00000
      2       6.4760      2.00000
      3       7.6873      1.99633
      4       9.8535      0.00000
      5      16.1172      0.00000
      6      18.7895      0.00000
      7      25.0318      0.00000
      8      28.8624      0.00000

 k-point    49 :      -0.3636    0.3636    0.0909
  band No.  band energies     occupation 
      1       3.1273      2.00000
      2       4.4570      2.00000
      3       6.5744      2.00000
      4      10.2429      0.00000
      5      16.5679      0.00000
      6      21.6935      0.00000
      7      24.2726      0.00000
      8      26.4750      0.00000

 k-point    50 :      -0.2727    0.3636    0.0909
  band No.  band energies     occupation 
      1       1.9663      2.00000
      2       5.7648      2.00000
      3       6.0951      2.00000
      4      11.0551      0.00000
      5      17.3687      0.00000
      6      23.2375      0.00000
      7      23.3884      0.00000
      8      25.3891      0.00000

 k-point    51 :      -0.4545    0.4545    0.0909
  band No.  band energies     occupation 
      1       2.3114      2.00000
      2       5.2375      2.00000
      3       8.9274      0.00000
      4       9.4221      0.00000
      5      15.1935      0.00000
      6      15.9206      0.00000
      7      28.1275      0.00000
      8      30.0646      0.00000

 k-point    52 :      -0.3636    0.4545    0.0909
  band No.  band energies     occupation 
      1       3.9821      2.00000
      2       4.1473      2.00000
      3       6.7682      2.00000
      4       9.5304      0.00000
      5      15.8521      0.00000
      6      18.5542      0.00000
      7      27.2450      0.00000
      8      27.3500      0.00000

 k-point    53 :      -0.4545    0.3636    0.1818
  band No.  band energies     occupation 
      1       0.6562      2.00000
      2       7.3693      2.00000
      3       7.4396      2.00000
      4      10.0061      0.00000
      5      19.2928      0.00000
      6      19.3291      0.00000
      7      22.1485      0.00000
      8      28.4002      0.00000

 k-point    54 :      -0.3636    0.3636    0.1818
  band No.  band energies     occupation 
      1       2.4167      2.00000
      2       4.9441      2.00000
      3       7.5496      2.00000
      4       9.0527      0.00000
      5      19.3534      0.00000
      6      20.8086      0.00000
      7      22.7450      0.00000
      8      25.9151      0.00000

 k-point    55 :      -0.3636    0.4545    0.1818
  band No.  band energies     occupation 
      1       3.0664      2.00000
      2       5.7540      2.00000
      3       6.8331      2.00000
      4       7.8211      1.68909
      5      18.8243      0.00000
      6      19.0168      0.00000
      7      24.0938      0.00000
      8      26.5743      0.00000

 k-point    56 :      -0.2727    0.4545    0.1818
  band No.  band energies     occupation 
      1       4.0507      2.00000
      2       5.2258      2.00000
      3       5.7174      2.00000
      4       7.9700      0.27475
      5      19.3751      0.00000
      6      21.7046      0.00000
      7      22.9272      0.00000
      8      24.2299      0.00000


--------------------------------------------------------------------------------------------------------


 soft charge-density along one line, spin component           1
         0         1         2         3         4         5         6         7         8         9
 total charge-density along one line
 
 pseudopotential strength for first ion, spin component:           1
 18.220  25.420  -0.000   0.000   0.000  -0.000   0.000   0.000
 25.420  35.469  -0.000   0.000   0.000  -0.000   0.000   0.000
 -0.000  -0.000   4.131  -0.000  -0.000   7.697  -0.000  -0.000
  0.000   0.000  -0.000   4.131  -0.000  -0.000   7.697  -0.000
  0.000   0.000  -0.000  -0.000   4.131  -0.000  -0.000   7.697
 -0.000  -0.000   7.697  -0.000  -0.000  14.354  -0.000  -0.000
  0.000   0.000  -0.000   7.697  -0.000  -0.000  14.354  -0.000
  0.000   0.000  -0.000  -0.000   7.697  -0.000  -0.000  14.354
 total augmentation occupancy for first ion, spin component:           1
  4.129  -1.494   0.000   0.000   0.000   0.000   0.000   0.000
 -1.494   0.962   0.000   0.000   0.000   0.000   0.000   0.000
  0.000   0.000   2.149   0.000   0.000  -0.513  -0.000   0.000
  0.000   0.000   0.000   2.149  -0.000   0.000  -0.513   0.000
  0.000   0.000   0.000   0.000   2.149   0.000   0.000  -0.513
  0.000   0.000  -0.513  -0.000  -0.000   0.131   0.000   0.000
  0.000   0.000   0.000  -0.513  -0.000   0.000   0.131   0.000
  0.000   0.000  -0.000   0.000  -0.513   0.000   0.000   0.131


------------------------ aborting loop because EDIFF is reached ----------------------------------------


    CHARGE:  cpu time      0.0008: real time      0.0008
    FORLOC:  cpu time      0.0001: real time      0.0001
    FORNL :  cpu time      0.0009: real time      0.0009
    STRESS:  cpu time      0.0198: real time      0.0199
    FORCOR:  cpu time      0.0013: real time      0.0013
    FORHAR:  cpu time      0.0003: real time      0.0003
    MIXING:  cpu time      0.0001: real time      0.0001
    OFIELD:  cpu time      0.0000: real time      0.0000

  FORCE on cell =-STRESS in cart. coord.  units (eV):
  Direction    XX          YY          ZZ          XY          YZ          ZX
  --------------------------------------------------------------------------------------
  Alpha Z     1.95372     1.95372     1.95372
  Ewald     -42.94051   -42.94051   -42.94051    -0.00000    -0.00000     0.00000
  Hartree     0.27122     0.27122     0.27122     0.00000     0.00000     0.00000
  E(xc)     -12.20295   -12.20295   -12.20295     0.00000     0.00000     0.00000
  Local      -6.65209    -6.65209    -6.65209     0.00003     0.00003     0.00003
  n-local    38.92145    37.79851    39.00943    -0.08016     0.26078     0.20574
  augment    -6.46446    -6.46446    -6.46446    -0.00003    -0.00003    -0.00003
  Kinetic    19.65557    35.41151    23.91438     9.18444    -7.48509   -13.61441
  Fock        0.00000     0.00000     0.00000     0.00000     0.00000     0.00000
  -------------------------------------------------------------------------------------
  Total      -1.13146    -1.13146    -1.13146     0.00000     0.00000     0.00000
  in kB    -105.20984  -105.20984  -105.20984     0.00000     0.00000     0.00000
  external pressure =     -105.21 kB  Pullay stress =        0.00 kB


 VOLUME and BASIS-vectors are now :
 -----------------------------------------------------------------------------
  energy-cutoff  :      240.00
  volume of cell :       17.23
      direct lattice vectors                 reciprocal lattice vectors
     2.050000000  2.050000000  0.000000000     0.243902439  0.243902439 -0.243902439
     0.000000000  2.050000000  2.050000000    -0.243902439  0.243902439  0.243902439
     2.050000000  0.000000000  2.050000000     0.243902439 -0.243902439  0.243902439

  length of vectors
     2.899137803  2.899137803  2.899137803     0.422451416  0.422451416  0.422451416


 FORCES acting on ions
    electron-ion (+dipol)            ewald-force                    non-local-force                 convergence-correction
 -----------------------------------------------------------------------------------------------
   0.148E-14 0.662E-15 0.123E-14   0.247E-16 0.133E-15 0.464E-17   0.155E-22 -.245E-23 0.155E-22   -.197E-16 -.299E-16 -.264E-16
 -----------------------------------------------------------------------------------------------
   0.148E-14 0.662E-15 0.123E-14   0.247E-16 0.133E-15 0.464E-17   0.155E-22 -.245E-23 0.155E-22   -.197E-16 -.299E-16 -.264E-16
 
 
 POSITION                                       TOTAL-FORCE (eV/Angst)
 -----------------------------------------------------------------------------------
      0.00000      0.00000      0.00000        -0.000000     -0.000000     -0.000000
 -----------------------------------------------------------------------------------
    total drift:                                0.000000      0.000000      0.000000


--------------------------------------------------------------------------------------------------------



  FREE ENERGIE OF THE ION-ELECTRON SYSTEM (eV)
  ---------------------------------------------------
  free  energy   TOTEN  =        -4.78529713 eV

  energy  without entropy=       -4.78374140  energy(sigma->0) =       -4.78451926
 


--------------------------------------------------------------------------------------------------------


    POTLOK:  cpu time      0.0024: real time      0.0024


--------------------------------------------------------------------------------------------------------


 writing wavefunctions
     LOOP+:  cpu time      0.4443: real time      0.4495
    4ORBIT:  cpu time      0.0000: real time      0.0000

 total amount of memory used by VASP MPI-rank0    31237. kBytes
=======================================================================

   base      :      30000. kBytes
   nonl-proj :        561. kBytes
   fftplans  :        134. kBytes
   grid      :        246. kBytes
   one-center:          3. kBytes
   wavefun   :        293. kBytes
 
  
  
 General timing and accounting informations for this job:
 ========================================================
  
                  Total CPU time used (sec):        0.583
                            User time (sec):        0.521
                          System time (sec):        0.062
                         Elapsed time (sec):        0.577
  
                   Maximum memory used (kb):       53220.
                   Average memory used (kb):          N/A
  
                          Minor page faults:         9340
                          Major page faults:            0
                 Voluntary context switches:          124
