<?xml version="1.0" encoding="ISO-8859-1"?>
<modeling>
 <generator>
  <i name="program" type="string">vasp </i>
  <i name="version" type="string">6.3.0  </i>
  <i name="subversion" type="string">20Jan22 (build Feb 01 2022 16:52:37) complex                          parallel </i>
  <i name="platform" type="string">TETRA_NSC1 </i>
  <i name="date" type="string">2022 02 22 </i>
  <i name="time" type="string">16:07:19 </i>
 </generator>
 <incar>
  <i type="string" name="SYSTEM">fcc Si</i>
  <i type="int" name="ISTART">     0</i>
  <i type="int" name="ICHARG">     2</i>
  <i name="ENCUT">    240.00000000</i>
  <i type="int" name="ISMEAR">     0</i>
  <i name="SIGMA">      0.10000000</i>
 </incar>
 <primitive_cell>
  <structure name="primitive_cell" >
   <crystal>
    <varray name="basis" >
     <v>       2.05000000       2.05000000       0.00000000 </v>
     <v>       0.00000000       2.05000000       2.05000000 </v>
     <v>       2.05000000       0.00000000       2.05000000 </v>
    </varray>
    <i name="volume">     17.23025000 </i>
    <varray name="rec_basis" >
     <v>       0.24390244       0.24390244      -0.24390244 </v>
     <v>      -0.24390244       0.24390244       0.24390244 </v>
     <v>       0.24390244      -0.24390244       0.24390244 </v>
    </varray>
   </crystal>
   <varray name="positions" >
    <v>       0.00000000       0.00000000       0.00000000 </v>
   </varray>
  </structure>
  <varray name="primitive_index" >
   <v type="int" >        1 </v>
  </varray>
 </primitive_cell>
 <kpoints>
  <generation param="Monkhorst-Pack">
   <v type="int" name="divisions">      11       11       11 </v>
   <v name="usershift">      0.00000000       0.00000000       0.00000000 </v>
   <v name="genvec1">      0.09090909       0.00000000       0.00000000 </v>
   <v name="genvec2">      0.00000000       0.09090909      -0.00000000 </v>
   <v name="genvec3">     -0.00000000      -0.00000000       0.09090909 </v>
   <v name="shift">      0.00000000       0.00000000       0.00000000 </v>
  </generation>
  <varray name="kpointlist" >
   <v>       0.00000000       0.00000000       0.00000000 </v>
   <v>       0.09090909      -0.00000000      -0.00000000 </v>
   <v>       0.18181818      -0.00000000      -0.00000000 </v>
   <v>       0.27272727       0.00000000       0.00000000 </v>
   <v>       0.36363636      -0.00000000      -0.00000000 </v>
   <v>       0.45454545       0.00000000       0.00000000 </v>
   <v>       0.09090909       0.09090909       0.00000000 </v>
   <v>       0.18181818       0.09090909       0.00000000 </v>
   <v>       0.27272727       0.09090909      -0.00000000 </v>
   <v>       0.36363636       0.09090909       0.00000000 </v>
   <v>       0.45454545       0.09090909      -0.00000000 </v>
   <v>      -0.45454545       0.09090909      -0.00000000 </v>
   <v>      -0.36363636       0.09090909      -0.00000000 </v>
   <v>      -0.27272727       0.09090909       0.00000000 </v>
   <v>      -0.18181818       0.09090909      -0.00000000 </v>
   <v>      -0.09090909       0.09090909       0.00000000 </v>
   <v>       0.18181818       0.18181818       0.00000000 </v>
   <v>       0.27272727       0.18181818       0.00000000 </v>
   <v>       0.36363636       0.18181818       0.00000000 </v>
   <v>       0.45454545       0.18181818       0.00000000 </v>
   <v>      -0.45454545       0.18181818      -0.00000000 </v>
   <v>      -0.36363636       0.18181818      -0.00000000 </v>
   <v>      -0.27272727       0.18181818       0.00000000 </v>
   <v>      -0.18181818       0.18181818       0.00000000 </v>
   <v>       0.27272727       0.27272727       0.00000000 </v>
   <v>       0.36363636       0.27272727       0.00000000 </v>
   <v>       0.45454545       0.27272727       0.00000000 </v>
   <v>      -0.45454545       0.27272727      -0.00000000 </v>
   <v>      -0.36363636       0.27272727      -0.00000000 </v>
   <v>      -0.27272727       0.27272727      -0.00000000 </v>
   <v>       0.36363636       0.36363636       0.00000000 </v>
   <v>       0.45454545       0.36363636       0.00000000 </v>
   <v>      -0.45454545       0.36363636       0.00000000 </v>
   <v>      -0.36363636       0.36363636       0.00000000 </v>
   <v>       0.45454545       0.45454545       0.00000000 </v>
   <v>      -0.45454545       0.45454545       0.00000000 </v>
   <v>       0.27272727       0.18181818       0.09090909 </v>
   <v>       0.36363636       0.18181818       0.09090909 </v>
   <v>       0.45454545       0.18181818       0.09090909 </v>
   <v>      -0.45454545       0.18181818       0.09090909 </v>
   <v>       0.36363636       0.27272727       0.09090909 </v>
   <v>       0.45454545       0.27272727       0.09090909 </v>
   <v>      -0.45454545       0.27272727       0.09090909 </v>
   <v>      -0.36363636       0.27272727       0.09090909 </v>
   <v>      -0.27272727       0.27272727       0.09090909 </v>
   <v>      -0.18181818       0.27272727       0.09090909 </v>
   <v>       0.45454545       0.36363636       0.09090909 </v>
   <v>      -0.45454545       0.36363636       0.09090909 </v>
   <v>      -0.36363636       0.36363636       0.09090909 </v>
   <v>      -0.27272727       0.36363636       0.09090909 </v>
   <v>      -0.45454545       0.45454545       0.09090909 </v>
   <v>      -0.36363636       0.45454545       0.09090909 </v>
   <v>      -0.45454545       0.36363636       0.18181818 </v>
   <v>      -0.36363636       0.36363636       0.18181818 </v>
   <v>      -0.36363636       0.45454545       0.18181818 </v>
   <v>      -0.27272727       0.45454545       0.18181818 </v>
  </varray>
  <varray name="weights" >
   <v>       0.00075131 </v>
   <v>       0.00601052 </v>
   <v>       0.00601052 </v>
   <v>       0.00601052 </v>
   <v>       0.00601052 </v>
   <v>       0.00601052 </v>
   <v>       0.00450789 </v>
   <v>       0.01803156 </v>
   <v>       0.01803156 </v>
   <v>       0.01803156 </v>
   <v>       0.01803156 </v>
   <v>       0.01803156 </v>
   <v>       0.01803156 </v>
   <v>       0.01803156 </v>
   <v>       0.01803156 </v>
   <v>       0.00901578 </v>
   <v>       0.00450789 </v>
   <v>       0.01803156 </v>
   <v>       0.01803156 </v>
   <v>       0.01803156 </v>
   <v>       0.01803156 </v>
   <v>       0.01803156 </v>
   <v>       0.01803156 </v>
   <v>       0.00901578 </v>
   <v>       0.00450789 </v>
   <v>       0.01803156 </v>
   <v>       0.01803156 </v>
   <v>       0.01803156 </v>
   <v>       0.01803156 </v>
   <v>       0.00901578 </v>
   <v>       0.00450789 </v>
   <v>       0.01803156 </v>
   <v>       0.01803156 </v>
   <v>       0.00901578 </v>
   <v>       0.00450789 </v>
   <v>       0.00901578 </v>
   <v>       0.01803156 </v>
   <v>       0.03606311 </v>
   <v>       0.03606311 </v>
   <v>       0.03606311 </v>
   <v>       0.01803156 </v>
   <v>       0.03606311 </v>
   <v>       0.03606311 </v>
   <v>       0.03606311 </v>
   <v>       0.03606311 </v>
   <v>       0.01803156 </v>
   <v>       0.01803156 </v>
   <v>       0.03606311 </v>
   <v>       0.03606311 </v>
   <v>       0.01803156 </v>
   <v>       0.01803156 </v>
   <v>       0.01803156 </v>
   <v>       0.01803156 </v>
   <v>       0.03606311 </v>
   <v>       0.01803156 </v>
   <v>       0.01803156 </v>
  </varray>
 </kpoints>
 <parameters>
  <separator name="general" >
   <i type="string" name="SYSTEM">fcc Si</i>
   <i type="logical" name="LCOMPAT"> F  </i>
  </separator>
  <separator name="electronic" >
   <i type="string" name="PREC">normal</i>
   <i name="ENMAX">    240.00000000</i>
   <i name="ENAUG">    322.06900000</i>
   <i name="EDIFF">      0.00010000</i>
   <i type="int" name="IALGO">    38</i>
   <i type="int" name="IWAVPR">    10</i>
   <i type="int" name="NBANDS">     8</i>
   <i type="int" name="NBANDSLOW">    -1</i>
   <i type="int" name="NBANDSHIGH">    -1</i>
   <i name="NELECT">      4.00000000</i>
   <i type="int" name="TURBO">     0</i>
   <i type="int" name="IRESTART">     0</i>
   <i type="int" name="NREBOOT">     0</i>
   <i type="int" name="NMIN">     0</i>
   <i name="EREF">      0.00000000</i>
   <separator name="electronic smearing" >
    <i type="int" name="ISMEAR">     0</i>
    <i name="SIGMA">      0.10000000</i>
    <i name="KSPACING">      0.50000000</i>
    <i type="logical" name="KGAMMA"> T  </i>
    <i type="logical" name="KBLOWUP"> T  </i>
   </separator>
   <separator name="electronic projectors" >
    <i type="logical" name="LREAL"> F  </i>
    <v name="ROPT">      0.00000000</v>
    <i type="int" name="LMAXPAW">  -100</i>
    <i type="int" name="LMAXMIX">     2</i>
    <i type="logical" name="NLSPLINE"> F  </i>
   </separator>
   <separator name="electronic startup" >
    <i type="int" name="ISTART">     0</i>
    <i type="int" name="ICHARG">     2</i>
    <i type="int" name="INIWAV">     1</i>
   </separator>
   <separator name="electronic spin" >
    <i type="int" name="ISPIN">     1</i>
    <i type="logical" name="LNONCOLLINEAR"> F  </i>
    <v name="MAGMOM">      1.00000000</v>
    <i name="NUPDOWN">     -1.00000000</i>
    <i type="logical" name="LSORBIT"> F  </i>
    <v name="SAXIS">      0.00000000      0.00000000      1.00000000</v>
    <i type="logical" name="LSPIRAL"> F  </i>
    <v name="QSPIRAL">      0.00000000      0.00000000      0.00000000</v>
    <i type="logical" name="LZEROZ"> F  </i>
   </separator>
   <separator name="electronic exchange-correlation" >
    <i type="logical" name="LASPH"> F  </i>
    <i type="logical" name="LMETAGGA"> F  </i>
   </separator>
   <separator name="electronic convergence" >
    <i type="int" name="NELM">    60</i>
    <i type="int" name="NELMDL">    -5</i>
    <i type="int" name="NELMIN">     2</i>
    <i name="ENINI">    240.00000000</i>
    <separator name="electronic convergence detail" >
     <i type="logical" name="LDIAG"> T  </i>
     <i type="logical" name="LSUBROT"> F  </i>
     <i name="WEIMIN">      0.00000000</i>
     <i name="EBREAK">      0.00000313</i>
     <i name="DEPER">      0.30000000</i>
     <i type="int" name="NRMM">     4</i>
     <i name="TIME">      0.40000000</i>
    </separator>
   </separator>
   <separator name="electronic mixer" >
    <i name="AMIX">      0.40000000</i>
    <i name="BMIX">      1.00000000</i>
    <i name="AMIN">      0.10000000</i>
    <i name="AMIX_MAG">      1.60000000</i>
    <i name="BMIX_MAG">      1.00000000</i>
    <separator name="electronic mixer details" >
     <i type="int" name="IMIX">     4</i>
     <i type="logical" name="MIXFIRST"> F  </i>
     <i type="int" name="MAXMIX">   -45</i>
     <i name="WC">    100.00000000</i>
     <i type="int" name="INIMIX">     1</i>
     <i type="int" name="MIXPRE">     1</i>
     <i type="int" name="MREMOVE">     5</i>
    </separator>
   </separator>
   <separator name="electronic dipolcorrection" >
    <i type="logical" name="LDIPOL"> F  </i>
    <i type="logical" name="LMONO"> F  </i>
    <i type="int" name="IDIPOL">     0</i>
    <i name="EPSILON">      1.00000000</i>
    <v name="DIPOL">   -100.00000000   -100.00000000   -100.00000000</v>
    <i name="EFIELD">      0.00000000</i>
   </separator>
  </separator>
  <separator name="grids" >
   <i type="int" name="NGX">    12</i>
   <i type="int" name="NGY">    12</i>
   <i type="int" name="NGZ">    12</i>
   <i type="int" name="NGXF">    24</i>
   <i type="int" name="NGYF">    24</i>
   <i type="int" name="NGZF">    24</i>
   <i type="logical" name="ADDGRID"> F  </i>
  </separator>
  <separator name="ionic" >
   <i type="int" name="NSW">     0</i>
   <i type="int" name="IBRION">    -1</i>
   <i type="int" name="MDALGO">     0</i>
   <i type="int" name="ISIF">     2</i>
   <i name="PSTRESS">      0.00000000</i>
   <i name="EDIFFG">      0.00100000</i>
   <i type="int" name="NFREE">     0</i>
   <i name="POTIM">      0.50000000</i>
   <i name="SMASS">     -3.00000000</i>
   <i name="SCALEE">      1.00000000</i>
  </separator>
  <separator name="ionic md" >
   <i name="TEBEG">      0.00010000</i>
   <i name="TEEND">      0.00010000</i>
   <i type="int" name="NBLOCK">     1</i>
   <i type="int" name="KBLOCK">     1</i>
   <i type="int" name="NPACO">   256</i>
   <i name="APACO">     10.00000000</i>
  </separator>
  <separator name="symmetry" >
   <i type="int" name="ISYM">     2</i>
   <i name="SYMPREC">      0.00001000</i>
  </separator>
  <separator name="dos" >
   <i type="int" name="LORBIT">     0</i>
   <v name="RWIGS">     -1.00000000</v>
   <i type="int" name="NEDOS">   301</i>
   <i name="EMIN">     10.00000000</i>
   <i name="EMAX">    -10.00000000</i>
   <i name="EFERMI">      0.00000000</i>
  </separator>
  <separator name="writing" >
   <i type="int" name="NWRITE">     2</i>
   <i type="logical" name="LWAVE"> T  </i>
   <i type="logical" name="LDOWNSAMPLE"> F  </i>
   <i type="logical" name="LCHARG"> T  </i>
   <i type="logical" name="LPARD"> F  </i>
   <i type="logical" name="LVTOT"> F  </i>
   <i type="logical" name="LVHAR"> F  </i>
   <i type="logical" name="LELF"> F  </i>
   <i type="logical" name="LOPTICS"> F  </i>
   <v name="STM">      0.00000000      0.00000000      0.00000000      0.00000000      0.00000000      0.00000000      0.00000000</v>
  </separator>
  <separator name="performance" >
   <i type="int" name="NPAR">     4</i>
   <i type="int" name="NSIM">     4</i>
   <i type="int" name="NBLK">    -1</i>
   <i type="logical" name="LPLANE"> T  </i>
   <i type="logical" name="LSCALAPACK"> T  </i>
   <i type="logical" name="LSCAAWARE"> F  </i>
   <i type="logical" name="LSCALU"> F  </i>
   <i type="logical" name="LASYNC"> F  </i>
   <i type="logical" name="LORBITALREAL"> F  </i>
  </separator>
  <separator name="miscellaneous" >
   <i type="int" name="IDIOT">     3</i>
   <i type="int" name="PHON_NSTRUCT">    -1</i>
   <i type="logical" name="LMUSIC"> F  </i>
   <v name="POMASS">     28.08500000</v>
   <v name="DARWINR">      0.00000000</v>
   <v name="DARWINV">      1.00000000</v>
   <i type="logical" name="LCORR"> T  </i>
  </separator>
  <i type="logical" name="GGA_COMPAT"> T  </i>
  <i type="logical" name="LBERRY"> F  </i>
  <i type="int" name="ICORELEVEL">     0</i>
  <i type="logical" name="LDAU"> F  </i>
  <i type="int" name="I_CONSTRAINED_M">     0</i>
  <separator name="electronic exchange-correlation" >
   <i type="string" name="GGA">--</i>
   <i type="int" name="VOSKOWN">     0</i>
   <i type="logical" name="LHFCALC"> F  </i>
   <i type="string" name="PRECFOCK"></i>
   <i type="logical" name="LSYMGRAD"> F  </i>
   <i type="logical" name="LHFONE"> F  </i>
   <i type="logical" name="LRHFCALC"> F  </i>
   <i type="logical" name="LTHOMAS"> F  </i>
   <i type="logical" name="LMODELHF"> F  </i>
   <i type="logical" name="LFOCKACE"> F  </i>
   <i name="ENCUT4O">     -1.00000000</i>
   <i type="int" name="EXXOEP">     0</i>
   <i type="int" name="FOURORBIT">     0</i>
   <i name="AEXX">      0.00000000</i>
   <i name="HFALPHA">      0.00000000</i>
   <i name="MCALPHA">      0.00000000</i>
   <i name="ALDAX">      1.00000000</i>
   <i name="AGGAX">      1.00000000</i>
   <i name="ALDAC">      1.00000000</i>
   <i name="AGGAC">      1.00000000</i>
   <i type="int" name="NKREDX">     1</i>
   <i type="int" name="NKREDY">     1</i>
   <i type="int" name="NKREDZ">     1</i>
   <i type="logical" name="SHIFTRED"> F  </i>
   <i type="logical" name="ODDONLY"> F  </i>
   <i type="logical" name="EVENONLY"> F  </i>
   <i type="int" name="LMAXFOCK">     0</i>
   <i type="int" name="NMAXFOCKAE">     0</i>
   <i type="logical" name="LFOCKAEDFT"> F  </i>
   <i name="HFSCREEN">      0.00000000</i>
   <i name="HFSCREENC">      0.00000000</i>
   <i type="int" name="NBANDSGWLOW">     0</i>
  </separator>
  <separator name="vdW DFT" >
   <i type="logical" name="LUSE_VDW"> F  </i>
   <i name="Zab_VDW">     -0.84910000</i>
   <i name="PARAM1">      0.12340000</i>
   <i name="PARAM2">      1.00000000</i>
   <i name="PARAM3">      0.00000000</i>
  </separator>
  <separator name="model GW" >
   <i type="int" name="MODEL_GW">     0</i>
   <i name="MODEL_EPS0">     10.33815000</i>
   <i name="MODEL_ALPHA">      1.00000000</i>
  </separator>
  <separator name="linear response parameters" >
   <i type="logical" name="LEPSILON"> F  </i>
   <i type="logical" name="LRPA"> F  </i>
   <i type="logical" name="LNABLA"> F  </i>
   <i type="logical" name="LVEL"> F  </i>
   <i name="CSHIFT">      0.10000000</i>
   <i name="OMEGAMAX">     -1.00000000</i>
   <i name="DEG_THRESHOLD">      0.00200000</i>
   <i name="RTIME">     -0.10000000</i>
   <i name="WPLASMAI">      0.00000000</i>
   <v name="DFIELD">      0.00000000      0.00000000      0.00000000</v>
   <v name="WPLASMA">      0.00000000      0.00000000      0.00000000      0.00000000      0.00000000      0.00000000      0.00000000      0.00000000      0.00000000</v>
  </separator>
  <separator name="orbital magnetization" >
   <i type="logical" name="NUCIND"> F  </i>
   <v name="MAGPOS">      0.00000000      0.00000000      0.00000000</v>
   <i type="logical" name="LNICSALL"> T  </i>
   <i type="logical" name="ORBITALMAG"> F  </i>
   <i type="logical" name="LMAGBLOCH"> F  </i>
   <i type="logical" name="LCHIMAG"> F  </i>
   <i type="logical" name="LGAUGE"> T  </i>
   <i type="int" name="MAGATOM">     0</i>
   <v name="MAGDIPOL">      0.00000000      0.00000000      0.00000000</v>
   <v name="AVECCONST">      0.00000000      0.00000000      0.00000000</v>
  </separator>
  <separator name="response functions" >
   <i type="logical" name="LFINITE_TEMPERATURE"> F  </i>
   <i type="logical" name="LADDER"> F  </i>
   <i type="logical" name="LRPAFORCE"> F  </i>
   <i type="logical" name="LFXC"> F  </i>
   <i type="logical" name="LHARTREE"> T  </i>
   <i type="int" name="IBSE">     0</i>
   <v type="int" name="KPOINT">    -1     0     0     0</v>
   <i type="logical" name="LTCTC"> F  </i>
   <i type="logical" name="LTCTE"> F  </i>
   <i type="logical" name="LTETE"> F  </i>
   <i type="logical" name="LTRIPLET"> F  </i>
   <i type="logical" name="LFXCEPS"> F  </i>
   <i type="logical" name="LFXHEG"> F  </i>
   <i type="int" name="NATURALO">     2</i>
   <i type="logical" name="LHOLEGF"> F  </i>
   <i type="logical" name="L2ORDER"> F  </i>
   <i type="logical" name="LDMP1"> F  </i>
   <i type="logical" name="LMP2LT"> F  </i>
   <i type="logical" name="LSMP2LT"> F  </i>
   <i type="logical" name="LGWLF"> F  </i>
   <i name="ENCUTGW">     -2.00000000</i>
   <i name="ENCUTGWSOFT">     -2.00000000</i>
   <i name="ENCUTLF">     -1.00000000</i>
   <i type="logical" name="LESF_SPLINES"> F  </i>
   <i type="int" name="LMAXMP2">    -1</i>
   <i name="SCISSOR">      0.00000000</i>
   <i type="int" name="NOMEGA">     0</i>
   <i type="int" name="NOMEGAR">     0</i>
   <i type="int" name="NBANDSGW">    -1</i>
   <i type="int" name="NBANDSO">    -1</i>
   <i type="int" name="NBANDSV">    -1</i>
   <i type="int" name="NELMGW">     1</i>
   <i type="int" name="NELMHF">     1</i>
   <i type="int" name="DIM">     3</i>
   <i type="int" name="IESPILON">     4</i>
   <i type="int" name="ANTIRES">     0</i>
   <i name="OMEGAMAX">    -30.00000000</i>
   <i name="OMEGAMIN">    -30.00000000</i>
   <i name="OMEGATL">   -200.00000000</i>
   <i type="int" name="OMEGAGRID">     0</i>
   <i name="CSHIFT">     -0.10000000</i>
   <i type="logical" name="LSELFENERGY"> F  </i>
   <i type="logical" name="LSPECTRAL"> F  </i>
   <i type="logical" name="LSPECTRALGW"> F  </i>
   <i type="logical" name="LSINGLES"> F  </i>
   <i type="logical" name="LFERMIGW"> F  </i>
   <i type="logical" name="ODDONLYGW"> F  </i>
   <i type="logical" name="EVENONLYGW"> F  </i>
   <i type="int" name="NKREDLFX">     1</i>
   <i type="int" name="NKREDLFY">     1</i>
   <i type="int" name="NKREDLFZ">     1</i>
   <i type="int" name="MAXMEM">  2800</i>
   <i type="int" name="TELESCOPE">     0</i>
   <i type="int" name="NTAUPAR">    -1</i>
   <i type="int" name="NOMEGAPAR">    -1</i>
   <i name="DAMP_NEWTON">      0.80000001</i>
   <i name="LAMBDA">      1.00000000</i>
  </separator>
  <separator name="External order field" >
   <i name="OFIELD_KAPPA">      0.00000000</i>
   <v name="OFIELD_K">      0.00000000      0.00000000      0.00000000</v>
   <i name="OFIELD_Q6_NEAR">      0.00000000</i>
   <i name="OFIELD_Q6_FAR">      0.00000000</i>
   <i name="OFIELD_A">      0.00000000</i>
  </separator>
  <separator name="optional k-points parameters" >
   <i type="int" name="KPOINTS_OPT_MODE">     1</i>
   <i type="logical" name="LKPOINTS_OPT"> F  </i>
  </separator>
 </parameters>
 <atominfo>
  <atoms>       1 </atoms>
  <types>       1 </types>
  <array name="atoms" >
   <dimension dim="1">ion</dimension>
   <field type="string">element</field>
   <field type="int">atomtype</field>
   <set>
    <rc><c>Si</c><c>   1</c></rc>
   </set>
  </array>
  <array name="atomtypes" >
   <dimension dim="1">type</dimension>
   <field type="int">atomspertype</field>
   <field type="string">element</field>
   <field>mass</field>
   <field>valence</field>
   <field type="string">pseudopotential</field>
   <set>
    <rc><c>   1</c><c>Si</c><c>     28.08500000</c><c>      4.00000000</c><c>  PAW_PBE Si 05Jan2001                  </c></rc>
   </set>
  </array>
 </atominfo>
 <structure name="initialpos" >
  <crystal>
   <varray name="basis" >
    <v>       2.05000000       2.05000000       0.00000000 </v>
    <v>       0.00000000       2.05000000       2.05000000 </v>
    <v>       2.05000000       0.00000000       2.05000000 </v>
   </varray>
   <i name="volume">     17.23025000 </i>
   <varray name="rec_basis" >
    <v>       0.24390244       0.24390244      -0.24390244 </v>
    <v>      -0.24390244       0.24390244       0.24390244 </v>
    <v>       0.24390244      -0.24390244       0.24390244 </v>
   </varray>
  </crystal>
  <varray name="positions" >
   <v>       0.00000000       0.00000000       0.00000000 </v>
  </varray>
 </structure>
 <calculation>
  <scstep>
   <time name="dav">    0.05    0.05</time>
   <time name="total">    0.05    0.05</time>
   <energy>
    <i name="alphaZ">      1.95372271 </i>
    <i name="ewald">   -128.82153765 </i>
    <i name="hartreedc">     -1.07558932 </i>
    <i name="XCdc">     -9.24377005 </i>
    <i name="pawpsdc">     88.12379961 </i>
    <i name="pawaedc">    -70.53051779 </i>
    <i name="eentropy">     -0.00309773 </i>
    <i name="bandstr">     12.66783610 </i>
    <i name="atom">    103.06077658 </i>
    <i name="e_fr_energy">     -3.86837753 </i>
    <i name="e_wo_entrp">     -3.86527980 </i>
    <i name="e_0_energy">     -3.86682867 </i>
   </energy>
  </scstep>
  <scstep>
   <time name="dav">    0.07    0.07</time>
   <time name="total">    0.07    0.07</time>
   <energy>
    <i name="e_fr_energy">     -4.79777325 </i>
    <i name="e_wo_entrp">     -4.79645873 </i>
    <i name="e_0_energy">     -4.79711599 </i>
   </energy>
  </scstep>
  <scstep>
   <time name="dav">    0.04    0.05</time>
   <time name="total">    0.05    0.05</time>
   <energy>
    <i name="e_fr_energy">     -4.80165974 </i>
    <i name="e_wo_entrp">     -4.80031825 </i>
    <i name="e_0_energy">     -4.80098900 </i>
   </energy>
  </scstep>
  <scstep>
   <time name="dav">    0.08    0.08</time>
   <time name="total">    0.08    0.08</time>
   <energy>
    <i name="e_fr_energy">     -4.80166209 </i>
    <i name="e_wo_entrp">     -4.80032058 </i>
    <i name="e_0_energy">     -4.80099134 </i>
   </energy>
  </scstep>
  <scstep>
   <time name="dav">    0.03    0.03</time>
   <time name="total">    0.04    0.04</time>
   <energy>
    <i name="e_fr_energy">     -4.80166209 </i>
    <i name="e_wo_entrp">     -4.80032058 </i>
    <i name="e_0_energy">     -4.80099134 </i>
   </energy>
  </scstep>
  <scstep>
   <time name="dav">    0.04    0.04</time>
   <time name="total">    0.04    0.04</time>
   <energy>
    <i name="e_fr_energy">     -4.79106931 </i>
    <i name="e_wo_entrp">     -4.78964463 </i>
    <i name="e_0_energy">     -4.79035697 </i>
   </energy>
  </scstep>
  <scstep>
   <time name="dav">    0.03    0.04</time>
   <time name="total">    0.04    0.04</time>
   <energy>
    <i name="e_fr_energy">     -4.78531411 </i>
    <i name="e_wo_entrp">     -4.78375897 </i>
    <i name="e_0_energy">     -4.78453654 </i>
   </energy>
  </scstep>
  <scstep>
   <time name="dav">    0.04    0.04</time>
   <time name="total">    0.04    0.04</time>
   <energy>
    <i name="alphaZ">      1.95372271 </i>
    <i name="ewald">   -128.82153765 </i>
    <i name="hartreedc">     -0.81412911 </i>
    <i name="XCdc">     -9.22829479 </i>
    <i name="pawpsdc">    257.14451813 </i>
    <i name="pawaedc">   -239.53751994 </i>
    <i name="eentropy">     -0.00155573 </i>
    <i name="bandstr">     11.45872268 </i>
    <i name="atom">    103.06077658 </i>
    <i name="e_fr_energy">     -4.78529713 </i>
    <i name="e_wo_entrp">     -4.78374140 </i>
    <i name="e_0_energy">     -4.78451926 </i>
   </energy>
  </scstep>
  <structure>
   <crystal>
    <varray name="basis" >
     <v>       2.05000000       2.05000000       0.00000000 </v>
     <v>       0.00000000       2.05000000       2.05000000 </v>
     <v>       2.05000000       0.00000000       2.05000000 </v>
    </varray>
    <i name="volume">     17.23025000 </i>
    <varray name="rec_basis" >
     <v>       0.24390244       0.24390244      -0.24390244 </v>
     <v>      -0.24390244       0.24390244       0.24390244 </v>
     <v>       0.24390244      -0.24390244       0.24390244 </v>
    </varray>
   </crystal>
   <varray name="positions" >
    <v>       0.00000000       0.00000000       0.00000000 </v>
   </varray>
  </structure>
  <varray name="forces" >
   <v>      -0.00000000      -0.00000000      -0.00000000 </v>
  </varray>
  <varray name="stress" >
   <v>    -105.20983632      -0.00000000       0.00000000 </v>
   <v>       0.00000000    -105.20983632       0.00000000 </v>
   <v>       0.00000000       0.00000000    -105.20983632 </v>
  </varray>
  <energy>
   <i name="e_fr_energy">     -4.78529713 </i>
   <i name="e_wo_entrp">     -4.78374140 </i>
   <i name="e_0_energy">     -4.78451926 </i>
  </energy>
  <time name="totalsc">    0.44    0.45</time>
  <eigenvalues>
   <array>
    <dimension dim="1">band</dimension>
    <dimension dim="2">kpoint</dimension>
    <dimension dim="3">spin</dimension>
    <field>eigene</field>
    <field>occ</field>
    <set>
     <set comment="spin 1">
      <set comment="kpoint 1">
       <r>   -4.9190    1.0000 </r>
       <r>   17.1898    0.0000 </r>
       <r>   17.1899    0.0000 </r>
       <r>   17.1899    0.0000 </r>
       <r>   19.4069    0.0000 </r>
       <r>   19.4069    0.0000 </r>
       <r>   19.4069    0.0000 </r>
       <r>   24.2566    0.0000 </r>
      </set>
      <set comment="kpoint 2">
       <r>   -4.7064    1.0000 </r>
       <r>   14.9872    0.0000 </r>
       <r>   16.6835    0.0000 </r>
       <r>   16.6835    0.0000 </r>
       <r>   19.8862    0.0000 </r>
       <r>   20.1131    0.0000 </r>
       <r>   20.1132    0.0000 </r>
       <r>   24.5365    0.0000 </r>
      </set>
      <set comment="kpoint 3">
       <r>   -4.0692    1.0000 </r>
       <r>   11.6427    0.0000 </r>
       <r>   15.9617    0.0000 </r>
       <r>   15.9617    0.0000 </r>
       <r>   19.8476    0.0000 </r>
       <r>   20.9239    0.0000 </r>
       <r>   20.9241    0.0000 </r>
       <r>   23.7792    0.0000 </r>
      </set>
      <set comment="kpoint 4">
       <r>   -3.0143    1.0000 </r>
       <r>    8.3750    0.0000 </r>
       <r>   15.4522    0.0000 </r>
       <r>   15.4522    0.0000 </r>
       <r>   19.6485    0.0000 </r>
       <r>   20.1630    0.0000 </r>
       <r>   20.1632    0.0000 </r>
       <r>   24.9719    0.0000 </r>
      </set>
      <set comment="kpoint 5">
       <r>   -1.5565    1.0000 </r>
       <r>    5.3964    1.0000 </r>
       <r>   15.1883    0.0000 </r>
       <r>   15.1884    0.0000 </r>
       <r>   19.1328    0.0000 </r>
       <r>   19.1330    0.0000 </r>
       <r>   19.5632    0.0000 </r>
       <r>   23.7177    0.0000 </r>
      </set>
      <set comment="kpoint 6">
       <r>    0.2228    1.0000 </r>
       <r>    2.8472    1.0000 </r>
       <r>   15.1022    0.0000 </r>
       <r>   15.1022    0.0000 </r>
       <r>   18.5188    0.0000 </r>
       <r>   18.5189    0.0000 </r>
       <r>   19.5850    0.0000 </r>
       <r>   22.9854    0.0000 </r>
      </set>
      <set comment="kpoint 7">
       <r>   -4.6354    1.0000 </r>
       <r>   15.6448    0.0000 </r>
       <r>   15.6449    0.0000 </r>
       <r>   16.4722    0.0000 </r>
       <r>   18.0683    0.0000 </r>
       <r>   21.2720    0.0000 </r>
       <r>   21.2720    0.0000 </r>
       <r>   22.8537    0.0000 </r>
      </set>
      <set comment="kpoint 8">
       <r>   -4.1397    1.0000 </r>
       <r>   12.8923    0.0000 </r>
       <r>   14.7685    0.0000 </r>
       <r>   16.0303    0.0000 </r>
       <r>   18.3344    0.0000 </r>
       <r>   21.1358    0.0000 </r>
       <r>   22.0178    0.0000 </r>
       <r>   22.4600    0.0000 </r>
      </set>
      <set comment="kpoint 9">
       <r>   -3.2237    1.0000 </r>
       <r>    9.6004    0.0000 </r>
       <r>   14.2023    0.0000 </r>
       <r>   15.2941    0.0000 </r>
       <r>   18.3271    0.0000 </r>
       <r>   20.8811    0.0000 </r>
       <r>   22.1620    0.0000 </r>
       <r>   22.5988    0.0000 </r>
      </set>
      <set comment="kpoint 10">
       <r>   -1.8985    1.0000 </r>
       <r>    6.5238    1.0000 </r>
       <r>   13.9738    0.0000 </r>
       <r>   14.5654    0.0000 </r>
       <r>   17.6105    0.0000 </r>
       <r>   21.0148    0.0000 </r>
       <r>   21.0364    0.0000 </r>
       <r>   24.3571    0.0000 </r>
      </set>
      <set comment="kpoint 11">
       <r>   -0.2025    1.0000 </r>
       <r>    3.8078    1.0000 </r>
       <r>   13.8599    0.0000 </r>
       <r>   14.0806    0.0000 </r>
       <r>   17.3809    0.0000 </r>
       <r>   20.0153    0.0000 </r>
       <r>   20.9902    0.0000 </r>
       <r>   24.7807    0.0000 </r>
      </set>
      <set comment="kpoint 12">
       <r>    0.9286    1.0000 </r>
       <r>    2.4204    1.0000 </r>
       <r>   13.2864    0.0000 </r>
       <r>   14.4935    0.0000 </r>
       <r>   17.7300    0.0000 </r>
       <r>   19.3859    0.0000 </r>
       <r>   20.8645    0.0000 </r>
       <r>   24.6893    0.0000 </r>
      </set>
      <set comment="kpoint 13">
       <r>   -0.8028    1.0000 </r>
       <r>    4.6647    1.0000 </r>
       <r>   12.9676    0.0000 </r>
       <r>   15.1472    0.0000 </r>
       <r>   18.5579    0.0000 </r>
       <r>   19.2173    0.0000 </r>
       <r>   20.7221    0.0000 </r>
       <r>   25.1803    0.0000 </r>
      </set>
      <set comment="kpoint 14">
       <r>   -2.3848    1.0000 </r>
       <r>    7.5168    1.0000 </r>
       <r>   12.9694    0.0000 </r>
       <r>   15.9308    0.0000 </r>
       <r>   19.5864    0.0000 </r>
       <r>   19.7622    0.0000 </r>
       <r>   20.6674    0.0000 </r>
       <r>   24.3431    0.0000 </r>
      </set>
      <set comment="kpoint 15">
       <r>   -3.5753    1.0000 </r>
       <r>   10.6890    0.0000 </r>
       <r>   13.3175    0.0000 </r>
       <r>   16.7085    0.0000 </r>
       <r>   20.2894    0.0000 </r>
       <r>   20.6176    0.0000 </r>
       <r>   21.1381    0.0000 </r>
       <r>   22.4146    0.0000 </r>
      </set>
      <set comment="kpoint 16">
       <r>   -4.3520    1.0000 </r>
       <r>   13.9857    0.0000 </r>
       <r>   14.0298    0.0000 </r>
       <r>   17.2037    0.0000 </r>
       <r>   19.9530    0.0000 </r>
       <r>   20.2892    0.0000 </r>
       <r>   21.4789    0.0000 </r>
       <r>   22.8344    0.0000 </r>
      </set>
      <set comment="kpoint 17">
       <r>   -3.7859    1.0000 </r>
       <r>   13.7680    0.0000 </r>
       <r>   13.7681    0.0000 </r>
       <r>   14.6594    0.0000 </r>
       <r>   16.0957    0.0000 </r>
       <r>   18.9538    0.0000 </r>
       <r>   24.1260    0.0000 </r>
       <r>   24.1261    0.0000 </r>
      </set>
      <set comment="kpoint 18">
       <r>   -3.0112    1.0000 </r>
       <r>   11.1105    0.0000 </r>
       <r>   13.0907    0.0000 </r>
       <r>   13.7809    0.0000 </r>
       <r>   16.2497    0.0000 </r>
       <r>   18.1978    0.0000 </r>
       <r>   24.6196    0.0000 </r>
       <r>   24.8765    0.0000 </r>
      </set>
      <set comment="kpoint 19">
       <r>   -1.8235    1.0000 </r>
       <r>    8.0126    0.0451 </r>
       <r>   12.5814    0.0000 </r>
       <r>   12.7670    0.0000 </r>
       <r>   15.9153    0.0000 </r>
       <r>   19.8981    0.0000 </r>
       <r>   23.5969    0.0000 </r>
       <r>   24.9037    0.0000 </r>
      </set>
      <set comment="kpoint 20">
       <r>   -0.2453    1.0000 </r>
       <r>    5.1876    1.0000 </r>
       <r>   11.4601    0.0000 </r>
       <r>   12.8046    0.0000 </r>
       <r>   15.8206    0.0000 </r>
       <r>   22.0389    0.0000 </r>
       <r>   22.4878    0.0000 </r>
       <r>   25.0513    0.0000 </r>
      </set>
      <set comment="kpoint 21">
       <r>    1.4849    1.0000 </r>
       <r>    2.9527    1.0000 </r>
       <r>   10.5932    0.0000 </r>
       <r>   13.1972    0.0000 </r>
       <r>   16.1975    0.0000 </r>
       <r>   21.6651    0.0000 </r>
       <r>   22.9811    0.0000 </r>
       <r>   26.3798    0.0000 </r>
      </set>
      <set comment="kpoint 22">
       <r>    0.3501    1.0000 </r>
       <r>    4.3435    1.0000 </r>
       <r>   10.0598    0.0000 </r>
       <r>   13.9244    0.0000 </r>
       <r>   17.0091    0.0000 </r>
       <r>   21.2017    0.0000 </r>
       <r>   22.8673    0.0000 </r>
       <r>   26.6734    0.0000 </r>
      </set>
      <set comment="kpoint 23">
       <r>   -1.3416    1.0000 </r>
       <r>    7.0463    1.0000 </r>
       <r>    9.8926    0.0000 </r>
       <r>   14.9334    0.0000 </r>
       <r>   18.2065    0.0000 </r>
       <r>   21.1539    0.0000 </r>
       <r>   22.5359    0.0000 </r>
       <r>   23.8960    0.0000 </r>
      </set>
      <set comment="kpoint 24">
       <r>   -2.6625    1.0000 </r>
       <r>   10.0176    0.0000 </r>
       <r>   10.1815    0.0000 </r>
       <r>   16.0677    0.0000 </r>
       <r>   19.7088    0.0000 </r>
       <r>   21.5172    0.0000 </r>
       <r>   21.5933    0.0000 </r>
       <r>   21.8580    0.0000 </r>
      </set>
      <set comment="kpoint 25">
       <r>   -2.3786    1.0000 </r>
       <r>   11.8259    0.0000 </r>
       <r>   12.2943    0.0000 </r>
       <r>   12.2943    0.0000 </r>
       <r>   14.4729    0.0000 </r>
       <r>   16.1604    0.0000 </r>
       <r>   26.9759    0.0000 </r>
       <r>   26.9760    0.0000 </r>
      </set>
      <set comment="kpoint 26">
       <r>   -1.3314    1.0000 </r>
       <r>    9.5822    0.0000 </r>
       <r>   10.6898    0.0000 </r>
       <r>   11.8555    0.0000 </r>
       <r>   14.6136    0.0000 </r>
       <r>   16.5901    0.0000 </r>
       <r>   26.4888    0.0000 </r>
       <r>   27.6370    0.0000 </r>
      </set>
      <set comment="kpoint 27">
       <r>    0.1158    1.0000 </r>
       <r>    6.8771    1.0000 </r>
       <r>    9.1566    0.0000 </r>
       <r>   11.7840    0.0000 </r>
       <r>   14.5908    0.0000 </r>
       <r>   18.9794    0.0000 </r>
       <r>   25.4140    0.0000 </r>
       <r>   27.3467    0.0000 </r>
      </set>
      <set comment="kpoint 28">
       <r>    1.8854    1.0000 </r>
       <r>    4.4110    1.0000 </r>
       <r>    8.0406    0.0183 </r>
       <r>   12.0791    0.0000 </r>
       <r>   14.9070    0.0000 </r>
       <r>   21.7938    0.0000 </r>
       <r>   24.4821    0.0000 </r>
       <r>   26.6761    0.0000 </r>
      </set>
      <set comment="kpoint 29">
       <r>    1.8644    1.0000 </r>
       <r>    4.4492    1.0000 </r>
       <r>    7.3187    1.0000 </r>
       <r>   12.7321    0.0000 </r>
       <r>   15.6341    0.0000 </r>
       <r>   23.8349    0.0000 </r>
       <r>   24.3924    0.0000 </r>
       <r>   25.9306    0.0000 </r>
      </set>
      <set comment="kpoint 30">
       <r>    0.1005    1.0000 </r>
       <r>    6.8393    1.0000 </r>
       <r>    7.1220    1.0000 </r>
       <r>   13.7151    0.0000 </r>
       <r>   16.7529    0.0000 </r>
       <r>   23.1958    0.0000 </r>
       <r>   24.2624    0.0000 </r>
       <r>   24.2992    0.0000 </r>
      </set>
      <set comment="kpoint 31">
       <r>   -0.4260    1.0000 </r>
       <r>    8.3652    0.0000 </r>
       <r>   11.2958    0.0000 </r>
       <r>   11.2958    0.0000 </r>
       <r>   13.3705    0.0000 </r>
       <r>   14.7021    0.0000 </r>
       <r>   29.1054    0.0000 </r>
       <r>   29.6256    0.0000 </r>
      </set>
      <set comment="kpoint 32">
       <r>    0.8833    1.0000 </r>
       <r>    6.7330    1.0000 </r>
       <r>    9.2571    0.0000 </r>
       <r>   11.1055    0.0000 </r>
       <r>   13.7075    0.0000 </r>
       <r>   15.7466    0.0000 </r>
       <r>   28.4501    0.0000 </r>
       <r>   30.0091    0.0000 </r>
      </set>
      <set comment="kpoint 33">
       <r>    2.5576    1.0000 </r>
       <r>    5.3324    1.0000 </r>
       <r>    6.8260    1.0000 </r>
       <r>   11.2868    0.0000 </r>
       <r>   13.9865    0.0000 </r>
       <r>   18.4980    0.0000 </r>
       <r>   27.4854    0.0000 </r>
       <r>   29.1336    0.0000 </r>
      </set>
      <set comment="kpoint 34">
       <r>    3.5197    1.0000 </r>
       <r>    4.6879    1.0000 </r>
       <r>    5.4056    1.0000 </r>
       <r>   11.8349    0.0000 </r>
       <r>   14.6127    0.0000 </r>
       <r>   21.6406    0.0000 </r>
       <r>   26.3087    0.0000 </r>
       <r>   27.6075    0.0000 </r>
      </set>
      <set comment="kpoint 35">
       <r>    2.0510    1.0000 </r>
       <r>    5.0105    1.0000 </r>
       <r>   10.7933    0.0000 </r>
       <r>   10.7933    0.0000 </r>
       <r>   12.8069    0.0000 </r>
       <r>   14.0598    0.0000 </r>
       <r>   30.3532    0.0000 </r>
       <r>   31.6516    0.0000 </r>
      </set>
      <set comment="kpoint 36">
       <r>    3.5911    1.0000 </r>
       <r>    3.6053    1.0000 </r>
       <r>    8.9529    0.0000 </r>
       <r>   10.8540    0.0000 </r>
       <r>   13.4108    0.0000 </r>
       <r>   15.4657    0.0000 </r>
       <r>   29.7687    0.0000 </r>
       <r>   31.1732    0.0000 </r>
      </set>
      <set comment="kpoint 37">
       <r>   -3.5044    1.0000 </r>
       <r>   12.0530    0.0000 </r>
       <r>   12.0881    0.0000 </r>
       <r>   15.8459    0.0000 </r>
       <r>   18.2852    0.0000 </r>
       <r>   19.7783    0.0000 </r>
       <r>   22.6879    0.0000 </r>
       <r>   23.2719    0.0000 </r>
      </set>
      <set comment="kpoint 38">
       <r>   -2.4523    1.0000 </r>
       <r>    8.8744    0.0000 </r>
       <r>   11.5987    0.0000 </r>
       <r>   14.7955    0.0000 </r>
       <r>   18.3300    0.0000 </r>
       <r>   20.3834    0.0000 </r>
       <r>   21.8994    0.0000 </r>
       <r>   23.8100    0.0000 </r>
      </set>
      <set comment="kpoint 39">
       <r>   -0.9986    1.0000 </r>
       <r>    5.9218    1.0000 </r>
       <r>   11.4719    0.0000 </r>
       <r>   13.6648    0.0000 </r>
       <r>   18.0687    0.0000 </r>
       <r>   20.1739    0.0000 </r>
       <r>   22.6242    0.0000 </r>
       <r>   24.5825    0.0000 </r>
      </set>
      <set comment="kpoint 40">
       <r>    0.7782    1.0000 </r>
       <r>    3.3832    1.0000 </r>
       <r>   11.6029    0.0000 </r>
       <r>   12.8624    0.0000 </r>
       <r>   18.0991    0.0000 </r>
       <r>   19.4583    0.0000 </r>
       <r>   23.1055    0.0000 </r>
       <r>   26.5764    0.0000 </r>
      </set>
      <set comment="kpoint 41">
       <r>   -2.1002    1.0000 </r>
       <r>   10.4613    0.0000 </r>
       <r>   10.5038    0.0000 </r>
       <r>   12.7781    0.0000 </r>
       <r>   16.7694    0.0000 </r>
       <r>   17.6341    0.0000 </r>
       <r>   24.1894    0.0000 </r>
       <r>   26.5263    0.0000 </r>
      </set>
      <set comment="kpoint 42">
       <r>   -0.7823    1.0000 </r>
       <r>    7.5266    1.0000 </r>
       <r>   10.1169    0.0000 </r>
       <r>   11.4966    0.0000 </r>
       <r>   16.9183    0.0000 </r>
       <r>   19.4620    0.0000 </r>
       <r>   23.1154    0.0000 </r>
       <r>   26.9449    0.0000 </r>
      </set>
      <set comment="kpoint 43">
       <r>    0.9057    1.0000 </r>
       <r>    4.8575    1.0000 </r>
       <r>    9.6284    0.0000 </r>
       <r>   10.9781    0.0000 </r>
       <r>   17.0748    0.0000 </r>
       <r>   21.3755    0.0000 </r>
       <r>   22.8489    0.0000 </r>
       <r>   26.5978    0.0000 </r>
      </set>
      <set comment="kpoint 44">
       <r>    2.0322    1.0000 </r>
       <r>    3.4858    1.0000 </r>
       <r>    8.9764    0.0000 </r>
       <r>   11.3610    0.0000 </r>
       <r>   17.5898    0.0000 </r>
       <r>   21.0640    0.0000 </r>
       <r>   24.9283    0.0000 </r>
       <r>   25.5254    0.0000 </r>
      </set>
      <set comment="kpoint 45">
       <r>    0.3028    1.0000 </r>
       <r>    5.7186    1.0000 </r>
       <r>    8.5777    0.0000 </r>
       <r>   12.2388    0.0000 </r>
       <r>   18.4139    0.0000 </r>
       <r>   20.7510    0.0000 </r>
       <r>   23.1593    0.0000 </r>
       <r>   26.0412    0.0000 </r>
      </set>
      <set comment="kpoint 46">
       <r>   -1.2695    1.0000 </r>
       <r>    8.4357    0.0000 </r>
       <r>    8.6316    0.0000 </r>
       <r>   13.4660    0.0000 </r>
       <r>   19.3335    0.0000 </r>
       <r>   20.3163    0.0000 </r>
       <r>   21.3569    0.0000 </r>
       <r>   25.4397    0.0000 </r>
      </set>
      <set comment="kpoint 47">
       <r>   -0.1534    1.0000 </r>
       <r>    8.3713    0.0000 </r>
       <r>    9.4546    0.0000 </r>
       <r>   10.1998    0.0000 </r>
       <r>   15.7213    0.0000 </r>
       <r>   16.4704    0.0000 </r>
       <r>   26.0356    0.0000 </r>
       <r>   29.4521    0.0000 </r>
      </set>
      <set comment="kpoint 48">
       <r>    1.4117    1.0000 </r>
       <r>    6.4760    1.0000 </r>
       <r>    7.6873    0.9982 </r>
       <r>    9.8535    0.0000 </r>
       <r>   16.1172    0.0000 </r>
       <r>   18.7895    0.0000 </r>
       <r>   25.0318    0.0000 </r>
       <r>   28.8624    0.0000 </r>
      </set>
      <set comment="kpoint 49">
       <r>    3.1273    1.0000 </r>
       <r>    4.4570    1.0000 </r>
       <r>    6.5744    1.0000 </r>
       <r>   10.2429    0.0000 </r>
       <r>   16.5679    0.0000 </r>
       <r>   21.6935    0.0000 </r>
       <r>   24.2726    0.0000 </r>
       <r>   26.4750    0.0000 </r>
      </set>
      <set comment="kpoint 50">
       <r>    1.9663    1.0000 </r>
       <r>    5.7648    1.0000 </r>
       <r>    6.0951    1.0000 </r>
       <r>   11.0551    0.0000 </r>
       <r>   17.3687    0.0000 </r>
       <r>   23.2375    0.0000 </r>
       <r>   23.3884    0.0000 </r>
       <r>   25.3891    0.0000 </r>
      </set>
      <set comment="kpoint 51">
       <r>    2.3114    1.0000 </r>
       <r>    5.2375    1.0000 </r>
       <r>    8.9274    0.0000 </r>
       <r>    9.4221    0.0000 </r>
       <r>   15.1935    0.0000 </r>
       <r>   15.9206    0.0000 </r>
       <r>   28.1275    0.0000 </r>
       <r>   30.0646    0.0000 </r>
      </set>
      <set comment="kpoint 52">
       <r>    3.9821    1.0000 </r>
       <r>    4.1473    1.0000 </r>
       <r>    6.7682    1.0000 </r>
       <r>    9.5304    0.0000 </r>
       <r>   15.8521    0.0000 </r>
       <r>   18.5542    0.0000 </r>
       <r>   27.2450    0.0000 </r>
       <r>   27.3500    0.0000 </r>
      </set>
      <set comment="kpoint 53">
       <r>    0.6562    1.0000 </r>
       <r>    7.3693    1.0000 </r>
       <r>    7.4396    1.0000 </r>
       <r>   10.0061    0.0000 </r>
       <r>   19.2928    0.0000 </r>
       <r>   19.3291    0.0000 </r>
       <r>   22.1485    0.0000 </r>
       <r>   28.4002    0.0000 </r>
      </set>
      <set comment="kpoint 54">
       <r>    2.4167    1.0000 </r>
       <r>    4.9441    1.0000 </r>
       <r>    7.5496    1.0000 </r>
       <r>    9.0527    0.0000 </r>
       <r>   19.3534    0.0000 </r>
       <r>   20.8086    0.0000 </r>
       <r>   22.7450    0.0000 </r>
       <r>   25.9151    0.0000 </r>
      </set>
      <set comment="kpoint 55">
       <r>    3.0664    1.0000 </r>
       <r>    5.7540    1.0000 </r>
       <r>    6.8331    1.0000 </r>
       <r>    7.8211    0.8445 </r>
       <r>   18.8243    0.0000 </r>
       <r>   19.0168    0.0000 </r>
       <r>   24.0938    0.0000 </r>
       <r>   26.5743    0.0000 </r>
      </set>
      <set comment="kpoint 56">
       <r>    4.0507    1.0000 </r>
       <r>    5.2258    1.0000 </r>
       <r>    5.7174    1.0000 </r>
       <r>    7.9700    0.1374 </r>
       <r>   19.3751    0.0000 </r>
       <r>   21.7046    0.0000 </r>
       <r>   22.9272    0.0000 </r>
       <r>   24.2299    0.0000 </r>
      </set>
     </set>
    </set>
   </array>
  </eigenvalues>
  <separator name="orbital magnetization" >
   <v name="MAGDIPOLOUT">      0.00000000      0.00000000      0.00000000</v>
  </separator>
  <dos>
   <i name="efermi">      7.89279834 </i>
   <total>
    <array>
     <dimension dim="1">gridpoints</dimension>
     <dimension dim="2">spin</dimension>
     <field>energy</field>
     <field>total</field>
     <field>integrated</field>
     <set>
      <set comment="spin 1">
       <r>    -6.7475     0.0000     0.0000 </r>
       <r>    -6.6134     0.0000     0.0000 </r>
       <r>    -6.4793     0.0000     0.0000 </r>
       <r>    -6.3452     0.0000     0.0000 </r>
       <r>    -6.2112     0.0000     0.0000 </r>
       <r>    -6.0771     0.0000     0.0000 </r>
       <r>    -5.9430     0.0000     0.0000 </r>
       <r>    -5.8089     0.0000     0.0000 </r>
       <r>    -5.6748     0.0000     0.0000 </r>
       <r>    -5.5407     0.0000     0.0000 </r>
       <r>    -5.4066     0.0000     0.0000 </r>
       <r>    -5.2725     0.0000     0.0000 </r>
       <r>    -5.1384     0.0000     0.0000 </r>
       <r>    -5.0043     0.0013     0.0002 </r>
       <r>    -4.8702     0.0081     0.0013 </r>
       <r>    -4.7361     0.0371     0.0062 </r>
       <r>    -4.6020     0.0939     0.0188 </r>
       <r>    -4.4680     0.0338     0.0234 </r>
       <r>    -4.3339     0.0755     0.0335 </r>
       <r>    -4.1998     0.1068     0.0478 </r>
       <r>    -4.0657     0.2219     0.0776 </r>
       <r>    -3.9316     0.0813     0.0885 </r>
       <r>    -3.7975     0.0309     0.0926 </r>
       <r>    -3.6634     0.0669     0.1016 </r>
       <r>    -3.5293     0.2680     0.1375 </r>
       <r>    -3.3952     0.2249     0.1677 </r>
       <r>    -3.2611     0.0961     0.1806 </r>
       <r>    -3.1270     0.1843     0.2053 </r>
       <r>    -2.9929     0.2217     0.2350 </r>
       <r>    -2.8588     0.1363     0.2533 </r>
       <r>    -2.7248     0.0306     0.2574 </r>
       <r>    -2.5907     0.1023     0.2711 </r>
       <r>    -2.4566     0.3133     0.3131 </r>
       <r>    -2.3225     0.4846     0.3781 </r>
       <r>    -2.1884     0.1104     0.3929 </r>
       <r>    -2.0543     0.1759     0.4165 </r>
       <r>    -1.9202     0.1891     0.4418 </r>
       <r>    -1.7861     0.3190     0.4846 </r>
       <r>    -1.6520     0.1011     0.4981 </r>
       <r>    -1.5179     0.0605     0.5063 </r>
       <r>    -1.3838     0.1726     0.5294 </r>
       <r>    -1.2497     0.4933     0.5955 </r>
       <r>    -1.1157     0.1862     0.6205 </r>
       <r>    -0.9816     0.3012     0.6609 </r>
       <r>    -0.8475     0.3731     0.7109 </r>
       <r>    -0.7134     0.5323     0.7823 </r>
       <r>    -0.5793     0.1160     0.7979 </r>
       <r>    -0.4452     0.0274     0.8015 </r>
       <r>    -0.3111     0.1042     0.8155 </r>
       <r>    -0.1770     0.4315     0.8734 </r>
       <r>    -0.0429     0.2977     0.9133 </r>
       <r>     0.0912     0.1750     0.9368 </r>
       <r>     0.2253     0.3503     0.9837 </r>
       <r>     0.3594     0.5512     1.0576 </r>
       <r>     0.4935     0.2322     1.0888 </r>
       <r>     0.6275     0.1059     1.1030 </r>
       <r>     0.7616     0.3938     1.1558 </r>
       <r>     0.8957     0.7642     1.2583 </r>
       <r>     1.0298     0.5764     1.3355 </r>
       <r>     1.1639     0.0469     1.3418 </r>
       <r>     1.2980     0.0302     1.3459 </r>
       <r>     1.4321     0.3611     1.3943 </r>
       <r>     1.5662     0.3742     1.4445 </r>
       <r>     1.7003     0.0451     1.4505 </r>
       <r>     1.8344     0.1597     1.4719 </r>
       <r>     1.9685     0.5682     1.5481 </r>
       <r>     2.1026     0.5716     1.6248 </r>
       <r>     2.2366     0.1507     1.6450 </r>
       <r>     2.3707     0.3778     1.6957 </r>
       <r>     2.5048     0.6281     1.7799 </r>
       <r>     2.6389     0.2627     1.8151 </r>
       <r>     2.7730     0.0485     1.8216 </r>
       <r>     2.9071     0.1310     1.8392 </r>
       <r>     3.0412     0.3417     1.8850 </r>
       <r>     3.1753     0.5286     1.9559 </r>
       <r>     3.3094     0.2304     1.9868 </r>
       <r>     3.4435     0.5220     2.0568 </r>
       <r>     3.5776     0.6298     2.1412 </r>
       <r>     3.7117     0.2545     2.1753 </r>
       <r>     3.8458     0.1893     2.2007 </r>
       <r>     3.9798     0.2459     2.2337 </r>
       <r>     4.1139     0.3914     2.2862 </r>
       <r>     4.2480     0.2480     2.3194 </r>
       <r>     4.3821     0.3995     2.3730 </r>
       <r>     4.5162     0.7698     2.4762 </r>
       <r>     4.6503     0.3202     2.5192 </r>
       <r>     4.7844     0.3157     2.5615 </r>
       <r>     4.9185     0.5689     2.6378 </r>
       <r>     5.0526     0.4674     2.7005 </r>
       <r>     5.1867     0.3227     2.7437 </r>
       <r>     5.3208     0.6082     2.8253 </r>
       <r>     5.4549     0.3496     2.8722 </r>
       <r>     5.5890     0.0932     2.8846 </r>
       <r>     5.7230     0.5595     2.9597 </r>
       <r>     5.8571     0.7863     3.0651 </r>
       <r>     5.9912     0.4371     3.1237 </r>
       <r>     6.1253     0.2470     3.1568 </r>
       <r>     6.2594     0.0889     3.1688 </r>
       <r>     6.3935     0.0792     3.1794 </r>
       <r>     6.5276     0.6130     3.2616 </r>
       <r>     6.6617     0.6527     3.3491 </r>
       <r>     6.7958     0.6354     3.4343 </r>
       <r>     6.9299     0.7390     3.5334 </r>
       <r>     7.0640     0.2940     3.5728 </r>
       <r>     7.1981     0.2068     3.6006 </r>
       <r>     7.3321     0.2651     3.6361 </r>
       <r>     7.4662     0.6623     3.7249 </r>
       <r>     7.6003     1.0500     3.8657 </r>
       <r>     7.7344     0.6114     3.9477 </r>
       <r>     7.8685     0.3363     3.9928 </r>
       <r>     8.0026     0.4222     4.0494 </r>
       <r>     8.1367     0.3908     4.1018 </r>
       <r>     8.2708     0.0721     4.1115 </r>
       <r>     8.4049     0.3485     4.1582 </r>
       <r>     8.5390     0.4701     4.2212 </r>
       <r>     8.6731     0.5257     4.2917 </r>
       <r>     8.8072     0.2306     4.3227 </r>
       <r>     8.9413     0.7479     4.4229 </r>
       <r>     9.0753     0.9387     4.5488 </r>
       <r>     9.2094     0.4895     4.6145 </r>
       <r>     9.3435     0.2917     4.6536 </r>
       <r>     9.4776     0.4574     4.7149 </r>
       <r>     9.6117     0.8379     4.8273 </r>
       <r>     9.7458     0.5704     4.9038 </r>
       <r>     9.8799     0.4725     4.9671 </r>
       <r>    10.0140     0.6337     5.0521 </r>
       <r>    10.1481     0.8431     5.1651 </r>
       <r>    10.2822     0.8014     5.2726 </r>
       <r>    10.4163     0.2996     5.3128 </r>
       <r>    10.5504     0.4308     5.3705 </r>
       <r>    10.6844     0.5143     5.4395 </r>
       <r>    10.8185     0.4182     5.4956 </r>
       <r>    10.9526     0.3615     5.5441 </r>
       <r>    11.0867     0.6834     5.6357 </r>
       <r>    11.2208     0.5002     5.7028 </r>
       <r>    11.3549     0.5916     5.7821 </r>
       <r>    11.4890     1.0888     5.9281 </r>
       <r>    11.6231     1.2366     6.0939 </r>
       <r>    11.7572     0.6142     6.1763 </r>
       <r>    11.8913     0.4771     6.2403 </r>
       <r>    12.0254     0.3376     6.2855 </r>
       <r>    12.1595     0.5848     6.3639 </r>
       <r>    12.2936     0.5057     6.4318 </r>
       <r>    12.4276     0.1847     6.4565 </r>
       <r>    12.5617     0.1101     6.4713 </r>
       <r>    12.6958     0.3299     6.5155 </r>
       <r>    12.8299     0.9552     6.6436 </r>
       <r>    12.9640     1.0026     6.7780 </r>
       <r>    13.0981     0.5109     6.8466 </r>
       <r>    13.2322     0.3912     6.8990 </r>
       <r>    13.3663     0.5206     6.9688 </r>
       <r>    13.5004     0.3887     7.0210 </r>
       <r>    13.6345     0.3399     7.0665 </r>
       <r>    13.7686     0.7910     7.1726 </r>
       <r>    13.9027     0.6879     7.2648 </r>
       <r>    14.0367     0.8413     7.3777 </r>
       <r>    14.1708     0.5129     7.4464 </r>
       <r>    14.3049     0.1991     7.4731 </r>
       <r>    14.4390     0.1158     7.4887 </r>
       <r>    14.5731     0.5783     7.5662 </r>
       <r>    14.7072     0.7403     7.6655 </r>
       <r>    14.8413     0.6955     7.7587 </r>
       <r>    14.9754     0.5705     7.8352 </r>
       <r>    15.1095     0.3915     7.8877 </r>
       <r>    15.2436     0.6027     7.9685 </r>
       <r>    15.3777     0.3421     8.0144 </r>
       <r>    15.5118     0.2523     8.0482 </r>
       <r>    15.6459     0.3359     8.0933 </r>
       <r>    15.7799     0.6947     8.1864 </r>
       <r>    15.9140     1.0760     8.3307 </r>
       <r>    16.0481     0.9586     8.4592 </r>
       <r>    16.1822     0.8163     8.5687 </r>
       <r>    16.3163     0.4650     8.6311 </r>
       <r>    16.4504     0.2182     8.6603 </r>
       <r>    16.5845     0.6284     8.7446 </r>
       <r>    16.7186     0.7149     8.8405 </r>
       <r>    16.8527     0.5386     8.9127 </r>
       <r>    16.9868     0.5574     8.9874 </r>
       <r>    17.1209     0.6051     9.0686 </r>
       <r>    17.2550     0.2852     9.1068 </r>
       <r>    17.3891     0.3286     9.1509 </r>
       <r>    17.5231     0.3537     9.1983 </r>
       <r>    17.6572     0.7283     9.2960 </r>
       <r>    17.7913     0.4300     9.3536 </r>
       <r>    17.9254     0.0739     9.3635 </r>
       <r>    18.0595     0.4223     9.4201 </r>
       <r>    18.1936     0.9312     9.5450 </r>
       <r>    18.3277     1.0706     9.6886 </r>
       <r>    18.4618     1.1222     9.8390 </r>
       <r>    18.5959     0.7851     9.9443 </r>
       <r>    18.7300     0.3303     9.9886 </r>
       <r>    18.8641     0.5481    10.0621 </r>
       <r>    18.9982     0.4520    10.1227 </r>
       <r>    19.1322     0.3904    10.1751 </r>
       <r>    19.2663     0.5540    10.2493 </r>
       <r>    19.4004     1.4505    10.4438 </r>
       <r>    19.5345     1.2787    10.6153 </r>
       <r>    19.6686     0.5826    10.6934 </r>
       <r>    19.8027     0.5505    10.7672 </r>
       <r>    19.9368     0.5541    10.8415 </r>
       <r>    20.0709     0.4645    10.9038 </r>
       <r>    20.2050     0.6774    10.9947 </r>
       <r>    20.3391     0.7906    11.1007 </r>
       <r>    20.4732     0.5454    11.1738 </r>
       <r>    20.6073     0.2521    11.2076 </r>
       <r>    20.7414     0.8026    11.3153 </r>
       <r>    20.8754     1.1106    11.4642 </r>
       <r>    21.0095     0.9812    11.5957 </r>
       <r>    21.1436     1.2201    11.7593 </r>
       <r>    21.2777     0.7979    11.8663 </r>
       <r>    21.4118     0.6583    11.9546 </r>
       <r>    21.5459     0.4590    12.0162 </r>
       <r>    21.6800     0.7151    12.1120 </r>
       <r>    21.8141     0.8492    12.2259 </r>
       <r>    21.9482     0.6463    12.3126 </r>
       <r>    22.0823     0.5739    12.3895 </r>
       <r>    22.2164     0.4737    12.4531 </r>
       <r>    22.3505     0.1783    12.4770 </r>
       <r>    22.4845     0.5449    12.5500 </r>
       <r>    22.6186     0.8946    12.6700 </r>
       <r>    22.7527     0.9461    12.7969 </r>
       <r>    22.8868     1.0201    12.9336 </r>
       <r>    23.0209     0.8349    13.0456 </r>
       <r>    23.1550     1.1411    13.1986 </r>
       <r>    23.2891     0.9715    13.3289 </r>
       <r>    23.4232     0.3677    13.3782 </r>
       <r>    23.5573     0.1638    13.4002 </r>
       <r>    23.6914     0.2410    13.4325 </r>
       <r>    23.8255     0.5808    13.5104 </r>
       <r>    23.9596     0.5653    13.5862 </r>
       <r>    24.0937     0.2732    13.6228 </r>
       <r>    24.2277     0.7279    13.7204 </r>
       <r>    24.3618     1.1230    13.8710 </r>
       <r>    24.4959     0.7235    13.9680 </r>
       <r>    24.6300     0.7362    14.0667 </r>
       <r>    24.7641     0.5668    14.1427 </r>
       <r>    24.8982     0.6726    14.2329 </r>
       <r>    25.0323     0.9851    14.3650 </r>
       <r>    25.1664     0.5782    14.4425 </r>
       <r>    25.3005     0.2226    14.4724 </r>
       <r>    25.4346     0.5067    14.5403 </r>
       <r>    25.5687     0.6405    14.6262 </r>
       <r>    25.7028     0.1574    14.6473 </r>
       <r>    25.8369     0.1011    14.6609 </r>
       <r>    25.9709     0.6507    14.7481 </r>
       <r>    26.1050     0.7183    14.8444 </r>
       <r>    26.2391     0.1725    14.8676 </r>
       <r>    26.3732     0.2684    14.9036 </r>
       <r>    26.5073     0.9239    15.0274 </r>
       <r>    26.6414     1.4666    15.2241 </r>
       <r>    26.7755     0.6345    15.3092 </r>
       <r>    26.9096     0.2312    15.3402 </r>
       <r>    27.0437     0.4173    15.3961 </r>
       <r>    27.1778     0.1154    15.4116 </r>
       <r>    27.3119     0.3379    15.4569 </r>
       <r>    27.4460     0.4537    15.5178 </r>
       <r>    27.5800     0.3134    15.5598 </r>
       <r>    27.7141     0.2785    15.5971 </r>
       <r>    27.8482     0.0456    15.6033 </r>
       <r>    27.9823     0.0058    15.6040 </r>
       <r>    28.1164     0.1123    15.6191 </r>
       <r>    28.2505     0.1454    15.6386 </r>
       <r>    28.3846     0.1643    15.6606 </r>
       <r>    28.5187     0.3221    15.7038 </r>
       <r>    28.6528     0.0575    15.7115 </r>
       <r>    28.7869     0.0766    15.7218 </r>
       <r>    28.9210     0.3522    15.7690 </r>
       <r>    29.0551     0.1591    15.7903 </r>
       <r>    29.1892     0.2200    15.8199 </r>
       <r>    29.3232     0.0742    15.8298 </r>
       <r>    29.4573     0.1349    15.8479 </r>
       <r>    29.5914     0.1413    15.8668 </r>
       <r>    29.7255     0.0829    15.8779 </r>
       <r>    29.8596     0.0951    15.8907 </r>
       <r>    29.9937     0.1620    15.9124 </r>
       <r>    30.1278     0.3217    15.9556 </r>
       <r>    30.2619     0.0683    15.9647 </r>
       <r>    30.3960     0.0431    15.9705 </r>
       <r>    30.5301     0.0179    15.9729 </r>
       <r>    30.6642     0.0004    15.9730 </r>
       <r>    30.7983     0.0000    15.9730 </r>
       <r>    30.9323     0.0000    15.9730 </r>
       <r>    31.0664     0.0088    15.9741 </r>
       <r>    31.2005     0.0786    15.9847 </r>
       <r>    31.3346     0.0455    15.9908 </r>
       <r>    31.4687     0.0018    15.9910 </r>
       <r>    31.6028     0.0162    15.9932 </r>
       <r>    31.7369     0.0431    15.9990 </r>
       <r>    31.8710     0.0076    16.0000 </r>
       <r>    32.0051     0.0001    16.0000 </r>
       <r>    32.1392     0.0000    16.0000 </r>
       <r>    32.2733     0.0000    16.0000 </r>
       <r>    32.4074     0.0000    16.0000 </r>
       <r>    32.5415     0.0000    16.0000 </r>
       <r>    32.6755     0.0000    16.0000 </r>
       <r>    32.8096     0.0000    16.0000 </r>
       <r>    32.9437     0.0000    16.0000 </r>
       <r>    33.0778     0.0000    16.0000 </r>
       <r>    33.2119     0.0000    16.0000 </r>
       <r>    33.3460     0.0000    16.0000 </r>
       <r>    33.4801     0.0000    16.0000 </r>
      </set>
     </set>
    </array>
   </total>
  </dos>
 </calculation>
 <structure name="finalpos" >
  <crystal>
   <varray name="basis" >
    <v>       2.05000000       2.05000000       0.00000000 </v>
    <v>       0.00000000       2.05000000       2.05000000 </v>
    <v>       2.05000000       0.00000000       2.05000000 </v>
   </varray>
   <i name="volume">     17.23025000 </i>
   <varray name="rec_basis" >
    <v>       0.24390244       0.24390244      -0.24390244 </v>
    <v>      -0.24390244       0.24390244       0.24390244 </v>
    <v>       0.24390244      -0.24390244       0.24390244 </v>
   </varray>
  </crystal>
  <varray name="positions" >
   <v>       0.00000000       0.00000000       0.00000000 </v>
  </varray>
 </structure>
</modeling>
