fcc Si                                  
   4.00000000000000     
     0.500000    0.500000    0.000000
     0.000000    0.500000    0.500000
     0.500000    0.000000    0.500000
   Si
     1
Direct
  0.000000  0.000000  0.000000
 
   24   24   24
 -2.7187     -2.0885     -.39574      1.8424      3.9886      5.5192      6.1936      6.0934      5.5319      4.8849    
  4.3595      4.0231      3.9079      4.0231      4.3595      4.8849      5.5319      6.0934      6.1936      5.5192    
  3.9886      1.8424     -.39574     -2.0885     -2.0885     -.92831      1.0273      3.1913      4.9773      6.0065    
  6.2123      5.8093      5.1597      4.5656      4.1327      3.9069      3.9069      4.1327      4.5656      5.1597    
  5.8093      6.2123      6.0065      4.9773      3.1913      1.0273     -.92833     -2.0885     -.39574      1.0273    
  2.8864      4.6265      5.8006      6.2188      5.9774      5.3724      4.7361      4.2274      3.9040      3.7936    
  3.9040      4.2273      4.7361      5.3724      5.9774      6.2189      5.8007      4.6265      2.8864      1.0273    
 -.39575     -.92833      1.8424      3.1913      4.6265      5.7136      6.1934      6.0572      5.5122      4.8616    
  4.3012      3.8999      3.6926      3.6926      3.8999      4.3011      4.8615      5.5122      6.0572      6.1934    
  5.7137      4.6265      3.1913      1.8425      1.0273      1.0273      3.9886      4.9773      5.8006      6.1934    
  6.0791      5.5794      4.9376      4.3510      3.8957      3.6112      3.5148      3.6112      3.8957      4.3510    
  4.9376      5.5794      6.0792      6.1934      5.8007      4.9773      3.9887      3.1913      2.8864      3.1913    
  5.5192      6.0065      6.2188      6.0572      5.5794      4.9630      4.3760      3.8924      3.5544      3.3821    
  3.3821      3.5544      3.8925      4.3760      4.9630      5.5794      6.0572      6.2189      6.0066      5.5193    
  4.9773      4.6265      4.6265      4.9773      6.1936      6.2123      5.9774      5.5122      4.9376      4.3760    
  3.8912      3.5254      3.3006      3.2252      3.3007      3.5254      3.8913      4.3760      4.9376      5.5122    
  5.9774      6.2123      6.1936      6.0066      5.8007      5.7137      5.8007      6.0065      6.0934      5.8093    
  5.3724      4.8616      4.3510      3.8924      3.5254      3.2732      3.1459      3.1459      3.2733      3.5254    
  3.8925      4.3511      4.8616      5.3724      5.8093      6.0935      6.2123      6.2189      6.1934      6.1934    
  6.2189      6.2123      5.5319      5.1597      4.7361      4.3012      3.8957      3.5544      3.3006      3.1459    
  3.0941      3.1459      3.3006      3.5544      3.8957      4.3012      4.7361      5.1598      5.5319      5.8093    
  5.9774      6.0572      6.0792      6.0572      5.9774      5.8093      4.8849      4.5656      4.2274      3.8999    
  3.6112      3.3821      3.2252      3.1459      3.1459      3.2251      3.3820      3.6111      3.8999      4.2274    
  4.5657      4.8850      5.1598      5.3724      5.5122      5.5794      5.5794      5.5122      5.3724      5.1597    
  4.3595      4.1327      3.9040      3.6926      3.5148      3.3821      3.3007      3.2733      3.3006      3.3820    
  3.5148      3.6926      3.9040      4.1328      4.3596      4.5657      4.7361      4.8616      4.9376      4.9630    
  4.9376      4.8615      4.7361      4.5656      4.0231      3.9069      3.7936      3.6926      3.6112      3.5544    
  3.5254      3.5254      3.5544      3.6111      3.6926      3.7936      3.9069      4.0231      4.1328      4.2274    
  4.3012      4.3511      4.3760      4.3760      4.3510      4.3011      4.2273      4.1327      3.9079      3.9069    
  3.9040      3.8999      3.8957      3.8925      3.8913      3.8925      3.8957      3.8999      3.9040      3.9069    
  3.9079      3.9069      3.9040      3.8999      3.8957      3.8925      3.8913      3.8925      3.8957      3.8999    
  3.9040      3.9069      4.0231      4.1327      4.2273      4.3011      4.3510      4.3760      4.3760      4.3511    
  4.3012      4.2274      4.1328      4.0231      3.9069      3.7936      3.6926      3.6111      3.5544      3.5254    
  3.5254      3.5544      3.6112      3.6926      3.7936      3.9069      4.3595      4.5656      4.7361      4.8615    
  4.9376      4.9630      4.9376      4.8616      4.7361      4.5657      4.3596      4.1328      3.9040      3.6926    
  3.5148      3.3820      3.3006      3.2733      3.3007      3.3821      3.5148      3.6926      3.9040      4.1327    
  4.8849      5.1597      5.3724      5.5122      5.5794      5.5794      5.5122      5.3724      5.1598      4.8850    
  4.5657      4.2274      3.8999      3.6111      3.3820      3.2251      3.1459      3.1459      3.2252      3.3821    
  3.6112      3.8999      4.2274      4.5656      5.5319      5.8093      5.9774      6.0572      6.0792      6.0572    
  5.9774      5.8093      5.5319      5.1598      4.7361      4.3012      3.8957      3.5544      3.3006      3.1459    
  3.0941      3.1459      3.3006      3.5544      3.8957      4.3012      4.7361      5.1597      6.0934      6.2123    
  6.2189      6.1934      6.1934      6.2189      6.2123      6.0935      5.8093      5.3724      4.8616      4.3511    
  3.8925      3.5254      3.2733      3.1459      3.1459      3.2732      3.5254      3.8924      4.3510      4.8616    
  5.3724      5.8093      6.1936      6.0065      5.8007      5.7137      5.8007      6.0066      6.1936      6.2123    
  5.9774      5.5122      4.9376      4.3760      3.8913      3.5254      3.3007      3.2252      3.3006      3.5254    
  3.8912      4.3760      4.9376      5.5122      5.9774      6.2123      5.5192      4.9773      4.6265      4.6265    
  4.9773      5.5193      6.0066      6.2189      6.0572      5.5794      4.9630      4.3760      3.8925      3.5544    
  3.3821      3.3821      3.5544      3.8924      4.3760      4.9630      5.5794      6.0572      6.2188      6.0065    
  3.9886      3.1913      2.8864      3.1913      3.9887      4.9773      5.8007      6.1934      6.0792      5.5794    
  4.9376      4.3510      3.8957      3.6112      3.5148      3.6112      3.8957      4.3510      4.9376      5.5794    
  6.0791      6.1934      5.8006      4.9773      1.8424      1.0273      1.0273      1.8425      3.1913      4.6265    
  5.7137      6.1934      6.0572      5.5122      4.8615      4.3011      3.8999      3.6926      3.6926      3.8999    
  4.3012      4.8616      5.5122      6.0572      6.1934      5.7136      4.6265      3.1913     -.39574     -.92833    
 -.39575      1.0273      2.8864      4.6265      5.8007      6.2189      5.9774      5.3724      4.7361      4.2273    
  3.9040      3.7936      3.9040      4.2274      4.7361      5.3724      5.9774      6.2188      5.8006      4.6265    
  2.8864      1.0273     -2.0885     -2.0885     -.92833      1.0273      3.1913      4.9773      6.0065      6.2123    
  5.8093      5.1597      4.5656      4.1327      3.9069      3.9069      4.1327      4.5656      5.1597      5.8093    
  6.2123      6.0065      4.9773      3.1913      1.0273     -.92831     -2.0885     -.92831      1.0273      3.1913    
  4.9773      6.0065      6.2123      5.8093      5.1597      4.5656      4.1327      3.9069      3.9069      4.1327    
  4.5656      5.1597      5.8093      6.2123      6.0065      4.9773      3.1913      1.0273     -.92833     -2.0885    
 -.92831     0.58375      2.5671      4.4391      5.7276      6.2267      6.0287      5.4357      4.7949      4.2802    
  3.9523      3.8403      3.9523      4.2802      4.7948      5.4357      6.0287      6.2267      5.7276      4.4391    
  2.5671     0.58371     -.92834     -1.4933      1.0273      2.5671      4.2293      5.5309      6.1758      6.1388    
  5.6309      4.9760      4.4034      3.9912      3.7776      3.7776      3.9912      4.4033      4.9760      5.6309    
  6.1388      6.1759      5.5309      4.2293      2.5671      1.0273     0.10286     0.10287      3.1913      4.4391    
  5.5309      6.1469      6.1783      5.7419      5.1001      4.4951      4.0214      3.7240      3.6231      3.7240    
  4.0214      4.4950      5.1000      5.7419      6.1784      6.1469      5.5310      4.4391      3.1913      2.2057    
  1.8320      2.2057      4.9773      5.7276      6.1758      6.1783      5.7773      5.1627      4.5512      4.0418    
  3.6833      3.4998      3.4998      3.6833      4.0418      4.5512      5.1627      5.7772      6.1783      6.1759    
  5.7277      4.9773      4.2075      3.7242      3.7242      4.2074      6.0065      6.2267      6.1388      5.7419    
  5.1627      4.5700      4.0519      3.6579      3.4148      3.3330      3.4148      3.6580      4.0520      4.5700    
  5.1627      5.7419      6.1388      6.2268      6.0065      5.6116      5.2494      5.1043      5.2494      5.6116    
  6.2123      6.0287      5.6309      5.1001      4.5512      4.0519      3.6493      3.3716      3.2310      3.2310    
  3.3716      3.6494      4.0520      4.5512      5.1000      5.6309      6.0287      6.2123      6.1951      6.0726    
  5.9688      5.9688      6.0725      6.1951      5.8093      5.4357      4.9760      4.4951      4.0418      3.6579    
  3.3716      3.1968      3.1383      3.1968      3.3716      3.6580      4.0418      4.4951      4.9760      5.4356    
  5.8093      6.0445      6.1480      6.1712      6.1708      6.1712      6.1480      6.0445      5.1597      4.7949    
  4.4034      4.0214      3.6833      3.4148      3.2310      3.1383      3.1383      3.2310      3.4148      3.6833    
  4.0214      4.4034      4.7949      5.1597      5.4667      5.6878      5.8181      5.8749      5.8749      5.8181    
  5.6878      5.4667      4.5656      4.2802      3.9912      3.7240      3.4998      3.3330      3.2310      3.1968    
  3.2310      3.3329      3.4997      3.7240      3.9912      4.2802      4.5657      4.8232      5.0341      5.1875    
  5.2792      5.3093      5.2792      5.1875      5.0341      4.8232      4.1327      3.9523      3.7776      3.6231    
  3.4998      3.4148      3.3716      3.3716      3.4148      3.4997      3.6230      3.7776      3.9523      4.1328    
  4.3035      4.4512      4.5663      4.6440      4.6828      4.6828      4.6439      4.5662      4.4511      4.3035    
  3.9069      3.8403      3.7776      3.7240      3.6833      3.6580      3.6494      3.6580      3.6833      3.7240    
  3.7776      3.8402      3.9069      3.9716      4.0291      4.0753      4.1082      4.1276      4.1339      4.1275    
  4.1081      4.0752      4.0290      3.9716      3.9069      3.9523      3.9912      4.0214      4.0418      4.0520    
  4.0520      4.0418      4.0214      3.9912      3.9523      3.9069      3.8580      3.8095      3.7651      3.7282    
  3.7017      3.6878      3.6878      3.7017      3.7281      3.7651      3.8096      3.8581      4.1327      4.2802    
  4.4033      4.4950      4.5512      4.5700      4.5512      4.4951      4.4034      4.2802      4.1328      3.9716    
  3.8095      3.6595      3.5328      3.4374      3.3785      3.3586      3.3785      3.4374      3.5328      3.6596    
  3.8096      3.9716      4.5656      4.7948      4.9760      5.1000      5.1627      5.1627      5.1000      4.9760    
  4.7949      4.5657      4.3035      4.0291      3.7651      3.5328      3.3482      3.2215      3.1573      3.1573    
  3.2215      3.3483      3.5328      3.7651      4.0291      4.3035      5.1597      5.4357      5.6309      5.7419    
  5.7772      5.7419      5.6309      5.4356      5.1597      4.8232      4.4512      4.0753      3.7282      3.4374    
  3.2215      3.0898      3.0457      3.0898      3.2215      3.4374      3.7282      4.0752      4.4511      4.8232    
  5.8093      6.0287      6.1388      6.1784      6.1783      6.1388      6.0287      5.8093      5.4667      5.0341    
  4.5663      4.1082      3.7017      3.3785      3.1573      3.0457      3.0457      3.1573      3.3785      3.7017    
  4.1082      4.5662      5.0341      5.4667      6.2123      6.2267      6.1759      6.1469      6.1759      6.2268    
  6.2123      6.0445      5.6878      5.1875      4.6440      4.1276      3.6878      3.3586      3.1573      3.0898    
  3.1573      3.3586      3.6878      4.1275      4.6440      5.1875      5.6878      6.0445      6.0065      5.7276    
  5.5309      5.5310      5.7277      6.0065      6.1951      6.1480      5.8181      5.2792      4.6828      4.1339    
  3.6878      3.3785      3.2215      3.2215      3.3785      3.6878      4.1339      4.6828      5.2792      5.8181    
  6.1480      6.1951      4.9773      4.4391      4.2293      4.4391      4.9773      5.6116      6.0726      6.1712    
  5.8749      5.3093      4.6828      4.1275      3.7017      3.4374      3.3483      3.4374      3.7017      4.1275    
  4.6828      5.3093      5.8749      6.1711      6.0725      5.6116      3.1913      2.5671      2.5671      3.1913    
  4.2075      5.2494      5.9688      6.1708      5.8749      5.2792      4.6439      4.1081      3.7281      3.5328    
  3.5328      3.7282      4.1082      4.6440      5.2792      5.8749      6.1708      5.9687      5.2494      4.2074    
  1.0273     0.58371      1.0273      2.2057      3.7242      5.1043      5.9688      6.1712      5.8181      5.1875    
  4.5662      4.0752      3.7651      3.6596      3.7651      4.0752      4.5662      5.1875      5.8181      6.1711    
  5.9687      5.1043      3.7242      2.2057     -.92833     -.92834     0.10286      1.8320      3.7242      5.2494    
  6.0725      6.1480      5.6878      5.0341      4.4511      4.0290      3.8096      3.8096      4.0291      4.4511    
  5.0341      5.6878      6.1480      6.0725      5.2494      3.7242      1.8320     0.10287     -2.0885     -1.4933    
 0.10287      2.2057      4.2074      5.6116      6.1951      6.0445      5.4667      4.8232      4.3035      3.9716    
  3.8581      3.9716      4.3035      4.8232      5.4667      6.0445      6.1951      5.6116      4.2074      2.2057    
 0.10287     -1.4933     -.39574      1.0273      2.8864      4.6265      5.8006      6.2188      5.9774      5.3724    
  4.7361      4.2274      3.9040      3.7936      3.9040      4.2273      4.7361      5.3724      5.9774      6.2189    
  5.8007      4.6265      2.8864      1.0273     -.39575     -.92833      1.0273      2.5671      4.2293      5.5309    
  6.1758      6.1388      5.6309      4.9760      4.4034      3.9912      3.7776      3.7776      3.9912      4.4033    
  4.9760      5.6309      6.1388      6.1759      5.5309      4.2293      2.5671      1.0273     0.10286     0.10287    
  2.8864      4.2293      5.4202      6.1194      6.2063      5.7956      5.1559      4.5448      4.0650      3.7632    
  3.6606      3.7631      4.0650      4.5448      5.1558      5.7956      6.2064      6.1194      5.4202      4.2293    
  2.8864      1.8320      1.4331      1.8320      4.6265      5.5309      6.1194      6.2227      5.8731      5.2666    
  4.6432      4.1206      3.7514      3.5621      3.5621      3.7514      4.1206      4.6431      5.2665      5.8731    
  6.2227      6.1194      5.5310      4.6265      3.7242      3.1643      3.1643      3.7242      5.8006      6.1758    
  6.2063      5.8731      5.3038      4.6934      4.1550      3.7432      3.4883      3.4024      3.4883      3.7432    
  4.1550      4.6934      5.3037      5.8731      6.2063      6.1758      5.8007      5.2494      4.7709      4.5828    
  4.7709      5.2494      6.2188      6.1388      5.7956      5.2666      4.6934      4.1666      3.7390      3.4428    
  3.2926      3.2926      3.4429      3.7390      4.1666      4.6934      5.2665      5.7956      6.1387      6.2188    
  6.0725      5.8318      5.6574      5.6574      5.8318      6.0725      5.9774      5.6309      5.1559      4.6432    
  4.1550      3.7390      3.4275      3.2371      3.1733      3.2371      3.4276      3.7390      4.1550      4.6432    
  5.1558      5.6309      5.9774      6.1480      6.1718      6.1300      6.1048      6.1300      6.1718      6.1480    
  5.3724      4.9760      4.5448      4.1206      3.7432      3.4428      3.2371      3.1333      3.1333      3.2371    
  3.4429      3.7432      4.1206      4.5448      4.9760      5.3724      5.6877      5.8901      5.9910      6.0267    
  6.0267      5.9910      5.8901      5.6878      4.7361      4.4034      4.0650      3.7514      3.4883      3.2926    
  3.1733      3.1333      3.1732      3.2926      3.4882      3.7514      4.0650      4.4034      4.7361      5.0341    
  5.2755      5.4455      5.5415      5.5718      5.5415      5.4455      5.2755      5.0341      4.2274      3.9912    
  3.7632      3.5621      3.4024      3.2926      3.2371      3.2371      3.2926      3.4023      3.5620      3.7631    
  3.9912      4.2274      4.4512      4.6446      4.7952      4.8968      4.9475      4.9475      4.8967      4.7952    
  4.6446      4.4511      3.9040      3.7776      3.6606      3.5621      3.4883      3.4429      3.4276      3.4429    
  3.4882      3.5620      3.6606      3.7776      3.9040      4.0291      4.1423      4.2353      4.3032      4.3440    
  4.3575      4.3439      4.3031      4.2353      4.1422      4.0291      3.7936      3.7776      3.7631      3.7514    
  3.7432      3.7390      3.7390      3.7432      3.7514      3.7631      3.7776      3.7936      3.8095      3.8236    
  3.8344      3.8413      3.8450      3.8464      3.8464      3.8450      3.8413      3.8343      3.8236      3.8096    
  3.9040      3.9912      4.0650      4.1206      4.1550      4.1666      4.1550      4.1206      4.0650      3.9912    
  3.9040      3.8095      3.7149      3.6271      3.5522      3.4952      3.4596      3.4475      3.4596      3.4952    
  3.5522      3.6271      3.7149      3.8096      4.2273      4.4033      4.5448      4.6431      4.6934      4.6934    
  4.6432      4.5448      4.4034      4.2274      4.0291      3.8236      3.6271      3.4543      3.3165      3.2214    
  3.1730      3.1730      3.2215      3.3166      3.4543      3.6271      3.8236      4.0290      4.7361      4.9760    
  5.1558      5.2665      5.3037      5.2665      5.1558      4.9760      4.7361      4.4512      4.1423      3.8344    
  3.5522      3.3165      3.1414      3.0342      2.9983      3.0343      3.1414      3.3166      3.5523      3.8343    
  4.1422      4.4511      5.3724      5.6309      5.7956      5.8731      5.8731      5.7956      5.6309      5.3724    
  5.0341      4.6446      4.2353      3.8413      3.4952      3.2214      3.0342      2.9398      2.9398      3.0343    
  3.2214      3.4952      3.8413      4.2353      4.6446      5.0341      5.9774      6.1388      6.2064      6.2227    
  6.2063      6.1387      5.9774      5.6877      5.2755      4.7952      4.3032      3.8450      3.4596      3.1730    
  2.9983      2.9398      2.9983      3.1730      3.4596      3.8450      4.3031      4.7952      5.2755      5.6878    
  6.2189      6.1759      6.1194      6.1194      6.1758      6.2188      6.1480      5.8901      5.4455      4.8968    
  4.3440      3.8464      3.4475      3.1730      3.0343      3.0343      3.1730      3.4474      3.8464      4.3439    
  4.8968      5.4455      5.8901      6.1480      5.8007      5.5309      5.4202      5.5310      5.8007      6.0725    
  6.1718      5.9910      5.5415      4.9475      4.3575      3.8464      3.4596      3.2215      3.1414      3.2214    
  3.4596      3.8464      4.3575      4.9475      5.5415      5.9910      6.1718      6.0725      4.6265      4.2293    
  4.2293      4.6265      5.2494      5.8318      6.1300      6.0267      5.5718      4.9475      4.3439      3.8450    
  3.4952      3.3166      3.3166      3.4952      3.8450      4.3439      4.9475      5.5718      6.0267      6.1300    
  5.8318      5.2494      2.8864      2.5671      2.8864      3.7242      4.7709      5.6574      6.1048      6.0267    
  5.5415      4.8967      4.3031      3.8413      3.5522      3.4543      3.5523      3.8413      4.3031      4.8968    
  5.5415      6.0267      6.1048      5.6574      4.7709      3.7242      1.0273      1.0273      1.8320      3.1643    
  4.5828      5.6574      6.1300      5.9910      5.4455      4.7952      4.2353      3.8343      3.6271      3.6271    
  3.8343      4.2353      4.7952      5.4455      5.9910      6.1300      5.6574      4.5827      3.1643      1.8320    
 -.39575     0.10286      1.4331      3.1643      4.7709      5.8318      6.1718      5.8901      5.2755      4.6446    
  4.1422      3.8236      3.7149      3.8236      4.1422      4.6446      5.2755      5.8901      6.1718      5.8318    
  4.7709      3.1643      1.4331     0.10286     -.92833     0.10287      1.8320      3.7242      5.2494      6.0725    
  6.1480      5.6878      5.0341      4.4511      4.0291      3.8096      3.8096      4.0290      4.4511      5.0341    
  5.6878      6.1480      6.0725      5.2494      3.7242      1.8320     0.10286     -.92834      1.8424      3.1913    
  4.6265      5.7136      6.1934      6.0572      5.5122      4.8616      4.3012      3.8999      3.6926      3.6926    
  3.8999      4.3011      4.8615      5.5122      6.0572      6.1934      5.7137      4.6265      3.1913      1.8425    
  1.0273      1.0273      3.1913      4.4391      5.5309      6.1469      6.1783      5.7419      5.1001      4.4951    
  4.0214      3.7240      3.6231      3.7240      4.0214      4.4950      5.1000      5.7419      6.1784      6.1469    
  5.5310      4.4391      3.1913      2.2057      1.8320      2.2057      4.6265      5.5309      6.1194      6.2227    
  5.8731      5.2666      4.6432      4.1206      3.7514      3.5621      3.5621      3.7514      4.1206      4.6431    
  5.2665      5.8731      6.2227      6.1194      5.5310      4.6265      3.7242      3.1643      3.1643      3.7242    
  5.7136      6.1469      6.2227      5.9150      5.3516      4.7358      4.1905      3.7727      3.5136      3.4263    
  3.5136      3.7726      4.1905      4.7357      5.3516      5.9149      6.2227      6.1469      5.7136      5.1043    
  4.5828      4.3787      4.5827      5.1043      6.1934      6.1783      5.8731      5.3516      4.7673      4.2265    
  3.7860      3.4802      3.3249      3.3249      3.4802      3.7860      4.2265      4.7672      5.3516      5.8730    
  6.1783      6.1934      5.9687      5.6574      5.4411      5.4411      5.6574      5.9687      6.0572      5.7419    
  5.2666      4.7358      4.2265      3.7906      3.4632      3.2627      3.1955      3.2628      3.4633      3.7906    
  4.2266      4.7358      5.2665      5.7419      6.0571      6.1711      6.1300      6.0369      5.9921      6.0369    
  6.1300      6.1711      5.5122      5.1001      4.6432      4.1905      3.7860      3.4632      3.2418      3.1300    
  3.1300      3.2418      3.4633      3.7861      4.1905      4.6432      5.1000      5.5121      5.8180      5.9909    
  6.0574      6.0705      6.0705      6.0575      5.9910      5.8181      4.8616      4.4951      4.1206      3.7727    
  3.4802      3.2627      3.1300      3.0856      3.1300      3.2627      3.4802      3.7727      4.1206      4.4951    
  4.8616      5.1875      5.4454      5.6164      5.7067      5.7340      5.7068      5.6165      5.4455      5.1875    
  4.3012      4.0214      3.7514      3.5136      3.3249      3.1955      3.1300      3.1300      3.1955      3.3249    
  3.5136      3.7514      4.0215      4.3012      4.5663      4.7952      4.9732      5.0930      5.1524      5.1524    
  5.0930      4.9733      4.7952      4.5662      3.8999      3.7240      3.5621      3.4263      3.3249      3.2628    
  3.2418      3.2627      3.3249      3.4262      3.5620      3.7240      3.8999      4.0753      4.2353      4.3681    
  4.4660      4.5253      4.5451      4.5253      4.4660      4.3681      4.2353      4.0752      3.6926      3.6231    
  3.5621      3.5136      3.4802      3.4633      3.4633      3.4802      3.5136      3.5620      3.6230      3.6925    
  3.7651      3.8344      3.8945      3.9415      3.9730      3.9887      3.9887      3.9729      3.9414      3.8945    
  3.8343      3.7651      3.6926      3.7240      3.7514      3.7726      3.7860      3.7906      3.7861      3.7727    
  3.7514      3.7240      3.6925      3.6595      3.6271      3.5971      3.5711      3.5507      3.5376      3.5330    
  3.5376      3.5507      3.5710      3.5971      3.6271      3.6596      3.8999      4.0214      4.1206      4.1905    
  4.2265      4.2266      4.1905      4.1206      4.0215      3.8999      3.7651      3.6271      3.4961      3.3811    
  3.2891      3.2251      3.1924      3.1924      3.2251      3.2891      3.3811      3.4961      3.6271      3.7651    
  4.3011      4.4950      4.6431      4.7357      4.7672      4.7358      4.6432      4.4951      4.3012      4.0753    
  3.8344      3.5971      3.3811      3.2009      3.0666      2.9841      2.9564      2.9842      3.0666      3.2009    
  3.3811      3.5971      3.8343      4.0752      4.8615      5.1000      5.2665      5.3516      5.3516      5.2665    
  5.1000      4.8616      4.5663      4.2353      3.8945      3.5711      3.2891      3.0666      2.9143      2.8374    
  2.8374      2.9144      3.0666      3.2891      3.5711      3.8945      4.2353      4.5662      5.5122      5.7419    
  5.8731      5.9149      5.8730      5.7419      5.5121      5.1875      4.7952      4.3681      3.9415      3.5507    
  3.2251      2.9841      2.8374      2.7883      2.8374      2.9841      3.2251      3.5507      3.9414      4.3681    
  4.7952      5.1875      6.0572      6.1784      6.2227      6.2227      6.1783      6.0571      5.8180      5.4454    
  4.9732      4.4660      3.9730      3.5376      3.1924      2.9564      2.8374      2.8374      2.9564      3.1924    
  3.5375      3.9730      4.4660      4.9733      5.4455      5.8181      6.1934      6.1469      6.1194      6.1469    
  6.1934      6.1711      5.9909      5.6164      5.0930      4.5253      3.9887      3.5330      3.1924      2.9842    
  2.9144      2.9841      3.1924      3.5330      3.9887      4.5253      5.0930      5.6165      5.9910      6.1712    
  5.7137      5.5310      5.5310      5.7136      5.9687      6.1300      6.0574      5.7067      5.1524      4.5451    
  3.9887      3.5376      3.2251      3.0666      3.0666      3.2251      3.5375      3.9887      4.5451      5.1524    
  5.7068      6.0575      6.1300      5.9688      4.6265      4.4391      4.6265      5.1043      5.6574      6.0369    
  6.0705      5.7340      5.1524      4.5253      3.9729      3.5507      3.2891      3.2009      3.2891      3.5507    
  3.9730      4.5253      5.1524      5.7340      6.0705      6.0369      5.6574      5.1043      3.1913      3.1913    
  3.7242      4.5828      5.4411      5.9921      6.0705      5.7068      5.0930      4.4660      3.9414      3.5710    
  3.3811      3.3811      3.5711      3.9414      4.4660      5.0930      5.7068      6.0705      5.9921      5.4411    
  4.5828      3.7242      1.8425      2.2057      3.1643      4.3787      5.4411      6.0369      6.0575      5.6165    
  4.9733      4.3681      3.8945      3.5971      3.4961      3.5971      3.8945      4.3681      4.9733      5.6165    
  6.0575      6.0369      5.4411      4.3787      3.1643      2.2057      1.0273      1.8320      3.1643      4.5827    
  5.6574      6.1300      5.9910      5.4455      4.7952      4.2353      3.8343      3.6271      3.6271      3.8343    
  4.2353      4.7952      5.4455      5.9910      6.1300      5.6574      4.5828      3.1643      1.8320      1.0273    
  1.0273      2.2057      3.7242      5.1043      5.9687      6.1711      5.8181      5.1875      4.5662      4.0752    
  3.7651      3.6596      3.7651      4.0752      4.5662      5.1875      5.8181      6.1712      5.9688      5.1043    
  3.7242      2.2057      1.0273     0.58371      3.9886      4.9773      5.8006      6.1934      6.0791      5.5794    
  4.9376      4.3510      3.8957      3.6112      3.5148      3.6112      3.8957      4.3510      4.9376      5.5794    
  6.0792      6.1934      5.8007      4.9773      3.9887      3.1913      2.8864      3.1913      4.9773      5.7276    
  6.1758      6.1783      5.7773      5.1627      4.5512      4.0418      3.6833      3.4998      3.4998      3.6833    
  4.0418      4.5512      5.1627      5.7772      6.1783      6.1759      5.7277      4.9773      4.2075      3.7242    
  3.7242      4.2074      5.8006      6.1758      6.2063      5.8731      5.3038      4.6934      4.1550      3.7432    
  3.4883      3.4024      3.4883      3.7432      4.1550      4.6934      5.3037      5.8731      6.2063      6.1758    
  5.8007      5.2494      4.7709      4.5828      4.7709      5.2494      6.1934      6.1783      5.8731      5.3516    
  4.7673      4.2265      3.7860      3.4802      3.3249      3.3249      3.4802      3.7860      4.2265      4.7672    
  5.3516      5.8730      6.1783      6.1934      5.9687      5.6574      5.4411      5.4411      5.6574      5.9687    
  6.0791      5.7773      5.3038      4.7673      4.2510      3.8083      3.4755      3.2715      3.2031      3.2715    
  3.4755      3.8083      4.2510      4.7672      5.3037      5.7772      6.0791      6.1707      6.1047      5.9921    
  5.9400      5.9921      6.1048      6.1708      5.5794      5.1627      4.6934      4.2265      3.8083      3.4739    
  3.2443      3.1283      3.1284      3.2443      3.4740      3.8083      4.2266      4.6934      5.1627      5.5794    
  5.8748      6.0266      6.0705      6.0691      6.0691      6.0705      6.0267      5.8749      4.9376      4.5512    