fcc Si                                  
   4.00000000000000     
     0.500000    0.500000    0.000000
     0.000000    0.500000    0.500000
     0.500000    0.000000    0.500000
   Si
     1
Direct
  0.000000  0.000000  0.000000
 
   24   24   24
 -.27187354677E+01 -.20884705258E+01 -.39573631036E+00 0.18424447590E+01 0.39886356273E+01
 0.55191858420E+01 0.61935927017E+01 0.60934494742E+01 0.55319087524E+01 0.48849493032E+01
 0.43595266233E+01 0.40231202030E+01 0.39079113793E+01 0.40231202030E+01 0.43595266233E+01
 0.48849493032E+01 0.55319087524E+01 0.60934494742E+01 0.61935927017E+01 0.55191858420E+01
 0.39886356273E+01 0.18424447590E+01 -.39573631036E+00 -.20884705258E+01 -.20884705258E+01
 -.92831206478E+00 0.10273144635E+01 0.31913106138E+01 0.49772725317E+01 0.60064873837E+01
 0.62123152256E+01 0.58092782095E+01 0.51597446618E+01 0.45656237826E+01 0.41327425381E+01
 0.39068818682E+01 0.39068765217E+01 0.41327303528E+01 0.45656127608E+01 0.51597423926E+01
 0.58092862575E+01 0.62123293757E+01 0.60064985171E+01 0.49772727539E+01 0.31912965125E+01
 0.10272906020E+01 -.92833334085E+00 -.20884791464E+01 -.39573631036E+00 0.10273144635E+01
 0.28864443304E+01 0.46264932064E+01 0.58006467617E+01 0.62188490946E+01 0.59774289029E+01
 0.53724291342E+01 0.47361105859E+01 0.42273755173E+01 0.39040101325E+01 0.37936386450E+01
 0.39039895103E+01 0.42273459347E+01 0.47360883696E+01 0.53724263751E+01 0.59774462881E+01
 0.62188767268E+01 0.58006688859E+01 0.46264983872E+01 0.28864311504E+01 0.10272925686E+01
 -.39575222848E+00 -.92833334085E+00 0.18424447590E+01 0.31913106138E+01 0.46264932064E+01
 0.57136178686E+01 0.61933865544E+01 0.60571810903E+01 0.55121965865E+01 0.48615718826E+01
 0.43011633920E+01 0.38999397198E+01 0.36925998680E+01 0.36925861939E+01 0.38999051202E+01
 0.43011241853E+01 0.48615461330E+01 0.55121961083E+01 0.60572058662E+01 0.61934263442E+01
 0.57136576498E+01 0.46265224876E+01 0.31913269813E+01 0.18424515889E+01 0.10272925686E+01
 0.10272906020E+01 0.39886356273E+01 0.49772725317E+01 0.58006467617E+01 0.61933865544E+01
 0.60791353122E+01 0.55794319631E+01 0.49376251687E+01 0.43510341143E+01 0.38956853509E+01
 0.36111644228E+01 0.35148442068E+01 0.36111503184E+01 0.38956620759E+01 0.43510101408E+01
 0.49376099659E+01 0.55794343775E+01 0.60791602387E+01 0.61934331934E+01 0.58007082724E+01
 0.49773363916E+01 0.39886886629E+01 0.31913269813E+01 0.28864311504E+01 0.31912965125E+01
 0.55191858420E+01 0.60064873837E+01 0.62188490946E+01 0.60571810903E+01 0.55794319631E+01
 0.49630210637E+01 0.43759995263E+01 0.38924453141E+01 0.35544241680E+01 0.33820804779E+01
 0.33820874538E+01 0.35544411792E+01 0.38924617161E+01 0.43760065720E+01 0.49630178552E+01
 0.55794297098E+01 0.60571964256E+01 0.62188931324E+01 0.60065586148E+01 0.55192662734E+01
 0.49773363916E+01 0.46265224876E+01 0.46264983872E+01 0.49772727539E+01 0.61935927017E+01
 0.62123152256E+01 0.59774289029E+01 0.55121965865E+01 0.49376251687E+01 0.43759995263E+01
 0.38912308454E+01 0.35253765199E+01 0.33006217125E+01 0.32251680244E+01 0.33006574409E+01
 0.35254310398E+01 0.38912794043E+01 0.43760241461E+01 0.49376248034E+01 0.55121866887E+01
 0.59774324919E+01 0.62123451100E+01 0.61936473857E+01 0.60065586148E+01 0.58007082724E+01
 0.57136576498E+01 0.58006688859E+01 0.60064985171E+01 0.60934494742E+01 0.58092782095E+01
 0.53724291342E+01 0.48615718826E+01 0.43510341143E+01 0.38924453141E+01 0.35253765199E+01
 0.32732304468E+01 0.31458929421E+01 0.31459095255E+01 0.32732728384E+01 0.35254280372E+01
 0.38924872188E+01 0.43510557106E+01 0.48615745841E+01 0.53724219846E+01 0.58092750749E+01
 0.60934569678E+01 0.62123451100E+01 0.62188931324E+01 0.61934331934E+01 0.61934263442E+01
 0.62188767268E+01 0.62123293757E+01 0.55319087524E+01 0.51597446618E+01 0.47361105859E+01
 0.43011633920E+01 0.38956853509E+01 0.35544241680E+01 0.33006217125E+01 0.31458929421E+01
 0.30941025510E+01 0.31458921075E+01 0.33006228549E+01 0.35544304322E+01 0.38956984681E+01
 0.43011800992E+01 0.47361267385E+01 0.51597527349E+01 0.55319053102E+01 0.58092750749E+01
 0.59774324919E+01 0.60571964256E+01 0.60791602387E+01 0.60572058662E+01 0.59774462881E+01
 0.58092862575E+01 0.48849493032E+01 0.45656237826E+01 0.42273755173E+01 0.38999397198E+01
 0.36111644228E+01 0.33820804779E+01 0.32251680244E+01 0.31459095255E+01 0.31458921075E+01
 0.32251240747E+01 0.33820301184E+01 0.36111286499E+01 0.38999310956E+01 0.42273916669E+01
 0.45656521695E+01 0.48849748421E+01 0.51597527349E+01 0.53724219846E+01 0.55121866887E+01
 0.55794297098E+01 0.55794343775E+01 0.55121961083E+01 0.53724263751E+01 0.51597423926E+01
 0.43595266233E+01 0.41327425381E+01 0.39040101325E+01 0.36925998680E+01 0.35148442068E+01
 0.33820874538E+01 0.33006574409E+01 0.32732728384E+01 0.33006228549E+01 0.33820301184E+01
 0.35147833857E+01 0.36925536997E+01 0.39039907680E+01 0.41327513590E+01 0.43595560887E+01
 0.45656521695E+01 0.47361267385E+01 0.48615745841E+01 0.49376248034E+01 0.49630178552E+01
 0.49376099659E+01 0.48615461330E+01 0.47360883696E+01 0.45656127608E+01 0.40231202030E+01
 0.39068818682E+01 0.37936386450E+01 0.36925861939E+01 0.36111503184E+01 0.35544411792E+01
 0.35254310398E+01 0.35254280372E+01 0.35544304322E+01 0.36111286499E+01 0.36925536997E+01
 0.37936014357E+01 0.39068526905E+01 0.40231128567E+01 0.41327513590E+01 0.42273916669E+01
 0.43011800992E+01 0.43510557106E+01 0.43760241461E+01 0.43760065720E+01 0.43510101408E+01
 0.43011241853E+01 0.42273459347E+01 0.41327303528E+01 0.39079113793E+01 0.39068765217E+01
 0.39039895103E+01 0.38999051202E+01 0.38956620759E+01 0.38924617161E+01 0.38912794043E+01
 0.38924872188E+01 0.38956984681E+01 0.38999310956E+01 0.39039907680E+01 0.39068526905E+01
 0.39078768934E+01 0.39068526905E+01 0.39039907680E+01 0.38999310956E+01 0.38956984681E+01
 0.38924872188E+01 0.38912794043E+01 0.38924617161E+01 0.38956620759E+01 0.38999051202E+01
 0.39039895103E+01 0.39068765217E+01 0.40231202030E+01 0.41327303528E+01 0.42273459347E+01
 0.43011241853E+01 0.43510101408E+01 0.43760065720E+01 0.43760241461E+01 0.43510557106E+01
 0.43011800992E+01 0.42273916669E+01 0.41327513590E+01 0.40231128567E+01 0.39068526905E+01
 0.37936014357E+01 0.36925536997E+01 0.36111286499E+01 0.35544304322E+01 0.35254280372E+01
 0.35254310398E+01 0.35544411792E+01 0.36111503184E+01 0.36925861939E+01 0.37936386450E+01
 0.39068818682E+01 0.43595266233E+01 0.45656127608E+01 0.47360883696E+01 0.48615461330E+01
 0.49376099659E+01 0.49630178552E+01 0.49376248034E+01 0.48615745841E+01 0.47361267385E+01
 0.45656521695E+01 0.43595560887E+01 0.41327513590E+01 0.39039907680E+01 0.36925536997E+01
 0.35147833857E+01 0.33820301184E+01 0.33006228549E+01 0.32732728384E+01 0.33006574409E+01
 0.33820874538E+01 0.35148442068E+01 0.36925998680E+01 0.39040101325E+01 0.41327425381E+01
 0.48849493032E+01 0.51597423926E+01 0.53724263751E+01 0.55121961083E+01 0.55794343775E+01
 0.55794297098E+01 0.55121866887E+01 0.53724219846E+01 0.51597527349E+01 0.48849748421E+01
 0.45656521695E+01 0.42273916669E+01 0.38999310956E+01 0.36111286499E+01 0.33820301184E+01
 0.32251240747E+01 0.31458921075E+01 0.31459095255E+01 0.32251680244E+01 0.33820804779E+01
 0.36111644228E+01 0.38999397198E+01 0.42273755173E+01 0.45656237826E+01 0.55319087524E+01
 0.58092862575E+01 0.59774462881E+01 0.60572058662E+01 0.60791602387E+01 0.60571964256E+01
 0.59774324919E+01 0.58092750749E+01 0.55319053102E+01 0.51597527349E+01 0.47361267385E+01
 0.43011800992E+01 0.38956984681E+01 0.35544304322E+01 0.33006228549E+01 0.31458921075E+01
 0.30941025510E+01 0.31458929421E+01 0.33006217125E+01 0.35544241680E+01 0.38956853509E+01
 0.43011633920E+01 0.47361105859E+01 0.51597446618E+01 0.60934494742E+01 0.62123293757E+01
 0.62188767268E+01 0.61934263442E+01 0.61934331934E+01 0.62188931324E+01 0.62123451100E+01
 0.60934569678E+01 0.58092750749E+01 0.53724219846E+01 0.48615745841E+01 0.43510557106E+01
 0.38924872188E+01 0.35254280372E+01 0.32732728384E+01 0.31459095255E+01 0.31458929421E+01
 0.32732304468E+01 0.35253765199E+01 0.38924453141E+01 0.43510341143E+01 0.48615718826E+01
 0.53724291342E+01 0.58092782095E+01 0.61935927017E+01 0.60064985171E+01 0.58006688859E+01
 0.57136576498E+01 0.58007082724E+01 0.60065586148E+01 0.61936473857E+01 0.62123451100E+01
 0.59774324919E+01 0.55121866887E+01 0.49376248034E+01 0.43760241461E+01 0.38912794043E+01
 0.35254310398E+01 0.33006574409E+01 0.32251680244E+01 0.33006217125E+01 0.35253765199E+01
 0.38912308454E+01 0.43759995263E+01 0.49376251687E+01 0.55121965865E+01 0.59774289029E+01
 0.62123152256E+01 0.55191858420E+01 0.49772727539E+01 0.46264983872E+01 0.46265224876E+01
 0.49773363916E+01 0.55192662734E+01 0.60065586148E+01 0.62188931324E+01 0.60571964256E+01
 0.55794297098E+01 0.49630178552E+01 0.43760065720E+01 0.38924617161E+01 0.35544411792E+01
 0.33820874538E+01 0.33820804779E+01 0.35544241680E+01 0.38924453141E+01 0.43759995263E+01
 0.49630210637E+01 0.55794319631E+01 0.60571810903E+01 0.62188490946E+01 0.60064873837E+01
 0.39886356273E+01 0.31912965125E+01 0.28864311504E+01 0.31913269813E+01 0.39886886629E+01
 0.49773363916E+01 0.58007082724E+01 0.61934331934E+01 0.60791602387E+01 0.55794343775E+01
 0.49376099659E+01 0.43510101408E+01 0.38956620759E+01 0.36111503184E+01 0.35148442068E+01
 0.36111644228E+01 0.38956853509E+01 0.43510341143E+01 0.49376251687E+01 0.55794319631E+01
 0.60791353122E+01 0.61933865544E+01 0.58006467617E+01 0.49772725317E+01 0.18424447590E+01
 0.10272906020E+01 0.10272925686E+01 0.18424515889E+01 0.31913269813E+01 0.46265224876E+01
 0.57136576498E+01 0.61934263442E+01 0.60572058662E+01 0.55121961083E+01 0.48615461330E+01
 0.43011241853E+01 0.38999051202E+01 0.36925861939E+01 0.36925998680E+01 0.38999397198E+01
 0.43011633920E+01 0.48615718826E+01 0.55121965865E+01 0.60571810903E+01 0.61933865544E+01
 0.57136178686E+01 0.46264932064E+01 0.31913106138E+01 -.39573631036E+00 -.92833334085E+00
 -.39575222848E+00 0.10272925686E+01 0.28864311504E+01 0.46264983872E+01 0.58006688859E+01
 0.62188767268E+01 0.59774462881E+01 0.53724263751E+01 0.47360883696E+01 0.42273459347E+01
 0.39039895103E+01 0.37936386450E+01 0.39040101325E+01 0.42273755173E+01 0.47361105859E+01
 0.53724291342E+01 0.59774289029E+01 0.62188490946E+01 0.58006467617E+01 0.46264932064E+01
 0.28864443304E+01 0.10273144635E+01 -.20884705258E+01 -.20884791464E+01 -.92833334085E+00
 0.10272906020E+01 0.31912965125E+01 0.49772727539E+01 0.60064985171E+01 0.62123293757E+01
 0.58092862575E+01 0.51597423926E+01 0.45656127608E+01 0.41327303528E+01 0.39068765217E+01
 0.39068818682E+01 0.41327425381E+01 0.45656237826E+01 0.51597446618E+01 0.58092782095E+01
 0.62123152256E+01 0.60064873837E+01 0.49772725317E+01 0.31913106138E+01 0.10273144635E+01
 -.92831206478E+00 -.20884706213E+01 -.92831221791E+00 0.10273143628E+01 0.31913105715E+01
 0.49772724850E+01 0.60064873561E+01 0.62123152846E+01 0.58092783133E+01 0.51597447109E+01
 0.45656237850E+01 0.41327425665E+01 0.39068819004E+01 0.39068764826E+01 0.41327302725E+01
 0.45656127299E+01 0.51597424020E+01 0.58092862409E+01 0.62123293648E+01 0.60064985928E+01
 0.49772728836E+01 0.31912965949E+01 0.10272906324E+01 -.92833330596E+00 -.20884791400E+01
 -.92831221791E+00 0.58375204504E+00 0.25671459222E+01 0.44390916598E+01 0.57276108230E+01
 0.62267171877E+01 0.60286719304E+01 0.54356625029E+01 0.47948626288E+01 0.42801936475E+01
 0.39523145903E+01 0.38402833689E+01 0.39522943403E+01 0.42801650326E+01 0.47948420186E+01
 0.54356614432E+01 0.60286903596E+01 0.62267435557E+01 0.57276268245E+01 0.44390852511E+01
 0.25671167025E+01 0.58371484201E+00 -.92833753367E+00 -.14932673445E+01 0.10273143628E+01
 0.25671459222E+01 0.42293162310E+01 0.55309199513E+01 0.61758184264E+01 0.61387652750E+01
 0.56309049798E+01 0.49760340947E+01 0.44033917994E+01 0.39912360619E+01 0.37776275303E+01
 0.37776112495E+01 0.39911952709E+01 0.44033463743E+01 0.49760052406E+01 0.56309045668E+01
 0.61387895673E+01 0.61758512903E+01 0.55309416969E+01 0.42293168281E+01 0.25671294152E+01
 0.10272939928E+01 0.10285891409E+00 0.10286782781E+00 0.31913105715E+01 0.44390916598E+01
 0.55309199513E+01 0.61468862512E+01 0.61783322038E+01 0.57419378370E+01 0.51000539239E+01
 0.44950679571E+01 0.40214430884E+01 0.37240194185E+01 0.36230858998E+01 0.37239895695E+01
 0.40213957133E+01 0.44950217227E+01 0.51000255027E+01 0.57419360404E+01 0.61783546376E+01
 0.61469233793E+01 0.55309584645E+01 0.44391227370E+01 0.31913309868E+01 0.22057303326E+01
 0.18319756396E+01 0.22057206490E+01 0.49772724850E+01 0.57276108230E+01 0.61758184264E+01
 0.61783322038E+01 0.57772589949E+01 0.51627368500E+01 0.45511854815E+01 0.40417872602E+01
 0.36832840204E+01 0.34998053562E+01 0.34998005379E+01 0.36832702405E+01 0.40417658596E+01
 0.45511600577E+01 0.51627140470E+01 0.57772495947E+01 0.61783453044E+01 0.61758577922E+01
 0.57276697041E+01 0.49773350013E+01 0.42074916608E+01 0.37242177204E+01 0.37241998961E+01
 0.42074435179E+01 0.60064873561E+01 0.62267171877E+01 0.61387652750E+01 0.57419378370E+01
 0.51627368500E+01 0.45700323548E+01 0.40519443797E+01 0.36579209814E+01 0.34147686637E+01
 0.33329612600E+01 0.34147903931E+01 0.36579509558E+01 0.40519637219E+01 0.45700296911E+01
 0.51627155557E+01 0.57419166215E+01 0.61387653706E+01 0.62267507520E+01 0.60065486757E+01
 0.56116348863E+01 0.52494425789E+01 0.51043006504E+01 0.52494000055E+01 0.56115687252E+01
 0.62123152846E+01 0.60286719304E+01 0.56309049798E+01 0.51000539239E+01 0.45511854815E+01
 0.40519443797E+01 0.36493179950E+01 0.33715615493E+01 0.32309921814E+01 0.32310129820E+01
 0.33716131375E+01 0.36493758180E+01 0.40519818267E+01 0.45511906067E+01 0.51000324897E+01
 0.56308780169E+01 0.60286616244E+01 0.62123310266E+01 0.61951216707E+01 0.60725769880E+01
 0.59687879176E+01 0.59687723717E+01 0.60725404386E+01 0.61950854343E+01 0.58092783133E+01
 0.54356625029E+01 0.49760340947E+01 0.44950679571E+01 0.40417872602E+01 0.36579209814E+01
 0.33715615493E+01 0.31967895352E+01 0.31382847436E+01 0.31968134821E+01 0.33715997567E+01
 0.36579587856E+01 0.40418114049E+01 0.44950728274E+01 0.49760235322E+01 0.54356444278E+01
 0.58092645932E+01 0.60444562507E+01 0.61480058020E+01 0.61711676740E+01 0.61708166151E+01
 0.61711649505E+01 0.61480048749E+01 0.60444616847E+01 0.51597447109E+01 0.47948626288E+01
 0.44033917994E+01 0.40214430884E+01 0.36832840204E+01 0.34147686637E+01 0.32309921814E+01
 0.31382847436E+01 0.31382785605E+01 0.32309772812E+01 0.34147532577E+01 0.36832763686E+01
 0.40214463888E+01 0.44034022135E+01 0.47948739749E+01 0.51597484303E+01 0.54667355093E+01
 0.56877612543E+01 0.58181116056E+01 0.58748973603E+01 0.58749027754E+01 0.58181245238E+01
 0.56877745125E+01 0.54667427402E+01 0.45656237850E+01 0.42801936475E+01 0.39912360619E+01
 0.37240194185E+01 0.34998053562E+01 0.33329612600E+01 0.32310129820E+01 0.31968134821E+01
 0.32309772812E+01 0.33329042971E+01 0.34997488070E+01 0.37239822486E+01 0.39912274048E+01
 0.42802090184E+01 0.45656516719E+01 0.48231974939E+01 0.50340989326E+01 0.51875021798E+01
 0.52791815744E+01 0.53093147732E+01 0.52791795694E+01 0.51874943098E+01 0.50340805736E+01
 0.48231695085E+01 0.41327425665E+01 0.39523145903E+01 0.37776275303E+01 0.36230858998E+01
 0.34998005379E+01 0.34147903931E+01 0.33716131375E+01 0.33715997567E+01 0.34147532577E+01
 0.34997488070E+01 0.36230324881E+01 0.37775858556E+01 0.39522957271E+01 0.41327508744E+01
 0.43035415689E+01 0.44511779139E+01 0.45662651256E+01 0.46439739047E+01 0.46828381272E+01
 0.46828241912E+01 0.46439363233E+01 0.45662148992E+01 0.44511298245E+01 0.43035091288E+01
 0.39068819004E+01 0.38402833689E+01 0.37776112495E+01 0.37239895695E+01 0.36832702405E+01
 0.36579509558E+01 0.36493758180E+01 0.36579587856E+01 0.36832763686E+01 0.37239822486E+01
 0.37775858556E+01 0.38402465846E+01 0.39068509812E+01 0.39716010012E+01 0.40290632514E+01
 0.40752528246E+01 0.41081826377E+01 0.41275725707E+01 0.41339213426E+01 0.41275371618E+01
 0.41081278047E+01 0.40752027385E+01 0.40290383126E+01 0.39716079531E+01 0.39068764826E+01
 0.39522943403E+01 0.39911952709E+01 0.40213957133E+01 0.40417658596E+01 0.40519637219E+01
 0.40519818267E+01 0.40418114049E+01 0.40214463888E+01 0.39912274048E+01 0.39522957271E+01
 0.39068509812E+01 0.38580372045E+01 0.38095337668E+01 0.37650862164E+01 0.37281553388E+01
 0.37016787251E+01 0.36878426586E+01 0.36878339733E+01 0.37016589626E+01 0.37281400466E+01
 0.37650892466E+01 0.38095582893E+01 0.38580724712E+01 0.41327302725E+01 0.42801650326E+01
 0.44033463743E+01 0.44950217227E+01 0.45511600577E+01 0.45700296911E+01 0.45511906067E+01
 0.44950728274E+01 0.44034022135E+01 0.42802090184E+01 0.41327508744E+01 0.39716010012E+01
 0.38095337668E+01 0.36595299664E+01 0.35327641340E+01 0.34374069457E+01 0.33785140938E+01
 0.33586389983E+01 0.33785337582E+01 0.34374426813E+01 0.35328087233E+01 0.36595733704E+01
 0.38095642212E+01 0.39716078406E+01 0.45656127299E+01 0.47948420186E+01 0.49760052406E+01
 0.51000255027E+01 0.51627140470E+01 0.51627155557E+01 0.51000324897E+01 0.49760235322E+01
 0.47948739749E+01 0.45656516719E+01 0.43035415689E+01 0.40290632514E+01 0.37650862164E+01
 0.35327641340E+01 0.33482354079E+01 0.32214658995E+01 0.31572638853E+01 0.31572848269E+01
 0.32215201678E+01 0.33483007345E+01 0.35328161782E+01 0.37651082842E+01 0.40290525745E+01
 0.43035090695E+01 0.51597424020E+01 0.54356614432E+01 0.56309045668E+01 0.57419360404E+01
 0.57772495947E+01 0.57419166215E+01 0.56308780169E+01 0.54356444278E+01 0.51597484303E+01
 0.48231974939E+01 0.44511779139E+01 0.40752528246E+01 0.37281553388E+01 0.34374069457E+01
 0.32214658995E+01 0.30897675854E+01 0.30456655043E+01 0.30897944824E+01 0.32215047113E+01
 0.34374366937E+01 0.37281603175E+01 0.40752318950E+01 0.44511443280E+01 0.48231695156E+01
 0.58092862409E+01 0.60286903596E+01 0.61387895673E+01 0.61783546376E+01 0.61783453044E+01
 0.61387653706E+01 0.60286616244E+01 0.58092645932E+01 0.54667355093E+01 0.50340989326E+01
 0.45662651256E+01 0.41081826377E+01 0.37016787251E+01 0.33785140938E+01 0.31572638853E+01
 0.30456655043E+01 0.30456619852E+01 0.31572523395E+01 0.33784946794E+01 0.37016520967E+01
 0.41081539529E+01 0.45662407882E+01 0.50340874283E+01 0.54667426745E+01 0.62123293648E+01
 0.62267435557E+01 0.61758512903E+01 0.61469233793E+01 0.61758577922E+01 0.62267507520E+01
 0.62123310266E+01 0.60444562507E+01 0.56877612543E+01 0.51875021798E+01 0.46439739047E+01
 0.41275725707E+01 0.36878426586E+01 0.33586389983E+01 0.31572848269E+01 0.30897944824E+01
 0.31572523395E+01 0.33585868131E+01 0.36877896238E+01 0.41275357839E+01 0.46439590198E+01
 0.51875056258E+01 0.56877706181E+01 0.60444615700E+01 0.60064985928E+01 0.57276268245E+01
 0.55309416969E+01 0.55309584645E+01 0.57276697041E+01 0.60065486757E+01 0.61951216707E+01
 0.61480058020E+01 0.58181116056E+01 0.52791815744E+01 0.46828381272E+01 0.41339213426E+01
 0.36878339733E+01 0.33785337582E+01 0.32215201678E+01 0.32215047113E+01 0.33784946794E+01
 0.36877896238E+01 0.41338907539E+01 0.46828298260E+01 0.52791890329E+01 0.58181166478E+01
 0.61479926972E+01 0.61950854510E+01 0.49772728836E+01 0.44390852511E+01 0.42293168281E+01
 0.44391227370E+01 0.49773350013E+01 0.56116348863E+01 0.60725769880E+01 0.61711676740E+01
 0.58748973603E+01 0.53093147732E+01 0.46828241912E+01 0.41275371618E+01 0.37016589626E+01
 0.34374426813E+01 0.33483007345E+01 0.34374366937E+01 0.37016520967E+01 0.41275357839E+01
 0.46828298260E+01 0.53093215190E+01 0.58748927829E+01 0.61711417101E+01 0.60725262599E+01
 0.56115688825E+01 0.31912965949E+01 0.25671167025E+01 0.25671294152E+01 0.31913309868E+01
 0.42074916608E+01 0.52494425789E+01 0.59687879176E+01 0.61708166151E+01 0.58749027754E+01
 0.52791795694E+01 0.46439363233E+01 0.41081278047E+01 0.37281400466E+01 0.35328087233E+01
 0.35328161782E+01 0.37281603175E+01 0.41081539529E+01 0.46439590198E+01 0.52791890329E+01
 0.58748927829E+01 0.61707865937E+01 0.59687424570E+01 0.52493907135E+01 0.42074436470E+01
 0.10272906324E+01 0.58371484201E+00 0.10272939928E+01 0.22057303326E+01 0.37242177204E+01
 0.51043006504E+01 0.59687723717E+01 0.61711649505E+01 0.58181245238E+01 0.51874943098E+01
 0.45662148992E+01 0.40752027385E+01 0.37650892466E+01 0.36595733704E+01 0.37651082842E+01
 0.40752318950E+01 0.45662407882E+01 0.51875056258E+01 0.58181166478E+01 0.61711417101E+01
 0.59687424570E+01 0.51042740312E+01 0.37241991096E+01 0.22057207217E+01 -.92833330596E+00
 -.92833753367E+00 0.10285891409E+00 0.18319756396E+01 0.37241998961E+01 0.52494000055E+01
 0.60725404386E+01 0.61480048749E+01 0.56877745125E+01 0.50340805736E+01 0.44511298245E+01
 0.40290383126E+01 0.38095582893E+01 0.38095642212E+01 0.40290525745E+01 0.44511443280E+01
 0.50340874283E+01 0.56877706181E+01 0.61479926972E+01 0.60725262599E+01 0.52493907135E+01
 0.37241991096E+01 0.18319823901E+01 0.10286796336E+00 -.20884791400E+01 -.14932673445E+01
 0.10286782781E+00 0.22057206490E+01 0.42074435179E+01 0.56115687252E+01 0.61950854343E+01
 0.60444616847E+01 0.54667427402E+01 0.48231695085E+01 0.43035091288E+01 0.39716079531E+01
 0.38580724712E+01 0.39716078406E+01 0.43035090695E+01 0.48231695156E+01 0.54667426745E+01
 0.60444615700E+01 0.61950854510E+01 0.56115688825E+01 0.42074436470E+01 0.22057207217E+01
 0.10286796336E+00 -.14932671850E+01 -.39573651976E+00 0.10273142489E+01 0.28864442830E+01
 0.46264932624E+01 0.58006467790E+01 0.62188491288E+01 0.59774290559E+01 0.53724292948E+01
 0.47361106001E+01 0.42273754614E+01 0.39040101484E+01 0.37936386647E+01 0.39039894137E+01
 0.42273458188E+01 0.47360883855E+01 0.53724264547E+01 0.59774463022E+01 0.62188767518E+01
 0.58006690389E+01 0.46264985570E+01 0.28864311677E+01 0.10272924890E+01 -.39575227588E+00
 -.92833341985E+00 0.10273142489E+01 0.25671458608E+01 0.42293162842E+01 0.55309200495E+01
 0.61758184904E+01 0.61387653369E+01 0.56309050738E+01 0.49760341515E+01 0.44033917644E+01
 0.39912360036E+01 0.37776275178E+01 0.37776112369E+01 0.39911952134E+01 0.44033463387E+01
 0.49760052874E+01 0.56309046369E+01 0.61387895981E+01 0.61758513263E+01 0.55309417742E+01
 0.42293168683E+01 0.25671293501E+01 0.10272938828E+01 0.10285883179E+00 0.10286774246E+00
 0.28864442830E+01 0.42293162842E+01 0.54201994123E+01 0.61193875886E+01 0.62063380584E+01
 0.57956466464E+01 0.51558542654E+01 0.45448311632E+01 0.40650167237E+01 0.37631648032E+01
 0.36606390860E+01 0.37631290784E+01 0.40649599698E+01 0.45447755630E+01 0.51558186098E+01
 0.57956397034E+01 0.62063549691E+01 0.61194156041E+01 0.54202232742E+01 0.42293296621E+01
 0.28864479381E+01 0.18319813498E+01 0.14330697711E+01 0.18319823078E+01 0.46264932624E+01
 0.55309200495E+01 0.61193875886E+01 0.62226773867E+01 0.58731027775E+01 0.52665582626E+01
 0.46431739835E+01 0.41206147564E+01 0.37514407922E+01 0.35620945128E+01 0.35620812372E+01
 0.37514044688E+01 0.41205652181E+01 0.46431228925E+01 0.52665170370E+01 0.58730802193E+01
 0.62226776937E+01 0.61194097271E+01 0.55309555688E+01 0.46265310433E+01 0.37242281880E+01
 0.31642745482E+01 0.31642636554E+01 0.37241991351E+01 0.58006467790E+01 0.61758184904E+01
 0.62063380584E+01 0.58731027775E+01 0.53037808731E+01 0.46934405270E+01 0.41549970708E+01
 0.37432200220E+01 0.34882705248E+01 0.34023515232E+01 0.34882721266E+01 0.37432162155E+01
 0.41549787829E+01 0.46934046721E+01 0.53037345133E+01 0.58730628781E+01 0.62063208652E+01
 0.61758333820E+01 0.58006871732E+01 0.52494374390E+01 0.47709146961E+01 0.45827533880E+01
 0.47708839073E+01 0.52493906485E+01 0.62188491288E+01 0.61387653369E+01 0.57956466464E+01
 0.52665582626E+01 0.46934405270E+01 0.41666102344E+01 0.37389838824E+01 0.34428308524E+01
 0.32926339103E+01 0.32926499957E+01 0.34428692808E+01 0.37390212395E+01 0.41666231332E+01
 0.46934193681E+01 0.52665113973E+01 0.57955965998E+01 0.61387340292E+01 0.62188476348E+01
 0.60725494272E+01 0.58317810055E+01 0.56573852565E+01 0.56573733145E+01 0.58317533898E+01
 0.60725261644E+01 0.59774290559E+01 0.56309050738E+01 0.51558542654E+01 0.46431739835E+01
 0.41549970708E+01 0.37389838824E+01 0.34275194069E+01 0.32370652753E+01 0.31732645425E+01
 0.32371004012E+01 0.34275733110E+01 0.37390326515E+01 0.41550197403E+01 0.46431635024E+01
 0.51558168742E+01 0.56308580132E+01 0.59773895712E+01 0.61479683949E+01 0.61718108259E+01
 0.61300449837E+01 0.61047740532E+01 0.61300464208E+01 0.61718201434E+01 0.61479927745E+01
 0.53724292948E+01 0.49760341515E+01 0.45448311632E+01 0.41206147564E+01 0.37432200220E+01
 0.34428308524E+01 0.32370652753E+01 0.31332619421E+01 0.31332675761E+01 0.32370813860E+01
 0.34428529948E+01 0.37432424257E+01 0.41206295054E+01 0.45448325010E+01 0.49760197121E+01
 0.53723998151E+01 0.56877342788E+01 0.58900565964E+01 0.59909599384E+01 0.60266997120E+01
 0.60267093547E+01 0.59909864223E+01 0.58900922351E+01 0.56877707897E+01 0.47361106001E+01
 0.44033917644E+01 0.40650167237E+01 0.37514407922E+01 0.34882705248E+01 0.32926339103E+01
 0.31732645425E+01 0.31332675761E+01 0.31732418453E+01 0.32925993179E+01 0.34882397862E+01
 0.37514262644E+01 0.40650209099E+01 0.44034061611E+01 0.47361237006E+01 0.50340883595E+01
 0.52754527243E+01 0.54454673971E+01 0.55414565912E+01 0.55717972239E+01 0.55414704192E+01
 0.54454866105E+01 0.52754662019E+01 0.50340874591E+01 0.42273754614E+01 0.39912360036E+01
 0.37631648032E+01 0.35620945128E+01 0.34023515232E+01 0.32926499957E+01 0.32371004012E+01
 0.32370813860E+01 0.32925993179E+01 0.34022864744E+01 0.35620357640E+01 0.37631288101E+01
 0.39912295382E+01 0.42273937375E+01 0.44511768495E+01 0.46446166555E+01 0.47952399057E+01
 0.48967628337E+01 0.49474580806E+01 0.49474520553E+01 0.48967447204E+01 0.47952106205E+01
 0.46445809827E+01 0.44511442626E+01 0.39040101484E+01 0.37776275178E+01 0.36606390860E+01
 0.35620812372E+01 0.34882721266E+01 0.34428692808E+01 0.34275733110E+01 0.34428529948E+01
 0.34882397862E+01 0.35620357640E+01 0.36605884873E+01 0.37775841708E+01 0.39039884882E+01
 0.40290620368E+01 0.41422754270E+01 0.42353118137E+01 0.43031828291E+01 0.43439672488E+01
 0.43574988009E+01 0.43439310403E+01 0.43031243374E+01 0.42352521946E+01 0.41422350926E+01
 0.40290526213E+01 0.37936386647E+01 0.37776112369E+01 0.37631290784E+01 0.37514044688E+01
 0.37432162155E+01 0.37390212395E+01 0.37390326515E+01 0.37432424257E+01 0.37514262644E+01
 0.37631288101E+01 0.37775841708E+01 0.37935962670E+01 0.38095294398E+01 0.38235860576E+01
 0.38343540258E+01 0.38413258196E+01 0.38450002356E+01 0.38464200003E+01 0.38464016637E+01
 0.38449546355E+01 0.38412766889E+01 0.38343266690E+01 0.38235928524E+01 0.38095643212E+01
 0.39039894137E+01 0.39911952134E+01 0.40649599698E+01 0.41205652181E+01 0.41549787829E+01
 0.41666231332E+01 0.41550197403E+01 0.41206295054E+01 0.40650209099E+01 0.39912295382E+01
 0.39039884882E+01 0.38095294398E+01 0.37149063016E+01 0.36270947303E+01 0.35522352389E+01
 0.34952239008E+01 0.34595887274E+01 0.34474681852E+01 0.34595843281E+01 0.34952230763E+01
 0.35522480021E+01 0.36271242488E+01 0.37149445182E+01 0.38095582318E+01 0.42273458188E+01
 0.44033463387E+01 0.45447755630E+01 0.46431228925E+01 0.46934046721E+01 0.46934193681E+01
 0.46431635024E+01 0.45448325010E+01 0.44034061611E+01 0.42273937375E+01 0.40290620368E+01
 0.38235860576E+01 0.36270947303E+01 0.34542780479E+01 0.33165490787E+01 0.32214203625E+01
 0.31730115993E+01 0.31730268610E+01 0.32214616689E+01 0.33166040769E+01 0.34543304845E+01
 0.36271296243E+01 0.38235927168E+01 0.40290381645E+01 0.47360883855E+01 0.49760052874E+01
 0.51558186098E+01 0.52665170370E+01 0.53037345133E+01 0.52665113973E+01 0.51558168742E+01
 0.49760197121E+01 0.47361237006E+01 0.44511768495E+01 0.41422754270E+01 0.38343540258E+01
 0.35522352389E+01 0.33165490787E+01 0.31413504270E+01 0.30342427321E+01 0.29983133058E+01
 0.30342824235E+01 0.31414110287E+01 0.33166029181E+01 0.35522595997E+01 0.38343408131E+01
 0.41422350926E+01 0.44511298120E+01 0.53724264547E+01 0.56309046369E+01 0.57956397034E+01
 0.58730802193E+01 0.58730628781E+01 0.57955965998E+01 0.56308580132E+01 0.53723998151E+01
 0.50340883595E+01 0.46446166555E+01 0.42353118137E+01 0.38413258196E+01 0.34952239008E+01
 0.32214203625E+01 0.30342427321E+01 0.29398261140E+01 0.29398366609E+01 0.30342668056E+01
 0.32214399340E+01 0.34952220289E+01 0.38412974119E+01 0.42352692723E+01 0.46445811183E+01
 0.50340806508E+01 0.59774463022E+01 0.61387895981E+01 0.62063549691E+01 0.62226776937E+01
 0.62063208652E+01 0.61387340292E+01 0.59773895712E+01 0.56877342788E+01 0.52754527243E+01
 0.47952399057E+01 0.43031828291E+01 0.38450002356E+01 0.34595887274E+01 0.31730115993E+01
 0.29983133058E+01 0.29398366609E+01 0.29983007414E+01 0.31729862953E+01 0.34595526235E+01
 0.38449597534E+01 0.43031492550E+01 0.47952246805E+01 0.52754662019E+01 0.56877744775E+01
 0.62188767518E+01 0.61758513263E+01 0.61194156041E+01 0.61194097271E+01 0.61758333820E+01
 0.62188476348E+01 0.61479683949E+01 0.58900565964E+01 0.54454673971E+01 0.48967628337E+01
 0.43439672488E+01 0.38464200003E+01 0.34474681852E+01 0.31730268610E+01 0.30342824235E+01
 0.30342668056E+01 0.31729862953E+01 0.34474170472E+01 0.38463771565E+01 0.43439458417E+01
 0.48967676700E+01 0.54454931385E+01 0.58900920995E+01 0.61480047962E+01 0.58006690389E+01
 0.55309417742E+01 0.54202232742E+01 0.55309555688E+01 0.58006871732E+01 0.60725494272E+01
 0.61718108259E+01 0.59909599384E+01 0.55414565912E+01 0.49474580806E+01 0.43574988009E+01
 0.38464016637E+01 0.34595843281E+01 0.32214616689E+01 0.31414110287E+01 0.32214399340E+01
 0.34595526235E+01 0.38463771565E+01 0.43574939068E+01 0.49474748921E+01 0.55414848496E+01
 0.59909845677E+01 0.61718201434E+01 0.60725405326E+01 0.46264985570E+01 0.42293168683E+01
 0.42293296621E+01 0.46265310433E+01 0.52494374390E+01 0.58317810055E+01 0.61300449837E+01
 0.60266997120E+01 0.55717972239E+01 0.49474520553E+01 0.43439310403E+01 0.38449546355E+01
 0.34952230763E+01 0.33166040769E+01 0.33166029181E+01 0.34952220289E+01 0.38449597534E+01
 0.43439458417E+01 0.49474748921E+01 0.55718194173E+01 0.60267110993E+01 0.61300372828E+01