   1   1   0   0
  0.1600000E+02  0.2828427E-09  0.2828427E-09  0.2828427E-09  0.5000000E-15
  1.000000000000000E-004
  CAR 
 fcc Si                                  
     35.56818487     -6.57649131  301      8.68115727      1.00000000
     -6.576  0.0000E+00  0.0000E+00
     -6.436  0.0000E+00  0.0000E+00
     -6.296  0.0000E+00  0.0000E+00
     -6.155  0.0000E+00  0.0000E+00
     -6.015  0.0000E+00  0.0000E+00
     -5.874  0.0000E+00  0.0000E+00
     -5.734  0.0000E+00  0.0000E+00
     -5.593  0.0000E+00  0.0000E+00
     -5.453  0.0000E+00  0.0000E+00
     -5.312  0.0000E+00  0.0000E+00
     -5.172  0.2691E-14  0.3780E-15
     -5.031  0.8695E-09  0.1221E-09
     -4.891  0.6150E-05  0.8640E-06
     -4.750  0.1097E-02  0.1549E-03
     -4.610  0.7704E-02  0.1237E-02
     -4.469  0.3345E-01  0.5937E-02
     -4.329  0.9213E-01  0.1888E-01
     -4.188  0.3045E-01  0.2316E-01
     -4.048  0.7096E-01  0.3313E-01
     -3.907  0.9581E-01  0.4659E-01
     -3.767  0.2160E+00  0.7693E-01
     -3.626  0.8172E-01  0.8841E-01
     -3.486  0.2684E-01  0.9218E-01
     -3.345  0.5725E-01  0.1002E+00
     -3.205  0.2424E+00  0.1343E+00
     -3.064  0.2345E+00  0.1672E+00
     -2.924  0.7859E-01  0.1783E+00
     -2.783  0.1800E+00  0.2035E+00
     -2.643  0.2005E+00  0.2317E+00
     -2.503  0.1519E+00  0.2531E+00
     -2.362  0.2230E-01  0.2562E+00
     -2.222  0.9210E-01  0.2691E+00
     -2.081  0.2422E+00  0.3032E+00
     -1.941  0.5045E+00  0.3740E+00
     -1.800  0.1211E+00  0.3910E+00
     -1.660  0.1568E+00  0.4131E+00
     -1.519  0.1602E+00  0.4356E+00
     -1.379  0.3119E+00  0.4794E+00
     -1.238  0.1274E+00  0.4973E+00
     -1.098  0.4934E-01  0.5042E+00
     -0.957  0.1119E+00  0.5199E+00
     -0.817  0.4617E+00  0.5848E+00
     -0.676  0.2316E+00  0.6173E+00
     -0.536  0.2131E+00  0.6473E+00
     -0.395  0.3503E+00  0.6965E+00
     -0.255  0.5183E+00  0.7693E+00
     -0.114  0.2003E+00  0.7974E+00
      0.026  0.1847E-01  0.8000E+00
      0.167  0.5921E-01  0.8083E+00
      0.307  0.2957E+00  0.8499E+00
      0.448  0.4158E+00  0.9083E+00
      0.588  0.1212E+00  0.9253E+00
      0.729  0.2878E+00  0.9658E+00
      0.869  0.4341E+00  0.1027E+01
      1.010  0.4108E+00  0.1084E+01
      1.150  0.6852E-01  0.1094E+01
      1.291  0.2127E+00  0.1124E+01
      1.431  0.5361E+00  0.1199E+01
      1.571  0.7201E+00  0.1300E+01
      1.712  0.2713E+00  0.1339E+01
      1.852  0.2689E-01  0.1342E+01
      1.993  0.1590E+00  0.1365E+01
      2.133  0.3586E+00  0.1415E+01
      2.274  0.2082E+00  0.1444E+01
      2.414  0.5340E-01  0.1452E+01
      2.555  0.2776E+00  0.1491E+01
      2.695  0.5012E+00  0.1561E+01
      2.836  0.4857E+00  0.1629E+01
      2.976  0.4348E+00  0.1691E+01
      3.117  0.3773E+00  0.1744E+01
      3.257  0.4212E+00  0.1803E+01
      3.398  0.1930E+00  0.1830E+01
      3.538  0.2260E+00  0.1862E+01
      3.679  0.5651E-01  0.1869E+01
      3.819  0.1738E+00  0.1894E+01
      3.960  0.6388E+00  0.1984E+01
      4.100  0.8862E+00  0.2108E+01
      4.241  0.1989E+00  0.2136E+01
      4.381  0.8988E-01  0.2149E+01
      4.522  0.3210E+00  0.2194E+01
      4.662  0.1618E+00  0.2217E+01
      4.803  0.1793E+00  0.2242E+01
      4.943  0.2105E+00  0.2271E+01
      5.084  0.9846E+00  0.2410E+01
      5.224  0.6334E+00  0.2499E+01
      5.365  0.2370E+00  0.2532E+01
      5.505  0.2509E+00  0.2567E+01
      5.645  0.6119E+00  0.2653E+01
      5.786  0.3616E+00  0.2704E+01
      5.926  0.3579E+00  0.2754E+01
      6.067  0.3001E+00  0.2796E+01
      6.207  0.3885E+00  0.2851E+01
      6.348  0.2556E+00  0.2887E+01
      6.488  0.5890E+00  0.2970E+01
      6.629  0.4906E+00  0.3038E+01
      6.769  0.5326E+00  0.3113E+01
      6.910  0.1656E+00  0.3137E+01
      7.050  0.1720E+00  0.3161E+01
      7.191  0.6569E-01  0.3170E+01
      7.331  0.2989E+00  0.3212E+01
      7.472  0.1049E+01  0.3359E+01
      7.612  0.7614E+00  0.3466E+01
      7.753  0.4177E+00  0.3525E+01
      7.893  0.3071E+00  0.3568E+01
      8.034  0.1647E+00  0.3591E+01
      8.174  0.3474E+00  0.3640E+01
      8.315  0.3260E+00  0.3686E+01
      8.455  0.8152E+00  0.3800E+01
      8.596  0.1157E+01  0.3963E+01
      8.736  0.3563E+00  0.4013E+01
      8.877  0.2542E+00  0.4049E+01
      9.017  0.3439E+00  0.4097E+01
      9.158  0.1051E+00  0.4112E+01
      9.298  0.2235E+00  0.4143E+01
      9.438  0.2002E+00  0.4171E+01
      9.579  0.5177E+00  0.4244E+01
      9.719  0.4582E+00  0.4308E+01
      9.860  0.9328E+00  0.4439E+01
     10.000  0.7749E+00  0.4548E+01
     10.141  0.4877E+00  0.4617E+01
     10.281  0.3148E+00  0.4661E+01
     10.422  0.4044E+00  0.4718E+01
     10.562  0.3872E+00  0.4772E+01
     10.703  0.5723E+00  0.4853E+01
     10.843  0.8300E+00  0.4969E+01
     10.984  0.5866E+00  0.5052E+01
     11.124  0.4606E+00  0.5116E+01
     11.265  0.9173E+00  0.5245E+01
     11.405  0.4503E+00  0.5308E+01
     11.546  0.1995E+00  0.5336E+01
     11.686  0.4420E+00  0.5399E+01
     11.827  0.6111E+00  0.5484E+01
     11.967  0.5298E+00  0.5559E+01
     12.108  0.4249E+00  0.5619E+01
     12.248  0.4540E+00  0.5682E+01
     12.389  0.5641E+00  0.5762E+01
     12.529  0.8179E+00  0.5876E+01
     12.670  0.8336E+00  0.5994E+01
     12.810  0.8794E+00  0.6117E+01
     12.951  0.6010E+00  0.6202E+01
     13.091  0.4742E+00  0.6268E+01
     13.232  0.3455E+00  0.6317E+01
     13.372  0.6304E+00  0.6405E+01
     13.512  0.3471E+00  0.6454E+01
     13.653  0.7409E-01  0.6464E+01
     13.793  0.7168E-01  0.6474E+01
     13.934  0.6826E+00  0.6570E+01
     14.074  0.1106E+01  0.6726E+01
     14.215  0.5986E+00  0.6810E+01
     14.355  0.4933E+00  0.6879E+01
     14.496  0.3935E+00  0.6934E+01
     14.636  0.5716E+00  0.7015E+01
     14.777  0.3897E+00  0.7069E+01
     14.917  0.3947E+00  0.7125E+01
     15.058  0.5532E+00  0.7203E+01
     15.198  0.5492E+00  0.7280E+01
     15.339  0.8464E+00  0.7399E+01
     15.479  0.4805E+00  0.7466E+01
     15.620  0.5183E+00  0.7539E+01
     15.760  0.2668E+00  0.7576E+01
     15.901  0.2855E+00  0.7617E+01
     16.041  0.5132E+00  0.7689E+01
     16.182  0.6363E+00  0.7778E+01
     16.322  0.6182E+00  0.7865E+01
     16.463  0.2155E+00  0.7895E+01
     16.603  0.3252E+00  0.7941E+01
     16.744  0.6579E+00  0.8033E+01
     16.884  0.8103E+00  0.8147E+01
     17.025  0.7559E+00  0.8253E+01
     17.165  0.3904E+00  0.8308E+01
     17.305  0.8268E+00  0.8424E+01
     17.446  0.8631E+00  0.8546E+01
     17.586  0.4961E+00  0.8615E+01
     17.727  0.3301E+00  0.8662E+01
     17.867  0.8134E+00  0.8776E+01
     18.008  0.4495E+00  0.8839E+01
     18.148  0.5020E+00  0.8910E+01
     18.289  0.7184E+00  0.9011E+01
     18.429  0.5784E+00  0.9092E+01
     18.570  0.2640E+00  0.9129E+01
     18.710  0.3638E+00  0.9180E+01
     18.851  0.4763E+00  0.9247E+01
     18.991  0.7186E+00  0.9348E+01
     19.132  0.1249E+00  0.9365E+01
     19.272  0.2219E+00  0.9397E+01
     19.413  0.9184E+00  0.9526E+01
     19.553  0.1222E+01  0.9697E+01
     19.694  0.7372E+00  0.9801E+01
     19.834  0.6871E+00  0.9897E+01
     19.975  0.4786E+00  0.9965E+01
     20.115  0.3940E+00  0.1002E+02
     20.256  0.5046E+00  0.1009E+02
     20.396  0.4686E+00  0.1016E+02
     20.537  0.4582E+00  0.1022E+02
     20.677  0.6723E+00  0.1032E+02
     20.818  0.1474E+01  0.1052E+02
     20.958  0.9779E+00  0.1066E+02
     21.099  0.6032E+00  0.1074E+02
     21.239  0.4814E+00  0.1081E+02
     21.379  0.5721E+00  0.1089E+02
     21.520  0.6750E+00  0.1099E+02
     21.660  0.6039E+00  0.1107E+02
     21.801  0.3839E+00  0.1113E+02
     21.941  0.3634E+00  0.1118E+02
     22.082  0.2375E+00  0.1121E+02
     22.222  0.9907E+00  0.1135E+02
     22.363  0.8941E+00  0.1148E+02
     22.503  0.1120E+01  0.1163E+02
     22.644  0.1166E+01  0.1180E+02
     22.784  0.7139E+00  0.1190E+02
     22.925  0.6725E+00  0.1199E+02
     23.065  0.4023E+00  0.1205E+02
     23.206  0.5473E+00  0.1212E+02
     23.346  0.9051E+00  0.1225E+02
     23.487  0.5466E+00  0.1233E+02
     23.627  0.5787E+00  0.1241E+02
     23.768  0.5090E+00  0.1248E+02
     23.908  0.2005E+00  0.1251E+02
     24.049  0.4530E+00  0.1257E+02
     24.189  0.7757E+00  0.1268E+02
     24.330  0.1299E+01  0.1286E+02
     24.470  0.7233E+00  0.1297E+02
     24.611  0.4371E+00  0.1303E+02
     24.751  0.1093E+01  0.1318E+02
     24.892  0.1108E+01  0.1334E+02
     25.032  0.3999E+00  0.1339E+02
     25.172  0.2489E+00  0.1343E+02
     25.313  0.2704E+00  0.1347E+02
     25.453  0.6740E+00  0.1356E+02
     25.594  0.2738E+00  0.1360E+02
     25.734  0.3424E+00  0.1365E+02
     25.875  0.1014E+01  0.1379E+02
     26.015  0.8819E+00  0.1391E+02
     26.156  0.8888E+00  0.1404E+02
     26.296  0.7761E+00  0.1415E+02
     26.437  0.1837E+00  0.1417E+02
     26.577  0.3379E+00  0.1422E+02
     26.718  0.1211E+01  0.1439E+02
     26.858  0.5110E+00  0.1446E+02
     26.999  0.1641E+00  0.1449E+02
     27.139  0.5249E+00  0.1456E+02
     27.280  0.4746E+00  0.1463E+02
     27.420  0.1501E+00  0.1465E+02
     27.561  0.7290E-01  0.1466E+02
     27.701  0.6390E+00  0.1475E+02
     27.842  0.7217E+00  0.1485E+02
     27.982  0.1601E+00  0.1487E+02
     28.123  0.3458E+00  0.1492E+02
     28.263  0.1111E+01  0.1508E+02
     28.404  0.1044E+01  0.1522E+02
     28.544  0.5676E+00  0.1530E+02
     28.685  0.1944E+00  0.1533E+02
     28.825  0.4157E+00  0.1539E+02
     28.966  0.2092E+00  0.1542E+02
     29.106  0.4037E+00  0.1547E+02
     29.246  0.4241E+00  0.1553E+02
     29.387  0.1587E+00  0.1556E+02
     29.527  0.2151E+00  0.1559E+02
     29.668  0.1183E+00  0.1560E+02
     29.808  0.2167E-01  0.1561E+02
     29.949  0.1597E+00  0.1563E+02
     30.089  0.9686E-01  0.1564E+02
     30.230  0.2337E+00  0.1567E+02
     30.370  0.2410E+00  0.1571E+02
     30.511  0.2148E-01  0.1571E+02
     30.651  0.2548E-01  0.1572E+02
     30.792  0.3000E+00  0.1576E+02
     30.932  0.2175E+00  0.1579E+02
     31.073  0.1761E+00  0.1581E+02
     31.213  0.1126E+00  0.1583E+02
     31.354  0.7975E-01  0.1584E+02
     31.494  0.1773E+00  0.1586E+02
     31.635  0.1162E+00  0.1588E+02
     31.775  0.8022E-01  0.1589E+02
     31.916  0.1579E+00  0.1591E+02
     32.056  0.2986E+00  0.1596E+02
     32.197  0.5632E-01  0.1596E+02
     32.337  0.3170E-01  0.1597E+02
     32.478  0.3001E-01  0.1597E+02
     32.618  0.1415E-02  0.1597E+02
     32.759  0.2039E-05  0.1597E+02
     32.899  0.5104E-05  0.1597E+02
     33.040  0.3210E-02  0.1597E+02
     33.180  0.6238E-01  0.1598E+02
     33.320  0.5994E-01  0.1599E+02
     33.461  0.3034E-02  0.1599E+02
     33.601  0.1487E-01  0.1599E+02
     33.742  0.4248E-01  0.1600E+02
     33.882  0.6578E-02  0.1600E+02
     34.023  0.3690E-04  0.1600E+02
     34.163  0.5217E-08  0.1600E+02
     34.304  0.1615E-13  0.1600E+02
     34.444  0.0000E+00  0.1600E+02
     34.585  0.0000E+00  0.1600E+02
     34.725  0.0000E+00  0.1600E+02
     34.866  0.0000E+00  0.1600E+02
     35.006  0.0000E+00  0.1600E+02
     35.147  0.0000E+00  0.1600E+02
     35.287  0.0000E+00  0.1600E+02
     35.428  0.0000E+00  0.1600E+02
     35.568  0.0000E+00  0.1600E+02
