    1    1    1    1
  0.1600000E+02  0.2828427E-09  0.2828427E-09  0.2828427E-09  0.5000000E-15
  1.000000000000000E-004
  CAR 
 fcc Si                                  
      4     56      8
 
  0.0000000E+00  0.0000000E+00  0.0000000E+00  0.7513148E-03
      1         -4.660824   1.000000
      2         18.866586   0.000000
      3         18.866618   0.000000
      4         18.866618   0.000000
      5         20.541863   0.000000
      6         20.541890   0.000000
      7         20.541890   0.000000
      8         25.565077   0.000000
 
  0.9090909E-01  0.0000000E+00  0.0000000E+00  0.6010518E-02
      1         -4.436432   1.000000
      2         16.314512   0.000000
      3         18.219559   0.000000
      4         18.219586   0.000000
      5         21.288882   0.000000
      6         21.437520   0.000000
      7         21.437562   0.000000
      8         26.053772   0.000000
 
  0.1818182E+00  0.0000000E+00  0.0000000E+00  0.6010518E-02
      1         -3.764550   1.000000
      2         12.737180   0.000000
      3         17.414887   0.000000
      4         17.414917   0.000000
      5         21.305897   0.000000
      6         22.351076   0.000000
      7         22.351199   0.000000
      8         25.202219   0.000000
 
  0.2727273E+00  0.0000000E+00  0.0000000E+00  0.6010518E-02
      1         -2.651333   1.000000
      2          9.284932   0.000000
      3         16.883651   0.000000
      4         16.883682   0.000000
      5         21.142037   0.000000
      6         21.463252   0.000000
      7         21.463374   0.000000
      8         26.436015   0.000000
 
  0.3636364E+00  0.0000000E+00  0.0000000E+00  0.6010518E-02
      1         -1.108937   1.000000
      2          6.141951   1.000000
      3         16.631971   0.000000
      4         16.632003   0.000000
      5         20.293800   0.000000
      6         20.293947   0.000000
      7         21.094023   0.000000
      8         25.074845   0.000000
 
  0.4545455E+00  0.0000000E+00  0.0000000E+00  0.6010518E-02
      1          0.809859   1.000000
      2          3.416454   1.000000
      3         16.575917   0.000000
      4         16.575945   0.000000
      5         19.610436   0.000000
      6         19.610589   0.000000
      7         21.189035   0.000000
      8         24.263117   0.000000
 
  0.9090909E-01  0.9090909E-01  0.1261617E-17  0.4507889E-02
      1         -4.361678   1.000000
      2         17.036146   0.000000
      3         17.036163   0.000000
      4         18.144396   0.000000
      5         19.149095   0.000000
      6         22.737106   0.000000
      7         22.737129   0.000000
      8         24.212684   0.000000
 
  0.1818182E+00  0.9090909E-01  0.0000000E+00  0.1803156E-01
      1         -3.838877   1.000000
      2         14.068584   0.000000
      3         16.085975   0.000000
      4         17.561080   0.000000
      5         19.601328   0.000000
      6         22.414152   0.000000
      7         23.529426   0.000000
      8         24.030725   0.000000
 
  0.2727273E+00  0.9090909E-01  0.0000000E+00  0.1803156E-01
      1         -2.872796   1.000000
      2         10.579130   0.000000
      3         15.487142   0.000000
      4         16.772905   0.000000
      5         19.482485   0.000000
      6         22.366800   0.000000
      7         23.656790   0.000000
      8         24.057584   0.000000
 
  0.3636364E+00  0.9090909E-01  0.0000000E+00  0.1803156E-01
      1         -1.472453   1.000000
      2          7.333221   1.000000
      3         15.256936   0.000000
      4         16.006465   0.000000
      5         18.671417   0.000000
      6         22.392959   0.000000
      7         22.657748   0.000000
      8         25.895364   0.000000
 
  0.4545455E+00  0.9090909E-01  0.0000000E+00  0.1803156E-01
      1          0.336381   1.000000
      2          4.453653   1.000000
      3         15.222531   0.000000
      4         15.389175   0.000000
      5         18.463204   0.000000
      6         21.314188   0.000000
      7         22.661961   0.000000
      8         26.179323   0.000000
 
 -0.4545455E+00  0.9090909E-01  0.0000000E+00  0.1803156E-01
      1          1.616275   1.000000
      2          2.904946   1.000000
      3         14.572178   0.000000
      4         15.855788   0.000000
      5         18.874333   0.000000
      6         20.612177   0.000000
      7         22.534090   0.000000
      8         26.086038   0.000000
 
 -0.3636364E+00  0.9090909E-01  0.0000000E+00  0.1803156E-01
      1         -0.308311   1.000000
      2          5.366321   1.000000
      3         14.202425   0.000000
      4         16.590178   0.000000
      5         19.776038   0.000000
      6         20.394759   0.000000
      7         22.324923   0.000000
      8         26.644132   0.000000
 
 -0.2727273E+00  0.9090909E-01  0.0000000E+00  0.1803156E-01
      1         -1.986711   1.000000
      2          8.379480   0.999990
      3         14.184488   0.000000
      4         17.466842   0.000000
      5         20.746180   0.000000
      6         21.071719   0.000000
      7         22.220089   0.000000
      8         25.871391   0.000000
 
 -0.1818182E+00  0.9090909E-01  0.0000000E+00  0.1803156E-01
      1         -3.243802   1.000000
      2         11.726001   0.000000
      3         14.540971   0.000000
      4         18.331536   0.000000
      5         21.499422   0.000000
      6         22.150074   0.000000
      7         22.566007   0.000000
      8         23.770228   0.000000
 
 -0.9090909E-01  0.9090909E-01  0.0000000E+00  0.9015778E-02
      1         -4.062800   1.000000
      2         15.194322   0.000000
      3         15.326143   0.000000
      4         18.904624   0.000000
      5         21.122823   0.000000
      6         21.786421   0.000000
      7         22.983031   0.000000
      8         24.195436   0.000000
 
  0.1818182E+00  0.1818182E+00  0.2523234E-17  0.4507889E-02
      1         -3.466053   1.000000
      2         15.012692   0.000000
      3         15.012711   0.000000
      4         16.280803   0.000000
      5         17.059686   0.000000
      6         20.088641   0.000000
      7         25.811602   0.000000
      8         25.811627   0.000000
 
  0.2727273E+00  0.1818182E+00  0.0000000E+00  0.1803156E-01
      1         -2.649254   1.000000
      2         12.193218   0.000000
      3         14.294467   0.000000
      4         15.194773   0.000000
      5         17.275080   0.000000
      6         19.415046   0.000000
      7         26.264433   0.000000
      8         26.587600   0.000000
 
  0.3636364E+00  0.1818182E+00  0.0000000E+00  0.1803156E-01
      1         -1.395417   1.000000
      2          8.912849   0.000525
      3         13.859210   0.000000
      4         13.956730   0.000000
      5         16.917368   0.000000
      6         21.315414   0.000000
      7         25.147763   0.000000
      8         26.642544   0.000000
 
  0.4545455E+00  0.1818182E+00  0.0000000E+00  0.1803156E-01
      1          0.279738   1.000000
      2          5.922731   1.000000
      3         12.627467   0.000000
      4         14.003313   0.000000
      5         16.869007   0.000000
      6         23.635040   0.000000
      7         23.985027   0.000000
      8         26.774433   0.000000
 
 -0.4545455E+00  0.1818182E+00  0.0000000E+00  0.1803156E-01
      1          2.203361   1.000000
      2          3.467571   1.000000
      3         11.685148   0.000000
      4         14.427868   0.000000
      5         17.299149   0.000000
      6         23.090843   0.000000
      7         24.718723   0.000000
      8         28.114065   0.000000
 
 -0.3636364E+00  0.1818182E+00  0.0000000E+00  0.1803156E-01
      1          0.919891   1.000000
      2          5.017789   1.000000
      3         11.107575   0.000000
      4         15.213667   0.000000
      5         18.172238   0.000000
      6         22.593268   0.000000
      7         24.566084   0.000000
      8         28.347757   0.000000
 
 -0.2727273E+00  0.1818182E+00  0.0000000E+00  0.1803156E-01
      1         -0.883928   1.000000
      2          7.877759   1.000000
      3         10.926323   0.000000
      4         16.313029   0.000000
      5         19.445601   0.000000
      6         22.507756   0.000000
      7         24.172060   0.000000
      8         25.370349   0.000000
 
 -0.1818182E+00  0.1818182E+00  0.0000000E+00  0.9015778E-02
      1         -2.280653   1.000000
      2         10.907492   0.000000
      3         11.331613   0.000000
      4         17.582951   0.000000
      5         21.036931   0.000000
      6         22.867325   0.000000
      7         22.892828   0.000000
      8         23.452323   0.000000
 
  0.2727273E+00  0.2727273E+00  0.3784851E-17  0.4507889E-02
      1         -1.982487   1.000000
      2         13.182980   0.000000
      3         13.450884   0.000000
      4         13.450901   0.000000
      5         15.346454   0.000000
      6         17.288423   0.000000
      7         28.814928   0.000000
      8         28.814966   0.000000
 
  0.3636364E+00  0.2727273E+00  0.0000000E+00  0.1803156E-01
      1         -0.877433   1.000000
      2         10.687954   0.000000
      3         11.712737   0.000000
      4         12.988709   0.000000
      5         15.569103   0.000000
      6         17.837123   0.000000
      7         28.176019   0.000000
      8         29.517625   0.000000
 
  0.4545455E+00  0.2727273E+00  0.0000000E+00  0.1803156E-01
      1          0.653306   1.000000
      2          7.749891   1.000000
      3         10.127363   0.000000
      4         12.915702   0.000000
      5         15.597189   0.000000
      6         20.357548   0.000000
      7         27.028453   0.000000
      8         29.180674   0.000000
 
 -0.4545455E+00  0.2727273E+00  0.0000000E+00  0.1803156E-01
      1          2.560082   1.000000
      2          5.086251   1.000000
      3          8.957794   0.000046
      4         13.231370   0.000000
      5         15.954372   0.000000
      6         23.333789   0.000000
      7         26.060753   0.000000
      8         28.495248   0.000000
 
 -0.3636364E+00  0.2727273E+00  0.0000000E+00  0.1803156E-01
      1          2.547986   1.000000
      2          5.100366   1.000000
      3          8.205120   1.000000
      4         13.928136   0.000000
      5         16.731377   0.000000
      6         25.393267   0.000000
      7         26.112044   0.000000
      8         27.689216   0.000000
 
 -0.2727273E+00  0.2727273E+00  0.0000000E+00  0.9015778E-02
      1          0.644711   1.000000
      2          7.554040   1.000000
      3          8.100974   1.000000
      4         14.981028   0.000000
      5         17.911927   0.000000
      6         24.762659   0.000000
      7         25.680009   0.000000
      8         25.996213   0.000000
 
  0.3636364E+00  0.3636364E+00  0.5046468E-17  0.4507889E-02
      1          0.076992   1.000000
      2          9.417781   0.000000
      3         12.398814   0.000000
      4         12.398830   0.000000
      5         14.174763   0.000000
      6         15.898768   0.000000
      7         30.948825   0.000000
      8         31.549046   0.000000
 
  0.4545455E+00  0.3636364E+00  0.0000000E+00  0.1803156E-01
      1          1.458053   1.000000
      2          7.688496   1.000000
      3         10.139613   0.000000
      4         12.198631   0.000000
      5         14.648861   0.000000
      6         16.983750   0.000000
      7         30.194687   0.000000
      8         31.917800   0.000000
 
 -0.4545455E+00  0.3636364E+00  0.0000000E+00  0.1803156E-01
      1          3.240811   1.000000
      2          6.236802   1.000000
      3          7.518462   1.000000
      4         12.391019   0.000000
      5         14.987963   0.000000
      6         19.861754   0.000000
      7         29.200500   0.000000
      8         31.061866   0.000000
 
 -0.3636364E+00  0.3636364E+00  0.0000000E+00  0.9015778E-02
      1          4.428741   1.000000
      2          5.293129   1.000000
      3          6.106794   1.000000
      4         12.971936   0.000000
      5         15.656126   0.000000
      6         23.152025   0.000000
      7         28.012576   0.000000
      8         29.420782   0.000000
 
  0.4545455E+00  0.4545455E+00  0.6308085E-17  0.4507889E-02
      1          2.685038   1.000000
      2          5.846314   1.000000
      3         11.869989   0.000000
      4         11.870004   0.000000
      5         13.583403   0.000000
      6         15.273379   0.000000
      7         32.335267   0.000000
      8         33.652518   0.000000
 
 -0.4545455E+00  0.4545455E+00  0.0000000E+00  0.9015778E-02
      1          4.158151   1.000000
      2          4.520332   1.000000
      3          9.835559   0.000000
      4         11.934394   0.000000
      5         14.347389   0.000000
      6         16.704009   0.000000
      7         31.644453   0.000000
      8         33.178032   0.000000
 
  0.2727273E+00  0.1818182E+00  0.9090909E-01  0.1803156E-01
      1         -3.169098   1.000000
      2         13.077966   0.000000
      3         13.334982   0.000000
      4         17.397999   0.000000
      5         19.493506   0.000000
      6         21.021561   0.000000
      7         24.268747   0.000000
      8         24.860227   0.000000
 
  0.3636364E+00  0.1818182E+00  0.9090909E-01  0.3606311E-01
      1         -2.058934   1.000000
      2          9.812368   0.000000
      3         12.732008   0.000000
      4         16.167767   0.000000
      5         19.540820   0.000000
      6         21.827820   0.000000
      7         23.339505   0.000000
      8         25.417893   0.000000
 
  0.4545455E+00  0.1818182E+00  0.9090909E-01  0.3606311E-01
      1         -0.519853   1.000000
      2          6.697172   1.000000
      3         12.617490   0.000000
      4         14.896460   0.000000
      5         19.309072   0.000000
      6         21.546429   0.000000
      7         24.219824   0.000000
      8         26.197064   0.000000
 
 -0.4545455E+00  0.1818182E+00  0.9090909E-01  0.3606311E-01
      1          1.394298   1.000000
      2          3.982968   1.000000
      3         12.802753   0.000000
      4         13.978945   0.000000
      5         19.388018   0.000000
      6         20.741465   0.000000
      7         24.793801   0.000000
      8         28.251043   0.000000
 
  0.3636364E+00  0.2727273E+00  0.9090909E-01  0.1803156E-01
      1         -1.688422   1.000000
      2         11.435743   0.000000
      3         11.670053   0.000000
      4         13.947934   0.000000
      5         17.885493   0.000000
      6         18.927514   0.000000
      7         25.814749   0.000000
      8         28.293882   0.000000
 
  0.4545455E+00  0.2727273E+00  0.9090909E-01  0.3606311E-01
      1         -0.295146   1.000000
      2          8.405532   0.999951
      3         11.225387   0.000000
      4         12.503628   0.000000
      5         18.113174   0.000000
      6         20.871288   0.000000
      7         24.655346   0.000000
      8         28.744726   0.000000
 
 -0.4545455E+00  0.2727273E+00  0.9090909E-01  0.3606311E-01
      1          1.504733   1.000000
      2          5.569290   1.000000
      3         10.717414   0.000000
      4         11.936780   0.000000
      5         18.307482   0.000000
      6         22.880735   0.000000
      7         24.359165   0.000000
      8         28.430039   0.000000
 
 -0.3636364E+00  0.2727273E+00  0.9090909E-01  0.3606311E-01
      1          2.784062   1.000000
      2          4.028556   1.000000
      3          9.984260   0.000000
      4         12.388822   0.000000
      5         18.870111   0.000000
      6         22.508698   0.000000
      7         26.668492   0.000000
      8         27.241100   0.000000
 
 -0.2727273E+00  0.2727273E+00  0.9090909E-01  0.3606311E-01
      1          0.860671   1.000000
      2          6.474579   1.000000
      3          9.549807   0.000000
      4         13.342073   0.000000
      5         19.760127   0.000000
      6         22.130921   0.000000
      7         24.721499   0.000000
      8         27.775402   0.000000
 
 -0.1818182E+00  0.2727273E+00  0.9090909E-01  0.1803156E-01
      1         -0.809119   1.000000
      2          9.237266   0.000000
      3          9.709626   0.000000
      4         14.670686   0.000000
      5         20.765026   0.000000
      6         21.648549   0.000000
      7         22.761957   0.000000
      8         27.088331   0.000000
 
  0.4545455E+00  0.3636364E+00  0.9090909E-01  0.1803156E-01
      1          0.366314   1.000000
      2          9.499484   0.000000
      3         10.329147   0.000000
      4         11.128644   0.000000
      5         16.784070   0.000000
      6         17.790748   0.000000
      7         27.731287   0.000000
      8         31.390838   0.000000
 
 -0.4545455E+00  0.3636364E+00  0.9090909E-01  0.3606311E-01
      1          2.026872   1.000000
      2          7.403396   1.000000
      3          8.502853   0.994159
      4         10.789969   0.000000
      5         17.290744   0.000000
      6         20.170615   0.000000
      7         26.672150   0.000000
      8         30.767892   0.000000
 
 -0.3636364E+00  0.3636364E+00  0.9090909E-01  0.3606311E-01
      1          3.946318   1.000000
      2          5.081072   1.000000
      3          7.394773   1.000000
      4         11.215916   0.000000
      5         17.786354   0.000000
      6         23.231709   0.000000
      7         25.866440   0.000000
      8         28.210228   0.000000
 
 -0.2727273E+00  0.3636364E+00  0.9090909E-01  0.1803156E-01
      1          2.641241   1.000000
      2          6.425263   1.000000
      3          6.998187   1.000000
      4         12.081205   0.000000
      5         18.637909   0.000000
      6         24.863728   0.000000
      7         24.906935   0.000000
      8         27.101848   0.000000
 
 -0.4545455E+00  0.4545455E+00  0.9090909E-01  0.1803156E-01
      1          2.967483   1.000000
      2          6.099726   1.000000
      3          9.773050   0.000000
      4         10.385404   0.000000
      5         16.225734   0.000000
      6         17.243176   0.000000
      7         29.913938   0.000000
      8         31.994077   0.000000
 
 -0.3636364E+00  0.4545455E+00  0.9090909E-01  0.1803156E-01
      1          4.725905   1.000000
      2          4.986758   1.000000
      3          7.478006   1.000000
      4         10.470204   0.000000
      5         17.013169   0.000000
      6         19.925598   0.000000
      7         29.015885   0.000000
      8         29.051568   0.000000
 
 -0.4545455E+00  0.3636364E+00  0.1818182E+00  0.1803156E-01
      1          1.229871   1.000000
      2          8.114309   1.000000
      3          8.500771   0.994630
      4         10.913121   0.000000
      5         20.597762   0.000000
      6         20.793555   0.000000
      7         23.594246   0.000000
      8         30.269659   0.000000
 
 -0.3636364E+00  0.3636364E+00  0.1818182E+00  0.3606311E-01
      1          3.128650   1.000000
      2          5.640515   1.000000
      3          8.523730   0.987005
      4          9.871218   0.000000
      5         20.802406   0.000000
      6         22.186653   0.000000
      7         24.275176   0.000000
      8         27.645703   0.000000
 
 -0.3636364E+00  0.4545455E+00  0.1818182E+00  0.1803156E-01
      1          3.796030   1.000000
      2          6.719067   1.000000
      3          7.551652   1.000000
      4          8.578454   0.926811
      5         20.067466   0.000000
      6         20.512915   0.000000
      7         25.699374   0.000000
      8         28.289953   0.000000
 
 -0.2727273E+00  0.4545455E+00  0.1818182E+00  0.1803156E-01
      1          5.004878   1.000000
      2          5.858906   1.000000
      3          6.488970   1.000000
      4          8.752226   0.157434
      5         20.789223   0.000000
      6         23.231964   0.000000
      7         24.414852   0.000000
      8         25.848440   0.000000
