       N       E                     dE             d eps       ncg     rms          rms(c)
DAV:   1    -0.392614542902E+01   -0.39261E+01   -0.11774E+03   992   0.214E+02
DAV:   2    -0.486262788799E+01   -0.93648E+00   -0.91030E+00  1416   0.173E+01
DAV:   3    -0.486626095742E+01   -0.36331E-02   -0.36322E-02   944   0.102E+00
DAV:   4    -0.486626326161E+01   -0.23042E-05   -0.23052E-05  1504   0.258E-02
DAV:   5    -0.486626326234E+01   -0.72971E-09   -0.27086E-09   856   0.121E-04    0.259E+00
DAV:   6    -0.485503535430E+01    0.11228E-01   -0.41198E-03   984   0.276E-01    0.143E+00
DAV:   7    -0.484880170364E+01    0.62337E-02   -0.79469E-03  1008   0.382E-01    0.126E-01
DAV:   8    -0.484877530874E+01    0.26395E-04   -0.26345E-05  1096   0.384E-02
   1 F= -.48487753E+01 E0= -.48481407E+01  d E =-.126921E-02
