 vasp.6.3.0 20Jan22 (build Feb 01 2022 16:52:37) complex                        
  
 executed on           TETRA_NSC1 date 2022.02.22  16:07:17
 running    4 mpi-ranks, with    1 threads/rank
 distrk:  each k-point on    4 cores,    1 groups
 distr:  one band on NCORE=   1 cores,    4 groups


--------------------------------------------------------------------------------------------------------


 INCAR:
   SYSTEM = fcc Si
   ISTART = 0
   ICHARG = 2
   ENCUT = 240
   ISMEAR = 0
   SIGMA = 0.1

 POTCAR:    PAW_PBE Si 05Jan2001                  
 POTCAR:    PAW_PBE Si 05Jan2001                  
   VRHFIN =Si: s2p2                                                                                 
   LEXCH  = PE                                                                                      
   EATOM  =   103.0669 eV,    7.5752 Ry                                                             
                                                                                                    
   TITEL  = PAW_PBE Si 05Jan2001                                                                    
   LULTRA =        F    use ultrasoft PP ?                                                          
   IUNSCR =        1    unscreen: 0-lin 1-nonlin 2-no                                               
   RPACOR =    1.500    partial core radius                                                         
   POMASS =   28.085; ZVAL   =    4.000    mass and valenz                                          
   RCORE  =    1.900    outmost cutoff radius                                                       
   RWIGS  =    2.480; RWIGS  =    1.312    wigner-seitz radius (au A)                               
   ENMAX  =  245.345; ENMIN  =  184.009 eV                                                          
   ICORE  =        2    local potential                                                             
   LCOR   =        T    correct aug charges                                                         
   LPAW   =        T    paw PP                                                                      
   EAUG   =  322.069                                                                                
   DEXC   =    0.000                                                                                
   RMAX   =    1.950    core radius for proj-oper                                                   
   RAUG   =    1.300    factor for augmentation sphere                                              
   RDEP   =    1.993    radius for radial grids                                                     
   RDEPT  =    1.837    core radius for aug-charge                                                  
                                                                                                    
   Atomic configuration                                                                             
    6 entries                                                                                       
     n  l   j            E        occ.                                                              
     1  0  0.50     -1785.8828   2.0000                                                             
     2  0  0.50      -139.4969   2.0000                                                             
     2  1  1.50       -95.5546   6.0000                                                             
     3  0  0.50       -10.8127   2.0000                                                             
     3  1  0.50        -4.0811   2.0000                                                             
     3  2  1.50        -4.0817   0.0000                                                             
   Description                                                                                      
     l       E           TYP  RCUT    TYP  RCUT                                                     
     0    -10.8127223     23  1.900                                                                 
     0     -7.6451159     23  1.900                                                                 
     1     -4.0811372     23  1.900                                                                 
     1      2.4879257     23  1.900                                                                 
     2     -4.0817478      7  1.900                                                                 
  local pseudopotential read in
  partial core-charges read in
  partial kinetic energy density read in
  atomic valenz-charges read in
  non local Contribution for L=           0  read in
    real space projection operators read in
  non local Contribution for L=           0  read in
    real space projection operators read in
  non local Contribution for L=           1  read in
    real space projection operators read in
  non local Contribution for L=           1  read in
    real space projection operators read in
    PAW grid and wavefunctions read in
 
   number of l-projection  operators is LMAX  =           4
   number of lm-projection operators is LMMAX =           8
 
  PAW_PBE Si 05Jan2001                  :
 energy of atom  1       EATOM= -103.0669
 kinetic energy error for atom=    0.0061 (will be added to EATOM!!)
 
 
 POSCAR: fcc:
  positions in cartesian coordinates
  No initial velocities read in
 exchange correlation table for  LEXCH =        8
   RHO(1)=    0.500       N(1)  =     2000
   RHO(2)=  100.500       N(2)  =     4000
 


--------------------------------------------------------------------------------------------------------


 ion  position               nearest neighbor table
   1  0.000  0.000  0.000-
 
  LATTYP: Found a face centered cubic cell.
 ALAT       =     4.0000000000
  
  Lattice vectors:
  
 A1 = (   2.0000000000,   2.0000000000,   0.0000000000)
 A2 = (   0.0000000000,   2.0000000000,   2.0000000000)
 A3 = (   2.0000000000,   0.0000000000,   2.0000000000)


Analysis of symmetry for initial positions (statically):
=====================================================================
 Subroutine PRICEL returns:
 Original cell was already a primitive cell.
 

 Routine SETGRP: Setting up the symmetry group for a 
 face centered cubic supercell.


 Subroutine GETGRP returns: Found 48 space group operations
 (whereof 48 operations were pure point group operations)
 out of a pool of 48 trial point group operations.


The static configuration has the point symmetry O_h .


Analysis of symmetry for dynamics (positions and initial velocities):
=====================================================================
 Subroutine PRICEL returns:
 Original cell was already a primitive cell.
 

 Routine SETGRP: Setting up the symmetry group for a 
 face centered cubic supercell.


 Subroutine GETGRP returns: Found 48 space group operations
 (whereof 48 operations were pure point group operations)
 out of a pool of 48 trial point group operations.


The dynamic configuration has the point symmetry O_h .


 Subroutine INISYM returns: Found 48 space group operations
 (whereof 48 operations are pure point group operations),
 and found     1 'primitive' translations


----------------------------------------------------------------------------------------

                                     Primitive cell                                     

  volume of cell :      16.0000

  direct lattice vectors                    reciprocal lattice vectors
     2.000000000  2.000000000  0.000000000     0.250000000  0.250000000 -0.250000000
     0.000000000  2.000000000  2.000000000    -0.250000000  0.250000000  0.250000000
     2.000000000  0.000000000  2.000000000     0.250000000 -0.250000000  0.250000000

  length of vectors
     2.828427125  2.828427125  2.828427125     0.433012702  0.433012702  0.433012702

  position of ions in fractional coordinates (direct lattice)
     0.000000000  0.000000000  0.000000000

  ion indices of the primitive-cell ions
   primitive index   ion index
                 1           1

----------------------------------------------------------------------------------------

 
 
 KPOINTS: k-points                                

Automatic generation of k-mesh.
 Grid dimensions read from file:
 generate k-points for:   11   11   11

 Generating k-lattice:

  Cartesian coordinates                     Fractional coordinates (reciprocal lattice)
     0.022727273  0.022727273 -0.022727273     0.090909091  0.000000000  0.000000000
    -0.022727273  0.022727273  0.022727273     0.000000000  0.090909091  0.000000000
     0.022727273 -0.022727273  0.022727273     0.000000000  0.000000000  0.090909091

  Length of vectors
     0.039364791  0.039364791  0.039364791

  Shift w.r.t. Gamma in fractional coordinates (k-lattice)
     0.000000000  0.000000000  0.000000000

 
 Subroutine IBZKPT returns following result:
 ===========================================
 
 Found     56 irreducible k-points:
 
 Following reciprocal coordinates:
            Coordinates               Weight
  0.000000  0.000000  0.000000      1.000000
  0.090909  0.000000  0.000000      8.000000
  0.181818  0.000000  0.000000      8.000000
  0.272727  0.000000  0.000000      8.000000
  0.363636  0.000000  0.000000      8.000000
  0.454545  0.000000  0.000000      8.000000
  0.090909  0.090909  0.000000      6.000000
  0.181818  0.090909  0.000000     24.000000
  0.272727  0.090909  0.000000     24.000000
  0.363636  0.090909  0.000000     24.000000
  0.454545  0.090909  0.000000     24.000000
 -0.454545  0.090909  0.000000     24.000000
 -0.363636  0.090909  0.000000     24.000000
 -0.272727  0.090909  0.000000     24.000000
 -0.181818  0.090909  0.000000     24.000000
 -0.090909  0.090909  0.000000     12.000000
  0.181818  0.181818  0.000000      6.000000
  0.272727  0.181818  0.000000     24.000000
  0.363636  0.181818  0.000000     24.000000
  0.454545  0.181818  0.000000     24.000000
 -0.454545  0.181818  0.000000     24.000000
 -0.363636  0.181818  0.000000     24.000000
 -0.272727  0.181818  0.000000     24.000000
 -0.181818  0.181818  0.000000     12.000000
  0.272727  0.272727  0.000000      6.000000
  0.363636  0.272727  0.000000     24.000000
  0.454545  0.272727  0.000000     24.000000
 -0.454545  0.272727  0.000000     24.000000
 -0.363636  0.272727  0.000000     24.000000
 -0.272727  0.272727  0.000000     12.000000
  0.363636  0.363636  0.000000      6.000000
  0.454545  0.363636  0.000000     24.000000
 -0.454545  0.363636  0.000000     24.000000
 -0.363636  0.363636  0.000000     12.000000
  0.454545  0.454545  0.000000      6.000000
 -0.454545  0.454545  0.000000     12.000000
  0.272727  0.181818  0.090909     24.000000
  0.363636  0.181818  0.090909     48.000000
  0.454545  0.181818  0.090909     48.000000
 -0.454545  0.181818  0.090909     48.000000
  0.363636  0.272727  0.090909     24.000000
  0.454545  0.272727  0.090909     48.000000
 -0.454545  0.272727  0.090909     48.000000
 -0.363636  0.272727  0.090909     48.000000
 -0.272727  0.272727  0.090909     48.000000
 -0.181818  0.272727  0.090909     24.000000
  0.454545  0.363636  0.090909     24.000000
 -0.454545  0.363636  0.090909     48.000000
 -0.363636  0.363636  0.090909     48.000000
 -0.272727  0.363636  0.090909     24.000000
 -0.454545  0.454545  0.090909     24.000000
 -0.363636  0.454545  0.090909     24.000000
 -0.454545  0.363636  0.181818     24.000000
 -0.363636  0.363636  0.181818     48.000000
 -0.363636  0.454545  0.181818     24.000000
 -0.272727  0.454545  0.181818     24.000000
 
 Following cartesian coordinates:
            Coordinates               Weight
  0.000000  0.000000  0.000000      1.000000
  0.090909  0.090909 -0.090909      8.000000
  0.181818  0.181818 -0.181818      8.000000
  0.272727  0.272727 -0.272727      8.000000
  0.363636  0.363636 -0.363636      8.000000
  0.454545  0.454545 -0.454545      8.000000
  0.000000  0.181818  0.000000      6.000000
  0.090909  0.272727 -0.090909     24.000000
  0.181818  0.363636 -0.181818     24.000000
  0.272727  0.454545 -0.272727     24.000000
  0.363636  0.545455 -0.363636     24.000000
 -0.545455 -0.363636  0.545455     24.000000
 -0.454545 -0.272727  0.454545     24.000000
 -0.363636 -0.181818  0.363636     24.000000
 -0.272727 -0.090909  0.272727     24.000000
 -0.181818  0.000000  0.181818     12.000000
  0.000000  0.363636  0.000000      6.000000
  0.090909  0.454545 -0.090909     24.000000
  0.181818  0.545455 -0.181818     24.000000
  0.272727  0.636364 -0.272727     24.000000
 -0.636364 -0.272727  0.636364     24.000000
 -0.545455 -0.181818  0.545455     24.000000
 -0.454545 -0.090909  0.454545     24.000000
 -0.363636  0.000000  0.363636     12.000000
  0.000000  0.545455  0.000000      6.000000
  0.090909  0.636364 -0.090909     24.000000
  0.181818  0.727273 -0.181818     24.000000
 -0.727273 -0.181818  0.727273     24.000000
 -0.636364 -0.090909  0.636364     24.000000
 -0.545455  0.000000  0.545455     12.000000
  0.000000  0.727273  0.000000      6.000000
  0.090909  0.818182 -0.090909     24.000000
 -0.818182 -0.090909  0.818182     24.000000
 -0.727273  0.000000  0.727273     12.000000
  0.000000  0.909091  0.000000      6.000000
 -0.909091  0.000000  0.909091     12.000000
  0.181818  0.363636  0.000000     24.000000
  0.272727  0.454545 -0.090909     48.000000
  0.363636  0.545455 -0.181818     48.000000
 -0.545455 -0.363636  0.727273     48.000000
  0.181818  0.545455  0.000000     24.000000
  0.272727  0.636364 -0.090909     48.000000
 -0.636364 -0.272727  0.818182     48.000000
 -0.545455 -0.181818  0.727273     48.000000
 -0.454545 -0.090909  0.636364     48.000000
 -0.363636  0.000000  0.545455     24.000000
  0.181818  0.727273  0.000000     24.000000
 -0.727273 -0.181818  0.909091     48.000000
 -0.636364 -0.090909  0.818182     48.000000
 -0.545455  0.000000  0.727273     24.000000
 -0.818182 -0.090909  1.000000     24.000000
 -0.727273 -0.000000  0.909091     24.000000
 -0.636364 -0.272727  1.000000     24.000000
 -0.545455 -0.181818  0.909091     48.000000
 -0.636364 -0.090909  1.000000     24.000000
 -0.545455  0.000000  0.909091     24.000000
 


--------------------------------------------------------------------------------------------------------




 Dimension of arrays:
   k-points           NKPTS =     56   k-points in BZ     NKDIM =     56   number of bands    NBANDS=      8
   number of dos      NEDOS =    301   number of ions     NIONS =      1
   non local maximal  LDIM  =      4   non local SUM 2l+1 LMDIM =      8
   total plane-waves  NPLWV =   1728
   max r-space proj   IRMAX =      1   max aug-charges    IRDMAX=   3810
   dimension x,y,z NGX =    12 NGY =   12 NGZ =   12
   dimension x,y,z NGXF=    24 NGYF=   24 NGZF=   24
   support grid    NGXF=    24 NGYF=   24 NGZF=   24
   ions per type =               1
   NGX,Y,Z   is equivalent  to a cutoff of   7.05,  7.05,  7.05 a.u.
   NGXF,Y,Z  is equivalent  to a cutoff of  14.11, 14.11, 14.11 a.u.

 SYSTEM =  fcc Si                                  
 POSCAR =  fcc:                                    

 Startparameter for this run:
   NWRITE =      2    write-flag & timer
   PREC   = normal    normal or accurate (medium, high low for compatibility)
   ISTART =      0    job   : 0-new  1-cont  2-samecut
   ICHARG =      2    charge: 1-file 2-atom 10-const
   ISPIN  =      1    spin polarized calculation?
   LNONCOLLINEAR =      F non collinear calculations
   LSORBIT =      F    spin-orbit coupling
   INIWAV =      1    electr: 0-lowe 1-rand  2-diag
   LASPH  =      F    aspherical Exc in radial PAW
 Electronic Relaxation 1
   ENCUT  =  240.0 eV  17.64 Ry    4.20 a.u.   3.57  3.57  3.57*2*pi/ulx,y,z
   ENINI  =  240.0     initial cutoff
   ENAUG  =  322.1 eV  augmentation charge cutoff
   NELM   =     60;   NELMIN=  2; NELMDL= -5     # of ELM steps 
   EDIFF  = 0.1E-03   stopping-criterion for ELM
   LREAL  =      F    real-space projection
   NLSPLINE    = F    spline interpolate recip. space projectors
   LCOMPAT=      F    compatible to vasp.4.4
   GGA_COMPAT  = T    GGA compatible to vasp.4.4-vasp.4.6
   LMAXPAW     = -100 max onsite density
   LMAXMIX     =    2 max onsite mixed and CHGCAR
   VOSKOWN=      0    Vosko Wilk Nusair interpolation
   ROPT   =    0.00000
 Ionic relaxation
   EDIFFG = 0.1E-02   stopping-criterion for IOM
   NSW    =      0    number of steps for IOM
   NBLOCK =      1;   KBLOCK =      1    inner block; outer block 
   IBRION =     -1    ionic relax: 0-MD 1-quasi-New 2-CG
   NFREE  =      0    steps in history (QN), initial steepest desc. (CG)
   ISIF   =      2    stress and relaxation
   IWAVPR =     10    prediction:  0-non 1-charg 2-wave 3-comb
   ISYM   =      2    0-nonsym 1-usesym 2-fastsym
   LCORR  =      T    Harris-Foulkes like correction to forces

   POTIM  = 0.5000    time-step for ionic-motion
   TEIN   =    0.0    initial temperature
   TEBEG  =    0.0;   TEEND  =   0.0 temperature during run
   SMASS  =  -3.00    Nose mass-parameter (am)
   estimated Nose-frequenzy (Omega)   =  0.10E-29 period in steps = 0.13E+47 mass=  -0.183E-27a.u.
   SCALEE = 1.0000    scale energy and forces
   NPACO  =    256;   APACO  = 10.0  distance and # of slots for P.C.
   PSTRESS=    0.0 pullay stress

  Mass of Ions in am
   POMASS =  28.09
  Ionic Valenz
   ZVAL   =   4.00
  Atomic Wigner-Seitz radii
   RWIGS  =  -1.00
  virtual crystal weights 
   VCA    =   1.00
   NELECT =       4.0000    total number of electrons
   NUPDOWN=      -1.0000    fix difference up-down

 DOS related values:
   EMIN   =  10.00;   EMAX   =-10.00  energy-range for DOS
   EFERMI =   0.00
   ISMEAR =     0;   SIGMA  =   0.10  broadening in eV -4-tet -1-fermi 0-gaus

 Electronic relaxation 2 (details)
   IALGO  =     38    algorithm
   LDIAG  =      T    sub-space diagonalisation (order eigenvalues)
   LSUBROT=      F    optimize rotation matrix (better conditioning)
   TURBO    =      0    0=normal 1=particle mesh
   IRESTART =      0    0=no restart 2=restart with 2 vectors
   NREBOOT  =      0    no. of reboots
   NMIN     =      0    reboot dimension
   EREF     =   0.00    reference energy to select bands
   IMIX   =      4    mixing-type and parameters
     AMIX     =   0.40;   BMIX     =  1.00
     AMIX_MAG =   1.60;   BMIX_MAG =  1.00
     AMIN     =   0.10
     WC   =   100.;   INIMIX=   1;  MIXPRE=   1;  MAXMIX= -45

 Intra band minimization:
   WEIMIN = 0.0000     energy-eigenvalue tresh-hold
   EBREAK =  0.31E-05  absolut break condition
   DEPER  =   0.30     relativ break condition  

   TIME   =   0.40     timestep for ELM

  volume/ion in A,a.u.               =      16.00       107.97
  Fermi-wavevector in a.u.,A,eV,Ry     =   1.031307  1.948889 14.471090  1.063595
  Thomas-Fermi vector in A             =   2.165449
 
 Write flags
   LWAVE        =      T    write WAVECAR
   LDOWNSAMPLE  =      F    k-point downsampling of WAVECAR
   LCHARG       =      T    write CHGCAR
   LVTOT        =      F    write LOCPOT, total local potential
   LVHAR        =      F    write LOCPOT, Hartree potential only
   LELF         =      F    write electronic localiz. function (ELF)
   LORBIT       =      0    0 simple, 1 ext, 2 COOP (PROOUT), +10 PAW based schemes


 Dipole corrections
   LMONO  =      F    monopole corrections only (constant potential shift)
   LDIPOL =      F    correct potential (dipole corrections)
   IDIPOL =      0    1-x, 2-y, 3-z, 4-all directions 
   EPSILON=  1.0000000 bulk dielectric constant

 Exchange correlation treatment:
   GGA     =    --    GGA type
   LEXCH   =     8    internal setting for exchange type
   LIBXC   =     F    Libxc                    
   VOSKOWN =     0    Vosko Wilk Nusair interpolation
   LHFCALC =     F    Hartree Fock is set to
   LHFONE  =     F    Hartree Fock one center treatment
   AEXX    =    0.0000 exact exchange contribution

 Linear response parameters
   LEPSILON=     F    determine dielectric tensor
   LRPA    =     F    only Hartree local field effects (RPA)
   LNABLA  =     F    use nabla operator in PAW spheres
   LVEL    =     F    velocity operator in full k-point grid
   CSHIFT  =0.1000    complex shift for real part using Kramers Kronig
   OMEGAMAX=  -1.0    maximum frequency
   DEG_THRESHOLD= 0.2000000E-02 threshold for treating states as degnerate
   RTIME   =   -0.100 relaxation time in fs
  (WPLASMAI=    0.000 imaginary part of plasma frequency in eV, 0.658/RTIME)
   DFIELD  = 0.0000000 0.0000000 0.0000000 field for delta impulse in time
 
  Optional k-point grid parameters
   LKPOINTS_OPT  =     F    use optional k-point grid
   KPOINTS_OPT_MODE=     1    mode for optional k-point grid
 
 Orbital magnetization related:
   ORBITALMAG=     F  switch on orbital magnetization
   LCHIMAG   =     F  perturbation theory with respect to B field
   DQ        =  0.001000  dq finite difference perturbation B field
   LLRAUG    =     F  two centre corrections for induced B field



--------------------------------------------------------------------------------------------------------


 Static calculation
 charge density and potential will be updated during run
 non-spin polarized calculation
 Variant of blocked Davidson
 Davidson routine will perform the subspace rotation
 perform sub-space diagonalisation
    after iterative eigenvector-optimisation
 modified Broyden-mixing scheme, WC =      100.0
 initial mixing is a Kerker type mixing with AMIX =  0.4000 and BMIX =      1.0000
 Hartree-type preconditioning will be used
 using additional bands            6
 reciprocal scheme for non local part
 use partial core corrections
 calculate Harris-corrections to forces 
   (improved forces if not selfconsistent)
 use gradient corrections 
 use of overlap-Matrix (Vanderbilt PP)
 Gauss-broadening in eV      SIGMA  =   0.10


--------------------------------------------------------------------------------------------------------


  energy-cutoff  :      240.00
  volume of cell :       16.00
      direct lattice vectors                 reciprocal lattice vectors
     2.000000000  2.000000000  0.000000000     0.250000000  0.250000000 -0.250000000
     0.000000000  2.000000000  2.000000000    -0.250000000  0.250000000  0.250000000
     2.000000000  0.000000000  2.000000000     0.250000000 -0.250000000  0.250000000

  length of vectors
     2.828427125  2.828427125  2.828427125     0.433012702  0.433012702  0.433012702


 
 k-points in units of 2pi/SCALE and weight: k-points                                
   0.00000000  0.00000000  0.00000000       0.001
   0.09090909  0.09090909 -0.09090909       0.006
   0.18181818  0.18181818 -0.18181818       0.006
   0.27272727  0.27272727 -0.27272727       0.006
   0.36363636  0.36363636 -0.36363636       0.006
   0.45454545  0.45454545 -0.45454545       0.006
   0.00000000  0.18181818  0.00000000       0.005
   0.09090909  0.27272727 -0.09090909       0.018
   0.18181818  0.36363636 -0.18181818       0.018
   0.27272727  0.45454545 -0.27272727       0.018
   0.36363636  0.54545455 -0.36363636       0.018
  -0.54545455 -0.36363636  0.54545455       0.018
  -0.45454545 -0.27272727  0.45454545       0.018
  -0.36363636 -0.18181818  0.36363636       0.018
  -0.27272727 -0.09090909  0.27272727       0.018
  -0.18181818  0.00000000  0.18181818       0.009
   0.00000000  0.36363636  0.00000000       0.005
   0.09090909  0.45454545 -0.09090909       0.018
   0.18181818  0.54545455 -0.18181818       0.018
   0.27272727  0.63636364 -0.27272727       0.018
  -0.63636364 -0.27272727  0.63636364       0.018
  -0.54545455 -0.18181818  0.54545455       0.018
  -0.45454545 -0.09090909  0.45454545       0.018
  -0.36363636  0.00000000  0.36363636       0.009
   0.00000000  0.54545455  0.00000000       0.005
   0.09090909  0.63636364 -0.09090909       0.018
   0.18181818  0.72727273 -0.18181818       0.018
  -0.72727273 -0.18181818  0.72727273       0.018
  -0.63636364 -0.09090909  0.63636364       0.018
  -0.54545455  0.00000000  0.54545455       0.009
   0.00000000  0.72727273  0.00000000       0.005
   0.09090909  0.81818182 -0.09090909       0.018
  -0.81818182 -0.09090909  0.81818182       0.018
  -0.72727273  0.00000000  0.72727273       0.009
   0.00000000  0.90909091  0.00000000       0.005
  -0.90909091  0.00000000  0.90909091       0.009
   0.18181818  0.36363636  0.00000000       0.018
   0.27272727  0.45454545 -0.09090909       0.036
   0.36363636  0.54545455 -0.18181818       0.036
  -0.54545455 -0.36363636  0.72727273       0.036
   0.18181818  0.54545455  0.00000000       0.018
   0.27272727  0.63636364 -0.09090909       0.036
  -0.63636364 -0.27272727  0.81818182       0.036
  -0.54545455 -0.18181818  0.72727273       0.036
  -0.45454545 -0.09090909  0.63636364       0.036
  -0.36363636  0.00000000  0.54545455       0.018
   0.18181818  0.72727273  0.00000000       0.018
  -0.72727273 -0.18181818  0.90909091       0.036
  -0.63636364 -0.09090909  0.81818182       0.036
  -0.54545455  0.00000000  0.72727273       0.018
  -0.81818182 -0.09090909  1.00000000       0.018
  -0.72727273 -0.00000000  0.90909091       0.018
  -0.63636364 -0.27272727  1.00000000       0.018
  -0.54545455 -0.18181818  0.90909091       0.036
  -0.63636364 -0.09090909  1.00000000       0.018
  -0.54545455  0.00000000  0.90909091       0.018
 
 k-points in reciprocal lattice and weights: k-points                                
   0.00000000  0.00000000  0.00000000       0.001
   0.09090909  0.00000000  0.00000000       0.006
   0.18181818  0.00000000  0.00000000       0.006
   0.27272727  0.00000000  0.00000000       0.006
   0.36363636  0.00000000  0.00000000       0.006
   0.45454545  0.00000000  0.00000000       0.006
   0.09090909  0.09090909  0.00000000       0.005
   0.18181818  0.09090909  0.00000000       0.018
   0.27272727  0.09090909  0.00000000       0.018
   0.36363636  0.09090909  0.00000000       0.018
   0.45454545  0.09090909  0.00000000       0.018
  -0.45454545  0.09090909  0.00000000       0.018
  -0.36363636  0.09090909  0.00000000       0.018
  -0.27272727  0.09090909  0.00000000       0.018
  -0.18181818  0.09090909  0.00000000       0.018
  -0.09090909  0.09090909  0.00000000       0.009
   0.18181818  0.18181818  0.00000000       0.005
   0.27272727  0.18181818  0.00000000       0.018
   0.36363636  0.18181818  0.00000000       0.018
   0.45454545  0.18181818  0.00000000       0.018
  -0.45454545  0.18181818  0.00000000       0.018
  -0.36363636  0.18181818  0.00000000       0.018
  -0.27272727  0.18181818  0.00000000       0.018
  -0.18181818  0.18181818  0.00000000       0.009
   0.27272727  0.27272727  0.00000000       0.005
   0.36363636  0.27272727  0.00000000       0.018
   0.45454545  0.27272727  0.00000000       0.018
  -0.45454545  0.27272727  0.00000000       0.018
  -0.36363636  0.27272727  0.00000000       0.018
  -0.27272727  0.27272727  0.00000000       0.009
   0.36363636  0.36363636  0.00000000       0.005
   0.45454545  0.36363636  0.00000000       0.018
  -0.45454545  0.36363636  0.00000000       0.018
  -0.36363636  0.36363636  0.00000000       0.009
   0.45454545  0.45454545  0.00000000       0.005
  -0.45454545  0.45454545  0.00000000       0.009
   0.27272727  0.18181818  0.09090909       0.018
   0.36363636  0.18181818  0.09090909       0.036
   0.45454545  0.18181818  0.09090909       0.036
  -0.45454545  0.18181818  0.09090909       0.036
   0.36363636  0.27272727  0.09090909       0.018
   0.45454545  0.27272727  0.09090909       0.036
  -0.45454545  0.27272727  0.09090909       0.036
  -0.36363636  0.27272727  0.09090909       0.036
  -0.27272727  0.27272727  0.09090909       0.036
  -0.18181818  0.27272727  0.09090909       0.018
   0.45454545  0.36363636  0.09090909       0.018
  -0.45454545  0.36363636  0.09090909       0.036
  -0.36363636  0.36363636  0.09090909       0.036
  -0.27272727  0.36363636  0.09090909       0.018
  -0.45454545  0.45454545  0.09090909       0.018
  -0.36363636  0.45454545  0.09090909       0.018
  -0.45454545  0.36363636  0.18181818       0.018
  -0.36363636  0.36363636  0.18181818       0.036
  -0.36363636  0.45454545  0.18181818       0.018
  -0.27272727  0.45454545  0.18181818       0.018
 
 position of ions in fractional coordinates (direct lattice) 
   0.00000000  0.00000000  0.00000000
 
 position of ions in cartesian coordinates  (Angst):
   0.00000000  0.00000000  0.00000000
 


--------------------------------------------------------------------------------------------------------


 k-point   1 :   0.0000 0.0000 0.0000  plane waves:     137
 k-point   2 :   0.0909 0.0000 0.0000  plane waves:     138
 k-point   3 :   0.1818 0.0000 0.0000  plane waves:     138
 k-point   4 :   0.2727 0.0000 0.0000  plane waves:     138
 k-point   5 :   0.3636 0.0000 0.0000  plane waves:     144
 k-point   6 :   0.4545 0.0000 0.0000  plane waves:     138
 k-point   7 :   0.0909 0.0909 0.0000  plane waves:     141
 k-point   8 :   0.1818 0.0909 0.0000  plane waves:     138
 k-point   9 :   0.2727 0.0909 0.0000  plane waves:     140
 k-point  10 :   0.3636 0.0909 0.0000  plane waves:     140
 k-point  11 :   0.4545 0.0909 0.0000  plane waves:     136
 k-point  12 :  -0.4545 0.0909 0.0000  plane waves:     133
 k-point  13 :  -0.3636 0.0909 0.0000  plane waves:     139
 k-point  14 :  -0.2727 0.0909 0.0000  plane waves:     140
 k-point  15 :  -0.1818 0.0909 0.0000  plane waves:     140
 k-point  16 :  -0.0909 0.0909 0.0000  plane waves:     139
 k-point  17 :   0.1818 0.1818 0.0000  plane waves:     133
 k-point  18 :   0.2727 0.1818 0.0000  plane waves:     136
 k-point  19 :   0.3636 0.1818 0.0000  plane waves:     138
 k-point  20 :   0.4545 0.1818 0.0000  plane waves:     136
 k-point  21 :  -0.4545 0.1818 0.0000  plane waves:     131
 k-point  22 :  -0.3636 0.1818 0.0000  plane waves:     131
 k-point  23 :  -0.2727 0.1818 0.0000  plane waves:     137
 k-point  24 :  -0.1818 0.1818 0.0000  plane waves:     137
 k-point  25 :   0.2727 0.2727 0.0000  plane waves:     133
 k-point  26 :   0.3636 0.2727 0.0000  plane waves:     135
 k-point  27 :   0.4545 0.2727 0.0000  plane waves:     137
 k-point  28 :  -0.4545 0.2727 0.0000  plane waves:     132
 k-point  29 :  -0.3636 0.2727 0.0000  plane waves:     131
 k-point  30 :  -0.2727 0.2727 0.0000  plane waves:     136
 k-point  31 :   0.3636 0.3636 0.0000  plane waves:     129
 k-point  32 :   0.4545 0.3636 0.0000  plane waves:     135
 k-point  33 :  -0.4545 0.3636 0.0000  plane waves:     131
 k-point  34 :  -0.3636 0.3636 0.0000  plane waves:     134
 k-point  35 :   0.4545 0.4545 0.0000  plane waves:     129
 k-point  36 :  -0.4545 0.4545 0.0000  plane waves:     130
 k-point  37 :   0.2727 0.1818 0.0909  plane waves:     137
 k-point  38 :   0.3636 0.1818 0.0909  plane waves:     138
 k-point  39 :   0.4545 0.1818 0.0909  plane waves:     138
 k-point  40 :  -0.4545 0.1818 0.0909  plane waves:     136
 k-point  41 :   0.3636 0.2727 0.0909  plane waves:     137
 k-point  42 :   0.4545 0.2727 0.0909  plane waves:     137
 k-point  43 :  -0.4545 0.2727 0.0909  plane waves:     135
 k-point  44 :  -0.3636 0.2727 0.0909  plane waves:     129
 k-point  45 :  -0.2727 0.2727 0.0909  plane waves:     134
 k-point  46 :  -0.1818 0.2727 0.0909  plane waves:     139
 k-point  47 :   0.4545 0.3636 0.0909  plane waves:     132
 k-point  48 :  -0.4545 0.3636 0.0909  plane waves:     131
 k-point  49 :  -0.3636 0.3636 0.0909  plane waves:     132
 k-point  50 :  -0.2727 0.3636 0.0909  plane waves:     134
 k-point  51 :  -0.4545 0.4545 0.0909  plane waves:     127
 k-point  52 :  -0.3636 0.4545 0.0909  plane waves:     131
 k-point  53 :  -0.4545 0.3636 0.1818  plane waves:     136
 k-point  54 :  -0.3636 0.3636 0.1818  plane waves:     133
 k-point  55 :  -0.3636 0.4545 0.1818  plane waves:     131
 k-point  56 :  -0.2727 0.4545 0.1818  plane waves:     135

 maximum and minimum number of plane-waves per node :       144      127

 maximum number of plane-waves:       144
 maximum index in each direction: 
   IXMAX=    4   IYMAX=    3   IZMAX=    3
   IXMIN=   -4   IYMIN=   -3   IZMIN=   -3


 serial   3D FFT for wavefunctions
 parallel 3D FFT for charge:
    minimum data exchange during FFTs selected (reduces bandwidth)


 total amount of memory used by VASP MPI-rank0    31173. kBytes
=======================================================================

   base      :      30000. kBytes
   nonl-proj :        518. kBytes
   fftplans  :        134. kBytes
   grid      :        246. kBytes
   one-center:          3. kBytes
   wavefun   :        272. kBytes
 
     INWAV:  cpu time      0.0000: real time      0.0001
 Broyden mixing: mesh for mixing (old mesh)
   NGX =  7   NGY =  7   NGZ =  7
  (NGX  = 24   NGY  = 24   NGZ  = 24)
  gives a total of    343 points

 initial charge density was supplied:
 charge density of overlapping atoms calculated
 number of electron       4.0000000 magnetization 
 keeping initial charge density in first step


--------------------------------------------------------------------------------------------------------


 Maximum index for augmentation-charges          895 (set IRDMAX)


--------------------------------------------------------------------------------------------------------


 First call to EWALD:  gamma=   0.703
 Maximum number of real-space cells 3x 3x 3
 Maximum number of reciprocal cells 3x 3x 3

    FEWALD:  cpu time      0.0012: real time      0.0012


--------------------------------------- Iteration      1(   1)  ---------------------------------------


    POTLOK:  cpu time      0.0023: real time      0.0024
    SETDIJ:  cpu time      0.0011: real time      0.0011
     EDDAV:  cpu time      0.0444: real time      0.0445
       DOS:  cpu time      0.0006: real time      0.0006
    --------------------------------------------
      LOOP:  cpu time      0.0484: real time      0.0487

 eigenvalue-minimisations  :   992
 total energy-change (2. order) :-0.3926145E+01  (-0.1177362E+03)
 number of electron       4.0000000 magnetization 
 augmentation part        4.0000000 magnetization 

 Free energy of the ion-electron system (eV)
  ---------------------------------------------------
  alpha Z        PSCENC =         2.10394567
  Ewald energy   TEWEN  =      -132.04207609
  -Hartree energ DENC   =        -0.84728144
  -exchange      EXHF   =         0.00000000
  -V(xc)+E(xc)   XCENC  =        -9.06445411
  PAW double counting   =        88.12379961      -70.53051779
  entropy T*S    EENTRO =        -0.00189897
  eigenvalues    EBANDS =        15.27156111
  atomic energy  EATOM  =       103.06077658
  Solvation  Ediel_sol  =         0.00000000
  ---------------------------------------------------
  free energy    TOTEN  =        -3.92614543 eV

  energy without entropy =       -3.92424646  energy(sigma->0) =       -3.92519595


--------------------------------------------------------------------------------------------------------




--------------------------------------- Iteration      1(   2)  ---------------------------------------


     EDDAV:  cpu time      0.0695: real time      0.0697
       DOS:  cpu time      0.0004: real time      0.0004
    --------------------------------------------
      LOOP:  cpu time      0.0699: real time      0.0701

 eigenvalue-minimisations  :  1416
 total energy-change (2. order) :-0.9364825E+00  (-0.9102970E+00)
 number of electron       4.0000000 magnetization 
 augmentation part        4.0000000 magnetization 

 Free energy of the ion-electron system (eV)
  ---------------------------------------------------
  alpha Z        PSCENC =         2.10394567
  Ewald energy   TEWEN  =      -132.04207609
  -Hartree energ DENC   =        -0.84728144
  -exchange      EXHF   =         0.00000000
  -V(xc)+E(xc)   XCENC  =        -9.06445411
  PAW double counting   =        88.12379961      -70.53051779
  entropy T*S    EENTRO =        -0.00159103
  eigenvalues    EBANDS =        14.33477071
  atomic energy  EATOM  =       103.06077658
  Solvation  Ediel_sol  =         0.00000000
  ---------------------------------------------------
  free energy    TOTEN  =        -4.86262789 eV

  energy without entropy =       -4.86103685  energy(sigma->0) =       -4.86183237


--------------------------------------------------------------------------------------------------------




--------------------------------------- Iteration      1(   3)  ---------------------------------------


     EDDAV:  cpu time      0.0406: real time      0.0407
       DOS:  cpu time      0.0003: real time      0.0003
    --------------------------------------------
      LOOP:  cpu time      0.0409: real time      0.0410

 eigenvalue-minimisations  :   944
 total energy-change (2. order) :-0.3633069E-02  (-0.3632247E-02)
 number of electron       4.0000000 magnetization 
 augmentation part        4.0000000 magnetization 

 Free energy of the ion-electron system (eV)
  ---------------------------------------------------
  alpha Z        PSCENC =         2.10394567
  Ewald energy   TEWEN  =      -132.04207609
  -Hartree energ DENC   =        -0.84728144
  -exchange      EXHF   =         0.00000000
  -V(xc)+E(xc)   XCENC  =        -9.06445411
  PAW double counting   =        88.12379961      -70.53051779
  entropy T*S    EENTRO =        -0.00155443
  eigenvalues    EBANDS =        14.33110104
  atomic energy  EATOM  =       103.06077658
  Solvation  Ediel_sol  =         0.00000000
  ---------------------------------------------------
  free energy    TOTEN  =        -4.86626096 eV

  energy without entropy =       -4.86470653  energy(sigma->0) =       -4.86548374


--------------------------------------------------------------------------------------------------------




--------------------------------------- Iteration      1(   4)  ---------------------------------------


     EDDAV:  cpu time      0.0581: real time      0.0583
       DOS:  cpu time      0.0003: real time      0.0003
    --------------------------------------------
      LOOP:  cpu time      0.0584: real time      0.0586

 eigenvalue-minimisations  :  1504
 total energy-change (2. order) :-0.2304197E-05  (-0.2305218E-05)
 number of electron       4.0000000 magnetization 
 augmentation part        4.0000000 magnetization 

 Free energy of the ion-electron system (eV)
  ---------------------------------------------------
  alpha Z        PSCENC =         2.10394567
  Ewald energy   TEWEN  =      -132.04207609
  -Hartree energ DENC   =        -0.84728144
  -exchange      EXHF   =         0.00000000
  -V(xc)+E(xc)   XCENC  =        -9.06445411
  PAW double counting   =        88.12379961      -70.53051779
  entropy T*S    EENTRO =        -0.00155441
  eigenvalues    EBANDS =        14.33109872
  atomic energy  EATOM  =       103.06077658
  Solvation  Ediel_sol  =         0.00000000
  ---------------------------------------------------
  free energy    TOTEN  =        -4.86626326 eV

  energy without entropy =       -4.86470885  energy(sigma->0) =       -4.86548606


--------------------------------------------------------------------------------------------------------




--------------------------------------- Iteration      1(   5)  ---------------------------------------


     EDDAV:  cpu time      0.0287: real time      0.0288
       DOS:  cpu time      0.0003: real time      0.0003
    CHARGE:  cpu time      0.0010: real time      0.0010
    MIXING:  cpu time      0.0002: real time      0.0002
    --------------------------------------------
      LOOP:  cpu time      0.0302: real time      0.0303

 eigenvalue-minimisations  :   856
 total energy-change (2. order) :-0.7297132E-09  (-0.2708630E-09)
 number of electron       3.9999997 magnetization 
 augmentation part       -0.2456099 magnetization 

 Broyden mixing:
  rms(total) = 0.25883E+00    rms(broyden)= 0.25883E+00
  rms(prec ) = 0.37772E+00
  weight for this iteration     100.00

 Free energy of the ion-electron system (eV)
  ---------------------------------------------------
  alpha Z        PSCENC =         2.10394567
  Ewald energy   TEWEN  =      -132.04207609
  -Hartree energ DENC   =        -0.84728144
  -exchange      EXHF   =         0.00000000
  -V(xc)+E(xc)   XCENC  =        -9.06445411
  PAW double counting   =        88.12379961      -70.53051779
  entropy T*S    EENTRO =        -0.00155441
  eigenvalues    EBANDS =        14.33109872
  atomic energy  EATOM  =       103.06077658
  Solvation  Ediel_sol  =         0.00000000
  ---------------------------------------------------
  free energy    TOTEN  =        -4.86626326 eV

  energy without entropy =       -4.86470885  energy(sigma->0) =       -4.86548606


--------------------------------------------------------------------------------------------------------




--------------------------------------- Iteration      1(   6)  ---------------------------------------


    POTLOK:  cpu time      0.0015: real time      0.0015
    SETDIJ:  cpu time      0.0008: real time      0.0008
     EDDAV:  cpu time      0.0377: real time      0.0378
       DOS:  cpu time      0.0004: real time      0.0004
    CHARGE:  cpu time      0.0011: real time      0.0011
    MIXING:  cpu time      0.0002: real time      0.0002
    --------------------------------------------
      LOOP:  cpu time      0.0416: real time      0.0417

 eigenvalue-minimisations  :   984
 total energy-change (2. order) : 0.1122791E-01  (-0.4119788E-03)
 number of electron       3.9999997 magnetization 
 augmentation part       -0.2478570 magnetization 

 Broyden mixing:
  rms(total) = 0.14266E+00    rms(broyden)= 0.14266E+00
  rms(prec ) = 0.21706E+00
  weight for this iteration     100.00

 eigenvalues of (default mixing * dielectric matrix)
  average eigenvalue GAMMA=   2.2156
  2.2156

 Free energy of the ion-electron system (eV)
  ---------------------------------------------------
  alpha Z        PSCENC =         2.10394567
  Ewald energy   TEWEN  =      -132.04207609
  -Hartree energ DENC   =        -0.74864848
  -exchange      EXHF   =         0.00000000
  -V(xc)+E(xc)   XCENC  =        -9.05305767
  PAW double counting   =       165.83831138     -148.23927615
  entropy T*S    EENTRO =        -0.00141654
  eigenvalues    EBANDS =        14.22640595
  atomic energy  EATOM  =       103.06077658
  Solvation  Ediel_sol  =         0.00000000
  ---------------------------------------------------
  free energy    TOTEN  =        -4.85503535 eV

  energy without entropy =       -4.85361881  energy(sigma->0) =       -4.85432708


--------------------------------------------------------------------------------------------------------




--------------------------------------- Iteration      1(   7)  ---------------------------------------


    POTLOK:  cpu time      0.0022: real time      0.0022
    SETDIJ:  cpu time      0.0009: real time      0.0009
     EDDAV:  cpu time      0.0467: real time      0.0468
       DOS:  cpu time      0.0003: real time      0.0003
    CHARGE:  cpu time      0.0008: real time      0.0008
    MIXING:  cpu time      0.0001: real time      0.0001
    --------------------------------------------
      LOOP:  cpu time      0.0509: real time      0.0511

 eigenvalue-minimisations  :  1008
 total energy-change (2. order) : 0.6233651E-02  (-0.7946913E-03)
 number of electron       3.9999997 magnetization 
 augmentation part       -0.2510186 magnetization 

 Broyden mixing:
  rms(total) = 0.12635E-01    rms(broyden)= 0.12635E-01
  rms(prec ) = 0.16952E-01
  weight for this iteration     100.00

 eigenvalues of (default mixing * dielectric matrix)
  average eigenvalue GAMMA=   2.4279
  2.4279  2.4279

 Free energy of the ion-electron system (eV)
  ---------------------------------------------------
  alpha Z        PSCENC =         2.10394567
  Ewald energy   TEWEN  =      -132.04207609
  -Hartree energ DENC   =        -0.63627789
  -exchange      EXHF   =         0.00000000
  -V(xc)+E(xc)   XCENC  =        -9.03406756
  PAW double counting   =       310.92048614     -293.31778624
  entropy T*S    EENTRO =        -0.00127040
  eigenvalues    EBANDS =        14.09746808
  atomic energy  EATOM  =       103.06077658
  Solvation  Ediel_sol  =         0.00000000
  ---------------------------------------------------
  free energy    TOTEN  =        -4.84880170 eV

  energy without entropy =       -4.84753131  energy(sigma->0) =       -4.84816651


--------------------------------------------------------------------------------------------------------




--------------------------------------- Iteration      1(   8)  ---------------------------------------


    POTLOK:  cpu time      0.0015: real time      0.0016
    SETDIJ:  cpu time      0.0007: real time      0.0007
     EDDAV:  cpu time      0.0493: real time      0.0494
       DOS:  cpu time      0.0004: real time      0.0004
    --------------------------------------------
      LOOP:  cpu time      0.0519: real time      0.0521

 eigenvalue-minimisations  :  1096
 total energy-change (2. order) : 0.2639489E-04  (-0.2634473E-05)
 number of electron       3.9999997 magnetization 
 augmentation part       -0.2510186 magnetization 

 Free energy of the ion-electron system (eV)
  ---------------------------------------------------
  alpha Z        PSCENC =         2.10394567
  Ewald energy   TEWEN  =      -132.04207609
  -Hartree energ DENC   =        -0.63630798
  -exchange      EXHF   =         0.00000000
  -V(xc)+E(xc)   XCENC  =        -9.03109814
  PAW double counting   =       298.71669399     -281.12036525
  entropy T*S    EENTRO =        -0.00126921
  eigenvalues    EBANDS =        14.10092513
  atomic energy  EATOM  =       103.06077658
  Solvation  Ediel_sol  =         0.00000000
  ---------------------------------------------------
  free energy    TOTEN  =        -4.84877531 eV

  energy without entropy =       -4.84750609  energy(sigma->0) =       -4.84814070


--------------------------------------------------------------------------------------------------------




 average (electrostatic) potential at core
  the test charge radii are     0.9892
  (the norm of the test charge is              1.0000)
       1 -81.2170
 
 
 
 E-fermi :   8.6812     XC(G=0): -10.7925     alpha+bet :-14.9903

 Fermi energy:         8.6811572696

 k-point     1 :       0.0000    0.0000    0.0000
  band No.  band energies     occupation 
      1      -4.6608      2.00000
      2      18.8666      0.00000
      3      18.8666      0.00000
      4      18.8666      0.00000
      5      20.5419      0.00000
      6      20.5419      0.00000
      7      20.5419      0.00000
      8      25.5651      0.00000

 k-point     2 :       0.0909    0.0000    0.0000
  band No.  band energies     occupation 
      1      -4.4364      2.00000
      2      16.3145      0.00000
      3      18.2196      0.00000
      4      18.2196      0.00000
      5      21.2889      0.00000
      6      21.4375      0.00000
      7      21.4376      0.00000
      8      26.0538      0.00000

 k-point     3 :       0.1818    0.0000    0.0000
  band No.  band energies     occupation 
      1      -3.7646      2.00000
      2      12.7372      0.00000
      3      17.4149      0.00000
      4      17.4149      0.00000
      5      21.3059      0.00000
      6      22.3511      0.00000
      7      22.3512      0.00000
      8      25.2022      0.00000

 k-point     4 :       0.2727    0.0000    0.0000
  band No.  band energies     occupation 
      1      -2.6513      2.00000
      2       9.2849      0.00000
      3      16.8837      0.00000
      4      16.8837      0.00000
      5      21.1420      0.00000
      6      21.4633      0.00000
      7      21.4634      0.00000
      8      26.4360      0.00000

 k-point     5 :       0.3636    0.0000    0.0000
  band No.  band energies     occupation 
      1      -1.1089      2.00000
      2       6.1420      2.00000
      3      16.6320      0.00000
      4      16.6320      0.00000
      5      20.2938      0.00000
      6      20.2939      0.00000
      7      21.0940      0.00000
      8      25.0748      0.00000

 k-point     6 :       0.4545    0.0000    0.0000
  band No.  band energies     occupation 
      1       0.8099      2.00000
      2       3.4165      2.00000
      3      16.5759      0.00000
      4      16.5759      0.00000
      5      19.6104      0.00000
      6      19.6106      0.00000
      7      21.1890      0.00000
      8      24.2631      0.00000

 k-point     7 :       0.0909    0.0909    0.0000
  band No.  band energies     occupation 
      1      -4.3617      2.00000
      2      17.0361      0.00000
      3      17.0362      0.00000
      4      18.1444      0.00000
      5      19.1491      0.00000
      6      22.7371      0.00000
      7      22.7371      0.00000
      8      24.2127      0.00000

 k-point     8 :       0.1818    0.0909    0.0000
  band No.  band energies     occupation 
      1      -3.8389      2.00000
      2      14.0686      0.00000
      3      16.0860      0.00000
      4      17.5611      0.00000
      5      19.6013      0.00000
      6      22.4142      0.00000
      7      23.5294      0.00000
      8      24.0307      0.00000

 k-point     9 :       0.2727    0.0909    0.0000
  band No.  band energies     occupation 
      1      -2.8728      2.00000
      2      10.5791      0.00000
      3      15.4871      0.00000
      4      16.7729      0.00000
      5      19.4825      0.00000
      6      22.3668      0.00000
      7      23.6568      0.00000
      8      24.0576      0.00000

 k-point    10 :       0.3636    0.0909    0.0000
  band No.  band energies     occupation 
      1      -1.4725      2.00000
      2       7.3332      2.00000
      3      15.2569      0.00000
      4      16.0065      0.00000
      5      18.6714      0.00000
      6      22.3930      0.00000
      7      22.6577      0.00000
      8      25.8954      0.00000

 k-point    11 :       0.4545    0.0909    0.0000
  band No.  band energies     occupation 
      1       0.3364      2.00000
      2       4.4537      2.00000
      3      15.2225      0.00000
      4      15.3892      0.00000
      5      18.4632      0.00000
      6      21.3142      0.00000
      7      22.6620      0.00000
      8      26.1793      0.00000

 k-point    12 :      -0.4545    0.0909    0.0000
  band No.  band energies     occupation 
      1       1.6163      2.00000
      2       2.9049      2.00000
      3      14.5722      0.00000
      4      15.8558      0.00000
      5      18.8743      0.00000
      6      20.6122      0.00000
      7      22.5341      0.00000
      8      26.0860      0.00000

 k-point    13 :      -0.3636    0.0909    0.0000
  band No.  band energies     occupation 
      1      -0.3083      2.00000
      2       5.3663      2.00000
      3      14.2024      0.00000
      4      16.5902      0.00000
      5      19.7760      0.00000
      6      20.3948      0.00000
      7      22.3249      0.00000
      8      26.6441      0.00000

 k-point    14 :      -0.2727    0.0909    0.0000
  band No.  band energies     occupation 
      1      -1.9867      2.00000
      2       8.3795      1.99998
      3      14.1845      0.00000
      4      17.4668      0.00000
      5      20.7462      0.00000
      6      21.0717      0.00000
      7      22.2201      0.00000
      8      25.8714      0.00000

 k-point    15 :      -0.1818    0.0909    0.0000
  band No.  band energies     occupation 
      1      -3.2438      2.00000
      2      11.7260      0.00000
      3      14.5410      0.00000
      4      18.3315      0.00000
      5      21.4994      0.00000
      6      22.1501      0.00000
      7      22.5660      0.00000
      8      23.7702      0.00000

 k-point    16 :      -0.0909    0.0909    0.0000
  band No.  band energies     occupation 
      1      -4.0628      2.00000
      2      15.1943      0.00000
      3      15.3261      0.00000
      4      18.9046      0.00000
      5      21.1228      0.00000
      6      21.7864      0.00000
      7      22.9830      0.00000
      8      24.1954      0.00000

 k-point    17 :       0.1818    0.1818    0.0000
  band No.  band energies     occupation 
      1      -3.4661      2.00000
      2      15.0127      0.00000
      3      15.0127      0.00000
      4      16.2808      0.00000
      5      17.0597      0.00000
      6      20.0886      0.00000
      7      25.8116      0.00000
      8      25.8116      0.00000

 k-point    18 :       0.2727    0.1818    0.0000
  band No.  band energies     occupation 
      1      -2.6493      2.00000
      2      12.1932      0.00000
      3      14.2945      0.00000
      4      15.1948      0.00000
      5      17.2751      0.00000
      6      19.4150      0.00000
      7      26.2644      0.00000
      8      26.5876      0.00000

 k-point    19 :       0.3636    0.1818    0.0000
  band No.  band energies     occupation 
      1      -1.3954      2.00000
      2       8.9128      0.00105
      3      13.8592      0.00000
      4      13.9567      0.00000
      5      16.9174      0.00000
      6      21.3154      0.00000
      7      25.1478      0.00000
      8      26.6425      0.00000

 k-point    20 :       0.4545    0.1818    0.0000
  band No.  band energies     occupation 
      1       0.2797      2.00000
      2       5.9227      2.00000
      3      12.6275      0.00000
      4      14.0033      0.00000
      5      16.8690      0.00000
      6      23.6350      0.00000
      7      23.9850      0.00000
      8      26.7744      0.00000

 k-point    21 :      -0.4545    0.1818    0.0000
  band No.  band energies     occupation 
      1       2.2034      2.00000
      2       3.4676      2.00000
      3      11.6851      0.00000
      4      14.4279      0.00000
      5      17.2991      0.00000
      6      23.0908      0.00000
      7      24.7187      0.00000
      8      28.1141      0.00000

 k-point    22 :      -0.3636    0.1818    0.0000
  band No.  band energies     occupation 
      1       0.9199      2.00000
      2       5.0178      2.00000
      3      11.1076      0.00000
      4      15.2137      0.00000
      5      18.1722      0.00000
      6      22.5933      0.00000
      7      24.5661      0.00000
      8      28.3478      0.00000

 k-point    23 :      -0.2727    0.1818    0.0000
  band No.  band energies     occupation 
      1      -0.8839      2.00000
      2       7.8778      2.00000
      3      10.9263      0.00000
      4      16.3130      0.00000
      5      19.4456      0.00000
      6      22.5078      0.00000
      7      24.1721      0.00000
      8      25.3703      0.00000

 k-point    24 :      -0.1818    0.1818    0.0000
  band No.  band energies     occupation 
      1      -2.2807      2.00000
      2      10.9075      0.00000
      3      11.3316      0.00000
      4      17.5830      0.00000
      5      21.0369      0.00000
      6      22.8673      0.00000
      7      22.8928      0.00000
      8      23.4523      0.00000

 k-point    25 :       0.2727    0.2727    0.0000
  band No.  band energies     occupation 
      1      -1.9825      2.00000
      2      13.1830      0.00000
      3      13.4509      0.00000
      4      13.4509      0.00000
      5      15.3465      0.00000
      6      17.2884      0.00000
      7      28.8149      0.00000
      8      28.8150      0.00000

 k-point    26 :       0.3636    0.2727    0.0000
  band No.  band energies     occupation 
      1      -0.8774      2.00000
      2      10.6880      0.00000
      3      11.7127      0.00000
      4      12.9887      0.00000
      5      15.5691      0.00000
      6      17.8371      0.00000
      7      28.1760      0.00000
      8      29.5176      0.00000

 k-point    27 :       0.4545    0.2727    0.0000
  band No.  band energies     occupation 
      1       0.6533      2.00000
      2       7.7499      2.00000
      3      10.1274      0.00000
      4      12.9157      0.00000
      5      15.5972      0.00000
      6      20.3575      0.00000
      7      27.0285      0.00000
      8      29.1807      0.00000

 k-point    28 :      -0.4545    0.2727    0.0000
  band No.  band energies     occupation 
      1       2.5601      2.00000
      2       5.0863      2.00000
      3       8.9578      0.00009
      4      13.2314      0.00000
      5      15.9544      0.00000
      6      23.3338      0.00000
      7      26.0608      0.00000
      8      28.4952      0.00000

 k-point    29 :      -0.3636    0.2727    0.0000
  band No.  band energies     occupation 
      1       2.5480      2.00000
      2       5.1004      2.00000
      3       8.2051      2.00000
      4      13.9281      0.00000
      5      16.7314      0.00000
      6      25.3933      0.00000
      7      26.1120      0.00000
      8      27.6892      0.00000

 k-point    30 :      -0.2727    0.2727    0.0000
  band No.  band energies     occupation 
      1       0.6447      2.00000
      2       7.5540      2.00000
      3       8.1010      2.00000
      4      14.9810      0.00000
      5      17.9119      0.00000
      6      24.7627      0.00000
      7      25.6800      0.00000
      8      25.9962      0.00000

 k-point    31 :       0.3636    0.3636    0.0000
  band No.  band energies     occupation 
      1       0.0770      2.00000
      2       9.4178      0.00000
      3      12.3988      0.00000
      4      12.3988      0.00000
      5      14.1748      0.00000
      6      15.8988      0.00000
      7      30.9488      0.00000
      8      31.5490      0.00000

 k-point    32 :       0.4545    0.3636    0.0000
  band No.  band energies     occupation 
      1       1.4581      2.00000
      2       7.6885      2.00000
      3      10.1396      0.00000
      4      12.1986      0.00000
      5      14.6489      0.00000
      6      16.9838      0.00000
      7      30.1947      0.00000
      8      31.9178      0.00000

 k-point    33 :      -0.4545    0.3636    0.0000
  band No.  band energies     occupation 
      1       3.2408      2.00000
      2       6.2368      2.00000
      3       7.5185      2.00000
      4      12.3910      0.00000
      5      14.9880      0.00000
      6      19.8618      0.00000
      7      29.2005      0.00000
      8      31.0619      0.00000

 k-point    34 :      -0.3636    0.3636    0.0000
  band No.  band energies     occupation 
      1       4.4287      2.00000
      2       5.2931      2.00000
      3       6.1068      2.00000
      4      12.9719      0.00000
      5      15.6561      0.00000
      6      23.1520      0.00000
      7      28.0126      0.00000
      8      29.4208      0.00000

 k-point    35 :       0.4545    0.4545    0.0000
  band No.  band energies     occupation 
      1       2.6850      2.00000
      2       5.8463      2.00000
      3      11.8700      0.00000
      4      11.8700      0.00000
      5      13.5834      0.00000
      6      15.2734      0.00000
      7      32.3353      0.00000
      8      33.6525      0.00000

 k-point    36 :      -0.4545    0.4545    0.0000
  band No.  band energies     occupation 
      1       4.1582      2.00000
      2       4.5203      2.00000
      3       9.8356      0.00000
      4      11.9344      0.00000
      5      14.3474      0.00000
      6      16.7040      0.00000
      7      31.6445      0.00000
      8      33.1780      0.00000

 k-point    37 :       0.2727    0.1818    0.0909
  band No.  band energies     occupation 
      1      -3.1691      2.00000
      2      13.0780      0.00000
      3      13.3350      0.00000
      4      17.3980      0.00000
      5      19.4935      0.00000
      6      21.0216      0.00000
      7      24.2687      0.00000
      8      24.8602      0.00000

 k-point    38 :       0.3636    0.1818    0.0909
  band No.  band energies     occupation 
      1      -2.0589      2.00000
      2       9.8124      0.00000
      3      12.7320      0.00000
      4      16.1678      0.00000
      5      19.5408      0.00000
      6      21.8278      0.00000
      7      23.3395      0.00000
      8      25.4179      0.00000

 k-point    39 :       0.4545    0.1818    0.0909
  band No.  band energies     occupation 
      1      -0.5199      2.00000
      2       6.6972      2.00000
      3      12.6175      0.00000
      4      14.8965      0.00000
      5      19.3091      0.00000
      6      21.5464      0.00000
      7      24.2198      0.00000
      8      26.1971      0.00000

 k-point    40 :      -0.4545    0.1818    0.0909
  band No.  band energies     occupation 
      1       1.3943      2.00000
      2       3.9830      2.00000
      3      12.8028      0.00000
      4      13.9789      0.00000
      5      19.3880      0.00000
      6      20.7415      0.00000
      7      24.7938      0.00000
      8      28.2510      0.00000

 k-point    41 :       0.3636    0.2727    0.0909
  band No.  band energies     occupation 
      1      -1.6884      2.00000
      2      11.4357      0.00000
      3      11.6701      0.00000
      4      13.9479      0.00000
      5      17.8855      0.00000
      6      18.9275      0.00000
      7      25.8147      0.00000
      8      28.2939      0.00000

 k-point    42 :       0.4545    0.2727    0.0909
  band No.  band energies     occupation 
      1      -0.2951      2.00000
      2       8.4055      1.99990
      3      11.2254      0.00000
      4      12.5036      0.00000
      5      18.1132      0.00000
      6      20.8713      0.00000
      7      24.6553      0.00000
      8      28.7447      0.00000

 k-point    43 :      -0.4545    0.2727    0.0909
  band No.  band energies     occupation 
      1       1.5047      2.00000
      2       5.5693      2.00000
      3      10.7174      0.00000
      4      11.9368      0.00000
      5      18.3075      0.00000
      6      22.8807      0.00000
      7      24.3592      0.00000
      8      28.4300      0.00000

 k-point    44 :      -0.3636    0.2727    0.0909
  band No.  band energies     occupation 
      1       2.7841      2.00000
      2       4.0286      2.00000
      3       9.9843      0.00000
      4      12.3888      0.00000
      5      18.8701      0.00000
      6      22.5087      0.00000
      7      26.6685      0.00000
      8      27.2411      0.00000

 k-point    45 :      -0.2727    0.2727    0.0909
  band No.  band energies     occupation 
      1       0.8607      2.00000
      2       6.4746      2.00000
      3       9.5498      0.00000
      4      13.3421      0.00000
      5      19.7601      0.00000
      6      22.1309      0.00000
      7      24.7215      0.00000
      8      27.7754      0.00000

 k-point    46 :      -0.1818    0.2727    0.0909
  band No.  band energies     occupation 
      1      -0.8091      2.00000
      2       9.2373      0.00000
      3       9.7096      0.00000
      4      14.6707      0.00000
      5      20.7650      0.00000
      6      21.6485      0.00000
      7      22.7620      0.00000
      8      27.0883      0.00000

 k-point    47 :       0.4545    0.3636    0.0909
  band No.  band energies     occupation 
      1       0.3663      2.00000
      2       9.4995      0.00000
      3      10.3291      0.00000
      4      11.1286      0.00000
      5      16.7841      0.00000
      6      17.7907      0.00000
      7      27.7313      0.00000
      8      31.3908      0.00000

 k-point    48 :      -0.4545    0.3636    0.0909
  band No.  band energies     occupation 
      1       2.0269      2.00000
      2       7.4034      2.00000
      3       8.5029      1.98832
      4      10.7900      0.00000
      5      17.2907      0.00000
      6      20.1706      0.00000
      7      26.6721      0.00000
      8      30.7679      0.00000

 k-point    49 :      -0.3636    0.3636    0.0909
  band No.  band energies     occupation 
      1       3.9463      2.00000
      2       5.0811      2.00000
      3       7.3948      2.00000
      4      11.2159      0.00000
      5      17.7864      0.00000
      6      23.2317      0.00000
      7      25.8664      0.00000
      8      28.2102      0.00000

 k-point    50 :      -0.2727    0.3636    0.0909
  band No.  band energies     occupation 
      1       2.6412      2.00000
      2       6.4253      2.00000
      3       6.9982      2.00000
      4      12.0812      0.00000
      5      18.6379      0.00000
      6      24.8637      0.00000
      7      24.9069      0.00000
      8      27.1018      0.00000

 k-point    51 :      -0.4545    0.4545    0.0909
  band No.  band energies     occupation 
      1       2.9675      2.00000
      2       6.0997      2.00000
      3       9.7731      0.00000
      4      10.3854      0.00000
      5      16.2257      0.00000
      6      17.2432      0.00000
      7      29.9139      0.00000
      8      31.9941      0.00000

 k-point    52 :      -0.3636    0.4545    0.0909
  band No.  band energies     occupation 
      1       4.7259      2.00000
      2       4.9868      2.00000
      3       7.4780      2.00000
      4      10.4702      0.00000
      5      17.0132      0.00000
      6      19.9256      0.00000
      7      29.0159      0.00000
      8      29.0516      0.00000

 k-point    53 :      -0.4545    0.3636    0.1818
  band No.  band energies     occupation 
      1       1.2299      2.00000
      2       8.1143      2.00000
      3       8.5008      1.98926
      4      10.9131      0.00000
      5      20.5978      0.00000
      6      20.7936      0.00000
      7      23.5942      0.00000
      8      30.2697      0.00000

 k-point    54 :      -0.3636    0.3636    0.1818
  band No.  band energies     occupation 
      1       3.1286      2.00000
      2       5.6405      2.00000
      3       8.5237      1.97401
      4       9.8712      0.00000
      5      20.8024      0.00000
      6      22.1867      0.00000
      7      24.2752      0.00000
      8      27.6457      0.00000

 k-point    55 :      -0.3636    0.4545    0.1818
  band No.  band energies     occupation 
      1       3.7960      2.00000
      2       6.7191      2.00000
      3       7.5517      2.00000
      4       8.5785      1.85362
      5      20.0675      0.00000
      6      20.5129      0.00000
      7      25.6994      0.00000
      8      28.2900      0.00000

 k-point    56 :      -0.2727    0.4545    0.1818
  band No.  band energies     occupation 
      1       5.0049      2.00000
      2       5.8589      2.00000
      3       6.4890      2.00000
      4       8.7522      0.31487
      5      20.7892      0.00000
      6      23.2320      0.00000
      7      24.4149      0.00000
      8      25.8484      0.00000


--------------------------------------------------------------------------------------------------------


 soft charge-density along one line, spin component           1
         0         1         2         3         4         5         6         7         8         9
 total charge-density along one line
 
 pseudopotential strength for first ion, spin component:           1
 18.117  25.275   0.000   0.000   0.000   0.000   0.000   0.000
 25.275  35.266   0.000   0.000   0.000   0.000   0.000   0.000
  0.000   0.000   4.117  -0.000  -0.000   7.670  -0.000  -0.000
  0.000   0.000  -0.000   4.117  -0.000  -0.000   7.670  -0.000
  0.000   0.000  -0.000  -0.000   4.117  -0.000  -0.000   7.670
  0.000   0.000   7.670  -0.000  -0.000  14.301  -0.000  -0.000
  0.000   0.000  -0.000   7.670  -0.000  -0.000  14.301  -0.000
  0.000   0.000  -0.000  -0.000   7.670  -0.000  -0.000  14.301
 total augmentation occupancy for first ion, spin component:           1
  4.635  -1.800   0.000   0.000   0.000   0.000   0.000   0.000
 -1.800   1.126   0.000   0.000   0.000   0.000   0.000   0.000
  0.000   0.000   2.368  -0.000  -0.000  -0.588   0.000  -0.000
  0.000   0.000  -0.000   2.368  -0.000   0.000  -0.588  -0.000
  0.000   0.000  -0.000  -0.000   2.368  -0.000  -0.000  -0.588
  0.000   0.000  -0.588   0.000  -0.000   0.156  -0.000  -0.000
  0.000   0.000   0.000  -0.588  -0.000   0.000   0.156  -0.000
  0.000   0.000  -0.000  -0.000  -0.588  -0.000  -0.000   0.156


------------------------ aborting loop because EDIFF is reached ----------------------------------------


    CHARGE:  cpu time      0.0011: real time      0.0011
    FORLOC:  cpu time      0.0001: real time      0.0001
    FORNL :  cpu time      0.0010: real time      0.0010
    STRESS:  cpu time      0.0211: real time      0.0212
    FORCOR:  cpu time      0.0014: real time      0.0014
    FORHAR:  cpu time      0.0003: real time      0.0003
    MIXING:  cpu time      0.0001: real time      0.0001
    OFIELD:  cpu time      0.0000: real time      0.0000

  FORCE on cell =-STRESS in cart. coord.  units (eV):
  Direction    XX          YY          ZZ          XY          YZ          ZX
  --------------------------------------------------------------------------------------
  Alpha Z     2.10395     2.10395     2.10395
  Ewald     -44.01403   -44.01403   -44.01403     0.00000    -0.00000    -0.00000
  Hartree     0.21204     0.21204     0.21204     0.00000     0.00000     0.00000
  E(xc)     -12.40950   -12.40950   -12.40950     0.00000     0.00000     0.00000
  Local      -5.97150    -5.97150    -5.97150     0.00003     0.00003     0.00003
  n-local    39.12249    37.61879    39.12730    -0.29767     0.42780     0.50236
  augment    -6.40525    -6.40525    -6.40525    -0.00003    -0.00003    -0.00003
  Kinetic    20.12886    36.81775    24.63809     9.72144    -7.90865   -14.39690
  Fock        0.00000     0.00000     0.00000     0.00000     0.00000     0.00000
  -------------------------------------------------------------------------------------
  Total      -0.66653    -0.66653    -0.66653     0.00000    -0.00000     0.00000
  in kB     -66.74377   -66.74377   -66.74377     0.00000    -0.00000     0.00000
  external pressure =      -66.74 kB  Pullay stress =        0.00 kB


 VOLUME and BASIS-vectors are now :
 -----------------------------------------------------------------------------
  energy-cutoff  :      240.00
  volume of cell :       16.00
      direct lattice vectors                 reciprocal lattice vectors
     2.000000000  2.000000000  0.000000000     0.250000000  0.250000000 -0.250000000
     0.000000000  2.000000000  2.000000000    -0.250000000  0.250000000  0.250000000
     2.000000000  0.000000000  2.000000000     0.250000000 -0.250000000  0.250000000

  length of vectors
     2.828427125  2.828427125  2.828427125     0.433012702  0.433012702  0.433012702


 FORCES acting on ions
    electron-ion (+dipol)            ewald-force                    non-local-force                 convergence-correction
 -----------------------------------------------------------------------------------------------
   0.188E-14 0.511E-15 0.281E-15   0.253E-15 0.642E-16 -.423E-16   -.132E-22 0.174E-22 -.132E-22   0.491E-17 0.637E-17 -.146E-16
 -----------------------------------------------------------------------------------------------
   0.188E-14 0.511E-15 0.281E-15   0.253E-15 0.642E-16 -.423E-16   -.132E-22 0.174E-22 -.132E-22   0.491E-17 0.637E-17 -.146E-16
 
 
 POSITION                                       TOTAL-FORCE (eV/Angst)
 -----------------------------------------------------------------------------------
      0.00000      0.00000      0.00000        -0.000000      0.000000      0.000000
 -----------------------------------------------------------------------------------
    total drift:                                0.000000      0.000000      0.000000


--------------------------------------------------------------------------------------------------------



  FREE ENERGIE OF THE ION-ELECTRON SYSTEM (eV)
  ---------------------------------------------------
  free  energy   TOTEN  =        -4.84877531 eV

  energy  without entropy=       -4.84750609  energy(sigma->0) =       -4.84814070
 


--------------------------------------------------------------------------------------------------------


    POTLOK:  cpu time      0.0025: real time      0.0025


--------------------------------------------------------------------------------------------------------


 writing wavefunctions
     LOOP+:  cpu time      0.4406: real time      0.4452
    4ORBIT:  cpu time      0.0000: real time      0.0000

 total amount of memory used by VASP MPI-rank0    31173. kBytes
=======================================================================

   base      :      30000. kBytes
   nonl-proj :        518. kBytes
   fftplans  :        134. kBytes
   grid      :        246. kBytes
   one-center:          3. kBytes
   wavefun   :        272. kBytes
 
  
  
 General timing and accounting informations for this job:
 ========================================================
  
                  Total CPU time used (sec):        0.576
                            User time (sec):        0.499
                          System time (sec):        0.078
                         Elapsed time (sec):        0.563
  
                   Maximum memory used (kb):       53236.
                   Average memory used (kb):          N/A
  
                          Minor page faults:         9332
                          Major page faults:            0
                 Voluntary context switches:          189
