<?xml version="1.0" encoding="ISO-8859-1"?>
<modeling>
 <generator>
  <i name="program" type="string">vasp </i>
  <i name="version" type="string">6.3.0  </i>
  <i name="subversion" type="string">20Jan22 (build Feb 01 2022 16:52:37) complex                          parallel </i>
  <i name="platform" type="string">TETRA_NSC1 </i>
  <i name="date" type="string">2022 02 22 </i>
  <i name="time" type="string">16:07:17 </i>
 </generator>
 <incar>
  <i type="string" name="SYSTEM">fcc Si</i>
  <i type="int" name="ISTART">     0</i>
  <i type="int" name="ICHARG">     2</i>
  <i name="ENCUT">    240.00000000</i>
  <i type="int" name="ISMEAR">     0</i>
  <i name="SIGMA">      0.10000000</i>
 </incar>
 <primitive_cell>
  <structure name="primitive_cell" >
   <crystal>
    <varray name="basis" >
     <v>       2.00000000       2.00000000       0.00000000 </v>
     <v>       0.00000000       2.00000000       2.00000000 </v>
     <v>       2.00000000       0.00000000       2.00000000 </v>
    </varray>
    <i name="volume">     16.00000000 </i>
    <varray name="rec_basis" >
     <v>       0.25000000       0.25000000      -0.25000000 </v>
     <v>      -0.25000000       0.25000000       0.25000000 </v>
     <v>       0.25000000      -0.25000000       0.25000000 </v>
    </varray>
   </crystal>
   <varray name="positions" >
    <v>       0.00000000       0.00000000       0.00000000 </v>
   </varray>
  </structure>
  <varray name="primitive_index" >
   <v type="int" >        1 </v>
  </varray>
 </primitive_cell>
 <kpoints>
  <generation param="Monkhorst-Pack">
   <v type="int" name="divisions">      11       11       11 </v>
   <v name="usershift">      0.00000000       0.00000000       0.00000000 </v>
   <v name="genvec1">      0.09090909       0.00000000       0.00000000 </v>
   <v name="genvec2">      0.00000000       0.09090909       0.00000000 </v>
   <v name="genvec3">      0.00000000       0.00000000       0.09090909 </v>
   <v name="shift">      0.00000000       0.00000000       0.00000000 </v>
  </generation>
  <varray name="kpointlist" >
   <v>       0.00000000       0.00000000       0.00000000 </v>
   <v>       0.09090909       0.00000000       0.00000000 </v>
   <v>       0.18181818       0.00000000       0.00000000 </v>
   <v>       0.27272727       0.00000000       0.00000000 </v>
   <v>       0.36363636       0.00000000       0.00000000 </v>
   <v>       0.45454545       0.00000000       0.00000000 </v>
   <v>       0.09090909       0.09090909       0.00000000 </v>
   <v>       0.18181818       0.09090909       0.00000000 </v>
   <v>       0.27272727       0.09090909       0.00000000 </v>
   <v>       0.36363636       0.09090909       0.00000000 </v>
   <v>       0.45454545       0.09090909       0.00000000 </v>
   <v>      -0.45454545       0.09090909       0.00000000 </v>
   <v>      -0.36363636       0.09090909       0.00000000 </v>
   <v>      -0.27272727       0.09090909       0.00000000 </v>
   <v>      -0.18181818       0.09090909       0.00000000 </v>
   <v>      -0.09090909       0.09090909       0.00000000 </v>
   <v>       0.18181818       0.18181818       0.00000000 </v>
   <v>       0.27272727       0.18181818       0.00000000 </v>
   <v>       0.36363636       0.18181818       0.00000000 </v>
   <v>       0.45454545       0.18181818       0.00000000 </v>
   <v>      -0.45454545       0.18181818       0.00000000 </v>
   <v>      -0.36363636       0.18181818       0.00000000 </v>
   <v>      -0.27272727       0.18181818       0.00000000 </v>
   <v>      -0.18181818       0.18181818       0.00000000 </v>
   <v>       0.27272727       0.27272727       0.00000000 </v>
   <v>       0.36363636       0.27272727       0.00000000 </v>
   <v>       0.45454545       0.27272727       0.00000000 </v>
   <v>      -0.45454545       0.27272727       0.00000000 </v>
   <v>      -0.36363636       0.27272727       0.00000000 </v>
   <v>      -0.27272727       0.27272727       0.00000000 </v>
   <v>       0.36363636       0.36363636       0.00000000 </v>
   <v>       0.45454545       0.36363636       0.00000000 </v>
   <v>      -0.45454545       0.36363636       0.00000000 </v>
   <v>      -0.36363636       0.36363636       0.00000000 </v>
   <v>       0.45454545       0.45454545       0.00000000 </v>
   <v>      -0.45454545       0.45454545       0.00000000 </v>
   <v>       0.27272727       0.18181818       0.09090909 </v>
   <v>       0.36363636       0.18181818       0.09090909 </v>
   <v>       0.45454545       0.18181818       0.09090909 </v>
   <v>      -0.45454545       0.18181818       0.09090909 </v>
   <v>       0.36363636       0.27272727       0.09090909 </v>
   <v>       0.45454545       0.27272727       0.09090909 </v>
   <v>      -0.45454545       0.27272727       0.09090909 </v>
   <v>      -0.36363636       0.27272727       0.09090909 </v>
   <v>      -0.27272727       0.27272727       0.09090909 </v>
   <v>      -0.18181818       0.27272727       0.09090909 </v>
   <v>       0.45454545       0.36363636       0.09090909 </v>
   <v>      -0.45454545       0.36363636       0.09090909 </v>
   <v>      -0.36363636       0.36363636       0.09090909 </v>
   <v>      -0.27272727       0.36363636       0.09090909 </v>
   <v>      -0.45454545       0.45454545       0.09090909 </v>
   <v>      -0.36363636       0.45454545       0.09090909 </v>
   <v>      -0.45454545       0.36363636       0.18181818 </v>
   <v>      -0.36363636       0.36363636       0.18181818 </v>
   <v>      -0.36363636       0.45454545       0.18181818 </v>
   <v>      -0.27272727       0.45454545       0.18181818 </v>
  </varray>
  <varray name="weights" >
   <v>       0.00075131 </v>
   <v>       0.00601052 </v>
   <v>       0.00601052 </v>
   <v>       0.00601052 </v>
   <v>       0.00601052 </v>
   <v>       0.00601052 </v>
   <v>       0.00450789 </v>
   <v>       0.01803156 </v>
   <v>       0.01803156 </v>
   <v>       0.01803156 </v>
   <v>       0.01803156 </v>
   <v>       0.01803156 </v>
   <v>       0.01803156 </v>
   <v>       0.01803156 </v>
   <v>       0.01803156 </v>
   <v>       0.00901578 </v>
   <v>       0.00450789 </v>
   <v>       0.01803156 </v>
   <v>       0.01803156 </v>
   <v>       0.01803156 </v>
   <v>       0.01803156 </v>
   <v>       0.01803156 </v>
   <v>       0.01803156 </v>
   <v>       0.00901578 </v>
   <v>       0.00450789 </v>
   <v>       0.01803156 </v>
   <v>       0.01803156 </v>
   <v>       0.01803156 </v>
   <v>       0.01803156 </v>
   <v>       0.00901578 </v>
   <v>       0.00450789 </v>
   <v>       0.01803156 </v>
   <v>       0.01803156 </v>
   <v>       0.00901578 </v>
   <v>       0.00450789 </v>
   <v>       0.00901578 </v>
   <v>       0.01803156 </v>
   <v>       0.03606311 </v>
   <v>       0.03606311 </v>
   <v>       0.03606311 </v>
   <v>       0.01803156 </v>
   <v>       0.03606311 </v>
   <v>       0.03606311 </v>
   <v>       0.03606311 </v>
   <v>       0.03606311 </v>
   <v>       0.01803156 </v>
   <v>       0.01803156 </v>
   <v>       0.03606311 </v>
   <v>       0.03606311 </v>
   <v>       0.01803156 </v>
   <v>       0.01803156 </v>
   <v>       0.01803156 </v>
   <v>       0.01803156 </v>
   <v>       0.03606311 </v>
   <v>       0.01803156 </v>
   <v>       0.01803156 </v>
  </varray>
 </kpoints>
 <parameters>
  <separator name="general" >
   <i type="string" name="SYSTEM">fcc Si</i>
   <i type="logical" name="LCOMPAT"> F  </i>
  </separator>
  <separator name="electronic" >
   <i type="string" name="PREC">normal</i>
   <i name="ENMAX">    240.00000000</i>
   <i name="ENAUG">    322.06900000</i>
   <i name="EDIFF">      0.00010000</i>
   <i type="int" name="IALGO">    38</i>
   <i type="int" name="IWAVPR">    10</i>
   <i type="int" name="NBANDS">     8</i>
   <i type="int" name="NBANDSLOW">    -1</i>
   <i type="int" name="NBANDSHIGH">    -1</i>
   <i name="NELECT">      4.00000000</i>
   <i type="int" name="TURBO">     0</i>
   <i type="int" name="IRESTART">     0</i>
   <i type="int" name="NREBOOT">     0</i>
   <i type="int" name="NMIN">     0</i>
   <i name="EREF">      0.00000000</i>
   <separator name="electronic smearing" >
    <i type="int" name="ISMEAR">     0</i>
    <i name="SIGMA">      0.10000000</i>
    <i name="KSPACING">      0.50000000</i>
    <i type="logical" name="KGAMMA"> T  </i>
    <i type="logical" name="KBLOWUP"> T  </i>
   </separator>
   <separator name="electronic projectors" >
    <i type="logical" name="LREAL"> F  </i>
    <v name="ROPT">      0.00000000</v>
    <i type="int" name="LMAXPAW">  -100</i>
    <i type="int" name="LMAXMIX">     2</i>
    <i type="logical" name="NLSPLINE"> F  </i>
   </separator>
   <separator name="electronic startup" >
    <i type="int" name="ISTART">     0</i>
    <i type="int" name="ICHARG">     2</i>
    <i type="int" name="INIWAV">     1</i>
   </separator>
   <separator name="electronic spin" >
    <i type="int" name="ISPIN">     1</i>
    <i type="logical" name="LNONCOLLINEAR"> F  </i>
    <v name="MAGMOM">      1.00000000</v>
    <i name="NUPDOWN">     -1.00000000</i>
    <i type="logical" name="LSORBIT"> F  </i>
    <v name="SAXIS">      0.00000000      0.00000000      1.00000000</v>
    <i type="logical" name="LSPIRAL"> F  </i>
    <v name="QSPIRAL">      0.00000000      0.00000000      0.00000000</v>
    <i type="logical" name="LZEROZ"> F  </i>
   </separator>
   <separator name="electronic exchange-correlation" >
    <i type="logical" name="LASPH"> F  </i>
    <i type="logical" name="LMETAGGA"> F  </i>
   </separator>
   <separator name="electronic convergence" >
    <i type="int" name="NELM">    60</i>
    <i type="int" name="NELMDL">    -5</i>
    <i type="int" name="NELMIN">     2</i>
    <i name="ENINI">    240.00000000</i>
    <separator name="electronic convergence detail" >
     <i type="logical" name="LDIAG"> T  </i>
     <i type="logical" name="LSUBROT"> F  </i>
     <i name="WEIMIN">      0.00000000</i>
     <i name="EBREAK">      0.00000313</i>
     <i name="DEPER">      0.30000000</i>
     <i type="int" name="NRMM">     4</i>
     <i name="TIME">      0.40000000</i>
    </separator>
   </separator>
   <separator name="electronic mixer" >
    <i name="AMIX">      0.40000000</i>
    <i name="BMIX">      1.00000000</i>
    <i name="AMIN">      0.10000000</i>
    <i name="AMIX_MAG">      1.60000000</i>
    <i name="BMIX_MAG">      1.00000000</i>
    <separator name="electronic mixer details" >
     <i type="int" name="IMIX">     4</i>
     <i type="logical" name="MIXFIRST"> F  </i>
     <i type="int" name="MAXMIX">   -45</i>
     <i name="WC">    100.00000000</i>
     <i type="int" name="INIMIX">     1</i>
     <i type="int" name="MIXPRE">     1</i>
     <i type="int" name="MREMOVE">     5</i>
    </separator>
   </separator>
   <separator name="electronic dipolcorrection" >
    <i type="logical" name="LDIPOL"> F  </i>
    <i type="logical" name="LMONO"> F  </i>
    <i type="int" name="IDIPOL">     0</i>
    <i name="EPSILON">      1.00000000</i>
    <v name="DIPOL">   -100.00000000   -100.00000000   -100.00000000</v>
    <i name="EFIELD">      0.00000000</i>
   </separator>
  </separator>
  <separator name="grids" >
   <i type="int" name="NGX">    12</i>
   <i type="int" name="NGY">    12</i>
   <i type="int" name="NGZ">    12</i>
   <i type="int" name="NGXF">    24</i>
   <i type="int" name="NGYF">    24</i>
   <i type="int" name="NGZF">    24</i>
   <i type="logical" name="ADDGRID"> F  </i>
  </separator>
  <separator name="ionic" >
   <i type="int" name="NSW">     0</i>
   <i type="int" name="IBRION">    -1</i>
   <i type="int" name="MDALGO">     0</i>
   <i type="int" name="ISIF">     2</i>
   <i name="PSTRESS">      0.00000000</i>
   <i name="EDIFFG">      0.00100000</i>
   <i type="int" name="NFREE">     0</i>
   <i name="POTIM">      0.50000000</i>
   <i name="SMASS">     -3.00000000</i>
   <i name="SCALEE">      1.00000000</i>
  </separator>
  <separator name="ionic md" >
   <i name="TEBEG">      0.00010000</i>
   <i name="TEEND">      0.00010000</i>
   <i type="int" name="NBLOCK">     1</i>
   <i type="int" name="KBLOCK">     1</i>
   <i type="int" name="NPACO">   256</i>
   <i name="APACO">     10.00000000</i>
  </separator>
  <separator name="symmetry" >
   <i type="int" name="ISYM">     2</i>
   <i name="SYMPREC">      0.00001000</i>
  </separator>
  <separator name="dos" >
   <i type="int" name="LORBIT">     0</i>
   <v name="RWIGS">     -1.00000000</v>
   <i type="int" name="NEDOS">   301</i>
   <i name="EMIN">     10.00000000</i>
   <i name="EMAX">    -10.00000000</i>
   <i name="EFERMI">      0.00000000</i>
  </separator>
  <separator name="writing" >
   <i type="int" name="NWRITE">     2</i>
   <i type="logical" name="LWAVE"> T  </i>
   <i type="logical" name="LDOWNSAMPLE"> F  </i>
   <i type="logical" name="LCHARG"> T  </i>
   <i type="logical" name="LPARD"> F  </i>
   <i type="logical" name="LVTOT"> F  </i>
   <i type="logical" name="LVHAR"> F  </i>
   <i type="logical" name="LELF"> F  </i>
   <i type="logical" name="LOPTICS"> F  </i>
   <v name="STM">      0.00000000      0.00000000      0.00000000      0.00000000      0.00000000      0.00000000      0.00000000</v>
  </separator>
  <separator name="performance" >
   <i type="int" name="NPAR">     4</i>
   <i type="int" name="NSIM">     4</i>
   <i type="int" name="NBLK">    -1</i>
   <i type="logical" name="LPLANE"> T  </i>
   <i type="logical" name="LSCALAPACK"> T  </i>
   <i type="logical" name="LSCAAWARE"> F  </i>
   <i type="logical" name="LSCALU"> F  </i>
   <i type="logical" name="LASYNC"> F  </i>
   <i type="logical" name="LORBITALREAL"> F  </i>
  </separator>
  <separator name="miscellaneous" >
   <i type="int" name="IDIOT">     3</i>
   <i type="int" name="PHON_NSTRUCT">    -1</i>
   <i type="logical" name="LMUSIC"> F  </i>
   <v name="POMASS">     28.08500000</v>
   <v name="DARWINR">      0.00000000</v>
   <v name="DARWINV">      1.00000000</v>
   <i type="logical" name="LCORR"> T  </i>
  </separator>
  <i type="logical" name="GGA_COMPAT"> T  </i>
  <i type="logical" name="LBERRY"> F  </i>
  <i type="int" name="ICORELEVEL">     0</i>
  <i type="logical" name="LDAU"> F  </i>
  <i type="int" name="I_CONSTRAINED_M">     0</i>
  <separator name="electronic exchange-correlation" >
   <i type="string" name="GGA">--</i>
   <i type="int" name="VOSKOWN">     0</i>
   <i type="logical" name="LHFCALC"> F  </i>
   <i type="string" name="PRECFOCK"></i>
   <i type="logical" name="LSYMGRAD"> F  </i>
   <i type="logical" name="LHFONE"> F  </i>
   <i type="logical" name="LRHFCALC"> F  </i>
   <i type="logical" name="LTHOMAS"> F  </i>
   <i type="logical" name="LMODELHF"> F  </i>
   <i type="logical" name="LFOCKACE"> F  </i>
   <i name="ENCUT4O">     -1.00000000</i>
   <i type="int" name="EXXOEP">     0</i>
   <i type="int" name="FOURORBIT">     0</i>
   <i name="AEXX">      0.00000000</i>
   <i name="HFALPHA">      0.00000000</i>
   <i name="MCALPHA">      0.00000000</i>
   <i name="ALDAX">      1.00000000</i>
   <i name="AGGAX">      1.00000000</i>
   <i name="ALDAC">      1.00000000</i>
   <i name="AGGAC">      1.00000000</i>
   <i type="int" name="NKREDX">     1</i>
   <i type="int" name="NKREDY">     1</i>
   <i type="int" name="NKREDZ">     1</i>
   <i type="logical" name="SHIFTRED"> F  </i>
   <i type="logical" name="ODDONLY"> F  </i>
   <i type="logical" name="EVENONLY"> F  </i>
   <i type="int" name="LMAXFOCK">     0</i>
   <i type="int" name="NMAXFOCKAE">     0</i>
   <i type="logical" name="LFOCKAEDFT"> F  </i>
   <i name="HFSCREEN">      0.00000000</i>
   <i name="HFSCREENC">      0.00000000</i>
   <i type="int" name="NBANDSGWLOW">     0</i>
  </separator>
  <separator name="vdW DFT" >
   <i type="logical" name="LUSE_VDW"> F  </i>
   <i name="Zab_VDW">     -0.84910000</i>
   <i name="PARAM1">      0.12340000</i>
   <i name="PARAM2">      1.00000000</i>
   <i name="PARAM3">      0.00000000</i>
  </separator>
  <separator name="model GW" >
   <i type="int" name="MODEL_GW">     0</i>
   <i name="MODEL_EPS0">      9.60000000</i>
   <i name="MODEL_ALPHA">      1.00000000</i>
  </separator>
  <separator name="linear response parameters" >
   <i type="logical" name="LEPSILON"> F  </i>
   <i type="logical" name="LRPA"> F  </i>
   <i type="logical" name="LNABLA"> F  </i>
   <i type="logical" name="LVEL"> F  </i>
   <i name="CSHIFT">      0.10000000</i>
   <i name="OMEGAMAX">     -1.00000000</i>
   <i name="DEG_THRESHOLD">      0.00200000</i>
   <i name="RTIME">     -0.10000000</i>
   <i name="WPLASMAI">      0.00000000</i>
   <v name="DFIELD">      0.00000000      0.00000000      0.00000000</v>
   <v name="WPLASMA">      0.00000000      0.00000000      0.00000000      0.00000000      0.00000000      0.00000000      0.00000000      0.00000000      0.00000000</v>
  </separator>
  <separator name="orbital magnetization" >
   <i type="logical" name="NUCIND"> F  </i>
   <v name="MAGPOS">      0.00000000      0.00000000      0.00000000</v>
   <i type="logical" name="LNICSALL"> T  </i>
   <i type="logical" name="ORBITALMAG"> F  </i>
   <i type="logical" name="LMAGBLOCH"> F  </i>
   <i type="logical" name="LCHIMAG"> F  </i>
   <i type="logical" name="LGAUGE"> T  </i>
   <i type="int" name="MAGATOM">     0</i>
   <v name="MAGDIPOL">      0.00000000      0.00000000      0.00000000</v>
   <v name="AVECCONST">      0.00000000      0.00000000      0.00000000</v>
  </separator>
  <separator name="response functions" >
   <i type="logical" name="LFINITE_TEMPERATURE"> F  </i>
   <i type="logical" name="LADDER"> F  </i>
   <i type="logical" name="LRPAFORCE"> F  </i>
   <i type="logical" name="LFXC"> F  </i>
   <i type="logical" name="LHARTREE"> T  </i>
   <i type="int" name="IBSE">     0</i>
   <v type="int" name="KPOINT">    -1     0     0     0</v>
   <i type="logical" name="LTCTC"> F  </i>
   <i type="logical" name="LTCTE"> F  </i>
   <i type="logical" name="LTETE"> F  </i>
   <i type="logical" name="LTRIPLET"> F  </i>
   <i type="logical" name="LFXCEPS"> F  </i>
   <i type="logical" name="LFXHEG"> F  </i>
   <i type="int" name="NATURALO">     2</i>
   <i type="logical" name="LHOLEGF"> F  </i>
   <i type="logical" name="L2ORDER"> F  </i>
   <i type="logical" name="LDMP1"> F  </i>
   <i type="logical" name="LMP2LT"> F  </i>
   <i type="logical" name="LSMP2LT"> F  </i>
   <i type="logical" name="LGWLF"> F  </i>
   <i name="ENCUTGW">     -2.00000000</i>
   <i name="ENCUTGWSOFT">     -2.00000000</i>
   <i name="ENCUTLF">     -1.00000000</i>
   <i type="logical" name="LESF_SPLINES"> F  </i>
   <i type="int" name="LMAXMP2">    -1</i>
   <i name="SCISSOR">      0.00000000</i>
   <i type="int" name="NOMEGA">     0</i>
   <i type="int" name="NOMEGAR">     0</i>
   <i type="int" name="NBANDSGW">    -1</i>
   <i type="int" name="NBANDSO">    -1</i>
   <i type="int" name="NBANDSV">    -1</i>
   <i type="int" name="NELMGW">     1</i>
   <i type="int" name="NELMHF">     1</i>
   <i type="int" name="DIM">     3</i>
   <i type="int" name="IESPILON">     4</i>
   <i type="int" name="ANTIRES">     0</i>
   <i name="OMEGAMAX">    -30.00000000</i>
   <i name="OMEGAMIN">    -30.00000000</i>
   <i name="OMEGATL">   -200.00000000</i>
   <i type="int" name="OMEGAGRID">     0</i>
   <i name="CSHIFT">     -0.10000000</i>
   <i type="logical" name="LSELFENERGY"> F  </i>
   <i type="logical" name="LSPECTRAL"> F  </i>
   <i type="logical" name="LSPECTRALGW"> F  </i>
   <i type="logical" name="LSINGLES"> F  </i>
   <i type="logical" name="LFERMIGW"> F  </i>
   <i type="logical" name="ODDONLYGW"> F  </i>
   <i type="logical" name="EVENONLYGW"> F  </i>
   <i type="int" name="NKREDLFX">     1</i>
   <i type="int" name="NKREDLFY">     1</i>
   <i type="int" name="NKREDLFZ">     1</i>
   <i type="int" name="MAXMEM">  2800</i>
   <i type="int" name="TELESCOPE">     0</i>
   <i type="int" name="NTAUPAR">    -1</i>
   <i type="int" name="NOMEGAPAR">    -1</i>
   <i name="DAMP_NEWTON">      0.80000001</i>
   <i name="LAMBDA">      1.00000000</i>
  </separator>
  <separator name="External order field" >
   <i name="OFIELD_KAPPA">      0.00000000</i>
   <v name="OFIELD_K">      0.00000000      0.00000000      0.00000000</v>
   <i name="OFIELD_Q6_NEAR">      0.00000000</i>
   <i name="OFIELD_Q6_FAR">      0.00000000</i>
   <i name="OFIELD_A">      0.00000000</i>
  </separator>
  <separator name="optional k-points parameters" >
   <i type="int" name="KPOINTS_OPT_MODE">     1</i>
   <i type="logical" name="LKPOINTS_OPT"> F  </i>
  </separator>
 </parameters>
 <atominfo>
  <atoms>       1 </atoms>
  <types>       1 </types>
  <array name="atoms" >
   <dimension dim="1">ion</dimension>
   <field type="string">element</field>
   <field type="int">atomtype</field>
   <set>
    <rc><c>Si</c><c>   1</c></rc>
   </set>
  </array>
  <array name="atomtypes" >
   <dimension dim="1">type</dimension>
   <field type="int">atomspertype</field>
   <field type="string">element</field>
   <field>mass</field>
   <field>valence</field>
   <field type="string">pseudopotential</field>
   <set>
    <rc><c>   1</c><c>Si</c><c>     28.08500000</c><c>      4.00000000</c><c>  PAW_PBE Si 05Jan2001                  </c></rc>
   </set>
  </array>
 </atominfo>
 <structure name="initialpos" >
  <crystal>
   <varray name="basis" >
    <v>       2.00000000       2.00000000       0.00000000 </v>
    <v>       0.00000000       2.00000000       2.00000000 </v>
    <v>       2.00000000       0.00000000       2.00000000 </v>
   </varray>
   <i name="volume">     16.00000000 </i>
   <varray name="rec_basis" >
    <v>       0.25000000       0.25000000      -0.25000000 </v>
    <v>      -0.25000000       0.25000000       0.25000000 </v>
    <v>       0.25000000      -0.25000000       0.25000000 </v>
   </varray>
  </crystal>
  <varray name="positions" >
   <v>       0.00000000       0.00000000       0.00000000 </v>
  </varray>
 </structure>
 <calculation>
  <scstep>
   <time name="dav">    0.04    0.04</time>
   <time name="total">    0.05    0.05</time>
   <energy>
    <i name="alphaZ">      2.10394567 </i>
    <i name="ewald">   -132.04207609 </i>
    <i name="hartreedc">     -0.84728144 </i>
    <i name="XCdc">     -9.06445411 </i>
    <i name="pawpsdc">     88.12379961 </i>
    <i name="pawaedc">    -70.53051779 </i>
    <i name="eentropy">     -0.00189897 </i>
    <i name="bandstr">     15.27156111 </i>
    <i name="atom">    103.06077658 </i>
    <i name="e_fr_energy">     -3.92614543 </i>
    <i name="e_wo_entrp">     -3.92424646 </i>
    <i name="e_0_energy">     -3.92519595 </i>
   </energy>
  </scstep>
  <scstep>
   <time name="dav">    0.07    0.07</time>
   <time name="total">    0.07    0.07</time>
   <energy>
    <i name="e_fr_energy">     -4.86262789 </i>
    <i name="e_wo_entrp">     -4.86103685 </i>
    <i name="e_0_energy">     -4.86183237 </i>
   </energy>
  </scstep>
  <scstep>
   <time name="dav">    0.04    0.04</time>
   <time name="total">    0.04    0.04</time>
   <energy>
    <i name="e_fr_energy">     -4.86626096 </i>
    <i name="e_wo_entrp">     -4.86470653 </i>
    <i name="e_0_energy">     -4.86548374 </i>
   </energy>
  </scstep>
  <scstep>
   <time name="dav">    0.06    0.06</time>
   <time name="total">    0.06    0.06</time>
   <energy>
    <i name="e_fr_energy">     -4.86626326 </i>
    <i name="e_wo_entrp">     -4.86470885 </i>
    <i name="e_0_energy">     -4.86548606 </i>
   </energy>
  </scstep>
  <scstep>
   <time name="dav">    0.03    0.03</time>
   <time name="total">    0.03    0.03</time>
   <energy>
    <i name="e_fr_energy">     -4.86626326 </i>
    <i name="e_wo_entrp">     -4.86470885 </i>
    <i name="e_0_energy">     -4.86548606 </i>
   </energy>
  </scstep>
  <scstep>
   <time name="dav">    0.04    0.04</time>
   <time name="total">    0.04    0.04</time>
   <energy>
    <i name="e_fr_energy">     -4.85503535 </i>
    <i name="e_wo_entrp">     -4.85361881 </i>
    <i name="e_0_energy">     -4.85432708 </i>
   </energy>
  </scstep>
  <scstep>
   <time name="dav">    0.05    0.05</time>
   <time name="total">    0.05    0.05</time>
   <energy>
    <i name="e_fr_energy">     -4.84880170 </i>
    <i name="e_wo_entrp">     -4.84753131 </i>
    <i name="e_0_energy">     -4.84816651 </i>
   </energy>
  </scstep>
  <scstep>
   <time name="dav">    0.05    0.05</time>
   <time name="total">    0.05    0.05</time>
   <energy>
    <i name="alphaZ">      2.10394567 </i>
    <i name="ewald">   -132.04207609 </i>
    <i name="hartreedc">     -0.63630798 </i>
    <i name="XCdc">     -9.03109814 </i>
    <i name="pawpsdc">    298.71669399 </i>
    <i name="pawaedc">   -281.12036525 </i>
    <i name="eentropy">     -0.00126921 </i>
    <i name="bandstr">     14.10092513 </i>
    <i name="atom">    103.06077658 </i>
    <i name="e_fr_energy">     -4.84877531 </i>
    <i name="e_wo_entrp">     -4.84750609 </i>
    <i name="e_0_energy">     -4.84814070 </i>
   </energy>
  </scstep>
  <structure>
   <crystal>
    <varray name="basis" >
     <v>       2.00000000       2.00000000       0.00000000 </v>
     <v>       0.00000000       2.00000000       2.00000000 </v>
     <v>       2.00000000       0.00000000       2.00000000 </v>
    </varray>
    <i name="volume">     16.00000000 </i>
    <varray name="rec_basis" >
     <v>       0.25000000       0.25000000      -0.25000000 </v>
     <v>      -0.25000000       0.25000000       0.25000000 </v>
     <v>       0.25000000      -0.25000000       0.25000000 </v>
    </varray>
   </crystal>
   <varray name="positions" >
    <v>       0.00000000       0.00000000       0.00000000 </v>
   </varray>
  </structure>
  <varray name="forces" >
   <v>      -0.00000000       0.00000000       0.00000000 </v>
  </varray>
  <varray name="stress" >
   <v>     -66.74377442       0.00000000       0.00000000 </v>
   <v>       0.00000000     -66.74377442       0.00000000 </v>
   <v>       0.00000000      -0.00000000     -66.74377442 </v>
  </varray>
  <energy>
   <i name="e_fr_energy">     -4.84877531 </i>
   <i name="e_wo_entrp">     -4.84750609 </i>
   <i name="e_0_energy">     -4.84814070 </i>
  </energy>
  <time name="totalsc">    0.44    0.45</time>
  <eigenvalues>
   <array>
    <dimension dim="1">band</dimension>
    <dimension dim="2">kpoint</dimension>
    <dimension dim="3">spin</dimension>
    <field>eigene</field>
    <field>occ</field>
    <set>
     <set comment="spin 1">
      <set comment="kpoint 1">
       <r>   -4.6608    1.0000 </r>
       <r>   18.8666    0.0000 </r>
       <r>   18.8666    0.0000 </r>
       <r>   18.8666    0.0000 </r>
       <r>   20.5419    0.0000 </r>
       <r>   20.5419    0.0000 </r>
       <r>   20.5419    0.0000 </r>
       <r>   25.5651    0.0000 </r>
      </set>
      <set comment="kpoint 2">
       <r>   -4.4364    1.0000 </r>
       <r>   16.3145    0.0000 </r>
       <r>   18.2196    0.0000 </r>
       <r>   18.2196    0.0000 </r>
       <r>   21.2889    0.0000 </r>
       <r>   21.4375    0.0000 </r>
       <r>   21.4376    0.0000 </r>
       <r>   26.0538    0.0000 </r>
      </set>
      <set comment="kpoint 3">
       <r>   -3.7646    1.0000 </r>
       <r>   12.7372    0.0000 </r>
       <r>   17.4149    0.0000 </r>
       <r>   17.4149    0.0000 </r>
       <r>   21.3059    0.0000 </r>
       <r>   22.3511    0.0000 </r>
       <r>   22.3512    0.0000 </r>
       <r>   25.2022    0.0000 </r>
      </set>
      <set comment="kpoint 4">
       <r>   -2.6513    1.0000 </r>
       <r>    9.2849    0.0000 </r>
       <r>   16.8837    0.0000 </r>
       <r>   16.8837    0.0000 </r>
       <r>   21.1420    0.0000 </r>
       <r>   21.4633    0.0000 </r>
       <r>   21.4634    0.0000 </r>
       <r>   26.4360    0.0000 </r>
      </set>
      <set comment="kpoint 5">
       <r>   -1.1089    1.0000 </r>
       <r>    6.1420    1.0000 </r>
       <r>   16.6320    0.0000 </r>
       <r>   16.6320    0.0000 </r>
       <r>   20.2938    0.0000 </r>
       <r>   20.2939    0.0000 </r>
       <r>   21.0940    0.0000 </r>
       <r>   25.0748    0.0000 </r>
      </set>
      <set comment="kpoint 6">
       <r>    0.8099    1.0000 </r>
       <r>    3.4165    1.0000 </r>
       <r>   16.5759    0.0000 </r>
       <r>   16.5759    0.0000 </r>
       <r>   19.6104    0.0000 </r>
       <r>   19.6106    0.0000 </r>
       <r>   21.1890    0.0000 </r>
       <r>   24.2631    0.0000 </r>
      </set>
      <set comment="kpoint 7">
       <r>   -4.3617    1.0000 </r>
       <r>   17.0361    0.0000 </r>
       <r>   17.0362    0.0000 </r>
       <r>   18.1444    0.0000 </r>
       <r>   19.1491    0.0000 </r>
       <r>   22.7371    0.0000 </r>
       <r>   22.7371    0.0000 </r>
       <r>   24.2127    0.0000 </r>
      </set>
      <set comment="kpoint 8">
       <r>   -3.8389    1.0000 </r>
       <r>   14.0686    0.0000 </r>
       <r>   16.0860    0.0000 </r>
       <r>   17.5611    0.0000 </r>
       <r>   19.6013    0.0000 </r>
       <r>   22.4142    0.0000 </r>
       <r>   23.5294    0.0000 </r>
       <r>   24.0307    0.0000 </r>
      </set>
      <set comment="kpoint 9">
       <r>   -2.8728    1.0000 </r>
       <r>   10.5791    0.0000 </r>
       <r>   15.4871    0.0000 </r>
       <r>   16.7729    0.0000 </r>
       <r>   19.4825    0.0000 </r>
       <r>   22.3668    0.0000 </r>
       <r>   23.6568    0.0000 </r>
       <r>   24.0576    0.0000 </r>
      </set>
      <set comment="kpoint 10">
       <r>   -1.4725    1.0000 </r>
       <r>    7.3332    1.0000 </r>
       <r>   15.2569    0.0000 </r>
       <r>   16.0065    0.0000 </r>
       <r>   18.6714    0.0000 </r>
       <r>   22.3930    0.0000 </r>
       <r>   22.6577    0.0000 </r>
       <r>   25.8954    0.0000 </r>
      </set>
      <set comment="kpoint 11">
       <r>    0.3364    1.0000 </r>
       <r>    4.4537    1.0000 </r>
       <r>   15.2225    0.0000 </r>
       <r>   15.3892    0.0000 </r>
       <r>   18.4632    0.0000 </r>
       <r>   21.3142    0.0000 </r>
       <r>   22.6620    0.0000 </r>
       <r>   26.1793    0.0000 </r>
      </set>
      <set comment="kpoint 12">
       <r>    1.6163    1.0000 </r>
       <r>    2.9049    1.0000 </r>
       <r>   14.5722    0.0000 </r>
       <r>   15.8558    0.0000 </r>
       <r>   18.8743    0.0000 </r>
       <r>   20.6122    0.0000 </r>
       <r>   22.5341    0.0000 </r>
       <r>   26.0860    0.0000 </r>
      </set>
      <set comment="kpoint 13">
       <r>   -0.3083    1.0000 </r>
       <r>    5.3663    1.0000 </r>
       <r>   14.2024    0.0000 </r>
       <r>   16.5902    0.0000 </r>
       <r>   19.7760    0.0000 </r>
       <r>   20.3948    0.0000 </r>
       <r>   22.3249    0.0000 </r>
       <r>   26.6441    0.0000 </r>
      </set>
      <set comment="kpoint 14">
       <r>   -1.9867    1.0000 </r>
       <r>    8.3795    1.0000 </r>
       <r>   14.1845    0.0000 </r>
       <r>   17.4668    0.0000 </r>
       <r>   20.7462    0.0000 </r>
       <r>   21.0717    0.0000 </r>
       <r>   22.2201    0.0000 </r>
       <r>   25.8714    0.0000 </r>
      </set>
      <set comment="kpoint 15">
       <r>   -3.2438    1.0000 </r>
       <r>   11.7260    0.0000 </r>
       <r>   14.5410    0.0000 </r>
       <r>   18.3315    0.0000 </r>
       <r>   21.4994    0.0000 </r>
       <r>   22.1501    0.0000 </r>
       <r>   22.5660    0.0000 </r>
       <r>   23.7702    0.0000 </r>
      </set>
      <set comment="kpoint 16">
       <r>   -4.0628    1.0000 </r>
       <r>   15.1943    0.0000 </r>
       <r>   15.3261    0.0000 </r>
       <r>   18.9046    0.0000 </r>
       <r>   21.1228    0.0000 </r>
       <r>   21.7864    0.0000 </r>
       <r>   22.9830    0.0000 </r>
       <r>   24.1954    0.0000 </r>
      </set>
      <set comment="kpoint 17">
       <r>   -3.4661    1.0000 </r>
       <r>   15.0127    0.0000 </r>
       <r>   15.0127    0.0000 </r>
       <r>   16.2808    0.0000 </r>
       <r>   17.0597    0.0000 </r>
       <r>   20.0886    0.0000 </r>
       <r>   25.8116    0.0000 </r>
       <r>   25.8116    0.0000 </r>
      </set>
      <set comment="kpoint 18">
       <r>   -2.6493    1.0000 </r>
       <r>   12.1932    0.0000 </r>
       <r>   14.2945    0.0000 </r>
       <r>   15.1948    0.0000 </r>
       <r>   17.2751    0.0000 </r>
       <r>   19.4150    0.0000 </r>
       <r>   26.2644    0.0000 </r>
       <r>   26.5876    0.0000 </r>
      </set>
      <set comment="kpoint 19">
       <r>   -1.3954    1.0000 </r>
       <r>    8.9128    0.0005 </r>
       <r>   13.8592    0.0000 </r>
       <r>   13.9567    0.0000 </r>
       <r>   16.9174    0.0000 </r>
       <r>   21.3154    0.0000 </r>
       <r>   25.1478    0.0000 </r>
       <r>   26.6425    0.0000 </r>
      </set>
      <set comment="kpoint 20">
       <r>    0.2797    1.0000 </r>
       <r>    5.9227    1.0000 </r>
       <r>   12.6275    0.0000 </r>
       <r>   14.0033    0.0000 </r>
       <r>   16.8690    0.0000 </r>
       <r>   23.6350    0.0000 </r>
       <r>   23.9850    0.0000 </r>
       <r>   26.7744    0.0000 </r>
      </set>
      <set comment="kpoint 21">
       <r>    2.2034    1.0000 </r>
       <r>    3.4676    1.0000 </r>
       <r>   11.6851    0.0000 </r>
       <r>   14.4279    0.0000 </r>
       <r>   17.2991    0.0000 </r>
       <r>   23.0908    0.0000 </r>
       <r>   24.7187    0.0000 </r>
       <r>   28.1141    0.0000 </r>
      </set>
      <set comment="kpoint 22">
       <r>    0.9199    1.0000 </r>
       <r>    5.0178    1.0000 </r>
       <r>   11.1076    0.0000 </r>
       <r>   15.2137    0.0000 </r>
       <r>   18.1722    0.0000 </r>
       <r>   22.5933    0.0000 </r>
       <r>   24.5661    0.0000 </r>
       <r>   28.3478    0.0000 </r>
      </set>
      <set comment="kpoint 23">
       <r>   -0.8839    1.0000 </r>
       <r>    7.8778    1.0000 </r>
       <r>   10.9263    0.0000 </r>
       <r>   16.3130    0.0000 </r>
       <r>   19.4456    0.0000 </r>
       <r>   22.5078    0.0000 </r>
       <r>   24.1721    0.0000 </r>
       <r>   25.3703    0.0000 </r>
      </set>
      <set comment="kpoint 24">
       <r>   -2.2807    1.0000 </r>
       <r>   10.9075    0.0000 </r>
       <r>   11.3316    0.0000 </r>
       <r>   17.5830    0.0000 </r>
       <r>   21.0369    0.0000 </r>
       <r>   22.8673    0.0000 </r>
       <r>   22.8928    0.0000 </r>
       <r>   23.4523    0.0000 </r>
      </set>
      <set comment="kpoint 25">
       <r>   -1.9825    1.0000 </r>
       <r>   13.1830    0.0000 </r>
       <r>   13.4509    0.0000 </r>
       <r>   13.4509    0.0000 </r>
       <r>   15.3465    0.0000 </r>
       <r>   17.2884    0.0000 </r>
       <r>   28.8149    0.0000 </r>
       <r>   28.8150    0.0000 </r>
      </set>
      <set comment="kpoint 26">
       <r>   -0.8774    1.0000 </r>
       <r>   10.6880    0.0000 </r>
       <r>   11.7127    0.0000 </r>
       <r>   12.9887    0.0000 </r>
       <r>   15.5691    0.0000 </r>
       <r>   17.8371    0.0000 </r>
       <r>   28.1760    0.0000 </r>
       <r>   29.5176    0.0000 </r>
      </set>
      <set comment="kpoint 27">
       <r>    0.6533    1.0000 </r>
       <r>    7.7499    1.0000 </r>
       <r>   10.1274    0.0000 </r>
       <r>   12.9157    0.0000 </r>
       <r>   15.5972    0.0000 </r>
       <r>   20.3575    0.0000 </r>
       <r>   27.0285    0.0000 </r>
       <r>   29.1807    0.0000 </r>
      </set>
      <set comment="kpoint 28">
       <r>    2.5601    1.0000 </r>
       <r>    5.0863    1.0000 </r>
       <r>    8.9578    0.0000 </r>
       <r>   13.2314    0.0000 </r>
       <r>   15.9544    0.0000 </r>
       <r>   23.3338    0.0000 </r>
       <r>   26.0608    0.0000 </r>
       <r>   28.4952    0.0000 </r>
      </set>
      <set comment="kpoint 29">
       <r>    2.5480    1.0000 </r>
       <r>    5.1004    1.0000 </r>
       <r>    8.2051    1.0000 </r>
       <r>   13.9281    0.0000 </r>
       <r>   16.7314    0.0000 </r>
       <r>   25.3933    0.0000 </r>
       <r>   26.1120    0.0000 </r>
       <r>   27.6892    0.0000 </r>
      </set>
      <set comment="kpoint 30">
       <r>    0.6447    1.0000 </r>
       <r>    7.5540    1.0000 </r>
       <r>    8.1010    1.0000 </r>
       <r>   14.9810    0.0000 </r>
       <r>   17.9119    0.0000 </r>
       <r>   24.7627    0.0000 </r>
       <r>   25.6800    0.0000 </r>
       <r>   25.9962    0.0000 </r>
      </set>
      <set comment="kpoint 31">
       <r>    0.0770    1.0000 </r>
       <r>    9.4178    0.0000 </r>
       <r>   12.3988    0.0000 </r>
       <r>   12.3988    0.0000 </r>
       <r>   14.1748    0.0000 </r>
       <r>   15.8988    0.0000 </r>
       <r>   30.9488    0.0000 </r>
       <r>   31.5490    0.0000 </r>
      </set>
      <set comment="kpoint 32">
       <r>    1.4581    1.0000 </r>
       <r>    7.6885    1.0000 </r>
       <r>   10.1396    0.0000 </r>
       <r>   12.1986    0.0000 </r>
       <r>   14.6489    0.0000 </r>
       <r>   16.9838    0.0000 </r>
       <r>   30.1947    0.0000 </r>
       <r>   31.9178    0.0000 </r>
      </set>
      <set comment="kpoint 33">
       <r>    3.2408    1.0000 </r>
       <r>    6.2368    1.0000 </r>
       <r>    7.5185    1.0000 </r>
       <r>   12.3910    0.0000 </r>
       <r>   14.9880    0.0000 </r>
       <r>   19.8618    0.0000 </r>
       <r>   29.2005    0.0000 </r>
       <r>   31.0619    0.0000 </r>
      </set>
      <set comment="kpoint 34">
       <r>    4.4287    1.0000 </r>
       <r>    5.2931    1.0000 </r>
       <r>    6.1068    1.0000 </r>
       <r>   12.9719    0.0000 </r>
       <r>   15.6561    0.0000 </r>
       <r>   23.1520    0.0000 </r>
       <r>   28.0126    0.0000 </r>
       <r>   29.4208    0.0000 </r>
      </set>
      <set comment="kpoint 35">
       <r>    2.6850    1.0000 </r>
       <r>    5.8463    1.0000 </r>
       <r>   11.8700    0.0000 </r>
       <r>   11.8700    0.0000 </r>
       <r>   13.5834    0.0000 </r>
       <r>   15.2734    0.0000 </r>
       <r>   32.3353    0.0000 </r>
       <r>   33.6525    0.0000 </r>
      </set>
      <set comment="kpoint 36">
       <r>    4.1582    1.0000 </r>
       <r>    4.5203    1.0000 </r>
       <r>    9.8356    0.0000 </r>
       <r>   11.9344    0.0000 </r>
       <r>   14.3474    0.0000 </r>
       <r>   16.7040    0.0000 </r>
       <r>   31.6445    0.0000 </r>
       <r>   33.1780    0.0000 </r>
      </set>
      <set comment="kpoint 37">
       <r>   -3.1691    1.0000 </r>
       <r>   13.0780    0.0000 </r>
       <r>   13.3350    0.0000 </r>
       <r>   17.3980    0.0000 </r>
       <r>   19.4935    0.0000 </r>
       <r>   21.0216    0.0000 </r>
       <r>   24.2687    0.0000 </r>
       <r>   24.8602    0.0000 </r>
      </set>
      <set comment="kpoint 38">
       <r>   -2.0589    1.0000 </r>
       <r>    9.8124    0.0000 </r>
       <r>   12.7320    0.0000 </r>
       <r>   16.1678    0.0000 </r>
       <r>   19.5408    0.0000 </r>
       <r>   21.8278    0.0000 </r>
       <r>   23.3395    0.0000 </r>
       <r>   25.4179    0.0000 </r>
      </set>
      <set comment="kpoint 39">
       <r>   -0.5199    1.0000 </r>
       <r>    6.6972    1.0000 </r>
       <r>   12.6175    0.0000 </r>
       <r>   14.8965    0.0000 </r>
       <r>   19.3091    0.0000 </r>
       <r>   21.5464    0.0000 </r>
       <r>   24.2198    0.0000 </r>
       <r>   26.1971    0.0000 </r>
      </set>
      <set comment="kpoint 40">
       <r>    1.3943    1.0000 </r>
       <r>    3.9830    1.0000 </r>
       <r>   12.8028    0.0000 </r>
       <r>   13.9789    0.0000 </r>
       <r>   19.3880    0.0000 </r>
       <r>   20.7415    0.0000 </r>
       <r>   24.7938    0.0000 </r>
       <r>   28.2510    0.0000 </r>
      </set>
      <set comment="kpoint 41">
       <r>   -1.6884    1.0000 </r>
       <r>   11.4357    0.0000 </r>
       <r>   11.6701    0.0000 </r>
       <r>   13.9479    0.0000 </r>
       <r>   17.8855    0.0000 </r>
       <r>   18.9275    0.0000 </r>
       <r>   25.8147    0.0000 </r>
       <r>   28.2939    0.0000 </r>
      </set>
      <set comment="kpoint 42">
       <r>   -0.2951    1.0000 </r>
       <r>    8.4055    1.0000 </r>
       <r>   11.2254    0.0000 </r>
       <r>   12.5036    0.0000 </r>
       <r>   18.1132    0.0000 </r>
       <r>   20.8713    0.0000 </r>
       <r>   24.6553    0.0000 </r>
       <r>   28.7447    0.0000 </r>
      </set>
      <set comment="kpoint 43">
       <r>    1.5047    1.0000 </r>
       <r>    5.5693    1.0000 </r>
       <r>   10.7174    0.0000 </r>
       <r>   11.9368    0.0000 </r>
       <r>   18.3075    0.0000 </r>
       <r>   22.8807    0.0000 </r>
       <r>   24.3592    0.0000 </r>
       <r>   28.4300    0.0000 </r>
      </set>
      <set comment="kpoint 44">
       <r>    2.7841    1.0000 </r>
       <r>    4.0286    1.0000 </r>
       <r>    9.9843    0.0000 </r>
       <r>   12.3888    0.0000 </r>
       <r>   18.8701    0.0000 </r>
       <r>   22.5087    0.0000 </r>
       <r>   26.6685    0.0000 </r>
       <r>   27.2411    0.0000 </r>
      </set>
      <set comment="kpoint 45">
       <r>    0.8607    1.0000 </r>
       <r>    6.4746    1.0000 </r>
       <r>    9.5498    0.0000 </r>
       <r>   13.3421    0.0000 </r>
       <r>   19.7601    0.0000 </r>
       <r>   22.1309    0.0000 </r>
       <r>   24.7215    0.0000 </r>
       <r>   27.7754    0.0000 </r>
      </set>
      <set comment="kpoint 46">
       <r>   -0.8091    1.0000 </r>
       <r>    9.2373    0.0000 </r>
       <r>    9.7096    0.0000 </r>
       <r>   14.6707    0.0000 </r>
       <r>   20.7650    0.0000 </r>
       <r>   21.6485    0.0000 </r>
       <r>   22.7620    0.0000 </r>
       <r>   27.0883    0.0000 </r>
      </set>
      <set comment="kpoint 47">
       <r>    0.3663    1.0000 </r>
       <r>    9.4995    0.0000 </r>
       <r>   10.3291    0.0000 </r>
       <r>   11.1286    0.0000 </r>
       <r>   16.7841    0.0000 </r>
       <r>   17.7907    0.0000 </r>
       <r>   27.7313    0.0000 </r>
       <r>   31.3908    0.0000 </r>
      </set>
      <set comment="kpoint 48">
       <r>    2.0269    1.0000 </r>
       <r>    7.4034    1.0000 </r>
       <r>    8.5029    0.9942 </r>
       <r>   10.7900    0.0000 </r>
       <r>   17.2907    0.0000 </r>
       <r>   20.1706    0.0000 </r>
       <r>   26.6721    0.0000 </r>
       <r>   30.7679    0.0000 </r>
      </set>
      <set comment="kpoint 49">
       <r>    3.9463    1.0000 </r>
       <r>    5.0811    1.0000 </r>
       <r>    7.3948    1.0000 </r>
       <r>   11.2159    0.0000 </r>
       <r>   17.7864    0.0000 </r>
       <r>   23.2317    0.0000 </r>
       <r>   25.8664    0.0000 </r>
       <r>   28.2102    0.0000 </r>
      </set>
      <set comment="kpoint 50">
       <r>    2.6412    1.0000 </r>
       <r>    6.4253    1.0000 </r>
       <r>    6.9982    1.0000 </r>
       <r>   12.0812    0.0000 </r>
       <r>   18.6379    0.0000 </r>
       <r>   24.8637    0.0000 </r>
       <r>   24.9069    0.0000 </r>
       <r>   27.1018    0.0000 </r>
      </set>
      <set comment="kpoint 51">
       <r>    2.9675    1.0000 </r>
       <r>    6.0997    1.0000 </r>
       <r>    9.7731    0.0000 </r>
       <r>   10.3854    0.0000 </r>
       <r>   16.2257    0.0000 </r>
       <r>   17.2432    0.0000 </r>
       <r>   29.9139    0.0000 </r>
       <r>   31.9941    0.0000 </r>
      </set>
      <set comment="kpoint 52">
       <r>    4.7259    1.0000 </r>
       <r>    4.9868    1.0000 </r>
       <r>    7.4780    1.0000 </r>
       <r>   10.4702    0.0000 </r>
       <r>   17.0132    0.0000 </r>
       <r>   19.9256    0.0000 </r>
       <r>   29.0159    0.0000 </r>
       <r>   29.0516    0.0000 </r>
      </set>
      <set comment="kpoint 53">
       <r>    1.2299    1.0000 </r>
       <r>    8.1143    1.0000 </r>
       <r>    8.5008    0.9946 </r>
       <r>   10.9131    0.0000 </r>
       <r>   20.5978    0.0000 </r>
       <r>   20.7936    0.0000 </r>
       <r>   23.5942    0.0000 </r>
       <r>   30.2697    0.0000 </r>
      </set>
      <set comment="kpoint 54">
       <r>    3.1286    1.0000 </r>
       <r>    5.6405    1.0000 </r>
       <r>    8.5237    0.9870 </r>
       <r>    9.8712    0.0000 </r>
       <r>   20.8024    0.0000 </r>
       <r>   22.1867    0.0000 </r>
       <r>   24.2752    0.0000 </r>
       <r>   27.6457    0.0000 </r>
      </set>
      <set comment="kpoint 55">
       <r>    3.7960    1.0000 </r>
       <r>    6.7191    1.0000 </r>
       <r>    7.5517    1.0000 </r>
       <r>    8.5785    0.9268 </r>
       <r>   20.0675    0.0000 </r>
       <r>   20.5129    0.0000 </r>
       <r>   25.6994    0.0000 </r>
       <r>   28.2900    0.0000 </r>
      </set>
      <set comment="kpoint 56">
       <r>    5.0049    1.0000 </r>
       <r>    5.8589    1.0000 </r>
       <r>    6.4890    1.0000 </r>
       <r>    8.7522    0.1574 </r>
       <r>   20.7892    0.0000 </r>
       <r>   23.2320    0.0000 </r>
       <r>   24.4149    0.0000 </r>
       <r>   25.8484    0.0000 </r>
      </set>
     </set>
    </set>
   </array>
  </eigenvalues>
  <separator name="orbital magnetization" >
   <v name="MAGDIPOLOUT">      0.00000000      0.00000000      0.00000000</v>
  </separator>
  <dos>
   <i name="efermi">      8.68115727 </i>
   <total>
    <array>
     <dimension dim="1">gridpoints</dimension>
     <dimension dim="2">spin</dimension>
     <field>energy</field>
     <field>total</field>
     <field>integrated</field>
     <set>
      <set comment="spin 1">
       <r>    -6.5765     0.0000     0.0000 </r>
       <r>    -6.4360     0.0000     0.0000 </r>
       <r>    -6.2955     0.0000     0.0000 </r>
       <r>    -6.1550     0.0000     0.0000 </r>
       <r>    -6.0146     0.0000     0.0000 </r>
       <r>    -5.8741     0.0000     0.0000 </r>
       <r>    -5.7336     0.0000     0.0000 </r>
       <r>    -5.5931     0.0000     0.0000 </r>
       <r>    -5.4526     0.0000     0.0000 </r>
       <r>    -5.3122     0.0000     0.0000 </r>
       <r>    -5.1717     0.0000     0.0000 </r>
       <r>    -5.0312     0.0000     0.0000 </r>
       <r>    -4.8907     0.0000     0.0000 </r>
       <r>    -4.7502     0.0011     0.0002 </r>
       <r>    -4.6097     0.0077     0.0012 </r>
       <r>    -4.4693     0.0335     0.0059 </r>
       <r>    -4.3288     0.0921     0.0189 </r>
       <r>    -4.1883     0.0305     0.0232 </r>
       <r>    -4.0478     0.0710     0.0331 </r>
       <r>    -3.9073     0.0958     0.0466 </r>
       <r>    -3.7668     0.2160     0.0769 </r>
       <r>    -3.6264     0.0817     0.0884 </r>
       <r>    -3.4859     0.0268     0.0922 </r>
       <r>    -3.3454     0.0573     0.1002 </r>
       <r>    -3.2049     0.2424     0.1343 </r>
       <r>    -3.0644     0.2345     0.1672 </r>
       <r>    -2.9240     0.0786     0.1783 </r>
       <r>    -2.7835     0.1800     0.2035 </r>
       <r>    -2.6430     0.2005     0.2317 </r>
       <r>    -2.5025     0.1519     0.2531 </r>
       <r>    -2.3620     0.0223     0.2562 </r>
       <r>    -2.2215     0.0921     0.2691 </r>
       <r>    -2.0811     0.2422     0.3032 </r>
       <r>    -1.9406     0.5045     0.3740 </r>
       <r>    -1.8001     0.1211     0.3910 </r>
       <r>    -1.6596     0.1568     0.4131 </r>
       <r>    -1.5191     0.1602     0.4356 </r>
       <r>    -1.3786     0.3119     0.4794 </r>
       <r>    -1.2382     0.1274     0.4973 </r>
       <r>    -1.0977     0.0493     0.5042 </r>
       <r>    -0.9572     0.1119     0.5199 </r>
       <r>    -0.8167     0.4617     0.5848 </r>
       <r>    -0.6762     0.2316     0.6173 </r>
       <r>    -0.5358     0.2131     0.6473 </r>
       <r>    -0.3953     0.3503     0.6965 </r>
       <r>    -0.2548     0.5183     0.7693 </r>
       <r>    -0.1143     0.2003     0.7974 </r>
       <r>     0.0262     0.0185     0.8000 </r>
       <r>     0.1667     0.0592     0.8083 </r>
       <r>     0.3071     0.2957     0.8499 </r>
       <r>     0.4476     0.4158     0.9083 </r>
       <r>     0.5881     0.1212     0.9253 </r>
       <r>     0.7286     0.2878     0.9658 </r>
       <r>     0.8691     0.4341     1.0267 </r>
       <r>     1.0096     0.4108     1.0844 </r>
       <r>     1.1500     0.0685     1.0941 </r>
       <r>     1.2905     0.2127     1.1240 </r>
       <r>     1.4310     0.5361     1.1993 </r>
       <r>     1.5715     0.7201     1.3004 </r>
       <r>     1.7120     0.2713     1.3385 </r>
       <r>     1.8524     0.0269     1.3423 </r>
       <r>     1.9929     0.1590     1.3647 </r>
       <r>     2.1334     0.3586     1.4150 </r>
       <r>     2.2739     0.2082     1.4443 </r>
       <r>     2.4144     0.0534     1.4518 </r>
       <r>     2.5549     0.2776     1.4908 </r>
       <r>     2.6953     0.5012     1.5612 </r>
       <r>     2.8358     0.4857     1.6294 </r>
       <r>     2.9763     0.4348     1.6905 </r>
       <r>     3.1168     0.3773     1.7435 </r>
       <r>     3.2573     0.4212     1.8027 </r>
       <r>     3.3977     0.1930     1.8298 </r>
       <r>     3.5382     0.2260     1.8615 </r>
       <r>     3.6787     0.0565     1.8695 </r>
       <r>     3.8192     0.1738     1.8939 </r>
       <r>     3.9597     0.6388     1.9836 </r>
       <r>     4.1002     0.8862     2.1081 </r>
       <r>     4.2406     0.1989     2.1361 </r>
       <r>     4.3811     0.0899     2.1487 </r>
       <r>     4.5216     0.3210     2.1938 </r>
       <r>     4.6621     0.1618     2.2165 </r>
       <r>     4.8026     0.1793     2.2417 </r>
       <r>     4.9431     0.2105     2.2713 </r>
       <r>     5.0835     0.9846     2.4096 </r>
       <r>     5.2240     0.6334     2.4986 </r>
       <r>     5.3645     0.2370     2.5319 </r>
       <r>     5.5050     0.2509     2.5671 </r>
       <r>     5.6455     0.6119     2.6531 </r>
       <r>     5.7859     0.3616     2.7039 </r>
       <r>     5.9264     0.3579     2.7542 </r>
       <r>     6.0669     0.3001     2.7963 </r>
       <r>     6.2074     0.3885     2.8509 </r>
       <r>     6.3479     0.2556     2.8868 </r>
       <r>     6.4884     0.5890     2.9696 </r>
       <r>     6.6288     0.4906     3.0385 </r>
       <r>     6.7693     0.5326     3.1133 </r>
       <r>     6.9098     0.1656     3.1366 </r>
       <r>     7.0503     0.1720     3.1607 </r>
       <r>     7.1908     0.0657     3.1700 </r>
       <r>     7.3313     0.2989     3.2120 </r>
       <r>     7.4717     1.0487     3.3593 </r>
       <r>     7.6122     0.7614     3.4662 </r>
       <r>     7.7527     0.4177     3.5249 </r>
       <r>     7.8932     0.3071     3.5681 </r>
       <r>     8.0337     0.1647     3.5912 </r>
       <r>     8.1741     0.3474     3.6400 </r>
       <r>     8.3146     0.3260     3.6858 </r>
       <r>     8.4551     0.8152     3.8003 </r>
       <r>     8.5956     1.1568     3.9629 </r>
       <r>     8.7361     0.3563     4.0129 </r>
       <r>     8.8766     0.2542     4.0486 </r>
       <r>     9.0170     0.3439     4.0969 </r>
       <r>     9.1575     0.1051     4.1117 </r>
       <r>     9.2980     0.2235     4.1431 </r>
       <r>     9.4385     0.2002     4.1712 </r>
       <r>     9.5790     0.5177     4.2440 </r>
       <r>     9.7195     0.4582     4.3083 </r>
       <r>     9.8599     0.9328     4.4394 </r>
       <r>    10.0004     0.7749     4.5482 </r>
       <r>    10.1409     0.4877     4.6168 </r>
       <r>    10.2814     0.3148     4.6610 </r>
       <r>    10.4219     0.4044     4.7178 </r>
       <r>    10.5623     0.3872     4.7722 </r>
       <r>    10.7028     0.5723     4.8526 </r>
       <r>    10.8433     0.8300     4.9692 </r>
       <r>    10.9838     0.5866     5.0516 </r>
       <r>    11.1243     0.4606     5.1163 </r>
       <r>    11.2648     0.9173     5.2452 </r>
       <r>    11.4052     0.4503     5.3084 </r>
       <r>    11.5457     0.1995     5.3365 </r>
       <r>    11.6862     0.4420     5.3986 </r>
       <r>    11.8267     0.6111     5.4844 </r>
       <r>    11.9672     0.5298     5.5588 </r>
       <r>    12.1076     0.4249     5.6185 </r>
       <r>    12.2481     0.4540     5.6823 </r>
       <r>    12.3886     0.5641     5.7615 </r>
       <r>    12.5291     0.8179     5.8764 </r>
       <r>    12.6696     0.8336     5.9935 </r>
       <r>    12.8101     0.8794     6.1171 </r>
       <r>    12.9505     0.6010     6.2015 </r>
       <r>    13.0910     0.4742     6.2681 </r>
       <r>    13.2315     0.3455     6.3167 </r>
       <r>    13.3720     0.6304     6.4052 </r>
       <r>    13.5125     0.3471     6.4540 </r>
       <r>    13.6530     0.0741     6.4644 </r>
       <r>    13.7934     0.0717     6.4744 </r>
       <r>    13.9339     0.6826     6.5703 </r>
       <r>    14.0744     1.1064     6.7258 </r>
       <r>    14.2149     0.5986     6.8099 </r>
       <r>    14.3554     0.4933     6.8792 </r>
       <r>    14.4958     0.3935     6.9344 </r>
       <r>    14.6363     0.5716     7.0147 </r>
       <r>    14.7768     0.3897     7.0695 </r>
       <r>    14.9173     0.3947     7.1249 </r>
       <r>    15.0578     0.5532     7.2026 </r>
       <r>    15.1983     0.5492     7.2798 </r>
       <r>    15.3387     0.8464     7.3987 </r>
       <r>    15.4792     0.4805     7.4662 </r>
       <r>    15.6197     0.5183     7.5390 </r>
       <r>    15.7602     0.2668     7.5765 </r>
       <r>    15.9007     0.2855     7.6166 </r>
       <r>    16.0412     0.5132     7.6887 </r>
       <r>    16.1816     0.6363     7.7781 </r>
       <r>    16.3221     0.6182     7.8649 </r>
       <r>    16.4626     0.2155     7.8952 </r>
       <r>    16.6031     0.3252     7.9409 </r>
       <r>    16.7436     0.6579     8.0333 </r>
       <r>    16.8840     0.8103     8.1472 </r>
       <r>    17.0245     0.7559     8.2533 </r>
       <r>    17.1650     0.3904     8.3082 </r>
       <r>    17.3055     0.8268     8.4243 </r>
       <r>    17.4460     0.8631     8.5456 </r>
       <r>    17.5865     0.4961     8.6153 </r>
       <r>    17.7269     0.3301     8.6616 </r>
       <r>    17.8674     0.8134     8.7759 </r>
       <r>    18.0079     0.4495     8.8391 </r>
       <r>    18.1484     0.5020     8.9096 </r>
       <r>    18.2889     0.7184     9.0105 </r>
       <r>    18.4293     0.5784     9.0918 </r>
       <r>    18.5698     0.2640     9.1288 </r>
       <r>    18.7103     0.3638     9.1799 </r>
       <r>    18.8508     0.4763     9.2469 </r>
       <r>    18.9913     0.7186     9.3478 </r>
       <r>    19.1318     0.1249     9.3654 </r>
       <r>    19.2722     0.2219     9.3966 </r>
       <r>    19.4127     0.9184     9.5256 </r>
       <r>    19.5532     1.2221     9.6973 </r>
       <r>    19.6937     0.7372     9.8008 </r>
       <r>    19.8342     0.6871     9.8973 </r>
       <r>    19.9747     0.4786     9.9646 </r>
       <r>    20.1151     0.3940    10.0199 </r>
       <r>    20.2556     0.5046    10.0908 </r>
       <r>    20.3961     0.4686    10.1567 </r>
       <r>    20.5366     0.4582    10.2210 </r>
       <r>    20.6771     0.6723    10.3155 </r>
       <r>    20.8175     1.4736    10.5225 </r>
       <r>    20.9580     0.9779    10.6599 </r>
       <r>    21.0985     0.6032    10.7446 </r>
       <r>    21.2390     0.4814    10.8122 </r>
       <r>    21.3795     0.5721    10.8926 </r>
       <r>    21.5200     0.6750    10.9874 </r>
       <r>    21.6604     0.6039    11.0723 </r>
       <r>    21.8009     0.3839    11.1262 </r>
       <r>    21.9414     0.3634    11.1773 </r>
       <r>    22.0819     0.2375    11.2106 </r>
       <r>    22.2224     0.9907    11.3498 </r>
       <r>    22.3629     0.8941    11.4754 </r>
       <r>    22.5033     1.1199    11.6327 </r>
       <r>    22.6438     1.1659    11.7965 </r>
       <r>    22.7843     0.7139    11.8968 </r>
       <r>    22.9248     0.6725    11.9913 </r>
       <r>    23.0653     0.4023    12.0478 </r>
       <r>    23.2057     0.5473    12.1247 </r>
       <r>    23.3462     0.9051    12.2518 </r>
       <r>    23.4867     0.5466    12.3286 </r>
       <r>    23.6272     0.5787    12.4099 </r>
       <r>    23.7677     0.5090    12.4814 </r>
       <r>    23.9082     0.2005    12.5096 </r>
       <r>    24.0486     0.4530    12.5732 </r>
       <r>    24.1891     0.7757    12.6822 </r>
       <r>    24.3296     1.2993    12.8647 </r>
       <r>    24.4701     0.7233    12.9663 </r>
       <r>    24.6106     0.4371    13.0277 </r>
       <r>    24.7511     1.0928    13.1812 </r>
       <r>    24.8915     1.1084    13.3370 </r>
       <r>    25.0320     0.3999    13.3931 </r>
       <r>    25.1725     0.2489    13.4281 </r>
       <r>    25.3130     0.2704    13.4661 </r>
       <r>    25.4535     0.6740    13.5608 </r>
       <r>    25.5939     0.2738    13.5992 </r>
       <r>    25.7344     0.3424    13.6473 </r>
       <r>    25.8749     1.0139    13.7898 </r>
       <r>    26.0154     0.8819    13.9137 </r>
       <r>    26.1559     0.8888    14.0385 </r>
       <r>    26.2964     0.7761    14.1476 </r>
       <r>    26.4368     0.1837    14.1734 </r>
       <r>    26.5773     0.3379    14.2208 </r>
       <r>    26.7178     1.2110    14.3910 </r>
       <r>    26.8583     0.5110    14.4627 </r>
       <r>    26.9988     0.1641    14.4858 </r>
       <r>    27.1392     0.5249    14.5595 </r>
       <r>    27.2797     0.4746    14.6262 </r>
       <r>    27.4202     0.1501    14.6473 </r>
       <r>    27.5607     0.0729    14.6575 </r>
       <r>    27.7012     0.6390    14.7473 </r>
       <r>    27.8417     0.7217    14.8487 </r>
       <r>    27.9821     0.1601    14.8712 </r>
       <r>    28.1226     0.3458    14.9197 </r>
       <r>    28.2631     1.1107    15.0758 </r>
       <r>    28.4036     1.0438    15.2224 </r>
       <r>    28.5441     0.5676    15.3022 </r>
       <r>    28.6846     0.1944    15.3295 </r>
       <r>    28.8250     0.4157    15.3879 </r>
       <r>    28.9655     0.2092    15.4173 </r>
       <r>    29.1060     0.4037    15.4740 </r>
       <r>    29.2465     0.4241    15.5336 </r>
       <r>    29.3870     0.1587    15.5559 </r>
       <r>    29.5274     0.2151    15.5861 </r>
       <r>    29.6679     0.1183    15.6027 </r>
       <r>    29.8084     0.0217    15.6058 </r>
       <r>    29.9489     0.1597    15.6282 </r>
       <r>    30.0894     0.0969    15.6418 </r>
       <r>    30.2299     0.2337    15.6746 </r>
       <r>    30.3703     0.2410    15.7085 </r>
       <r>    30.5108     0.0215    15.7115 </r>
       <r>    30.6513     0.0255    15.7151 </r>
       <r>    30.7918     0.3000    15.7572 </r>
       <r>    30.9323     0.2175    15.7878 </r>
       <r>    31.0728     0.1761    15.8125 </r>
       <r>    31.2132     0.1126    15.8283 </r>
       <r>    31.3537     0.0798    15.8395 </r>
       <r>    31.4942     0.1773    15.8644 </r>
       <r>    31.6347     0.1162    15.8808 </r>
       <r>    31.7752     0.0802    15.8920 </r>
       <r>    31.9156     0.1579    15.9142 </r>
       <r>    32.0561     0.2986    15.9562 </r>
       <r>    32.1966     0.0563    15.9641 </r>
       <r>    32.3371     0.0317    15.9685 </r>
       <r>    32.4776     0.0300    15.9728 </r>
       <r>    32.6181     0.0014    15.9730 </r>
       <r>    32.7585     0.0000    15.9730 </r>
       <r>    32.8990     0.0000    15.9730 </r>
       <r>    33.0395     0.0032    15.9734 </r>
       <r>    33.1800     0.0624    15.9822 </r>
       <r>    33.3205     0.0599    15.9906 </r>
       <r>    33.4610     0.0030    15.9910 </r>
       <r>    33.6014     0.0149    15.9931 </r>
       <r>    33.7419     0.0425    15.9991 </r>
       <r>    33.8824     0.0066    16.0000 </r>
       <r>    34.0229     0.0000    16.0000 </r>
       <r>    34.1634     0.0000    16.0000 </r>
       <r>    34.3038     0.0000    16.0000 </r>
       <r>    34.4443     0.0000    16.0000 </r>
       <r>    34.5848     0.0000    16.0000 </r>
       <r>    34.7253     0.0000    16.0000 </r>
       <r>    34.8658     0.0000    16.0000 </r>
       <r>    35.0063     0.0000    16.0000 </r>
       <r>    35.1467     0.0000    16.0000 </r>
       <r>    35.2872     0.0000    16.0000 </r>
       <r>    35.4277     0.0000    16.0000 </r>
       <r>    35.5682     0.0000    16.0000 </r>
      </set>
     </set>
    </array>
   </total>
  </dos>
 </calculation>
 <structure name="finalpos" >
  <crystal>
   <varray name="basis" >
    <v>       2.00000000       2.00000000       0.00000000 </v>
    <v>       0.00000000       2.00000000       2.00000000 </v>
    <v>       2.00000000       0.00000000       2.00000000 </v>
   </varray>
   <i name="volume">     16.00000000 </i>
   <varray name="rec_basis" >
    <v>       0.25000000       0.25000000      -0.25000000 </v>
    <v>      -0.25000000       0.25000000       0.25000000 </v>
    <v>       0.25000000      -0.25000000       0.25000000 </v>
   </varray>
  </crystal>
  <varray name="positions" >
   <v>       0.00000000       0.00000000       0.00000000 </v>
  </varray>
 </structure>
</modeling>
