fcc Si                                  
   4.20000000000000     
     0.500000    0.500000    0.000000
     0.000000    0.500000    0.500000
     0.500000    0.000000    0.500000
   Si
     1
Direct
  0.000000  0.000000  0.000000
 
   24   24   24
 -3.0567     -2.2640     -.16377      2.5315      4.9788      6.5402      6.9961      6.5561      5.6915      4.8497    
  4.1966      3.7911      3.6545      3.7911      4.1966      4.8497      5.6915      6.5561      6.9961      6.5402    
  4.9788      2.5315     -.16377     -2.2640     -2.2640     -.81964      1.5628      4.0917      6.0204      6.9284    
  6.8313      6.0937      5.2062      4.4555      3.9279      3.6591      3.6591      3.9279      4.4555      5.2062    
  6.0937      6.8313      6.9285      6.0205      4.0918      1.5629     -.81961     -2.2639     -.16377      1.5628    
  3.7449      5.6617      6.7819      6.9473      6.3740      5.4963      4.6822      4.0569      3.6710      3.5413    
  3.6709      4.0569      4.6821      5.4963      6.3740      6.9474      6.7821      5.6619      3.7451      1.5630    
 -.16368     -.81961      2.5315      4.0917      5.6617      6.7117      6.9765      6.5294      5.6992      4.8574    
  4.1654      3.6859      3.4434      3.4434      3.6858      4.1654      4.8573      5.6991      6.5294      6.9766    
  6.7118      5.6619      4.0920      2.5317      1.5630      1.5629      4.9788      6.0204      6.7819      6.9765    
  6.5778      5.8028      4.9674      4.2430      3.6993      3.3680      3.2574      3.3680      3.6992      4.2430    
  4.9673      5.8027      6.5778      6.9765      6.7821      6.0206      4.9790      4.0920      3.7451      4.0918    
  6.5402      6.9284      6.9473      6.5294      5.8028      5.0049      4.2832      3.7081      3.3165      3.1204    
  3.1205      3.3166      3.7081      4.2832      5.0048      5.8027      6.5294      6.9473      6.9285      6.5403    
  6.0206      5.6619      5.6619      6.0205      6.9961      6.8313      6.3740      5.6992      4.9674      4.2832    
  3.7111      3.2903      3.0367      2.9525      3.0368      3.2904      3.7112      4.2833      4.9674      5.6992    
  6.3740      6.8312      6.9961      6.9285      6.7821      6.7118      6.7821      6.9285      6.5561      6.0937    
  5.4963      4.8574      4.2430      3.7081      3.2903      3.0086      2.8679      2.8679      3.0086      3.2904    
  3.7082      4.2431      4.8574      5.4963      6.0937      6.5560      6.8312      6.9473      6.9765      6.9766    
  6.9474      6.8313      5.6915      5.2062      4.6822      4.1654      3.6993      3.3165      3.0367      2.8679    
  2.8116      2.8678      3.0367      3.3165      3.6993      4.1655      4.6823      5.2063      5.6915      6.0937    
  6.3740      6.5294      6.5778      6.5294      6.3740      6.0937      4.8497      4.4555      4.0569      3.6859    
  3.3680      3.1204      2.9525      2.8679      2.8678      2.9523      3.1203      3.3679      3.6859      4.0570    
  4.4556      4.8498      5.2063      5.4963      5.6992      5.8027      5.8027      5.6991      5.4963      5.2062    
  4.1966      3.9279      3.6710      3.4434      3.2574      3.1205      3.0368      3.0086      3.0367      3.1203    
  3.2572      3.4433      3.6709      3.9279      4.1967      4.4556      4.6823      4.8574      4.9674      5.0048    
  4.9673      4.8573      4.6821      4.4555      3.7911      3.6591      3.5413      3.4434      3.3680      3.3166    
  3.2904      3.2904      3.3165      3.3679      3.4433      3.5412      3.6589      3.7910      3.9279      4.0570    
  4.1655      4.2431      4.2833      4.2832      4.2430      4.1654      4.0569      3.9279      3.6545      3.6591    
  3.6709      3.6858      3.6992      3.7081      3.7112      3.7082      3.6993      3.6859      3.6709      3.6589    
  3.6543      3.6589      3.6709      3.6859      3.6993      3.7082      3.7112      3.7081      3.6992      3.6858    
  3.6709      3.6591      3.7911      3.9279      4.0569      4.1654      4.2430      4.2832      4.2833      4.2431    
  4.1655      4.0570      3.9279      3.7910      3.6589      3.5412      3.4433      3.3679      3.3165      3.2904    
  3.2904      3.3166      3.3680      3.4434      3.5413      3.6591      4.1966      4.4555      4.6821      4.8573    
  4.9673      5.0048      4.9674      4.8574      4.6823      4.4556      4.1967      3.9279      3.6709      3.4433    
  3.2572      3.1203      3.0367      3.0086      3.0368      3.1205      3.2574      3.4434      3.6710      3.9279    
  4.8497      5.2062      5.4963      5.6991      5.8027      5.8027      5.6992      5.4963      5.2063      4.8498    
  4.4556      4.0570      3.6859      3.3679      3.1203      2.9523      2.8678      2.8679      2.9525      3.1204    
  3.3680      3.6859      4.0569      4.4555      5.6915      6.0937      6.3740      6.5294      6.5778      6.5294    
  6.3740      6.0937      5.6915      5.2063      4.6823      4.1655      3.6993      3.3165      3.0367      2.8678    
  2.8116      2.8679      3.0367      3.3165      3.6993      4.1654      4.6822      5.2062      6.5561      6.8313    
  6.9474      6.9766      6.9765      6.9473      6.8312      6.5560      6.0937      5.4963      4.8574      4.2431    
  3.7082      3.2904      3.0086      2.8679      2.8679      3.0086      3.2903      3.7081      4.2430      4.8574    
  5.4963      6.0937      6.9961      6.9285      6.7821      6.7118      6.7821      6.9285      6.9961      6.8312    
  6.3740      5.6992      4.9674      4.2833      3.7112      3.2904      3.0368      2.9525      3.0367      3.2903    
  3.7111      4.2832      4.9674      5.6992      6.3740      6.8313      6.5402      6.0205      5.6619      5.6619    
  6.0206      6.5403      6.9285      6.9473      6.5294      5.8027      5.0048      4.2832      3.7081      3.3166    
  3.1205      3.1204      3.3165      3.7081      4.2832      5.0049      5.8028      6.5294      6.9473      6.9284    
  4.9788      4.0918      3.7451      4.0920      4.9790      6.0206      6.7821      6.9765      6.5778      5.8027    
  4.9673      4.2430      3.6992      3.3680      3.2574      3.3680      3.6993      4.2430      4.9674      5.8028    
  6.5778      6.9765      6.7819      6.0204      2.5315      1.5629      1.5630      2.5317      4.0920      5.6619    
  6.7118      6.9766      6.5294      5.6991      4.8573      4.1654      3.6858      3.4434      3.4434      3.6859    
  4.1654      4.8574      5.6992      6.5294      6.9765      6.7117      5.6617      4.0917     -.16377     -.81961    
 -.16368      1.5630      3.7451      5.6619      6.7821      6.9474      6.3740      5.4963      4.6821      4.0569    
  3.6709      3.5413      3.6710      4.0569      4.6822      5.4963      6.3740      6.9473      6.7819      5.6617    
  3.7449      1.5628     -2.2640     -2.2639     -.81961      1.5629      4.0918      6.0205      6.9285      6.8313    
  6.0937      5.2062      4.4555      3.9279      3.6591      3.6591      3.9279      4.4555      5.2062      6.0937    
  6.8313      6.9284      6.0204      4.0917      1.5628     -.81964     -2.2640     -.81964      1.5628      4.0917    
  6.0204      6.9284      6.8313      6.0937      5.2062      4.4555      3.9279      3.6591      3.6591      3.9279    
  4.4555      5.2062      6.0937      6.8313      6.9285      6.0205      4.0918      1.5629     -.81961     -2.2639    
 -.81964      1.0289      3.3775      5.4652      6.7258      6.9819      6.4483      5.5722      4.7480      4.1130    
  3.7202      3.5882      3.7202      4.1129      4.7480      5.5722      6.4484      6.9820      6.7260      5.4654    
  3.3777      1.0290     -.81959     -1.5203      1.5628      3.3775      5.2416      6.5571      7.0114      6.6619    
  5.8506      4.9902      4.2776      3.7817      3.5303      3.5303      3.7816      4.2776      4.9902      5.8506    
  6.6620      7.0115      6.5573      5.2418      3.3778      1.5630     0.44614     0.44608      4.0917      5.4652    
  6.5571      7.0084      6.7565      6.0215      5.1623      4.4065      3.8353      3.4860      3.3693      3.4860    
  3.8353      4.4064      5.1623      6.0214      6.7565      7.0085      6.5573      5.4654      4.0920      2.9581    
  2.5199      2.9579      6.0204      6.7258      7.0114      6.7565      6.0784      5.2515      4.4881      3.8744    
  3.4546      3.2439      3.2439      3.4546      3.8744      4.4881      5.2514      6.0783      6.7564      7.0114    
  6.7259      6.0206      5.2161      4.6886      4.6885      5.2159      6.9284      6.9819      6.6619      6.0215    
  5.2515      4.5160      3.8948      3.4356      3.1582      3.0660      3.1583      3.4357      3.8949      4.5160    
  5.2514      6.0214      6.6619      6.9819      6.9285      6.6200      6.2859      6.1449      6.2859      6.6199    
  6.8313      6.4483      5.8506      5.1623      4.4881      3.8948      3.4292      3.1147      2.9577      2.9577    
  3.1148      3.4293      3.8949      4.4882      5.1623      5.8506      6.4483      6.8312      6.9718      6.9489    
  6.8906      6.8906      6.9490      6.9718      6.0937      5.5722      4.9902      4.4065      3.8744      3.4356    
  3.1147      2.9214      2.8571      2.9214      3.1148      3.4357      3.8745      4.4066      4.9903      5.5722    
  6.0936      6.4833      6.7147      6.8192      6.8465      6.8193      6.7148      6.4834      5.2062      4.7480    
  4.2776      3.8353      3.4546      3.1582      2.9577      2.8571      2.8571      2.9577      3.1582      3.4546    
  3.8354      4.2777      4.7481      5.2063      5.6130      5.9355      6.1492      6.2522      6.2522      6.1492    
  5.9355      5.6130      4.4555      4.1130      3.7817      3.4860      3.2439      3.0660      2.9577      2.9214    
  2.9577      3.0658      3.2438      3.4860      3.7817      4.1131      4.4556      4.7811      5.0620      5.2762    
  5.4095      5.4546      5.4095      5.2762      5.0619      4.7810      3.9279      3.7202      3.5303      3.3693    
  3.2439      3.1583      3.1148      3.1148      3.1582      3.2438      3.3691      3.5302      3.7202      3.9279    
  4.1378      4.3318      4.4925      4.6064      4.6651      4.6650      4.6062      4.4923      4.3317      4.1377    
  3.6591      3.5882      3.5303      3.4860      3.4546      3.4357      3.4293      3.4357      3.4546      3.4860    
  3.5302      3.5881      3.6589      3.7391      3.8211      3.8958      3.9546      3.9917      4.0042      3.9916    
  3.9544      3.8957      3.8211      3.7391      3.6591      3.7202      3.7816      3.8353      3.8744      3.8949    
  3.8949      3.8745      3.8354      3.7817      3.7202      3.6589      3.6048      3.5615      3.5291      3.5060    
  3.4907      3.4830      3.4830      3.4907      3.5060      3.5292      3.5616      3.6050      3.9279      4.1129    
  4.2776      4.4064      4.4881      4.5160      4.4882      4.4066      4.2777      4.1131      3.9279      3.7391    
  3.5615      3.4062      3.2800      3.1870      3.1299      3.1107      3.1300      3.1871      3.2802      3.4064    
  3.5617      3.7391      4.4555      4.7480      4.9902      5.1623      5.2514      5.2514      5.1623      4.9903    
  4.7481      4.4556      4.1378      3.8211      3.5291      3.2800      3.0858      2.9534      2.8865      2.8866    
  2.9536      3.0860      3.2802      3.5292      3.8211      4.1377      5.2062      5.5722      5.8506      6.0214    
  6.0783      6.0214      5.8506      5.5722      5.2063      4.7811      4.3318      3.8958      3.5060      3.1870    
  2.9534      2.8120      2.7648      2.8121      2.9535      3.1871      3.5060      3.8957      4.3317      4.7810    
  6.0937      6.4484      6.6620      6.7565      6.7564      6.6619      6.4483      6.0936      5.6130      5.0620    
  4.4925      3.9546      3.4907      3.1299      2.8865      2.7648      2.7648      2.8865      3.1299      3.4907    
  3.9544      4.4924      5.0619      5.6130      6.8313      6.9820      7.0115      7.0085      7.0114      6.9819    
  6.8312      6.4833      5.9355      5.2762      4.6064      3.9917      3.4830      3.1107      2.8866      2.8121    
  2.8865      3.1106      3.4829      3.9916      4.6063      5.2762      5.9355      6.4834      6.9285      6.7260    
  6.5573      6.5573      6.7259      6.9285      6.9718      6.7147      6.1492      5.4095      4.6651      4.0042    
  3.4830      3.1300      2.9536      2.9535      3.1299      3.4829      4.0042      4.6651      5.4095      6.1493    
  6.7148      6.9718      6.0205      5.4654      5.2418      5.4654      6.0206      6.6200      6.9489      6.8192    
  6.2522      5.4546      4.6650      3.9916      3.4907      3.1871      3.0860      3.1871      3.4907      3.9916    
  4.6651      5.4547      6.2522      6.8193      6.9489      6.6199      4.0918      3.3777      3.3778      4.0920    
  5.2161      6.2859      6.8906      6.8465      6.2522      5.4095      4.6062      3.9544      3.5060      3.2802    
  3.2802      3.5060      3.9544      4.6063      5.4095      6.2522      6.8464      6.8905      6.2858      5.2159    
  1.5629      1.0290      1.5630      2.9581      4.6886      6.1449      6.8906      6.8193      6.1492      5.2762    
  4.4923      3.8957      3.5292      3.4064      3.5292      3.8957      4.4924      5.2762      6.1493      6.8193    
  6.8905      6.1447      4.6884      2.9579     -.81961     -.81959     0.44614      2.5199      4.6885      6.2859    
  6.9490      6.7148      5.9355      5.0619      4.3317      3.8211      3.5616      3.5617      3.8211      4.3317    
  5.0619      5.9355      6.7148      6.9489      6.2858      4.6884      2.5198     0.44608     -2.2639     -1.5203    
 0.44608      2.9579      5.2159      6.6199      6.9718      6.4834      5.6130      4.7810      4.1377      3.7391    
  3.6050      3.7391      4.1377      4.7810      5.6130      6.4834      6.9718      6.6199      5.2159      2.9579    
 0.44608     -1.5203     -.16378      1.5628      3.7449      5.6617      6.7819      6.9473      6.3740      5.4963    
  4.6822      4.0569      3.6710      3.5413      3.6709      4.0569      4.6821      5.4963      6.3740      6.9474    
  6.7821      5.6619      3.7451      1.5630     -.16368     -.81962      1.5628      3.3775      5.2416      6.5571    
  7.0114      6.6619      5.8506      4.9902      4.2776      3.7817      3.5303      3.5303      3.7816      4.2776    
  4.9902      5.8506      6.6620      7.0115      6.5573      5.2418      3.3778      1.5630     0.44614     0.44608    
  3.7449      5.2416      6.4571      7.0060      6.8118      6.0955      5.2297      4.4632      3.8826      3.5271    
  3.4081      3.5271      3.8825      4.4631      5.2296      6.0954      6.8118      7.0061      6.4573      5.2419    
  3.7451      2.5199      2.0480      2.5198      5.6617      6.5571      7.0060      6.8564      6.2179      5.3811    
  4.5967      3.9629      3.5281      3.3095      3.3095      3.5281      3.9628      4.5966      5.3810      6.2178    
  6.8564      7.0061      6.5572      5.6619      4.6886      4.0616      4.0615      4.6884      6.7819      7.0114    
  6.8118      6.2179      5.4328      4.6664      4.0142      3.5301      3.2372      3.1397      3.2372      3.5302    
  4.0142      4.6663      5.4327      6.2178      6.8117      7.0114      6.7820      6.2859      5.8080      5.6131    
  5.8080      6.2858      6.9473      6.6619      6.0955      5.3811      4.6664      4.0318      3.5315      3.1929    
  3.0238      3.0239      3.1930      3.5316      4.0318      4.6663      5.3810      6.0954      6.6618      6.9472    
  6.9488      6.7908      6.6494      6.6494      6.7909      6.9489      6.3740      5.8506      5.2297      4.5967    
  4.0142      3.5315      3.1780      2.9652      2.8945      2.9652      3.1781      3.5316      4.0143      4.5967    
  5.2297      5.8505      6.3739      6.7146      6.8698      6.9069      6.9074      6.9070      6.8700      6.7148    
  5.4963      4.9902      4.4632      3.9629      3.5301      3.1929      2.9652      2.8512      2.8512      2.9652    
  3.1930      3.5302      3.9630      4.4633      4.9903      5.4963      5.9354      6.2612      6.4578      6.5447    
  6.5448      6.4578      6.2613      5.9355      4.6822      4.2776      3.8826      3.5281      3.2372      3.0238    
  2.8945      2.8512      2.8944      3.0238      3.2371      3.5281      3.8827      4.2777      4.6823      5.0619    
  5.3852      5.6285      5.7774      5.8270      5.7774      5.6285      5.3851      5.0619      4.0569      3.7817    
  3.5271      3.3095      3.1397      3.0239      2.9652      2.9652      3.0238      3.1396      3.3094      3.5270    
  3.7817      4.0570      4.3318      4.5828      4.7888      4.9337      5.0082      5.0082      4.9336      4.7886    
  4.5827      4.3317      3.6710      3.5303      3.4081      3.3095      3.2372      3.1930      3.1781      3.1930    
  3.2371      3.3094      3.4080      3.5302      3.6709      3.8211      3.9684      4.0988      4.2001      4.2638    
  4.2854      4.2637      4.1999      4.0986      3.9683      3.8211      3.5413      3.5303      3.5271      3.5281    
  3.5302      3.5316      3.5316      3.5302      3.5281      3.5270      3.5302      3.5411      3.5615      3.5896    
  3.6205      3.6485      3.6689      3.6795      3.6795      3.6688      3.6483      3.6204      3.5896      3.5617    
  3.6709      3.7816      3.8825      3.9628      4.0142      4.0318      4.0143      3.9630      3.8827      3.7817    
  3.6709      3.5615      3.4624      3.3785      3.3119      3.2632      3.2332      3.2230      3.2332      3.2632    
  3.3120      3.3786      3.4625      3.5616      4.0569      4.2776      4.4631      4.5966      4.6663      4.6663    
  4.5967      4.4633      4.2777      4.0570      3.8211      3.5896      3.3785      3.1994      3.0597      2.9639    
  2.9152      2.9152      2.9640      3.0598      3.1996      3.3786      3.5896      3.8211      4.6821      4.9902    
  5.2296      5.3810      5.4327      5.3810      5.2297      4.9903      4.6823      4.3318      3.9684      3.6205    
  3.3119      3.0597      2.8743      2.7615      2.7237      2.7616      2.8745      3.0598      3.3120      3.6205    
  3.9683      4.3317      5.4963      5.8506      6.0954      6.2178      6.2178      6.0954      5.8505      5.4963    
  5.0619      4.5828      4.0988      3.6485      3.2632      2.9639      2.7615      2.6599      2.6600      2.7616    
  2.9639      3.2632      3.6484      4.0987      4.5827      5.0619      6.3740      6.6620      6.8118      6.8564    
  6.8117      6.6618      6.3739      5.9354      5.3852      4.7888      4.2001      3.6689      3.2332      2.9152    
  2.7237      2.6600      2.7237      2.9151      3.2331      3.6688      4.2000      4.7887      5.3851      5.9355    
  6.9474      7.0115      7.0061      7.0061      7.0114      6.9472      6.7146      6.2612      5.6285      4.9337    
  4.2638      3.6795      3.2230      2.9152      2.7616      2.7616      2.9151      3.2229      3.6794      4.2637    
  4.9337      5.6285      6.2613      6.7148      6.7821      6.5573      6.4573      6.5572      6.7820      6.9488    
  6.8698      6.4578      5.7774      5.0082      4.2854      3.6795      3.2332      2.9640      2.8745      2.9639    
  3.2331      3.6794      4.2854      5.0082      5.7775      6.4579      6.8700      6.9490      5.6619      5.2418    
  5.2419      5.6619      6.2859      6.7908      6.9069      6.5447      5.8270      5.0082      4.2637      3.6688    
  3.2632      3.0598      3.0598      3.2632      3.6688      4.2637      5.0082      5.8271      6.5448      6.9070    
  6.7909      6.2859      3.7451      3.3778      3.7451      4.6886      5.8080      6.6494      6.9074      6.5448    
  5.7774      4.9336      4.1999      3.6483      3.3120      3.1996      3.3120      3.6484      4.2000      4.9337    
  5.7775      6.5448      6.9075      6.6494      5.8080      4.6885      1.5630      1.5630      2.5199      4.0616    
  5.6131      6.6494      6.9070      6.4578      5.6285      4.7886      4.0986      3.6204      3.3786      3.3786    
  3.6205      4.0987      4.7887      5.6285      6.4579      6.9070      6.6494      5.6130      4.0615      2.5199    
 -.16368     0.44614      2.0480      4.0615      5.8080      6.7909      6.8700      6.2613      5.3851      4.5827    
  3.9683      3.5896      3.4625      3.5896      3.9683      4.5827      5.3851      6.2613      6.8700      6.7909    
  5.8080      4.0615      2.0480     0.44614     -.81962     0.44608      2.5198      4.6884      6.2858      6.9489    
  6.7148      5.9355      5.0619      4.3317      3.8211      3.5617      3.5616      3.8211      4.3317      5.0619    
  5.9355      6.7148      6.9490      6.2859      4.6885      2.5199     0.44614     -.81959      2.5315      4.0917    
  5.6617      6.7117      6.9765      6.5294      5.6992      4.8574      4.1654      3.6859      3.4434      3.4434    
  3.6858      4.1654      4.8573      5.6991      6.5294      6.9766      6.7118      5.6619      4.0920      2.5317    
  1.5630      1.5629      4.0917      5.4652      6.5571      7.0084      6.7565      6.0215      5.1624      4.4065    
  3.8353      3.4860      3.3693      3.4860      3.8353      4.4064      5.1623      6.0214      6.7565      7.0085    
  6.5573      5.4654      4.0920      2.9581      2.5199      2.9579      5.6617      6.5571      7.0060      6.8564    
  6.2179      5.3811      4.5967      3.9629      3.5281      3.3095      3.3095      3.5281      3.9628      4.5966    
  5.3810      6.2178      6.8564      7.0061      6.5572      5.6619      4.6886      4.0616      4.0615      4.6884    
  6.7117      7.0084      6.8564      6.2832      5.4951      4.7183      4.0556      3.5629      3.2646      3.1653    
  3.2646      3.5629      4.0555      4.7182      5.4950      6.2830      6.8563      7.0084      6.7117      6.1449    
  5.6131      5.3979      5.6130      6.1447      6.9765      6.7565      6.2179      5.4951      4.7601      4.1042    
  3.5856      3.2343      3.0588      3.0588      3.2344      3.5857      4.1042      4.7600      5.4950      6.2177    
  6.7563      6.9763      6.8904      6.6494      6.4575      6.4575      6.6494      6.8905      6.5294      6.0215    
  5.3811      4.7183      4.1042      3.5935      3.2190      2.9935      2.9187      2.9936      3.2191      3.5936    
  4.1042      4.7183      5.3810      6.0213      6.5292      6.8190      6.9068      6.8873      6.8658      6.8874    
  6.9070      6.8193      5.6992      5.1624      4.5967      4.0556      3.5856      3.2190      2.9715      2.8479    
  2.8479      2.9716      3.2191      3.5858      4.0557      4.5968      5.1623      5.6991      6.1491      6.4576    
  6.6249      6.6905      6.6906      6.6251      6.4579      6.1493      4.8574      4.4065      3.9629      3.5629    
  3.2343      2.9935      2.8479      2.7992      2.8478      2.9935      3.2343      3.5630      3.9630      4.4066    
  4.8574      5.2762      5.6284      5.8875      6.0396      6.0888      6.0397      5.8876      5.6285      5.2762    
  4.1654      3.8353      3.5281      3.2646      3.0588      2.9187      2.8479      2.8478      2.9186      3.0587    
  3.2645      3.5281      3.8354      4.1656      4.4925      4.7887      5.0300      5.1989      5.2854      5.2854    
  5.1989      5.0300      4.7887      4.4924      3.6859      3.4860      3.3095      3.1653      3.0588      2.9936    
  2.9716      2.9935      3.0587      3.1651      3.3094      3.4860      3.6859      3.8958      4.0988      4.2770    
  4.4150      4.5017      4.5311      4.5016      4.4149      4.2769      4.0987      3.8957      3.4434      3.3693    
  3.3095      3.2646      3.2344      3.2191      3.2191      3.2343      3.2645      3.3094      3.3691      3.4433    
  3.5291      3.6205      3.7083      3.7828      3.8363      3.8640      3.8639      3.8361      3.7826      3.7081    
  3.6205      3.5292      3.4434      3.4860      3.5281      3.5629      3.5857      3.5936      3.5858      3.5630    
  3.5281      3.4860      3.4433      3.4062      3.3785      3.3603      3.3493      3.3426      3.3388      3.3375    
  3.3388      3.3426      3.3492      3.3604      3.3786      3.4064      3.6858      3.8353      3.9628      4.0555    
  4.1042      4.1042      4.0557      3.9630      3.8354      3.6859      3.5291      3.3785      3.2439      3.1313    
  3.0438      2.9836      2.9529      2.9529      2.9837      3.0438      3.1314      3.2441      3.3786      3.5292    
  4.1654      4.4064      4.5966      4.7182      4.7600      4.7183      4.5968      4.4066      4.1656      3.8958    
  3.6205      3.3603      3.1313      2.9442      2.8062      2.7217      2.6932      2.7217      2.8063      2.9444    
  3.1314      3.3604      3.6204      3.8957      4.8573      5.1623      5.3810      5.4950      5.4950      5.3810    
  5.1623      4.8574      4.4925      4.0988      3.7083      3.3493      3.0438      2.8062      2.6448      2.5635    
  2.5635      2.6449      2.8063      3.0438      3.3492      3.7081      4.0986      4.4923      5.6991      6.0214    
  6.2178      6.2830      6.2177      6.0213      5.6991      5.2762      4.7887      4.2770      3.7828      3.3426    
  2.9836      2.7217      2.5635      2.5107      2.5635      2.7217      2.9836      3.3426      3.7826      4.2769    
  4.7886      5.2762      6.5294      6.7565      6.8564      6.8563      6.7563      6.5292      6.1491      5.6284    
  5.0300      4.4150      3.8363      3.3388      2.9529      2.6932      2.5635      2.5635      2.6932      2.9529    
  3.3387      3.8361      4.4149      5.0300      5.6285      6.1492      6.9766      7.0085      7.0061      7.0084    
  6.9763      6.8190      6.4576      5.8875      5.1989      4.5017      3.8640      3.3375      2.9529      2.7217    
  2.6449      2.7217      2.9529      3.3375      3.8639      4.5016      5.1990      5.8876      6.4578      6.8193    
  6.7118      6.5573      6.5572      6.7117      6.8904      6.9068      6.6249      6.0396      5.2854      4.5311    
  3.8639      3.3388      2.9837      2.8063      2.8063      2.9836      3.3387      3.8639      4.5311      5.2855    
  6.0397      6.6251      6.9070      6.8906      5.6619      5.4654      5.6619      6.1449      6.6494      6.8873    
  6.6905      6.0888      5.2854      4.5016      3.8361      3.3426      3.0438      2.9444      3.0438      3.3426    
  3.8361      4.5016      5.2855      6.0889      6.6907      6.8874      6.6494      6.1449      4.0920      4.0920    
  4.6886      5.6131      6.4575      6.8658      6.6906      6.0397      5.1989      4.4149      3.7826      3.3492    
  3.1314      3.1314      3.3492      3.7826      4.4149      5.1990      6.0397      6.6907      6.8659      6.4575    
  5.6131      4.6886      2.5317      2.9581      4.0616      5.3979      6.4575      6.8874      6.6251      5.8876    
  5.0300      4.2769      3.7081      3.3604      3.2441      3.3604      3.7081      4.2769      5.0300      5.8876    
  6.6251      6.8874      6.4575      5.3979      4.0616      2.9581      1.5630      2.5199      4.0615      5.6130    
  6.6494      6.9070      6.4579      5.6285      4.7887      4.0987      3.6205      3.3786      3.3786      3.6204    
  4.0986      4.7886      5.6285      6.4578      6.9070      6.6494      5.6131      4.0616      2.5199      1.5630    
  1.5629      2.9579      4.6884      6.1447      6.8905      6.8193      6.1493      5.2762      4.4924      3.8957    
  3.5292      3.4064      3.5292      3.8957      4.4923      5.2762      6.1492      6.8193      6.8906      6.1449    
  4.6886      2.9581      1.5630      1.0290      4.9788      6.0204      6.7819      6.9765      6.5778      5.8028    
  4.9674      4.2430      3.6993      3.3680      3.2574      3.3680      3.6992      4.2430      4.9673      5.8027    
  6.5778      6.9765      6.7821      6.0206      4.9790      4.0920      3.7451      4.0918      6.0204      6.7258    
  7.0114      6.7565      6.0784      5.2515      4.4881      3.8744      3.4546      3.2439      3.2439      3.4546    
  3.8744      4.4881      5.2514      6.0783      6.7564      7.0114      6.7259      6.0206      5.2161      4.6886    
  4.6885      5.2159      6.7819      7.0114      6.8118      6.2179      5.4328      4.6664      4.0142      3.5301    
  3.2372      3.1397      3.2372      3.5302      4.0142      4.6663      5.4327      6.2178      6.8117      7.0114    
  6.7820      6.2859      5.8080      5.6131      5.8080      6.2858      6.9765      6.7565      6.2179      5.4951    
  4.7601      4.1042      3.5856      3.2343      3.0588      3.0588      3.2344      3.5857      4.1042      4.7600    
  5.4950      6.2177      6.7563      6.9763      6.8904      6.6494      6.4575      6.4575      6.6494      6.8905    
  6.5778      6.0784      5.4328      4.7601      4.1353      3.6149      3.2331      3.0033      2.9270      3.0034    
  3.2332      3.6150      4.1353      4.7601      5.4327      6.0782      6.5776      6.8462      6.9072      6.8657    
  6.8358      6.8659      6.9074      6.8464      5.8028      5.2515      4.6664      4.1042      3.6149      3.2328    
  2.9750      2.8462      2.8462      2.9750      3.2329      3.6150      4.1043      4.6664      5.2514      5.8026    
  6.2520      6.5445      6.6904      6.7413      6.7414      6.6907      6.5448      6.2522      4.9674      4.4881    