fcc Si                                  
   4.20000000000000     
     0.500000    0.500000    0.000000
     0.000000    0.500000    0.500000
     0.500000    0.000000    0.500000
   Si
     1
Direct
  0.000000  0.000000  0.000000
 
   24   24   24
 -.30566759477E+01 -.22639514623E+01 -.16377339076E+00 0.25315223391E+01 0.49788323960E+01
 0.65401880721E+01 0.69961066323E+01 0.65560859997E+01 0.56914635297E+01 0.48496634709E+01
 0.41966144457E+01 0.37910968123E+01 0.36545139103E+01 0.37910968123E+01 0.41966144457E+01
 0.48496634709E+01 0.56914635297E+01 0.65560859997E+01 0.69961066323E+01 0.65401880721E+01
 0.49788323960E+01 0.25315223391E+01 -.16377339076E+00 -.22639514623E+01 -.22639514623E+01
 -.81964043053E+00 0.15627968393E+01 0.40916980308E+01 0.60204228936E+01 0.69284074046E+01
 0.68312593777E+01 0.60936676077E+01 0.52062050083E+01 0.44555034622E+01 0.39278954982E+01
 0.36590810759E+01 0.36590661395E+01 0.39278684754E+01 0.44554928111E+01 0.52062163322E+01
 0.60936891590E+01 0.68312965644E+01 0.69284841362E+01 0.60205428094E+01 0.40918227922E+01
 0.15628765064E+01 -.81961412304E+00 -.22639487688E+01 -.16377339076E+00 0.15627968393E+01
 0.37448858692E+01 0.56617029630E+01 0.67819428469E+01 0.69473050725E+01 0.63739976753E+01
 0.54962877046E+01 0.46821770734E+01 0.40569365799E+01 0.36709644268E+01 0.35413203646E+01
 0.36709423799E+01 0.40569028961E+01 0.46821451626E+01 0.54962722048E+01 0.63740182628E+01
 0.69473826191E+01 0.67820847863E+01 0.56618918265E+01 0.37450846181E+01 0.15629607386E+01
 -.16368104788E+00 -.81961412304E+00 0.25315223391E+01 0.40916980308E+01 0.56617029630E+01
 0.67116873241E+01 0.69764842962E+01 0.65294300412E+01 0.56991827511E+01 0.48573613450E+01
 0.41654313444E+01 0.36858667990E+01 0.34434006327E+01 0.34433963676E+01 0.36858448083E+01
 0.41653802287E+01 0.48572919050E+01 0.56991325088E+01 0.65294373284E+01 0.69765670885E+01
 0.67118451695E+01 0.56619249381E+01 0.40919515444E+01 0.25317346424E+01 0.15629607386E+01
 0.15628765064E+01 0.49788323960E+01 0.60204228936E+01 0.67819428469E+01 0.69764842962E+01
 0.65778475022E+01 0.58027627261E+01 0.49674127273E+01 0.42430138370E+01 0.36992514565E+01
 0.33679848174E+01 0.32574080351E+01 0.33679844232E+01 0.36992372978E+01 0.42429711735E+01
 0.49673440226E+01 0.58026968040E+01 0.65778286522E+01 0.69765460670E+01 0.67820917421E+01
 0.60206297475E+01 0.49790365799E+01 0.40919515444E+01 0.37450846181E+01 0.40918227922E+01
 0.65401880721E+01 0.69284074046E+01 0.69473050725E+01 0.65294300412E+01 0.58027627261E+01
 0.50048576826E+01 0.42832109581E+01 0.37080606862E+01 0.33165293965E+01 0.31204372029E+01
 0.31204529837E+01 0.33165695291E+01 0.37081016960E+01 0.42832208126E+01 0.50048213306E+01
 0.58027020313E+01 0.65293934013E+01 0.69473281203E+01 0.69284894707E+01 0.65402954235E+01
 0.60206297475E+01 0.56619249381E+01 0.56618918265E+01 0.60205428094E+01 0.69961066323E+01
 0.68312593777E+01 0.63739976753E+01 0.56991827511E+01 0.49674127273E+01 0.42832109581E+01
 0.37110713257E+01 0.32903165034E+01 0.30367176999E+01 0.29524593656E+01 0.30367789290E+01
 0.32904166921E+01 0.37111719219E+01 0.42832730141E+01 0.49674215459E+01 0.56991514316E+01
 0.63739567162E+01 0.68312310356E+01 0.69960973676E+01 0.69284894707E+01 0.67820917421E+01
 0.67118451695E+01 0.67820847863E+01 0.69284841362E+01 0.65560859997E+01 0.60936676077E+01
 0.54962877046E+01 0.48573613450E+01 0.42430138370E+01 0.37080606862E+01 0.32903165034E+01
 0.30085535006E+01 0.28678616681E+01 0.28678845798E+01 0.30086191250E+01 0.32904119044E+01
 0.37081669789E+01 0.42431082308E+01 0.48574277895E+01 0.54963146932E+01 0.60936516340E+01
 0.65560366409E+01 0.68312310356E+01 0.69473281203E+01 0.69765460670E+01 0.69765670885E+01
 0.69473826191E+01 0.68312965644E+01 0.56914635297E+01 0.52062050083E+01 0.46821770734E+01
 0.41654313444E+01 0.36992514565E+01 0.33165293965E+01 0.30367176999E+01 0.28678616681E+01
 0.28115924375E+01 0.28678391853E+01 0.30366969632E+01 0.33165436771E+01 0.36993221343E+01
 0.41655497812E+01 0.46823048775E+01 0.52062959923E+01 0.56914861107E+01 0.60936516340E+01
 0.63739567162E+01 0.65293934013E+01 0.65778286522E+01 0.65294373284E+01 0.63740182628E+01
 0.60936891590E+01 0.48496634709E+01 0.44555034622E+01 0.40569365799E+01 0.36858667990E+01
 0.33679848174E+01 0.31204372029E+01 0.29524593656E+01 0.28678845798E+01 0.28678391853E+01
 0.29523453149E+01 0.31203119617E+01 0.33679123942E+01 0.36858845796E+01 0.40570351711E+01
 0.44556359059E+01 0.48497818093E+01 0.52062959923E+01 0.54963146932E+01 0.56991514316E+01
 0.58027020313E+01 0.58026968040E+01 0.56991325088E+01 0.54962722048E+01 0.52062163322E+01
 0.41966144457E+01 0.39278954982E+01 0.36709644268E+01 0.34434006327E+01 0.32574080351E+01
 0.31204529837E+01 0.30367789290E+01 0.30086191250E+01 0.30366969632E+01 0.31203119617E+01
 0.32572478275E+01 0.34432659305E+01 0.36708922410E+01 0.39279058083E+01 0.41967032055E+01
 0.44556359059E+01 0.46823048775E+01 0.48574277895E+01 0.49674215459E+01 0.50048213306E+01
 0.49673440226E+01 0.48572919050E+01 0.46821451626E+01 0.44554928111E+01 0.37910968123E+01
 0.36590810759E+01 0.35413203646E+01 0.34433963676E+01 0.33679844232E+01 0.33165695291E+01
 0.32904166921E+01 0.32904119044E+01 0.33165436771E+01 0.33679123942E+01 0.34432659305E+01
 0.35411526643E+01 0.36589295790E+01 0.37910232979E+01 0.39279058083E+01 0.40570351711E+01
 0.41655497812E+01 0.42431082308E+01 0.42832730141E+01 0.42832208126E+01 0.42429711735E+01
 0.41653802287E+01 0.40569028961E+01 0.39278684754E+01 0.36545139103E+01 0.36590661395E+01
 0.36709423799E+01 0.36858448083E+01 0.36992372978E+01 0.37081016960E+01 0.37111719219E+01
 0.37081669789E+01 0.36993221343E+01 0.36858845796E+01 0.36708922410E+01 0.36589295790E+01
 0.36543417025E+01 0.36589295790E+01 0.36708922410E+01 0.36858845796E+01 0.36993221343E+01
 0.37081669789E+01 0.37111719219E+01 0.37081016960E+01 0.36992372978E+01 0.36858448083E+01
 0.36709423799E+01 0.36590661395E+01 0.37910968123E+01 0.39278684754E+01 0.40569028961E+01
 0.41653802287E+01 0.42429711735E+01 0.42832208126E+01 0.42832730141E+01 0.42431082308E+01
 0.41655497812E+01 0.40570351711E+01 0.39279058083E+01 0.37910232979E+01 0.36589295790E+01
 0.35411526643E+01 0.34432659305E+01 0.33679123942E+01 0.33165436771E+01 0.32904119044E+01
 0.32904166921E+01 0.33165695291E+01 0.33679844232E+01 0.34433963676E+01 0.35413203646E+01
 0.36590810759E+01 0.41966144457E+01 0.44554928111E+01 0.46821451626E+01 0.48572919050E+01
 0.49673440226E+01 0.50048213306E+01 0.49674215459E+01 0.48574277895E+01 0.46823048775E+01
 0.44556359059E+01 0.41967032055E+01 0.39279058083E+01 0.36708922410E+01 0.34432659305E+01
 0.32572478275E+01 0.31203119617E+01 0.30366969632E+01 0.30086191250E+01 0.30367789290E+01
 0.31204529837E+01 0.32574080351E+01 0.34434006327E+01 0.36709644268E+01 0.39278954982E+01
 0.48496634709E+01 0.52062163322E+01 0.54962722048E+01 0.56991325088E+01 0.58026968040E+01
 0.58027020313E+01 0.56991514316E+01 0.54963146932E+01 0.52062959923E+01 0.48497818093E+01
 0.44556359059E+01 0.40570351711E+01 0.36858845796E+01 0.33679123942E+01 0.31203119617E+01
 0.29523453149E+01 0.28678391853E+01 0.28678845798E+01 0.29524593656E+01 0.31204372029E+01
 0.33679848174E+01 0.36858667990E+01 0.40569365799E+01 0.44555034622E+01 0.56914635297E+01
 0.60936891590E+01 0.63740182628E+01 0.65294373284E+01 0.65778286522E+01 0.65293934013E+01
 0.63739567162E+01 0.60936516340E+01 0.56914861107E+01 0.52062959923E+01 0.46823048775E+01
 0.41655497812E+01 0.36993221343E+01 0.33165436771E+01 0.30366969632E+01 0.28678391853E+01
 0.28115924375E+01 0.28678616681E+01 0.30367176999E+01 0.33165293965E+01 0.36992514565E+01
 0.41654313444E+01 0.46821770734E+01 0.52062050083E+01 0.65560859997E+01 0.68312965644E+01
 0.69473826191E+01 0.69765670885E+01 0.69765460670E+01 0.69473281203E+01 0.68312310356E+01
 0.65560366409E+01 0.60936516340E+01 0.54963146932E+01 0.48574277895E+01 0.42431082308E+01
 0.37081669789E+01 0.32904119044E+01 0.30086191250E+01 0.28678845798E+01 0.28678616681E+01
 0.30085535006E+01 0.32903165034E+01 0.37080606862E+01 0.42430138370E+01 0.48573613450E+01
 0.54962877046E+01 0.60936676077E+01 0.69961066323E+01 0.69284841362E+01 0.67820847863E+01
 0.67118451695E+01 0.67820917421E+01 0.69284894707E+01 0.69960973676E+01 0.68312310356E+01
 0.63739567162E+01 0.56991514316E+01 0.49674215459E+01 0.42832730141E+01 0.37111719219E+01
 0.32904166921E+01 0.30367789290E+01 0.29524593656E+01 0.30367176999E+01 0.32903165034E+01
 0.37110713257E+01 0.42832109581E+01 0.49674127273E+01 0.56991827511E+01 0.63739976753E+01
 0.68312593777E+01 0.65401880721E+01 0.60205428094E+01 0.56618918265E+01 0.56619249381E+01
 0.60206297475E+01 0.65402954235E+01 0.69284894707E+01 0.69473281203E+01 0.65293934013E+01
 0.58027020313E+01 0.50048213306E+01 0.42832208126E+01 0.37081016960E+01 0.33165695291E+01
 0.31204529837E+01 0.31204372029E+01 0.33165293965E+01 0.37080606862E+01 0.42832109581E+01
 0.50048576826E+01 0.58027627261E+01 0.65294300412E+01 0.69473050725E+01 0.69284074046E+01
 0.49788323960E+01 0.40918227922E+01 0.37450846181E+01 0.40919515444E+01 0.49790365799E+01
 0.60206297475E+01 0.67820917421E+01 0.69765460670E+01 0.65778286522E+01 0.58026968040E+01
 0.49673440226E+01 0.42429711735E+01 0.36992372978E+01 0.33679844232E+01 0.32574080351E+01
 0.33679848174E+01 0.36992514565E+01 0.42430138370E+01 0.49674127273E+01 0.58027627261E+01
 0.65778475022E+01 0.69764842962E+01 0.67819428469E+01 0.60204228936E+01 0.25315223391E+01
 0.15628765064E+01 0.15629607386E+01 0.25317346424E+01 0.40919515444E+01 0.56619249381E+01
 0.67118451695E+01 0.69765670885E+01 0.65294373284E+01 0.56991325088E+01 0.48572919050E+01
 0.41653802287E+01 0.36858448083E+01 0.34433963676E+01 0.34434006327E+01 0.36858667990E+01
 0.41654313444E+01 0.48573613450E+01 0.56991827511E+01 0.65294300412E+01 0.69764842962E+01
 0.67116873241E+01 0.56617029630E+01 0.40916980308E+01 -.16377339076E+00 -.81961412304E+00
 -.16368104788E+00 0.15629607386E+01 0.37450846181E+01 0.56618918265E+01 0.67820847863E+01
 0.69473826191E+01 0.63740182628E+01 0.54962722048E+01 0.46821451626E+01 0.40569028961E+01
 0.36709423799E+01 0.35413203646E+01 0.36709644268E+01 0.40569365799E+01 0.46821770734E+01
 0.54962877046E+01 0.63739976753E+01 0.69473050725E+01 0.67819428469E+01 0.56617029630E+01
 0.37448858692E+01 0.15627968393E+01 -.22639514623E+01 -.22639487688E+01 -.81961412304E+00
 0.15628765064E+01 0.40918227922E+01 0.60205428094E+01 0.69284841362E+01 0.68312965644E+01
 0.60936891590E+01 0.52062163322E+01 0.44554928111E+01 0.39278684754E+01 0.36590661395E+01
 0.36590810759E+01 0.39278954982E+01 0.44555034622E+01 0.52062050083E+01 0.60936676077E+01
 0.68312593777E+01 0.69284074046E+01 0.60204228936E+01 0.40916980308E+01 0.15627968393E+01
 -.81964043053E+00 -.22639525683E+01 -.81964218284E+00 0.15627957474E+01 0.40916976449E+01
 0.60204224279E+01 0.69284070641E+01 0.68312598772E+01 0.60936684469E+01 0.52062051277E+01
 0.44555031229E+01 0.39278956880E+01 0.36590815900E+01 0.36590660799E+01 0.39278680907E+01
 0.44554929822E+01 0.52062167833E+01 0.60936890474E+01 0.68312963060E+01 0.69284847731E+01
 0.60205440671E+01 0.40918235828E+01 0.15628768098E+01 -.81961369546E+00 -.22639486732E+01
 -.81964218284E+00 0.10288685271E+01 0.33775382032E+01 0.54651557980E+01 0.67257890710E+01
 0.69819010293E+01 0.64483453288E+01 0.55721939940E+01 0.47479829571E+01 0.41129676523E+01
 0.37202487918E+01 0.35882258781E+01 0.37202243347E+01 0.41129334832E+01 0.47479542792E+01
 0.55721853132E+01 0.64483809377E+01 0.69820098845E+01 0.67259715373E+01 0.54653685943E+01
 0.33777201036E+01 0.10289824433E+01 -.81959292919E+00 -.15202946237E+01 0.15627957474E+01
 0.33775382032E+01 0.52415946844E+01 0.65570646405E+01 0.70113910601E+01 0.66619298964E+01
 0.58506285779E+01 0.49902300394E+01 0.42776299999E+01 0.37816613891E+01 0.35303375839E+01
 0.35303290630E+01 0.37816296285E+01 0.42775695304E+01 0.49901580541E+01 0.58505899970E+01
 0.66619698258E+01 0.70115237317E+01 0.65572690640E+01 0.52418345876E+01 0.33777738514E+01
 0.15629745305E+01 0.44614395583E+00 0.44607642454E+00 0.40916976449E+01 0.54651557980E+01
 0.65570646405E+01 0.70084457610E+01 0.67565011759E+01 0.60214869904E+01 0.51623499730E+01
 0.44064907966E+01 0.38353127546E+01 0.34860482905E+01 0.33692619497E+01 0.34860279275E+01
 0.38352670443E+01 0.44064162924E+01 0.51622575347E+01 0.60214114158E+01 0.67564895609E+01
 0.70085342604E+01 0.65572585735E+01 0.54654194015E+01 0.40919580706E+01 0.29580679430E+01
 0.25198872545E+01 0.29579037706E+01 0.60204224279E+01 0.67257890710E+01 0.70113910601E+01
 0.67565011759E+01 0.60784125564E+01 0.52514580696E+01 0.44881368615E+01 0.38744194492E+01
 0.34546271087E+01 0.32438909849E+01 0.32438926195E+01 0.34546292634E+01 0.38744068368E+01
 0.44880847752E+01 0.52513583044E+01 0.60783026647E+01 0.67564495747E+01 0.70114469773E+01
 0.67259456141E+01 0.60206180995E+01 0.52160589431E+01 0.46885591315E+01 0.46884988918E+01
 0.52159011370E+01 0.69284070641E+01 0.69819010293E+01 0.66619298964E+01 0.60214869904E+01
 0.52514580696E+01 0.45160453168E+01 0.38948411262E+01 0.34356128171E+01 0.31582096960E+01
 0.30659773738E+01 0.31582605398E+01 0.34356843608E+01 0.38948872491E+01 0.45160318494E+01
 0.52513873948E+01 0.60213974845E+01 0.66618698261E+01 0.69818954989E+01 0.69284512029E+01
 0.66199687646E+01 0.62859394973E+01 0.61448833003E+01 0.62858954874E+01 0.66199059012E+01
 0.68312598772E+01 0.64483453288E+01 0.58506285779E+01 0.51623499730E+01 0.44881368615E+01
 0.38948411262E+01 0.34292082955E+01 0.31147029928E+01 0.29577111316E+01 0.29577487982E+01
 0.31147992443E+01 0.34293236763E+01 0.38949339769E+01 0.44881816098E+01 0.51623417896E+01
 0.58505769818E+01 0.64482737442E+01 0.68311940244E+01 0.69717957733E+01 0.69489400844E+01
 0.68905979659E+01 0.68906003817E+01 0.69489548875E+01 0.69718371478E+01 0.60936684469E+01
 0.55721939940E+01 0.49902300394E+01 0.44064907966E+01 0.38744194492E+01 0.34356128171E+01
 0.31147029928E+01 0.29214159789E+01 0.28571381003E+01 0.29214474332E+01 0.31147661645E+01
 0.34357024152E+01 0.38745209399E+01 0.44065800187E+01 0.49902852988E+01 0.55722009492E+01
 0.60936304363E+01 0.64833217219E+01 0.67147221932E+01 0.68192490458E+01 0.68464592721E+01
 0.68192863735E+01 0.67147837451E+01 0.64833837655E+01 0.52062051277E+01 0.47479829571E+01
 0.42776299999E+01 0.38353127546E+01 0.34546271087E+01 0.31582096960E+01 0.29577111316E+01
 0.28571381003E+01 0.28571149376E+01 0.29576578263E+01 0.31581663500E+01 0.34546330901E+01
 0.38353843347E+01 0.42777471787E+01 0.47481029991E+01 0.52062871989E+01 0.56129905717E+01
 0.59354874607E+01 0.61492015843E+01 0.62521972011E+01 0.62522124450E+01 0.61492349190E+01
 0.59355082879E+01 0.56129664953E+01 0.44555031229E+01 0.41129676523E+01 0.37816613891E+01
 0.34860482905E+01 0.32438909849E+01 0.30659773738E+01 0.29577487982E+01 0.29214474332E+01
 0.29576578263E+01 0.30658324653E+01 0.32437531161E+01 0.34859751295E+01 0.37816801841E+01
 0.41130630301E+01 0.44556326633E+01 0.47810825312E+01 0.50619671942E+01 0.52762261360E+01
 0.54095038353E+01 0.54546003711E+01 0.54094695709E+01 0.52761583004E+01 0.50618675004E+01
 0.47809574720E+01 0.39278956880E+01 0.37202487918E+01 0.35303375839E+01 0.33692619497E+01
 0.32438926195E+01 0.31582605398E+01 0.31147992443E+01 0.31147661645E+01 0.31581663500E+01
 0.32437531161E+01 0.33691058883E+01 0.35302018646E+01 0.37201714281E+01 0.39279031610E+01
 0.41378416665E+01 0.43318395141E+01 0.44925120841E+01 0.46063569322E+01 0.46650749775E+01
 0.46650253027E+01 0.46062245634E+01 0.44923405657E+01 0.43316827378E+01 0.41377469293E+01
 0.36590815900E+01 0.35882258781E+01 0.35303290630E+01 0.34860279275E+01 0.34546292634E+01
 0.34356843608E+01 0.34293236763E+01 0.34357024152E+01 0.34546330901E+01 0.34859751295E+01
 0.35302018646E+01 0.35880519645E+01 0.36589260981E+01 0.37390637914E+01 0.38211160090E+01
 0.38957906287E+01 0.39545654677E+01 0.39916540565E+01 0.40042328100E+01 0.39915569758E+01
 0.39544154897E+01 0.38956593668E+01 0.38210713804E+01 0.37391333074E+01 0.36590660799E+01
 0.37202243347E+01 0.37816296285E+01 0.38352670443E+01 0.38744068368E+01 0.38948872491E+01
 0.38949339769E+01 0.38745209399E+01 0.38353843347E+01 0.37816801841E+01 0.37201714281E+01
 0.36589260981E+01 0.36048321669E+01 0.35615136657E+01 0.35291275191E+01 0.35060182453E+01
 0.34907489723E+01 0.34829782202E+01 0.34829562966E+01 0.34907039304E+01 0.35059988297E+01
 0.35291782521E+01 0.35616422674E+01 0.36050001730E+01 0.39278680907E+01 0.41129334832E+01
 0.42775695304E+01 0.44064162924E+01 0.44880847752E+01 0.45160318494E+01 0.44881816098E+01
 0.44065800187E+01 0.42777471787E+01 0.41130630301E+01 0.39279031610E+01 0.37390637914E+01
 0.35615136657E+01 0.34062208169E+01 0.32800250987E+01 0.31870085667E+01 0.31299225169E+01
 0.31106653824E+01 0.31299623237E+01 0.31870963115E+01 0.32801615868E+01 0.34063829318E+01
 0.35616553455E+01 0.37391324086E+01 0.44554929822E+01 0.47479542792E+01 0.49901580541E+01
 0.51622575347E+01 0.52513583044E+01 0.52513873948E+01 0.51623417896E+01 0.49902852988E+01
 0.47481029991E+01 0.44556326633E+01 0.41378416665E+01 0.38211160090E+01 0.35291275191E+01
 0.32800250987E+01 0.30858054726E+01 0.29534296593E+01 0.28865065503E+01 0.28865521281E+01
 0.29535504965E+01 0.30859590801E+01 0.32801577503E+01 0.35291945943E+01 0.38210970663E+01
 0.41377469106E+01 0.52062167833E+01 0.55721853132E+01 0.58505899970E+01 0.60214114158E+01
 0.60783026647E+01 0.60213974845E+01 0.58505769818E+01 0.55722009492E+01 0.52062871989E+01
 0.47810825312E+01 0.43318395141E+01 0.38957906287E+01 0.35060182453E+01 0.31870085667E+01
 0.29534296593E+01 0.28119879560E+01 0.27647600965E+01 0.28120580058E+01 0.29535273868E+01
 0.31870717621E+01 0.35060006866E+01 0.38956892557E+01 0.43316979396E+01 0.47809582625E+01
 0.60936890474E+01 0.64483809377E+01 0.66619698258E+01 0.67564895609E+01 0.67564495747E+01
 0.66618698261E+01 0.64482737442E+01 0.60936304363E+01 0.56129905717E+01 0.50619671942E+01
 0.44925120841E+01 0.39545654677E+01 0.34907489723E+01 0.31299225169E+01 0.28865065503E+01
 0.27647600965E+01 0.27647656117E+01 0.28865109369E+01 0.31298989647E+01 0.34906762882E+01
 0.39544463922E+01 0.44923790884E+01 0.50618672752E+01 0.56129662643E+01 0.68312963060E+01
 0.69820098845E+01 0.70115237317E+01 0.70085342604E+01 0.70114469773E+01 0.69818954989E+01
 0.68311940244E+01 0.64833217219E+01 0.59354874607E+01 0.52762261360E+01 0.46063569322E+01
 0.39916540565E+01 0.34829782202E+01 0.31106653824E+01 0.28865521281E+01 0.28120580058E+01
 0.28865109369E+01 0.31105848197E+01 0.34828730855E+01 0.39915531420E+01 0.46062864678E+01
 0.52761970787E+01 0.59355036760E+01 0.64833826680E+01 0.69284847731E+01 0.67259715373E+01
 0.65572690640E+01 0.65572585735E+01 0.67259456141E+01 0.69284512029E+01 0.69717957733E+01
 0.67147221932E+01 0.61492015843E+01 0.54095038353E+01 0.46650749775E+01 0.40042328100E+01
 0.34829562966E+01 0.31299623237E+01 0.29535504965E+01 0.29535273868E+01 0.31298989647E+01
 0.34828730855E+01 0.40041666080E+01 0.46650563996E+01 0.54095354520E+01 0.61492571377E+01
 0.67147741666E+01 0.69718372852E+01 0.60205440671E+01 0.54653685943E+01 0.52418345876E+01
 0.54654194015E+01 0.60206180995E+01 0.66199687646E+01 0.69489400844E+01 0.68192490458E+01
 0.62521972011E+01 0.54546003711E+01 0.46650253027E+01 0.39915569758E+01 0.34907039304E+01
 0.31870963115E+01 0.30859590801E+01 0.31870717621E+01 0.34906762882E+01 0.39915531420E+01
 0.46650563996E+01 0.54546543759E+01 0.62522464736E+01 0.68192683310E+01 0.69489168953E+01
 0.66199074994E+01 0.40918235828E+01 0.33777201036E+01 0.33777738514E+01 0.40919580706E+01
 0.52160589431E+01 0.62859394973E+01 0.68905979659E+01 0.68464592721E+01 0.62522124450E+01
 0.54094695709E+01 0.46062245634E+01 0.39544154897E+01 0.35059988297E+01 0.32801615868E+01
 0.32801577503E+01 0.35060006866E+01 0.39544463922E+01 0.46062864678E+01 0.54095354520E+01
 0.62522464736E+01 0.68464403626E+01 0.68905209656E+01 0.62858104394E+01 0.52159023933E+01
 0.15628768098E+01 0.10289824433E+01 0.15629745305E+01 0.29580679430E+01 0.46885591315E+01
 0.61448833003E+01 0.68906003817E+01 0.68192863735E+01 0.61492349190E+01 0.52761583004E+01
 0.44923405657E+01 0.38956593668E+01 0.35291782521E+01 0.34063829318E+01 0.35291945943E+01
 0.38956892557E+01 0.44923790884E+01 0.52761970787E+01 0.61492571377E+01 0.68192683310E+01
 0.68905209656E+01 0.61447418796E+01 0.46883825147E+01 0.29579044599E+01 -.81961369546E+00
 -.81959292919E+00 0.44614395583E+00 0.25198872545E+01 0.46884988918E+01 0.62858954874E+01
 0.69489548875E+01 0.67147837451E+01 0.59355082879E+01 0.50618675004E+01 0.43316827378E+01
 0.38210713804E+01 0.35616422674E+01 0.35616553455E+01 0.38210970663E+01 0.43316979396E+01
 0.50618672752E+01 0.59355036760E+01 0.67147741666E+01 0.69489168953E+01 0.62858104394E+01
 0.46883825147E+01 0.25197804736E+01 0.44607794400E+00 -.22639486732E+01 -.15202946237E+01
 0.44607642454E+00 0.29579037706E+01 0.52159011370E+01 0.66199059012E+01 0.69718371478E+01
 0.64833837655E+01 0.56129664953E+01 0.47809574720E+01 0.41377469293E+01 0.37391333074E+01
 0.36050001730E+01 0.37391324086E+01 0.41377469106E+01 0.47809582625E+01 0.56129662643E+01
 0.64833826680E+01 0.69718372852E+01 0.66199074994E+01 0.52159023933E+01 0.29579044599E+01
 0.44607794400E+00 -.15202927758E+01 -.16377582136E+00 0.15627944228E+01 0.37448854235E+01
 0.56617036402E+01 0.67819429532E+01 0.69473052299E+01 0.63739990302E+01 0.54962890452E+01
 0.46821768627E+01 0.40569359320E+01 0.36709650063E+01 0.35413212538E+01 0.36709420420E+01
 0.40569022657E+01 0.46821457420E+01 0.54962730763E+01 0.63740180520E+01 0.69473824402E+01
 0.67820861412E+01 0.56618935034E+01 0.37450847244E+01 0.15629598963E+01 -.16368149358E+00
 -.81961502006E+00 0.15627944228E+01 0.33775375390E+01 0.52415953306E+01 0.65570657037E+01
 0.70113916321E+01 0.66619303944E+01 0.58506294333E+01 0.49902305407E+01 0.42776296697E+01
 0.37816610805E+01 0.35303379737E+01 0.35303294380E+01 0.37816293502E+01 0.42775692847E+01
 0.49901584625E+01 0.58505904174E+01 0.66619697267E+01 0.70115238112E+01 0.65572697821E+01
 0.52418350068E+01 0.33777731671E+01 0.15629733849E+01 0.44614308255E+00 0.44607543196E+00
 0.37448854235E+01 0.52415953306E+01 0.64571185048E+01 0.70060405165E+01 0.68118472907E+01
 0.60955081019E+01 0.52296959883E+01 0.44632144351E+01 0.38826004245E+01 0.35270827816E+01
 0.34081303999E+01 0.35270555348E+01 0.38825421324E+01 0.44631255438E+01 0.52295936151E+01
 0.60954318007E+01 0.68118437575E+01 0.70061402276E+01 0.64573177837E+01 0.52418540430E+01
 0.37451344132E+01 0.25199335047E+01 0.20480345654E+01 0.25197796003E+01 0.56617036402E+01
 0.65570657037E+01 0.70060405165E+01 0.68564370870E+01 0.62179491761E+01 0.53810924608E+01
 0.45966972678E+01 0.39628618528E+01 0.35280884000E+01 0.33095219012E+01 0.33095141578E+01
 0.35280638481E+01 0.39628106580E+01 0.45966036136E+01 0.53809548371E+01 0.62178057379E+01
 0.68563550383E+01 0.70060770797E+01 0.65572257176E+01 0.56619276613E+01 0.46885764329E+01
 0.40615944558E+01 0.40615184484E+01 0.46883828886E+01 0.67819429532E+01 0.70113916321E+01
 0.68118472907E+01 0.62179491761E+01 0.54328292080E+01 0.46663618267E+01 0.40141808383E+01
 0.35301424919E+01 0.32371970391E+01 0.31397213798E+01 0.32372263815E+01 0.35301713289E+01
 0.40141652462E+01 0.46662728552E+01 0.54326765191E+01 0.62177835359E+01 0.68117315974E+01
 0.70113651619E+01 0.67820013765E+01 0.62859049532E+01 0.58080402372E+01 0.56130596272E+01
 0.58079708353E+01 0.62858097551E+01 0.69473052299E+01 0.66619303944E+01 0.60955081019E+01
 0.53810924608E+01 0.46663618267E+01 0.40317951477E+01 0.35314723511E+01 0.31929127713E+01
 0.30238476272E+01 0.30238842117E+01 0.31929987054E+01 0.35315548423E+01 0.40318255667E+01
 0.46663225160E+01 0.53809945429E+01 0.60953784670E+01 0.66617986975E+01 0.69471941586E+01
 0.69488407369E+01 0.67908262457E+01 0.66494183985E+01 0.66494299197E+01 0.67908651457E+01
 0.69489157950E+01 0.63739990302E+01 0.58506294333E+01 0.52296959883E+01 0.45966972678E+01
 0.40141808383E+01 0.35314723511E+01 0.31779804242E+01 0.29651887759E+01 0.28944927461E+01
 0.29652465141E+01 0.31780776298E+01 0.35315800117E+01 0.40142685738E+01 0.45967385506E+01
 0.52296747783E+01 0.58505421992E+01 0.63738654213E+01 0.67146263901E+01 0.68698257952E+01
 0.69069218191E+01 0.69074331817E+01 0.69069934064E+01 0.68699518208E+01 0.67147748846E+01
 0.54962890452E+01 0.49902305407E+01 0.44632144351E+01 0.39628618528E+01 0.35301424919E+01
 0.31929127713E+01 0.29651887759E+01 0.28512270150E+01 0.28512281371E+01 0.29652016750E+01
 0.31929569638E+01 0.35302255441E+01 0.39629677860E+01 0.44633077787E+01 0.49902789964E+01
 0.54962747408E+01 0.59354339757E+01 0.62611949854E+01 0.64577642880E+01 0.65447280554E+01
 0.65447612956E+01 0.64578492919E+01 0.62612933357E+01 0.59355052749E+01 0.46821768627E+01
 0.42776296697E+01 0.38826004245E+01 0.35280884000E+01 0.32371970391E+01 0.30238476272E+01
 0.28944927461E+01 0.28512281371E+01 0.28944334026E+01 0.30237637669E+01 0.32371393620E+01
 0.35280950753E+01 0.38826776574E+01 0.42777486845E+01 0.46822935114E+01 0.50619459345E+01
 0.53851754818E+01 0.56284681184E+01 0.57774157228E+01 0.58269884375E+01 0.57774328082E+01
 0.56284784009E+01 0.53851484235E+01 0.50618671761E+01 0.40569359320E+01 0.37816610805E+01
 0.35270827816E+01 0.33095219012E+01 0.31397213798E+01 0.30238842117E+01 0.29652465141E+01
 0.29652016750E+01 0.30237637669E+01 0.31395648479E+01 0.33093840657E+01 0.35270117241E+01
 0.37816782547E+01 0.40570286236E+01 0.43318307681E+01 0.45828242446E+01 0.47887557943E+01
 0.49337074560E+01 0.50081963089E+01 0.50081685255E+01 0.49336277609E+01 0.47886365958E+01
 0.45826843996E+01 0.43316968406E+01 0.36709650063E+01 0.35303379737E+01 0.34081303999E+01
 0.33095141578E+01 0.32372263815E+01 0.31929987054E+01 0.31780776298E+01 0.31929569638E+01
 0.32371393620E+01 0.33093840657E+01 0.34079763489E+01 0.35301969405E+01 0.36708827294E+01
 0.38211083135E+01 0.39683825504E+01 0.40988049130E+01 0.42001051869E+01 0.42637843937E+01
 0.42854025433E+01 0.42636806690E+01 0.41999379627E+01 0.40986372971E+01 0.39682757666E+01
 0.38210974746E+01 0.35413212538E+01 0.35303294380E+01 0.35270555348E+01 0.35280638481E+01
 0.35301713289E+01 0.35315548423E+01 0.35315800117E+01 0.35302255441E+01 0.35280950753E+01
 0.35270117241E+01 0.35301969405E+01 0.35411409708E+01 0.35615043376E+01 0.35895546688E+01
 0.36204818066E+01 0.36484613074E+01 0.36689239109E+01 0.36794978844E+01 0.36794529535E+01
 0.36688131126E+01 0.36483456525E+01 0.36204324661E+01 0.35896136202E+01 0.35616566193E+01
 0.36709420420E+01 0.37816293502E+01 0.38825421324E+01 0.39628106580E+01 0.40141652462E+01
 0.40318255667E+01 0.40142685738E+01 0.39629677860E+01 0.38826776574E+01 0.37816782547E+01
 0.36708827294E+01 0.35615043376E+01 0.34623668725E+01 0.33785188453E+01 0.33118948868E+01
 0.32631696843E+01 0.32331810073E+01 0.32230062653E+01 0.32331712240E+01 0.32631762197E+01
 0.33119511053E+01 0.33786370975E+01 0.34625225771E+01 0.35616419891E+01 0.40569022657E+01
 0.42775692847E+01 0.44631255438E+01 0.45966036136E+01 0.46662728552E+01 0.46663225160E+01
 0.45967385506E+01 0.44633077787E+01 0.42777486845E+01 0.40570286236E+01 0.38211083135E+01
 0.35895546688E+01 0.33785188453E+01 0.31994443966E+01 0.30596687289E+01 0.29638802853E+01
 0.29151686647E+01 0.29151979631E+01 0.29639669818E+01 0.30598034894E+01 0.31995983585E+01
 0.33786470375E+01 0.35896121007E+01 0.38210702359E+01 0.46821457420E+01 0.49901584625E+01
 0.52295936151E+01 0.53809548371E+01 0.54326765191E+01 0.53809945429E+01 0.52296747783E+01
 0.49902789964E+01 0.46822935114E+01 0.43318307681E+01 0.39683825504E+01 0.36204818066E+01
 0.33118948868E+01 0.30596687289E+01 0.28743303624E+01 0.27614886478E+01 0.27236714129E+01
 0.27615705542E+01 0.28744595646E+01 0.30597892960E+01 0.33119543085E+01 0.36204532502E+01
 0.39682757666E+01 0.43316831275E+01 0.54962730763E+01 0.58505904174E+01 0.60954318007E+01
 0.62178057379E+01 0.62177835359E+01 0.60953784670E+01 0.58505421992E+01 0.54962747408E+01
 0.50619459345E+01 0.45828242446E+01 0.40988049130E+01 0.36484613074E+01 0.32631696843E+01
 0.29638802853E+01 0.27614886478E+01 0.26599353189E+01 0.26599650627E+01 0.27615550865E+01
 0.29639289436E+01 0.32631503958E+01 0.36483596753E+01 0.40986546795E+01 0.45826859191E+01
 0.50618687113E+01 0.63740180520E+01 0.66619697267E+01 0.68118437575E+01 0.68563550383E+01
 0.68117315974E+01 0.66617986975E+01 0.63738654213E+01 0.59354339757E+01 0.53851754818E+01
 0.47887557943E+01 0.42001051869E+01 0.36689239109E+01 0.32331810073E+01 0.29151686647E+01
 0.27236714129E+01 0.26599650627E+01 0.27236738439E+01 0.29151492984E+01 0.32331147404E+01
 0.36688085225E+01 0.41999710524E+01 0.47886511681E+01 0.53851484235E+01 0.59355079577E+01
 0.69473824402E+01 0.70115238112E+01 0.70061402276E+01 0.70060770797E+01 0.70113651619E+01
 0.69471941586E+01 0.67146263901E+01 0.62611949854E+01 0.56284681184E+01 0.49337074560E+01
 0.42637843937E+01 0.36794978844E+01 0.32230062653E+01 0.29151979631E+01 0.27615705542E+01
 0.27615550865E+01 0.29151492984E+01 0.32229268171E+01 0.36794066691E+01 0.42637130640E+01
 0.49336811363E+01 0.56285014381E+01 0.62612918162E+01 0.67147827270E+01 0.67820861412E+01
 0.65572697821E+01 0.64573177837E+01 0.65572257176E+01 0.67820013765E+01 0.69488407369E+01
 0.68698257952E+01 0.64577642880E+01 0.57774157228E+01 0.50081963089E+01 0.42854025433E+01
 0.36794529535E+01 0.32331712240E+01 0.29639669818E+01 0.28744595646E+01 0.29639289436E+01
 0.32331147404E+01 0.36794066691E+01 0.42853909243E+01 0.50082309836E+01 0.57774961307E+01
 0.64578769063E+01 0.68699518208E+01 0.69489557429E+01 0.56618935034E+01 0.52418350068E+01
 0.52418540430E+01 0.56619276613E+01 0.62859049532E+01 0.67908262457E+01 0.69069218191E+01
 0.65447280554E+01 0.58269884375E+01 0.50081685255E+01 0.42636806690E+01 0.36688131126E+01
 0.32631762197E+01 0.30598034894E+01 0.30597892960E+01 0.32631503958E+01 0.36688085225E+01
 0.42637130640E+01 0.50082309836E+01 0.58270674969E+01 0.65448132981E+01 0.69069978521E+01