   1   1   0   0
  0.1852200E+02  0.2969849E-09  0.2969849E-09  0.2969849E-09  0.5000000E-15
  1.000000000000000E-004
  CAR 
 fcc Si                                  
     31.64352809     -6.90745212  301      7.13781678      1.00000000
     -6.907  0.0000E+00  0.0000E+00
     -6.779  0.0000E+00  0.0000E+00
     -6.650  0.0000E+00  0.0000E+00
     -6.522  0.0000E+00  0.0000E+00
     -6.393  0.0000E+00  0.0000E+00
     -6.265  0.0000E+00  0.0000E+00
     -6.136  0.0000E+00  0.0000E+00
     -6.008  0.0000E+00  0.0000E+00
     -5.879  0.0000E+00  0.0000E+00
     -5.751  0.0000E+00  0.0000E+00
     -5.622  0.2271E-12  0.2919E-13
     -5.494  0.9698E-08  0.1246E-08
     -5.365  0.1719E-04  0.2210E-05
     -5.237  0.1433E-02  0.1863E-03
     -5.108  0.8641E-02  0.1297E-02
     -4.980  0.4093E-01  0.6556E-02
     -4.851  0.9544E-01  0.1882E-01
     -4.723  0.3757E-01  0.2365E-01
     -4.594  0.8078E-01  0.3403E-01
     -4.466  0.1203E+00  0.4948E-01
     -4.337  0.2265E+00  0.7859E-01
     -4.209  0.7801E-01  0.8862E-01
     -4.080  0.3603E-01  0.9325E-01
     -3.952  0.8358E-01  0.1040E+00
     -3.823  0.2983E+00  0.1423E+00
     -3.695  0.2049E+00  0.1686E+00
     -3.566  0.1207E+00  0.1842E+00
     -3.438  0.1893E+00  0.2085E+00
     -3.309  0.2424E+00  0.2396E+00
     -3.181  0.1093E+00  0.2537E+00
     -3.052  0.4525E-01  0.2595E+00
     -2.924  0.1237E+00  0.2754E+00
     -2.795  0.4187E+00  0.3292E+00
     -2.667  0.4194E+00  0.3831E+00
     -2.538  0.1083E+00  0.3970E+00
     -2.410  0.1938E+00  0.4219E+00
     -2.281  0.2444E+00  0.4533E+00
     -2.153  0.2915E+00  0.4908E+00
     -2.024  0.7345E-01  0.5002E+00
     -1.896  0.7656E-01  0.5100E+00
     -1.767  0.3048E+00  0.5492E+00
     -1.639  0.4554E+00  0.6077E+00
     -1.510  0.1783E+00  0.6306E+00
     -1.382  0.3848E+00  0.6801E+00
     -1.253  0.4682E+00  0.7403E+00
     -1.125  0.4118E+00  0.7932E+00
     -0.996  0.4212E-01  0.7986E+00
     -0.868  0.5417E-01  0.8056E+00
     -0.739  0.2681E+00  0.8400E+00
     -0.611  0.4594E+00  0.8990E+00
     -0.482  0.1736E+00  0.9213E+00
     -0.354  0.3177E+00  0.9622E+00
     -0.225  0.5009E+00  0.1027E+01
     -0.097  0.4427E+00  0.1083E+01
      0.032  0.8744E-01  0.1095E+01
      0.160  0.3729E+00  0.1143E+01
      0.289  0.7429E+00  0.1238E+01
      0.417  0.6922E+00  0.1327E+01
      0.546  0.1144E+00  0.1342E+01
      0.674  0.1960E-01  0.1344E+01
      0.803  0.3283E+00  0.1386E+01
      0.931  0.4468E+00  0.1444E+01
      1.060  0.5540E-01  0.1451E+01
      1.188  0.2046E+00  0.1477E+01
      1.317  0.7244E+00  0.1570E+01
      1.445  0.4761E+00  0.1631E+01
      1.574  0.8854E-01  0.1643E+01
      1.702  0.3601E+00  0.1689E+01
      1.831  0.4690E+00  0.1749E+01
      1.959  0.3163E+00  0.1790E+01
      2.088  0.2089E+00  0.1817E+01
      2.216  0.6514E-01  0.1825E+01
      2.345  0.4771E+00  0.1887E+01
      2.473  0.5042E+00  0.1951E+01
      2.602  0.2217E+00  0.1980E+01
      2.730  0.2073E+00  0.2006E+01
      2.859  0.3814E+00  0.2055E+01
      2.987  0.5485E+00  0.2126E+01
      3.116  0.6919E+00  0.2215E+01
      3.244  0.4077E+00  0.2267E+01
      3.373  0.1139E+00  0.2282E+01
      3.501  0.1863E-01  0.2284E+01
      3.630  0.1696E+00  0.2306E+01
      3.758  0.3870E+00  0.2356E+01
      3.887  0.6740E+00  0.2442E+01
      4.015  0.5449E+00  0.2512E+01
      4.144  0.3562E+00  0.2558E+01
      4.272  0.6278E+00  0.2639E+01
      4.401  0.5534E+00  0.2710E+01
      4.529  0.5354E+00  0.2779E+01
      4.658  0.4469E+00  0.2836E+01
      4.786  0.2679E+00  0.2871E+01
      4.915  0.2759E+00  0.2906E+01
      5.043  0.5776E+00  0.2980E+01
      5.172  0.6772E+00  0.3067E+01
      5.300  0.6214E+00  0.3147E+01
      5.429  0.1666E+00  0.3169E+01
      5.557  0.1271E+00  0.3185E+01
      5.686  0.3941E+00  0.3236E+01
      5.814  0.5343E+00  0.3304E+01
      5.943  0.5804E+00  0.3379E+01
      6.071  0.3267E+00  0.3421E+01
      6.200  0.7658E+00  0.3519E+01
      6.328  0.5669E+00  0.3592E+01
      6.457  0.2504E+00  0.3624E+01
      6.585  0.4398E+00  0.3681E+01
      6.714  0.9777E+00  0.3806E+01
      6.842  0.6544E+00  0.3891E+01
      6.971  0.3432E+00  0.3935E+01
      7.099  0.3585E+00  0.3981E+01
      7.228  0.6218E+00  0.4061E+01
      7.356  0.5344E+00  0.4129E+01
      7.485  0.1953E+00  0.4154E+01
      7.613  0.2721E+00  0.4189E+01
      7.742  0.6972E+00  0.4279E+01
      7.870  0.2448E+00  0.4310E+01
      7.999  0.4053E+00  0.4362E+01
      8.127  0.7890E+00  0.4464E+01
      8.256  0.5819E+00  0.4539E+01
      8.384  0.5797E+00  0.4613E+01
      8.513  0.4717E+00  0.4674E+01
      8.641  0.9330E+00  0.4794E+01
      8.770  0.7689E+00  0.4892E+01
      8.898  0.1964E+00  0.4918E+01
      9.027  0.6309E+00  0.4999E+01
      9.155  0.9845E+00  0.5125E+01
      9.284  0.6881E+00  0.5214E+01
      9.412  0.7510E+00  0.5310E+01
      9.541  0.2999E+00  0.5349E+01
      9.669  0.4458E+00  0.5406E+01
      9.798  0.5469E+00  0.5476E+01
      9.926  0.2891E+00  0.5513E+01
     10.055  0.4340E+00  0.5569E+01
     10.183  0.8873E+00  0.5683E+01
     10.312  0.5282E+00  0.5751E+01
     10.440  0.1108E+01  0.5894E+01
     10.569  0.1429E+01  0.6077E+01
     10.697  0.7715E+00  0.6176E+01
     10.826  0.4706E+00  0.6237E+01
     10.955  0.3962E+00  0.6288E+01
     11.083  0.4174E+00  0.6341E+01
     11.212  0.4946E+00  0.6405E+01
     11.340  0.4180E+00  0.6459E+01
     11.469  0.2156E+00  0.6486E+01
     11.597  0.2353E+00  0.6517E+01
     11.726  0.8121E+00  0.6621E+01
     11.854  0.1096E+01  0.6762E+01
     11.983  0.6254E+00  0.6842E+01
     12.111  0.5391E+00  0.6911E+01
     12.240  0.4086E+00  0.6964E+01
     12.368  0.2472E+00  0.6996E+01
     12.497  0.5307E+00  0.7064E+01
     12.625  0.9060E+00  0.7180E+01
     12.754  0.6468E+00  0.7263E+01
     12.882  0.6934E+00  0.7352E+01
     13.011  0.5393E+00  0.7422E+01
     13.139  0.4224E+00  0.7476E+01
     13.268  0.4248E+00  0.7531E+01
     13.396  0.2210E+00  0.7559E+01
     13.525  0.4015E+00  0.7611E+01
     13.653  0.8271E+00  0.7717E+01
     13.782  0.9176E+00  0.7835E+01
     13.910  0.6613E+00  0.7920E+01
     14.039  0.4185E+00  0.7974E+01
     14.167  0.2026E+00  0.8000E+01
     14.296  0.2959E+00  0.8038E+01
     14.424  0.4037E+00  0.8090E+01
     14.553  0.5297E+00  0.8158E+01
     14.681  0.9561E+00  0.8280E+01
     14.810  0.8243E+00  0.8386E+01
     14.938  0.5029E+00  0.8451E+01
     15.067  0.6000E+00  0.8528E+01
     15.195  0.6278E+00  0.8609E+01
     15.324  0.8222E+00  0.8714E+01
     15.452  0.6060E+00  0.8792E+01
     15.581  0.4664E+00  0.8852E+01
     15.709  0.3317E+00  0.8895E+01
     15.838  0.5853E+00  0.8970E+01
     15.966  0.7253E+00  0.9063E+01
     16.095  0.3538E+00  0.9109E+01
     16.223  0.1682E+00  0.9130E+01
     16.352  0.2924E+00  0.9168E+01
     16.480  0.6821E+00  0.9256E+01
     16.609  0.3948E+00  0.9306E+01
     16.737  0.3421E+00  0.9350E+01
     16.866  0.2853E+00  0.9387E+01
     16.994  0.7785E+00  0.9487E+01
     17.123  0.8173E+00  0.9592E+01
     17.251  0.1503E+01  0.9785E+01
     17.380  0.9615E+00  0.9909E+01
     17.508  0.5538E+00  0.9980E+01
     17.637  0.6736E+00  0.1007E+02
     17.765  0.5502E+00  0.1014E+02
     17.894  0.2650E+00  0.1017E+02
     18.022  0.7292E+00  0.1026E+02
     18.151  0.1286E+01  0.1043E+02
     18.279  0.1238E+01  0.1059E+02
     18.408  0.5457E+00  0.1066E+02
     18.536  0.4734E+00  0.1072E+02
     18.665  0.7324E+00  0.1081E+02
     18.793  0.3639E+00  0.1086E+02
     18.922  0.7425E+00  0.1096E+02
     19.050  0.8735E+00  0.1107E+02
     19.179  0.8482E+00  0.1118E+02
     19.307  0.7880E+00  0.1128E+02
     19.436  0.6106E+00  0.1136E+02
     19.564  0.1190E+01  0.1151E+02
     19.693  0.7616E+00  0.1161E+02
     19.821  0.7884E+00  0.1171E+02
     19.950  0.9462E+00  0.1183E+02
     20.078  0.9704E+00  0.1196E+02
     20.207  0.4542E+00  0.1201E+02
     20.335  0.8792E+00  0.1213E+02
     20.464  0.8662E+00  0.1224E+02
     20.592  0.5920E+00  0.1231E+02
     20.721  0.6049E+00  0.1239E+02
     20.849  0.4055E+00  0.1244E+02
     20.978  0.2867E+00  0.1248E+02
     21.106  0.5710E+00  0.1255E+02
     21.235  0.1081E+01  0.1269E+02
     21.363  0.1124E+01  0.1284E+02
     21.492  0.9628E+00  0.1296E+02
     21.620  0.9598E+00  0.1309E+02
     21.749  0.1084E+01  0.1322E+02
     21.877  0.8848E+00  0.1334E+02
     22.006  0.2577E+00  0.1337E+02
     22.134  0.2161E+00  0.1340E+02
     22.263  0.2672E+00  0.1343E+02
     22.391  0.5353E+00  0.1350E+02
     22.520  0.5174E+00  0.1357E+02
     22.648  0.4972E+00  0.1363E+02
     22.777  0.8197E+00  0.1374E+02
     22.905  0.9378E+00  0.1386E+02
     23.034  0.8599E+00  0.1397E+02
     23.162  0.7974E+00  0.1407E+02
     23.291  0.5764E+00  0.1415E+02
     23.419  0.9217E+00  0.1426E+02
     23.548  0.8766E+00  0.1438E+02
     23.676  0.3962E+00  0.1443E+02
     23.805  0.2891E+00  0.1446E+02
     23.933  0.9335E+00  0.1458E+02
     24.062  0.4657E+00  0.1464E+02
     24.190  0.5088E-01  0.1465E+02
     24.319  0.4042E+00  0.1470E+02
     24.447  0.8299E+00  0.1481E+02
     24.576  0.4117E+00  0.1486E+02
     24.704  0.1689E+00  0.1488E+02
     24.833  0.6519E+00  0.1497E+02
     24.961  0.1478E+01  0.1516E+02
     25.090  0.9057E+00  0.1527E+02
     25.218  0.3910E+00  0.1532E+02
     25.347  0.4990E+00  0.1539E+02
     25.475  0.1475E+00  0.1541E+02
     25.604  0.2952E+00  0.1545E+02
     25.732  0.4551E+00  0.1550E+02
     25.861  0.3688E+00  0.1555E+02
     25.989  0.3512E+00  0.1560E+02
     26.118  0.5275E-01  0.1560E+02
     26.246  0.2237E-02  0.1560E+02
     26.375  0.6515E-01  0.1561E+02
     26.503  0.1799E+00  0.1563E+02
     26.632  0.1366E+00  0.1565E+02
     26.760  0.2714E+00  0.1569E+02
     26.889  0.1717E+00  0.1571E+02
     27.017  0.6011E-01  0.1572E+02
     27.146  0.3256E+00  0.1576E+02
     27.274  0.2150E+00  0.1579E+02
     27.403  0.1847E+00  0.1581E+02
     27.531  0.1169E+00  0.1583E+02
     27.660  0.8621E-01  0.1584E+02
     27.788  0.1930E+00  0.1586E+02
     27.917  0.8738E-01  0.1587E+02
     28.045  0.6189E-01  0.1588E+02
     28.174  0.1876E+00  0.1590E+02
     28.302  0.2848E+00  0.1594E+02
     28.431  0.1632E+00  0.1596E+02
     28.559  0.1488E-01  0.1596E+02
     28.688  0.2649E-01  0.1597E+02
     28.816  0.3819E-01  0.1597E+02
     28.945  0.4209E-02  0.1597E+02
     29.073  0.2815E-04  0.1597E+02
     29.202  0.1131E-02  0.1597E+02
     29.330  0.3791E-01  0.1598E+02
     29.459  0.8592E-01  0.1599E+02
     29.587  0.1520E-01  0.1599E+02
     29.716  0.6251E-03  0.1599E+02
     29.844  0.1738E-01  0.1599E+02
     29.973  0.4363E-01  0.1600E+02
     30.101  0.8579E-02  0.1600E+02
     30.230  0.1031E-03  0.1600E+02
     30.358  0.5819E-07  0.1600E+02
     30.487  0.1363E-11  0.1600E+02
     30.616  0.0000E+00  0.1600E+02
     30.744  0.0000E+00  0.1600E+02
     30.873  0.0000E+00  0.1600E+02
     31.001  0.0000E+00  0.1600E+02
     31.130  0.0000E+00  0.1600E+02
     31.258  0.0000E+00  0.1600E+02
     31.387  0.0000E+00  0.1600E+02
     31.515  0.0000E+00  0.1600E+02
     31.644  0.0000E+00  0.1600E+02
