    1    1    1    1
  0.1852200E+02  0.2969848E-09  0.2969848E-09  0.2969848E-09  0.5000000E-15
  1.000000000000000E-004
  CAR 
 fcc Si                                  
      4     56      8
 
  0.0000000E+00  0.0000000E+00  0.0000000E+00  0.7513148E-03
      1         -5.155135   1.000000
      2         15.653844   0.000000
      3         15.653899   0.000000
      4         15.653899   0.000000
      5         18.307667   0.000000
      6         18.307735   0.000000
      7         18.307735   0.000000
      8         23.034990   0.000000
 
  0.9090909E-01  0.2240872E-17  0.2240872E-17  0.6010518E-02
      1         -4.953127   1.000000
      2         13.738958   0.000000
      3         15.251862   0.000000
      4         15.251908   0.000000
      5         18.632327   0.000000
      6         18.917875   0.000000
      7         18.917983   0.000000
      8         23.173626   0.000000
 
  0.1818182E+00 -0.6620486E-17 -0.6620486E-17  0.6010518E-02
      1         -4.349009   1.000000
      2         10.619263   0.000000
      3         14.611701   0.000000
      4         14.611745   0.000000
      5         18.514307   0.000000
      6         19.670677   0.000000
      7         19.670912   0.000000
      8         22.497960   0.000000
 
  0.2727273E+00  0.9498174E-17  0.9498174E-17  0.6010518E-02
      1         -3.349839   1.000000
      2          7.530234   0.000000
      3         14.126987   0.000000
      4         14.127031   0.000000
      5         18.287305   0.000000
      6         19.005982   0.000000
      7         19.006230   0.000000
      8         23.627617   0.000000
 
  0.3636364E+00 -0.1740431E-16  0.1035127E-16  0.6010518E-02
      1         -1.974813   1.000000
      2          4.712332   1.000000
      3         13.855301   0.000000
      4         13.855342   0.000000
      5         18.064284   0.000000
      6         18.064512   0.000000
      7         18.162183   0.000000
      8         22.467021   0.000000
 
  0.4545455E+00 -0.4014345E-16 -0.1238788E-16  0.6010518E-02
      1         -0.333651   1.000000
      2          2.336010   1.000000
      3         13.751114   0.000000
      4         13.751152   0.000000
      5         17.510976   0.000000
      6         17.511187   0.000000
      7         18.122019   0.000000
      8         21.799649   0.000000
 
  0.9090909E-01  0.9090909E-01 -0.5412337E-17  0.4507889E-02
      1         -4.885809   1.000000
      2         14.348750   0.000000
      3         14.348782   0.000000
      4         14.944519   0.000000
      5         17.080570   0.000000
      6         19.940248   0.000000
      7         19.940301   0.000000
      8         21.600939   0.000000
 
  0.1818182E+00  0.9090909E-01 -0.1649414E-16  0.1803156E-01
      1         -4.415686   1.000000
      2         11.787748   0.000000
      3         13.543327   0.000000
      4         14.606507   0.000000
      5         17.210020   0.000000
      6         19.953301   0.000000
      7         20.650082   0.000000
      8         21.046171   0.000000
 
  0.2727273E+00  0.9090909E-01 -0.3576384E-16  0.1803156E-01
      1         -3.547918   1.000000
      2          8.686954   0.000000
      3         13.007804   0.000000
      4         13.931523   0.000000
      5         17.257463   0.000000
      6         19.523704   0.000000
      7         20.814195   0.000000
      8         21.246605   0.000000
 
  0.3636364E+00  0.9090909E-01  0.9498174E-17  0.1803156E-01
      1         -2.295384   1.000000
      2          5.776496   1.000000
      3         12.784120   0.000000
      4         13.246573   0.000000
      5         16.629148   0.000000
      6         19.569237   0.000000
      7         19.772484   0.000000
      8         22.944994   0.000000
 
  0.4545455E+00  0.9090909E-01 -0.1462875E-16  0.1803156E-01
      1         -0.710421   1.000000
      2          3.221137   1.000000
      3         12.606453   0.000000
      4         12.868346   0.000000
      5         16.394898   0.000000
      6         18.848365   0.000000
      7         19.477086   0.000000
      8         23.495495   0.000000
 
 -0.4545455E+00  0.9090909E-01 -0.1622079E-16  0.1803156E-01
      1          0.279598   1.000000
      2          1.986135   1.000000
      3         12.098609   0.000000
      4         13.232213   0.000000
      5         16.691134   0.000000
      6         18.272311   0.000000
      7         19.350024   0.000000
      8         23.406995   0.000000
 
 -0.3636364E+00  0.9090909E-01  0.1377566E-16  0.1803156E-01
      1         -1.267050   1.000000
      2          4.022976   1.000000
      3         11.825016   0.000000
      4         13.815715   0.000000
      5         17.451913   0.000000
      6         18.150594   0.000000
      7         19.258751   0.000000
      8         23.840473   0.000000
 
 -0.2727273E+00  0.9090909E-01 -0.1173905E-16  0.1803156E-01
      1         -2.754409   1.000000
      2          6.716773   1.000000
      3         11.844286   0.000000
      4         14.519535   0.000000
      5         18.525707   0.000000
      6         18.561575   0.000000
      7         19.249695   0.000000
      8         22.975238   0.000000
 
 -0.1818182E+00  0.9090909E-01 -0.9498174E-17  0.1803156E-01
      1         -3.881148   1.000000
      2          9.716914   0.000000
      3         12.185149   0.000000
      4         15.219364   0.000000
      5         19.177486   0.000000
      6         19.210489   0.000000
      7         19.832071   0.000000
      8         21.173015   0.000000
 
 -0.9090909E-01  0.9090909E-01 -0.4481744E-17  0.9015778E-02
      1         -4.617023   1.000000
      2         12.738979   0.000000
      3         12.936830   0.000000
      4         15.651144   0.000000
      5         18.835155   0.000000
      6         18.937828   0.000000
      7         20.123095   0.000000
      8         21.615232   0.000000
 
  0.1818182E+00  0.1818182E+00 -0.1637579E-16  0.4507889E-02
      1         -4.080316   1.000000
      2         12.614787   0.000000
      3         12.614815   0.000000
      4         13.183645   0.000000
      5         15.217143   0.000000
      6         17.902810   0.000000
      7         22.592209   0.000000
      8         22.592257   0.000000
 
  0.2727273E+00  0.1818182E+00 -0.1857581E-16  0.1803156E-01
      1         -3.346001   1.000000
      2         10.088674   0.000000
      3         11.975758   0.000000
      4         12.489593   0.000000
      5         15.308634   0.000000
      6         17.087029   0.000000
      7         23.075787   0.000000
      8         23.286486   0.000000
 
  0.3636364E+00  0.1818182E+00 -0.1078382E-16  0.1803156E-01
      1         -2.222112   1.000000
      2          7.174042   0.304219
      3         11.408522   0.000000
      4         11.667534   0.000000
      5         14.991604   0.000000
      6         18.610695   0.000000
      7         22.174374   0.000000
      8         23.315007   0.000000
 
  0.4545455E+00  0.1818182E+00 -0.1825740E-16  0.1803156E-01
      1         -0.738688   1.000000
      2          4.512787   1.000000
      3         10.383332   0.000000
      4         11.697697   0.000000
      5         14.868199   0.000000
      6         20.571390   0.000000
      7         21.161326   0.000000
      8         23.469506   0.000000
 
 -0.4545455E+00  0.1818182E+00  0.5130576E-17  0.1803156E-01
      1          0.803685   1.000000
      2          2.490684   1.000000
      3          9.584394   0.000000
      4         12.059444   0.000000
      5         15.194192   0.000000
      6         20.387203   0.000000
      7         21.391190   0.000000
      8         24.773680   0.000000
 
 -0.3636364E+00  0.1818182E+00 -0.1899635E-16  0.1803156E-01
      1         -0.189552   1.000000
      2          3.730157   1.000000
      3          9.094676   0.000000
      4         12.730102   0.000000
      5         15.950823   0.000000
      6         19.957092   0.000000
      7         21.311318   0.000000
      8         25.164407   0.000000
 
 -0.2727273E+00  0.1818182E+00  0.1238788E-16  0.1803156E-01
      1         -1.768680   1.000000
      2          6.271324   1.000000
      3          8.947709   0.000000
      4         13.653481   0.000000
      5         17.083509   0.000000
      6         19.920576   0.000000
      7         21.029624   0.000000
      8         22.530963   0.000000
 
 -0.1818182E+00  0.1818182E+00  0.1324097E-16  0.9015778E-02
      1         -3.016399   1.000000
      2          9.120398   0.000000
      3          9.190672   0.000000
      4         14.665399   0.000000
      5         18.492660   0.000000
      6         20.278459   0.000000
      7         20.392286   0.000000
      8         20.392465   0.000000
 
  0.2727273E+00  0.2727273E+00 -0.2178813E-16  0.4507889E-02
      1         -2.745757   1.000000
      2         10.565191   0.000000
      3         11.227291   0.000000
      4         11.227318   0.000000
      5         13.679784   0.000000
      6         15.160745   0.000000
      7         25.313908   0.000000
      8         25.313957   0.000000
 
  0.3636364E+00  0.2727273E+00 -0.1961664E-16  0.1803156E-01
      1         -1.754553   1.000000
      2          8.534134   0.000000
      3          9.758385   0.000000
      4         10.810773   0.000000
      5         13.738841   0.000000
      6         15.466778   0.000000
      7         24.876652   0.000000
      8         25.915395   0.000000
 
  0.4545455E+00  0.2727273E+00 -0.3576384E-16  0.1803156E-01
      1         -0.390972   1.000000
      2          6.059738   1.000000
      3          8.272505   0.000000
      4         10.740594   0.000000
      5         13.670687   0.000000
      6         17.718253   0.000000
      7         23.885911   0.000000
      8         25.620583   0.000000
 
 -0.4545455E+00  0.2727273E+00  0.2925750E-16  0.1803156E-01
      1          1.235576   1.000000
      2          3.800481   1.000000
      3          7.203971   0.174750
      4         11.017268   0.000000
      5         13.952175   0.000000
      6         20.386485   0.000000
      7         23.018999   0.000000
      8         24.988794   0.000000
 
 -0.3636364E+00  0.2727273E+00  0.7906134E-17  0.1803156E-01
      1          1.206888   1.000000
      2          3.858584   1.000000
      3          6.515340   1.000000
      4         11.628092   0.000000
      5         14.632448   0.000000
      6         22.394263   0.000000
      7         22.806368   0.000000
      8         24.309443   0.000000
 
 -0.2727273E+00  0.2727273E+00 -0.1899635E-16  0.9015778E-02
      1         -0.412982   1.000000
      2          6.179928   1.000000
      3          6.226595   1.000000
      4         12.541912   0.000000
      5         15.691888   0.000000
      6         21.768718   0.000000
      7         22.730835   0.000000
      8         22.923204   0.000000
 
  0.3636364E+00  0.3636364E+00 -0.2720046E-16  0.4507889E-02
      1         -0.896801   1.000000
      2          7.382662   0.000267
      3         10.282366   0.000000
      4         10.282391   0.000000
      5         12.622886   0.000000
      6         13.651456   0.000000
      7         27.503819   0.000000
      8         27.844905   0.000000
 
  0.4545455E+00  0.3636364E+00 -0.3800471E-16  0.1803156E-01
      1          0.337747   1.000000
      2          5.846255   1.000000
      3          8.442690   0.000000
      4         10.100348   0.000000
      5         12.844851   0.000000
      6         14.622842   0.000000
      7         26.776487   0.000000
      8         28.197380   0.000000
 
 -0.4545455E+00  0.3636364E+00  0.6488316E-18  0.1803156E-01
      1          1.892591   1.000000
      2          4.526235   1.000000
      3          6.187767   1.000000
      4         10.270078   0.000000
      5         13.072982   0.000000
      6         17.256773   0.000000
      7         25.835597   0.000000
      8         27.360820   0.000000
 
 -0.3636364E+00  0.3636364E+00 -0.2347809E-16  0.9015778E-02
      1          2.644169   1.000000
      2          4.132895   1.000000
      3          4.786137   1.000000
      4         10.786310   0.000000
      5         13.658194   0.000000
      6         20.240381   0.000000
      7         24.670646   0.000000
      8         25.876631   0.000000
 
  0.4545455E+00  0.4545455E+00 -0.3816392E-16  0.4507889E-02
      1          1.438600   1.000000
      2          4.253748   1.000000
      3          9.805278   0.000000
      4          9.805303   0.000000
      5         12.095615   0.000000
      6         12.987935   0.000000
      7         28.706736   0.000000
      8         29.891211   0.000000
 
 -0.4545455E+00  0.4545455E+00  0.2477576E-16  0.9015778E-02
      1          2.713614   1.000000
      2          3.103002   1.000000
      3          8.140832   0.000000
      4          9.862322   0.000000
      5         12.556890   0.000000
      6         14.357048   0.000000
      7         28.074176   0.000000
      8         29.372059   0.000000
 
  0.2727273E+00  0.1818182E+00  0.9090909E-01  0.1803156E-01
      1         -3.813604   1.000000
      2         10.931762   0.000000
      3         11.096137   0.000000
      4         14.423550   0.000000
      5         17.186775   0.000000
      6         18.647980   0.000000
      7         21.268691   0.000000
      8         21.834145   0.000000
 
  0.3636364E+00  0.1818182E+00  0.9090909E-01  0.3606311E-01
      1         -2.817407   1.000000
      2          7.996888   0.000000
      3         10.557211   0.000000
      4         13.523169   0.000000
      5         17.234256   0.000000
      6         19.066948   0.000000
      7         20.596758   0.000000
      8         22.339781   0.000000
 
  0.4545455E+00  0.1818182E+00  0.9090909E-01  0.3606311E-01
      1         -1.446387   1.000000
      2          5.206606   1.000000
      3         10.414982   0.000000
      4         12.520267   0.000000
      5         16.939676   0.000000
      6         18.909771   0.000000
      7         21.174710   0.000000
      8         23.101298   0.000000
 
 -0.4545455E+00  0.1818182E+00  0.9090909E-01  0.3606311E-01
      1          0.190596   1.000000
      2          2.844645   1.000000
      3         10.500777   0.000000
      4         11.817045   0.000000
      5         16.922893   0.000000
      6         18.271443   0.000000
      7         21.543468   0.000000
      8         24.990996   0.000000
 
  0.3636364E+00  0.2727273E+00  0.9090909E-01  0.1803156E-01
      1         -2.483206   1.000000
      2          9.341273   0.000000
      3          9.634423   0.000000
      4         11.693389   0.000000
      5         15.744546   0.000000
      6         16.471802   0.000000
      7         22.709965   0.000000
      8         24.879639   0.000000
 
  0.4545455E+00  0.2727273E+00  0.9090909E-01  0.3606311E-01
      1         -1.238229   1.000000
      2          6.701595   1.000000
      3          9.112694   0.000000
      4         10.560114   0.000000
      5         15.830361   0.000000
      6         18.182632   0.000000
      7         21.723049   0.000000
      8         25.272087   0.000000
 
 -0.4545455E+00  0.2727273E+00  0.9090909E-01  0.3606311E-01
      1          0.336662   1.000000
      2          4.206356   1.000000
      3          8.636729   0.000000
      4         10.084160   0.000000
      5         15.947958   0.000000
      6         19.997298   0.000000
      7         21.472620   0.000000
      8         24.922330   0.000000
 
 -0.3636364E+00  0.2727273E+00  0.9090909E-01  0.3606311E-01
      1          1.315946   1.000000
      2          2.996984   1.000000
      3          8.051948   0.000000
      4         10.412164   0.000000
      5         16.418867   0.000000
      6         19.757389   0.000000
      7         23.340538   0.000000
      8         23.936173   0.000000
 
 -0.2727273E+00  0.2727273E+00  0.9090909E-01  0.3606311E-01
      1         -0.223710   1.000000
      2          5.019027   1.000000
      3          7.692971   0.000000
      4         11.219908   0.000000
      5         17.187746   0.000000
      6         19.488632   0.000000
      7         21.733764   0.000000
      8         24.428626   0.000000
 
 -0.1818182E+00  0.2727273E+00  0.9090909E-01  0.1803156E-01
      1         -1.699428   1.000000
      2          7.639055   0.000000
      3          7.693137   0.000000
      4         12.347390   0.000000
      5         18.028607   0.000000
      6         19.087437   0.000000
      7         20.071303   0.000000
      8         23.893466   0.000000
 
  0.4545455E+00  0.3636364E+00  0.9090909E-01  0.1803156E-01
      1         -0.641340   1.000000
      2          7.330601   0.003202
      3          8.642182   0.000000
      4          9.347803   0.000000
      5         14.752821   0.000000
      6         15.277033   0.000000
      7         24.463339   0.000000
      8         27.714692   0.000000
 
 -0.4545455E+00  0.3636364E+00  0.9090909E-01  0.3606311E-01
      1          0.826191   1.000000
      2          5.611848   1.000000
      3          6.951490   0.995794
      4          8.998081   0.000000
      5         15.043172   0.000000
      6         17.529239   0.000000
      7         23.533405   0.000000
      8         27.116947   0.000000
 
 -0.3636364E+00  0.3636364E+00  0.9090909E-01  0.3606311E-01
      1          2.329707   1.000000
      2          3.897719   1.000000
      3          5.839326   1.000000
      4          9.350544   0.000000
      5         15.456141   0.000000
      6         20.294405   0.000000
      7         22.828356   0.000000
      8         24.853770   0.000000
 
 -0.2727273E+00  0.3636364E+00  0.9090909E-01  0.1803156E-01
      1          1.316636   1.000000
      2          5.158580   1.000000
      3          5.281854   1.000000
      4         10.110841   0.000000
      5         16.208885   0.000000
      6         21.760512   0.000000
      7         22.009111   0.000000
      8         23.837195   0.000000
 
 -0.4545455E+00  0.4545455E+00  0.9090909E-01  0.1803156E-01
      1          1.676533   1.000000
      2          4.454896   1.000000
      3          8.141246   0.000000
      4          8.552260   0.000000
      5         14.245115   0.000000
      6         14.727323   0.000000
      7         26.425340   0.000000
      8         28.313345   0.000000
 
 -0.3636364E+00  0.4545455E+00  0.9090909E-01  0.1803156E-01
      1          3.034030   1.000000
      2          3.617699   1.000000
      3          6.119025   1.000000
      4          8.673103   0.000000
      5         14.783115   0.000000
      6         17.303788   0.000000
      7         25.586120   0.000000
      8         25.688440   0.000000
 
 -0.4545455E+00  0.3636364E+00  0.1818182E+00  0.1803156E-01
      1          0.114190   1.000000
      2          6.471004   1.000000
      3          6.680355   1.000000
      4          9.170394   0.000000
      5         17.924431   0.000000
      6         18.156655   0.000000
      7         20.817715   0.000000
      8         26.659746   0.000000
 
 -0.3636364E+00  0.3636364E+00  0.1818182E+00  0.3606311E-01
      1          1.726267   1.000000
      2          4.310373   1.000000
      3          6.679605   1.000000
      4          8.296569   0.000000
      5         18.025549   0.000000
      6         19.538070   0.000000
      7         21.346795   0.000000
      8         24.333498   0.000000
 
 -0.3636364E+00  0.4545455E+00  0.1818182E+00  0.1803156E-01
      1          2.347756   1.000000
      2          4.903993   1.000000
      3          6.171644   1.000000
      4          7.133312   0.525398
      5         17.657655   0.000000
      6         17.677030   0.000000
      7         22.664670   0.000000
      8         24.948396   0.000000
 
 -0.2727273E+00  0.4545455E+00  0.1818182E+00  0.1803156E-01
      1          3.117929   1.000000
      2          4.645681   1.000000
      3          5.052125   1.000000
      4          7.259652   0.042444
      5         18.069649   0.000000
      6         20.315469   0.000000
      7         21.574854   0.000000
      8         22.774128   0.000000
