       N       E                     dE             d eps       ncg     rms          rms(c)
DAV:   1    -0.355010418413E+01   -0.35501E+01   -0.10799E+03  1008   0.208E+02
DAV:   2    -0.470238743356E+01   -0.11523E+01   -0.10986E+01  1432   0.176E+01
DAV:   3    -0.470912540169E+01   -0.67380E-02   -0.67354E-02  1000   0.128E+00
DAV:   4    -0.470913061729E+01   -0.52156E-05   -0.52160E-05  1464   0.331E-02
DAV:   5    -0.470913061877E+01   -0.14815E-08   -0.17845E-08   992   0.412E-04    0.198E+00
DAV:   6    -0.469903693256E+01    0.10094E-01   -0.47175E-03   960   0.293E-01    0.107E+00
DAV:   7    -0.469373656258E+01    0.53004E-02   -0.88646E-03   952   0.400E-01    0.123E-01
DAV:   8    -0.469373004579E+01    0.65168E-05   -0.41808E-05  1208   0.477E-02
   1 F= -.46937300E+01 E0= -.46922884E+01  d E =-.288335E-02
