<?xml version="1.0" encoding="ISO-8859-1"?>
<modeling>
 <generator>
  <i name="program" type="string">vasp </i>
  <i name="version" type="string">6.3.0  </i>
  <i name="subversion" type="string">20Jan22 (build Feb 01 2022 16:52:37) complex                          parallel </i>
  <i name="platform" type="string">TETRA_NSC1 </i>
  <i name="date" type="string">2022 02 22 </i>
  <i name="time" type="string">16:07:20 </i>
 </generator>
 <incar>
  <i type="string" name="SYSTEM">fcc Si</i>
  <i type="int" name="ISTART">     0</i>
  <i type="int" name="ICHARG">     2</i>
  <i name="ENCUT">    240.00000000</i>
  <i type="int" name="ISMEAR">     0</i>
  <i name="SIGMA">      0.10000000</i>
 </incar>
 <primitive_cell>
  <structure name="primitive_cell" >
   <crystal>
    <varray name="basis" >
     <v>       2.10000000       2.10000000       0.00000000 </v>
     <v>       0.00000000       2.10000000       2.10000000 </v>
     <v>       2.10000000       0.00000000       2.10000000 </v>
    </varray>
    <i name="volume">     18.52200000 </i>
    <varray name="rec_basis" >
     <v>       0.23809524       0.23809524      -0.23809524 </v>
     <v>      -0.23809524       0.23809524       0.23809524 </v>
     <v>       0.23809524      -0.23809524       0.23809524 </v>
    </varray>
   </crystal>
   <varray name="positions" >
    <v>       0.00000000       0.00000000       0.00000000 </v>
   </varray>
  </structure>
  <varray name="primitive_index" >
   <v type="int" >        1 </v>
  </varray>
 </primitive_cell>
 <kpoints>
  <generation param="Monkhorst-Pack">
   <v type="int" name="divisions">      11       11       11 </v>
   <v name="usershift">      0.00000000       0.00000000       0.00000000 </v>
   <v name="genvec1">      0.09090909       0.00000000       0.00000000 </v>
   <v name="genvec2">      0.00000000       0.09090909      -0.00000000 </v>
   <v name="genvec3">     -0.00000000      -0.00000000       0.09090909 </v>
   <v name="shift">      0.00000000       0.00000000       0.00000000 </v>
  </generation>
  <varray name="kpointlist" >
   <v>       0.00000000       0.00000000       0.00000000 </v>
   <v>       0.09090909       0.00000000       0.00000000 </v>
   <v>       0.18181818      -0.00000000      -0.00000000 </v>
   <v>       0.27272727       0.00000000       0.00000000 </v>
   <v>       0.36363636      -0.00000000       0.00000000 </v>
   <v>       0.45454545      -0.00000000      -0.00000000 </v>
   <v>       0.09090909       0.09090909      -0.00000000 </v>
   <v>       0.18181818       0.09090909      -0.00000000 </v>
   <v>       0.27272727       0.09090909      -0.00000000 </v>
   <v>       0.36363636       0.09090909       0.00000000 </v>
   <v>       0.45454545       0.09090909      -0.00000000 </v>
   <v>      -0.45454545       0.09090909      -0.00000000 </v>
   <v>      -0.36363636       0.09090909       0.00000000 </v>
   <v>      -0.27272727       0.09090909      -0.00000000 </v>
   <v>      -0.18181818       0.09090909      -0.00000000 </v>
   <v>      -0.09090909       0.09090909      -0.00000000 </v>
   <v>       0.18181818       0.18181818      -0.00000000 </v>
   <v>       0.27272727       0.18181818      -0.00000000 </v>
   <v>       0.36363636       0.18181818      -0.00000000 </v>
   <v>       0.45454545       0.18181818      -0.00000000 </v>
   <v>      -0.45454545       0.18181818       0.00000000 </v>
   <v>      -0.36363636       0.18181818      -0.00000000 </v>
   <v>      -0.27272727       0.18181818       0.00000000 </v>
   <v>      -0.18181818       0.18181818       0.00000000 </v>
   <v>       0.27272727       0.27272727      -0.00000000 </v>
   <v>       0.36363636       0.27272727      -0.00000000 </v>
   <v>       0.45454545       0.27272727      -0.00000000 </v>
   <v>      -0.45454545       0.27272727       0.00000000 </v>
   <v>      -0.36363636       0.27272727       0.00000000 </v>
   <v>      -0.27272727       0.27272727      -0.00000000 </v>
   <v>       0.36363636       0.36363636      -0.00000000 </v>
   <v>       0.45454545       0.36363636      -0.00000000 </v>
   <v>      -0.45454545       0.36363636       0.00000000 </v>
   <v>      -0.36363636       0.36363636      -0.00000000 </v>
   <v>       0.45454545       0.45454545      -0.00000000 </v>
   <v>      -0.45454545       0.45454545       0.00000000 </v>
   <v>       0.27272727       0.18181818       0.09090909 </v>
   <v>       0.36363636       0.18181818       0.09090909 </v>
   <v>       0.45454545       0.18181818       0.09090909 </v>
   <v>      -0.45454545       0.18181818       0.09090909 </v>
   <v>       0.36363636       0.27272727       0.09090909 </v>
   <v>       0.45454545       0.27272727       0.09090909 </v>
   <v>      -0.45454545       0.27272727       0.09090909 </v>
   <v>      -0.36363636       0.27272727       0.09090909 </v>
   <v>      -0.27272727       0.27272727       0.09090909 </v>
   <v>      -0.18181818       0.27272727       0.09090909 </v>
   <v>       0.45454545       0.36363636       0.09090909 </v>
   <v>      -0.45454545       0.36363636       0.09090909 </v>
   <v>      -0.36363636       0.36363636       0.09090909 </v>
   <v>      -0.27272727       0.36363636       0.09090909 </v>
   <v>      -0.45454545       0.45454545       0.09090909 </v>
   <v>      -0.36363636       0.45454545       0.09090909 </v>
   <v>      -0.45454545       0.36363636       0.18181818 </v>
   <v>      -0.36363636       0.36363636       0.18181818 </v>
   <v>      -0.36363636       0.45454545       0.18181818 </v>
   <v>      -0.27272727       0.45454545       0.18181818 </v>
  </varray>
  <varray name="weights" >
   <v>       0.00075131 </v>
   <v>       0.00601052 </v>
   <v>       0.00601052 </v>
   <v>       0.00601052 </v>
   <v>       0.00601052 </v>
   <v>       0.00601052 </v>
   <v>       0.00450789 </v>
   <v>       0.01803156 </v>
   <v>       0.01803156 </v>
   <v>       0.01803156 </v>
   <v>       0.01803156 </v>
   <v>       0.01803156 </v>
   <v>       0.01803156 </v>
   <v>       0.01803156 </v>
   <v>       0.01803156 </v>
   <v>       0.00901578 </v>
   <v>       0.00450789 </v>
   <v>       0.01803156 </v>
   <v>       0.01803156 </v>
   <v>       0.01803156 </v>
   <v>       0.01803156 </v>
   <v>       0.01803156 </v>
   <v>       0.01803156 </v>
   <v>       0.00901578 </v>
   <v>       0.00450789 </v>
   <v>       0.01803156 </v>
   <v>       0.01803156 </v>
   <v>       0.01803156 </v>
   <v>       0.01803156 </v>
   <v>       0.00901578 </v>
   <v>       0.00450789 </v>
   <v>       0.01803156 </v>
   <v>       0.01803156 </v>
   <v>       0.00901578 </v>
   <v>       0.00450789 </v>
   <v>       0.00901578 </v>
   <v>       0.01803156 </v>
   <v>       0.03606311 </v>
   <v>       0.03606311 </v>
   <v>       0.03606311 </v>
   <v>       0.01803156 </v>
   <v>       0.03606311 </v>
   <v>       0.03606311 </v>
   <v>       0.03606311 </v>
   <v>       0.03606311 </v>
   <v>       0.01803156 </v>
   <v>       0.01803156 </v>
   <v>       0.03606311 </v>
   <v>       0.03606311 </v>
   <v>       0.01803156 </v>
   <v>       0.01803156 </v>
   <v>       0.01803156 </v>
   <v>       0.01803156 </v>
   <v>       0.03606311 </v>
   <v>       0.01803156 </v>
   <v>       0.01803156 </v>
  </varray>
 </kpoints>
 <parameters>
  <separator name="general" >
   <i type="string" name="SYSTEM">fcc Si</i>
   <i type="logical" name="LCOMPAT"> F  </i>
  </separator>
  <separator name="electronic" >
   <i type="string" name="PREC">normal</i>
   <i name="ENMAX">    240.00000000</i>
   <i name="ENAUG">    322.06900000</i>
   <i name="EDIFF">      0.00010000</i>
   <i type="int" name="IALGO">    38</i>
   <i type="int" name="IWAVPR">    10</i>
   <i type="int" name="NBANDS">     8</i>
   <i type="int" name="NBANDSLOW">    -1</i>
   <i type="int" name="NBANDSHIGH">    -1</i>
   <i name="NELECT">      4.00000000</i>
   <i type="int" name="TURBO">     0</i>
   <i type="int" name="IRESTART">     0</i>
   <i type="int" name="NREBOOT">     0</i>
   <i type="int" name="NMIN">     0</i>
   <i name="EREF">      0.00000000</i>
   <separator name="electronic smearing" >
    <i type="int" name="ISMEAR">     0</i>
    <i name="SIGMA">      0.10000000</i>
    <i name="KSPACING">      0.50000000</i>
    <i type="logical" name="KGAMMA"> T  </i>
    <i type="logical" name="KBLOWUP"> T  </i>
   </separator>
   <separator name="electronic projectors" >
    <i type="logical" name="LREAL"> F  </i>
    <v name="ROPT">      0.00000000</v>
    <i type="int" name="LMAXPAW">  -100</i>
    <i type="int" name="LMAXMIX">     2</i>
    <i type="logical" name="NLSPLINE"> F  </i>
   </separator>
   <separator name="electronic startup" >
    <i type="int" name="ISTART">     0</i>
    <i type="int" name="ICHARG">     2</i>
    <i type="int" name="INIWAV">     1</i>
   </separator>
   <separator name="electronic spin" >
    <i type="int" name="ISPIN">     1</i>
    <i type="logical" name="LNONCOLLINEAR"> F  </i>
    <v name="MAGMOM">      1.00000000</v>
    <i name="NUPDOWN">     -1.00000000</i>
    <i type="logical" name="LSORBIT"> F  </i>
    <v name="SAXIS">      0.00000000      0.00000000      1.00000000</v>
    <i type="logical" name="LSPIRAL"> F  </i>
    <v name="QSPIRAL">      0.00000000      0.00000000      0.00000000</v>
    <i type="logical" name="LZEROZ"> F  </i>
   </separator>
   <separator name="electronic exchange-correlation" >
    <i type="logical" name="LASPH"> F  </i>
    <i type="logical" name="LMETAGGA"> F  </i>
   </separator>
   <separator name="electronic convergence" >
    <i type="int" name="NELM">    60</i>
    <i type="int" name="NELMDL">    -5</i>
    <i type="int" name="NELMIN">     2</i>
    <i name="ENINI">    240.00000000</i>
    <separator name="electronic convergence detail" >
     <i type="logical" name="LDIAG"> T  </i>
     <i type="logical" name="LSUBROT"> F  </i>
     <i name="WEIMIN">      0.00000000</i>
     <i name="EBREAK">      0.00000313</i>
     <i name="DEPER">      0.30000000</i>
     <i type="int" name="NRMM">     4</i>
     <i name="TIME">      0.40000000</i>
    </separator>
   </separator>
   <separator name="electronic mixer" >
    <i name="AMIX">      0.40000000</i>
    <i name="BMIX">      1.00000000</i>
    <i name="AMIN">      0.10000000</i>
    <i name="AMIX_MAG">      1.60000000</i>
    <i name="BMIX_MAG">      1.00000000</i>
    <separator name="electronic mixer details" >
     <i type="int" name="IMIX">     4</i>
     <i type="logical" name="MIXFIRST"> F  </i>
     <i type="int" name="MAXMIX">   -45</i>
     <i name="WC">    100.00000000</i>
     <i type="int" name="INIMIX">     1</i>
     <i type="int" name="MIXPRE">     1</i>
     <i type="int" name="MREMOVE">     5</i>
    </separator>
   </separator>
   <separator name="electronic dipolcorrection" >
    <i type="logical" name="LDIPOL"> F  </i>
    <i type="logical" name="LMONO"> F  </i>
    <i type="int" name="IDIPOL">     0</i>
    <i name="EPSILON">      1.00000000</i>
    <v name="DIPOL">   -100.00000000   -100.00000000   -100.00000000</v>
    <i name="EFIELD">      0.00000000</i>
   </separator>
  </separator>
  <separator name="grids" >
   <i type="int" name="NGX">    12</i>
   <i type="int" name="NGY">    12</i>
   <i type="int" name="NGZ">    12</i>
   <i type="int" name="NGXF">    24</i>
   <i type="int" name="NGYF">    24</i>
   <i type="int" name="NGZF">    24</i>
   <i type="logical" name="ADDGRID"> F  </i>
  </separator>
  <separator name="ionic" >
   <i type="int" name="NSW">     0</i>
   <i type="int" name="IBRION">    -1</i>
   <i type="int" name="MDALGO">     0</i>
   <i type="int" name="ISIF">     2</i>
   <i name="PSTRESS">      0.00000000</i>
   <i name="EDIFFG">      0.00100000</i>
   <i type="int" name="NFREE">     0</i>
   <i name="POTIM">      0.50000000</i>
   <i name="SMASS">     -3.00000000</i>
   <i name="SCALEE">      1.00000000</i>
  </separator>
  <separator name="ionic md" >
   <i name="TEBEG">      0.00010000</i>
   <i name="TEEND">      0.00010000</i>
   <i type="int" name="NBLOCK">     1</i>
   <i type="int" name="KBLOCK">     1</i>
   <i type="int" name="NPACO">   256</i>
   <i name="APACO">     10.00000000</i>
  </separator>
  <separator name="symmetry" >
   <i type="int" name="ISYM">     2</i>
   <i name="SYMPREC">      0.00001000</i>
  </separator>
  <separator name="dos" >
   <i type="int" name="LORBIT">     0</i>
   <v name="RWIGS">     -1.00000000</v>
   <i type="int" name="NEDOS">   301</i>
   <i name="EMIN">     10.00000000</i>
   <i name="EMAX">    -10.00000000</i>
   <i name="EFERMI">      0.00000000</i>
  </separator>
  <separator name="writing" >
   <i type="int" name="NWRITE">     2</i>
   <i type="logical" name="LWAVE"> T  </i>
   <i type="logical" name="LDOWNSAMPLE"> F  </i>
   <i type="logical" name="LCHARG"> T  </i>
   <i type="logical" name="LPARD"> F  </i>
   <i type="logical" name="LVTOT"> F  </i>
   <i type="logical" name="LVHAR"> F  </i>
   <i type="logical" name="LELF"> F  </i>
   <i type="logical" name="LOPTICS"> F  </i>
   <v name="STM">      0.00000000      0.00000000      0.00000000      0.00000000      0.00000000      0.00000000      0.00000000</v>
  </separator>
  <separator name="performance" >
   <i type="int" name="NPAR">     4</i>
   <i type="int" name="NSIM">     4</i>
   <i type="int" name="NBLK">    -1</i>
   <i type="logical" name="LPLANE"> T  </i>
   <i type="logical" name="LSCALAPACK"> T  </i>
   <i type="logical" name="LSCAAWARE"> F  </i>
   <i type="logical" name="LSCALU"> F  </i>
   <i type="logical" name="LASYNC"> F  </i>
   <i type="logical" name="LORBITALREAL"> F  </i>
  </separator>
  <separator name="miscellaneous" >
   <i type="int" name="IDIOT">     3</i>
   <i type="int" name="PHON_NSTRUCT">    -1</i>
   <i type="logical" name="LMUSIC"> F  </i>
   <v name="POMASS">     28.08500000</v>
   <v name="DARWINR">      0.00000000</v>
   <v name="DARWINV">      1.00000000</v>
   <i type="logical" name="LCORR"> T  </i>
  </separator>
  <i type="logical" name="GGA_COMPAT"> T  </i>
  <i type="logical" name="LBERRY"> F  </i>
  <i type="int" name="ICORELEVEL">     0</i>
  <i type="logical" name="LDAU"> F  </i>
  <i type="int" name="I_CONSTRAINED_M">     0</i>
  <separator name="electronic exchange-correlation" >
   <i type="string" name="GGA">--</i>
   <i type="int" name="VOSKOWN">     0</i>
   <i type="logical" name="LHFCALC"> F  </i>
   <i type="string" name="PRECFOCK"></i>
   <i type="logical" name="LSYMGRAD"> F  </i>
   <i type="logical" name="LHFONE"> F  </i>
   <i type="logical" name="LRHFCALC"> F  </i>
   <i type="logical" name="LTHOMAS"> F  </i>
   <i type="logical" name="LMODELHF"> F  </i>
   <i type="logical" name="LFOCKACE"> F  </i>
   <i name="ENCUT4O">     -1.00000000</i>
   <i type="int" name="EXXOEP">     0</i>
   <i type="int" name="FOURORBIT">     0</i>
   <i name="AEXX">      0.00000000</i>
   <i name="HFALPHA">      0.00000000</i>
   <i name="MCALPHA">      0.00000000</i>
   <i name="ALDAX">      1.00000000</i>
   <i name="AGGAX">      1.00000000</i>
   <i name="ALDAC">      1.00000000</i>
   <i name="AGGAC">      1.00000000</i>
   <i type="int" name="NKREDX">     1</i>
   <i type="int" name="NKREDY">     1</i>
   <i type="int" name="NKREDZ">     1</i>
   <i type="logical" name="SHIFTRED"> F  </i>
   <i type="logical" name="ODDONLY"> F  </i>
   <i type="logical" name="EVENONLY"> F  </i>
   <i type="int" name="LMAXFOCK">     0</i>
   <i type="int" name="NMAXFOCKAE">     0</i>
   <i type="logical" name="LFOCKAEDFT"> F  </i>
   <i name="HFSCREEN">      0.00000000</i>
   <i name="HFSCREENC">      0.00000000</i>
   <i type="int" name="NBANDSGWLOW">     0</i>
  </separator>
  <separator name="vdW DFT" >
   <i type="logical" name="LUSE_VDW"> F  </i>
   <i name="Zab_VDW">     -0.84910000</i>
   <i name="PARAM1">      0.12340000</i>
   <i name="PARAM2">      1.00000000</i>
   <i name="PARAM3">      0.00000000</i>
  </separator>
  <separator name="model GW" >
   <i type="int" name="MODEL_GW">     0</i>
   <i name="MODEL_EPS0">     11.11320000</i>
   <i name="MODEL_ALPHA">      1.00000000</i>
  </separator>
  <separator name="linear response parameters" >
   <i type="logical" name="LEPSILON"> F  </i>
   <i type="logical" name="LRPA"> F  </i>
   <i type="logical" name="LNABLA"> F  </i>
   <i type="logical" name="LVEL"> F  </i>
   <i name="CSHIFT">      0.10000000</i>
   <i name="OMEGAMAX">     -1.00000000</i>
   <i name="DEG_THRESHOLD">      0.00200000</i>
   <i name="RTIME">     -0.10000000</i>
   <i name="WPLASMAI">      0.00000000</i>
   <v name="DFIELD">      0.00000000      0.00000000      0.00000000</v>
   <v name="WPLASMA">      0.00000000      0.00000000      0.00000000      0.00000000      0.00000000      0.00000000      0.00000000      0.00000000      0.00000000</v>
  </separator>
  <separator name="orbital magnetization" >
   <i type="logical" name="NUCIND"> F  </i>
   <v name="MAGPOS">      0.00000000      0.00000000      0.00000000</v>
   <i type="logical" name="LNICSALL"> T  </i>
   <i type="logical" name="ORBITALMAG"> F  </i>
   <i type="logical" name="LMAGBLOCH"> F  </i>
   <i type="logical" name="LCHIMAG"> F  </i>
   <i type="logical" name="LGAUGE"> T  </i>
   <i type="int" name="MAGATOM">     0</i>
   <v name="MAGDIPOL">      0.00000000      0.00000000      0.00000000</v>
   <v name="AVECCONST">      0.00000000      0.00000000      0.00000000</v>
  </separator>
  <separator name="response functions" >
   <i type="logical" name="LFINITE_TEMPERATURE"> F  </i>
   <i type="logical" name="LADDER"> F  </i>
   <i type="logical" name="LRPAFORCE"> F  </i>
   <i type="logical" name="LFXC"> F  </i>
   <i type="logical" name="LHARTREE"> T  </i>
   <i type="int" name="IBSE">     0</i>
   <v type="int" name="KPOINT">    -1     0     0     0</v>
   <i type="logical" name="LTCTC"> F  </i>
   <i type="logical" name="LTCTE"> F  </i>
   <i type="logical" name="LTETE"> F  </i>
   <i type="logical" name="LTRIPLET"> F  </i>
   <i type="logical" name="LFXCEPS"> F  </i>
   <i type="logical" name="LFXHEG"> F  </i>
   <i type="int" name="NATURALO">     2</i>
   <i type="logical" name="LHOLEGF"> F  </i>
   <i type="logical" name="L2ORDER"> F  </i>
   <i type="logical" name="LDMP1"> F  </i>
   <i type="logical" name="LMP2LT"> F  </i>
   <i type="logical" name="LSMP2LT"> F  </i>
   <i type="logical" name="LGWLF"> F  </i>
   <i name="ENCUTGW">     -2.00000000</i>
   <i name="ENCUTGWSOFT">     -2.00000000</i>
   <i name="ENCUTLF">     -1.00000000</i>
   <i type="logical" name="LESF_SPLINES"> F  </i>
   <i type="int" name="LMAXMP2">    -1</i>
   <i name="SCISSOR">      0.00000000</i>
   <i type="int" name="NOMEGA">     0</i>
   <i type="int" name="NOMEGAR">     0</i>
   <i type="int" name="NBANDSGW">    -1</i>
   <i type="int" name="NBANDSO">    -1</i>
   <i type="int" name="NBANDSV">    -1</i>
   <i type="int" name="NELMGW">     1</i>
   <i type="int" name="NELMHF">     1</i>
   <i type="int" name="DIM">     3</i>
   <i type="int" name="IESPILON">     4</i>
   <i type="int" name="ANTIRES">     0</i>
   <i name="OMEGAMAX">    -30.00000000</i>
   <i name="OMEGAMIN">    -30.00000000</i>
   <i name="OMEGATL">   -200.00000000</i>
   <i type="int" name="OMEGAGRID">     0</i>
   <i name="CSHIFT">     -0.10000000</i>
   <i type="logical" name="LSELFENERGY"> F  </i>
   <i type="logical" name="LSPECTRAL"> F  </i>
   <i type="logical" name="LSPECTRALGW"> F  </i>
   <i type="logical" name="LSINGLES"> F  </i>
   <i type="logical" name="LFERMIGW"> F  </i>
   <i type="logical" name="ODDONLYGW"> F  </i>
   <i type="logical" name="EVENONLYGW"> F  </i>
   <i type="int" name="NKREDLFX">     1</i>
   <i type="int" name="NKREDLFY">     1</i>
   <i type="int" name="NKREDLFZ">     1</i>
   <i type="int" name="MAXMEM">  2800</i>
   <i type="int" name="TELESCOPE">     0</i>
   <i type="int" name="NTAUPAR">    -1</i>
   <i type="int" name="NOMEGAPAR">    -1</i>
   <i name="DAMP_NEWTON">      0.80000001</i>
   <i name="LAMBDA">      1.00000000</i>
  </separator>
  <separator name="External order field" >
   <i name="OFIELD_KAPPA">      0.00000000</i>
   <v name="OFIELD_K">      0.00000000      0.00000000      0.00000000</v>
   <i name="OFIELD_Q6_NEAR">      0.00000000</i>
   <i name="OFIELD_Q6_FAR">      0.00000000</i>
   <i name="OFIELD_A">      0.00000000</i>
  </separator>
  <separator name="optional k-points parameters" >
   <i type="int" name="KPOINTS_OPT_MODE">     1</i>
   <i type="logical" name="LKPOINTS_OPT"> F  </i>
  </separator>
 </parameters>
 <atominfo>
  <atoms>       1 </atoms>
  <types>       1 </types>
  <array name="atoms" >
   <dimension dim="1">ion</dimension>
   <field type="string">element</field>
   <field type="int">atomtype</field>
   <set>
    <rc><c>Si</c><c>   1</c></rc>
   </set>
  </array>
  <array name="atomtypes" >
   <dimension dim="1">type</dimension>
   <field type="int">atomspertype</field>
   <field type="string">element</field>
   <field>mass</field>
   <field>valence</field>
   <field type="string">pseudopotential</field>
   <set>
    <rc><c>   1</c><c>Si</c><c>     28.08500000</c><c>      4.00000000</c><c>  PAW_PBE Si 05Jan2001                  </c></rc>
   </set>
  </array>
 </atominfo>
 <structure name="initialpos" >
  <crystal>
   <varray name="basis" >
    <v>       2.10000000       2.10000000       0.00000000 </v>
    <v>       0.00000000       2.10000000       2.10000000 </v>
    <v>       2.10000000       0.00000000       2.10000000 </v>
   </varray>
   <i name="volume">     18.52200000 </i>
   <varray name="rec_basis" >
    <v>       0.23809524       0.23809524      -0.23809524 </v>
    <v>      -0.23809524       0.23809524       0.23809524 </v>
    <v>       0.23809524      -0.23809524       0.23809524 </v>
   </varray>
  </crystal>
  <varray name="positions" >
   <v>       0.00000000       0.00000000       0.00000000 </v>
  </varray>
 </structure>
 <calculation>
  <scstep>
   <time name="dav">    0.04    0.04</time>
   <time name="total">    0.05    0.05</time>
   <energy>
    <i name="alphaZ">      1.81746738 </i>
    <i name="ewald">   -125.75435818 </i>
    <i name="hartreedc">     -1.33750533 </i>
    <i name="XCdc">     -9.40946131 </i>
    <i name="pawpsdc">     88.12379961 </i>
    <i name="pawaedc">    -70.53051779 </i>
    <i name="eentropy">     -0.00251880 </i>
    <i name="bandstr">     10.48221365 </i>
    <i name="atom">    103.06077658 </i>
    <i name="e_fr_energy">     -3.55010418 </i>
    <i name="e_wo_entrp">     -3.54758539 </i>
    <i name="e_0_energy">     -3.54884478 </i>
   </energy>
  </scstep>
  <scstep>
   <time name="dav">    0.06    0.06</time>
   <time name="total">    0.06    0.06</time>
   <energy>
    <i name="e_fr_energy">     -4.70238743 </i>
    <i name="e_wo_entrp">     -4.69969727 </i>
    <i name="e_0_energy">     -4.70104235 </i>
   </energy>
  </scstep>
  <scstep>
   <time name="dav">    0.04    0.04</time>
   <time name="total">    0.04    0.04</time>
   <energy>
    <i name="e_fr_energy">     -4.70912540 </i>
    <i name="e_wo_entrp">     -4.70648357 </i>
    <i name="e_0_energy">     -4.70780449 </i>
   </energy>
  </scstep>
  <scstep>
   <time name="dav">    0.06    0.06</time>
   <time name="total">    0.06    0.06</time>
   <energy>
    <i name="e_fr_energy">     -4.70913062 </i>
    <i name="e_wo_entrp">     -4.70648885 </i>
    <i name="e_0_energy">     -4.70780973 </i>
   </energy>
  </scstep>
  <scstep>
   <time name="dav">    0.04    0.04</time>
   <time name="total">    0.04    0.04</time>
   <energy>
    <i name="e_fr_energy">     -4.70913062 </i>
    <i name="e_wo_entrp">     -4.70648885 </i>
    <i name="e_0_energy">     -4.70780973 </i>
   </energy>
  </scstep>
  <scstep>
   <time name="dav">    0.04    0.04</time>
   <time name="total">    0.04    0.04</time>
   <energy>
    <i name="e_fr_energy">     -4.69903693 </i>
    <i name="e_wo_entrp">     -4.69628220 </i>
    <i name="e_0_energy">     -4.69765957 </i>
   </energy>
  </scstep>
  <scstep>
   <time name="dav">    0.03    0.03</time>
   <time name="total">    0.04    0.04</time>
   <energy>
    <i name="e_fr_energy">     -4.69373656 </i>
    <i name="e_wo_entrp">     -4.69085382 </i>
    <i name="e_0_energy">     -4.69229519 </i>
   </energy>
  </scstep>
  <scstep>
   <time name="dav">    0.05    0.05</time>
   <time name="total">    0.05    0.05</time>
   <energy>
    <i name="alphaZ">      1.81746738 </i>
    <i name="ewald">   -125.75435818 </i>
    <i name="hartreedc">     -1.02850952 </i>
    <i name="XCdc">     -9.41020994 </i>
    <i name="pawpsdc">    222.90207357 </i>
    <i name="pawaedc">   -205.28682067 </i>
    <i name="eentropy">     -0.00288335 </i>
    <i name="bandstr">      9.00873409 </i>
    <i name="atom">    103.06077658 </i>
    <i name="e_fr_energy">     -4.69373005 </i>
    <i name="e_wo_entrp">     -4.69084669 </i>
    <i name="e_0_energy">     -4.69228837 </i>
   </energy>
  </scstep>
  <structure>
   <crystal>
    <varray name="basis" >
     <v>       2.10000000       2.10000000       0.00000000 </v>
     <v>       0.00000000       2.10000000       2.10000000 </v>
     <v>       2.10000000       0.00000000       2.10000000 </v>
    </varray>
    <i name="volume">     18.52200000 </i>
    <varray name="rec_basis" >
     <v>       0.23809524       0.23809524      -0.23809524 </v>
     <v>      -0.23809524       0.23809524       0.23809524 </v>
     <v>       0.23809524      -0.23809524       0.23809524 </v>
    </varray>
   </crystal>
   <varray name="positions" >
    <v>       0.00000000       0.00000000       0.00000000 </v>
   </varray>
  </structure>
  <varray name="forces" >
   <v>       0.00000000       0.00000000       0.00000000 </v>
  </varray>
  <varray name="stress" >
   <v>    -129.18177169      -0.00000000       0.00000000 </v>
   <v>      -0.00000000    -129.18177169       0.00000000 </v>
   <v>      -0.00000000       0.00000000    -129.18177169 </v>
  </varray>
  <energy>
   <i name="e_fr_energy">     -4.69373005 </i>
   <i name="e_wo_entrp">     -4.69084669 </i>
   <i name="e_0_energy">     -4.69228837 </i>
  </energy>
  <time name="totalsc">    0.43    0.43</time>
  <eigenvalues>
   <array>
    <dimension dim="1">band</dimension>
    <dimension dim="2">kpoint</dimension>
    <dimension dim="3">spin</dimension>
    <field>eigene</field>
    <field>occ</field>
    <set>
     <set comment="spin 1">
      <set comment="kpoint 1">
       <r>   -5.1551    1.0000 </r>
       <r>   15.6538    0.0000 </r>
       <r>   15.6539    0.0000 </r>
       <r>   15.6539    0.0000 </r>
       <r>   18.3077    0.0000 </r>
       <r>   18.3077    0.0000 </r>
       <r>   18.3077    0.0000 </r>
       <r>   23.0350    0.0000 </r>
      </set>
      <set comment="kpoint 2">
       <r>   -4.9531    1.0000 </r>
       <r>   13.7390    0.0000 </r>
       <r>   15.2519    0.0000 </r>
       <r>   15.2519    0.0000 </r>
       <r>   18.6323    0.0000 </r>
       <r>   18.9179    0.0000 </r>
       <r>   18.9180    0.0000 </r>
       <r>   23.1736    0.0000 </r>
      </set>
      <set comment="kpoint 3">
       <r>   -4.3490    1.0000 </r>
       <r>   10.6193    0.0000 </r>
       <r>   14.6117    0.0000 </r>
       <r>   14.6117    0.0000 </r>
       <r>   18.5143    0.0000 </r>
       <r>   19.6707    0.0000 </r>
       <r>   19.6709    0.0000 </r>
       <r>   22.4980    0.0000 </r>
      </set>
      <set comment="kpoint 4">
       <r>   -3.3498    1.0000 </r>
       <r>    7.5302    0.0000 </r>
       <r>   14.1270    0.0000 </r>
       <r>   14.1270    0.0000 </r>
       <r>   18.2873    0.0000 </r>
       <r>   19.0060    0.0000 </r>
       <r>   19.0062    0.0000 </r>
       <r>   23.6276    0.0000 </r>
      </set>
      <set comment="kpoint 5">
       <r>   -1.9748    1.0000 </r>
       <r>    4.7123    1.0000 </r>
       <r>   13.8553    0.0000 </r>
       <r>   13.8553    0.0000 </r>
       <r>   18.0643    0.0000 </r>
       <r>   18.0645    0.0000 </r>
       <r>   18.1622    0.0000 </r>
       <r>   22.4670    0.0000 </r>
      </set>
      <set comment="kpoint 6">
       <r>   -0.3337    1.0000 </r>
       <r>    2.3360    1.0000 </r>
       <r>   13.7511    0.0000 </r>
       <r>   13.7512    0.0000 </r>
       <r>   17.5110    0.0000 </r>
       <r>   17.5112    0.0000 </r>
       <r>   18.1220    0.0000 </r>
       <r>   21.7996    0.0000 </r>
      </set>
      <set comment="kpoint 7">
       <r>   -4.8858    1.0000 </r>
       <r>   14.3487    0.0000 </r>
       <r>   14.3488    0.0000 </r>
       <r>   14.9445    0.0000 </r>
       <r>   17.0806    0.0000 </r>
       <r>   19.9402    0.0000 </r>
       <r>   19.9403    0.0000 </r>
       <r>   21.6009    0.0000 </r>
      </set>
      <set comment="kpoint 8">
       <r>   -4.4157    1.0000 </r>
       <r>   11.7877    0.0000 </r>
       <r>   13.5433    0.0000 </r>
       <r>   14.6065    0.0000 </r>
       <r>   17.2100    0.0000 </r>
       <r>   19.9533    0.0000 </r>
       <r>   20.6501    0.0000 </r>
       <r>   21.0462    0.0000 </r>
      </set>
      <set comment="kpoint 9">
       <r>   -3.5479    1.0000 </r>
       <r>    8.6870    0.0000 </r>
       <r>   13.0078    0.0000 </r>
       <r>   13.9315    0.0000 </r>
       <r>   17.2575    0.0000 </r>
       <r>   19.5237    0.0000 </r>
       <r>   20.8142    0.0000 </r>
       <r>   21.2466    0.0000 </r>
      </set>
      <set comment="kpoint 10">
       <r>   -2.2954    1.0000 </r>
       <r>    5.7765    1.0000 </r>
       <r>   12.7841    0.0000 </r>
       <r>   13.2466    0.0000 </r>
       <r>   16.6291    0.0000 </r>
       <r>   19.5692    0.0000 </r>
       <r>   19.7725    0.0000 </r>
       <r>   22.9450    0.0000 </r>
      </set>
      <set comment="kpoint 11">
       <r>   -0.7104    1.0000 </r>
       <r>    3.2211    1.0000 </r>
       <r>   12.6065    0.0000 </r>
       <r>   12.8683    0.0000 </r>
       <r>   16.3949    0.0000 </r>
       <r>   18.8484    0.0000 </r>
       <r>   19.4771    0.0000 </r>
       <r>   23.4955    0.0000 </r>
      </set>
      <set comment="kpoint 12">
       <r>    0.2796    1.0000 </r>
       <r>    1.9861    1.0000 </r>
       <r>   12.0986    0.0000 </r>
       <r>   13.2322    0.0000 </r>
       <r>   16.6911    0.0000 </r>
       <r>   18.2723    0.0000 </r>
       <r>   19.3500    0.0000 </r>
       <r>   23.4070    0.0000 </r>
      </set>
      <set comment="kpoint 13">
       <r>   -1.2670    1.0000 </r>
       <r>    4.0230    1.0000 </r>
       <r>   11.8250    0.0000 </r>
       <r>   13.8157    0.0000 </r>
       <r>   17.4519    0.0000 </r>
       <r>   18.1506    0.0000 </r>
       <r>   19.2588    0.0000 </r>
       <r>   23.8405    0.0000 </r>
      </set>
      <set comment="kpoint 14">
       <r>   -2.7544    1.0000 </r>
       <r>    6.7168    1.0000 </r>
       <r>   11.8443    0.0000 </r>
       <r>   14.5195    0.0000 </r>
       <r>   18.5257    0.0000 </r>
       <r>   18.5616    0.0000 </r>
       <r>   19.2497    0.0000 </r>
       <r>   22.9752    0.0000 </r>
      </set>
      <set comment="kpoint 15">
       <r>   -3.8811    1.0000 </r>
       <r>    9.7169    0.0000 </r>
       <r>   12.1851    0.0000 </r>
       <r>   15.2194    0.0000 </r>
       <r>   19.1775    0.0000 </r>
       <r>   19.2105    0.0000 </r>
       <r>   19.8321    0.0000 </r>
       <r>   21.1730    0.0000 </r>
      </set>
      <set comment="kpoint 16">
       <r>   -4.6170    1.0000 </r>
       <r>   12.7390    0.0000 </r>
       <r>   12.9368    0.0000 </r>
       <r>   15.6511    0.0000 </r>
       <r>   18.8352    0.0000 </r>
       <r>   18.9378    0.0000 </r>
       <r>   20.1231    0.0000 </r>
       <r>   21.6152    0.0000 </r>
      </set>
      <set comment="kpoint 17">
       <r>   -4.0803    1.0000 </r>
       <r>   12.6148    0.0000 </r>
       <r>   12.6148    0.0000 </r>
       <r>   13.1836    0.0000 </r>
       <r>   15.2171    0.0000 </r>
       <r>   17.9028    0.0000 </r>
       <r>   22.5922    0.0000 </r>
       <r>   22.5923    0.0000 </r>
      </set>
      <set comment="kpoint 18">
       <r>   -3.3460    1.0000 </r>
       <r>   10.0887    0.0000 </r>
       <r>   11.9758    0.0000 </r>
       <r>   12.4896    0.0000 </r>
       <r>   15.3086    0.0000 </r>
       <r>   17.0870    0.0000 </r>
       <r>   23.0758    0.0000 </r>
       <r>   23.2865    0.0000 </r>
      </set>
      <set comment="kpoint 19">
       <r>   -2.2221    1.0000 </r>
       <r>    7.1740    0.3042 </r>
       <r>   11.4085    0.0000 </r>
       <r>   11.6675    0.0000 </r>
       <r>   14.9916    0.0000 </r>
       <r>   18.6107    0.0000 </r>
       <r>   22.1744    0.0000 </r>
       <r>   23.3150    0.0000 </r>
      </set>
      <set comment="kpoint 20">
       <r>   -0.7387    1.0000 </r>
       <r>    4.5128    1.0000 </r>
       <r>   10.3833    0.0000 </r>
       <r>   11.6977    0.0000 </r>
       <r>   14.8682    0.0000 </r>
       <r>   20.5714    0.0000 </r>
       <r>   21.1613    0.0000 </r>
       <r>   23.4695    0.0000 </r>
      </set>
      <set comment="kpoint 21">
       <r>    0.8037    1.0000 </r>
       <r>    2.4907    1.0000 </r>
       <r>    9.5844    0.0000 </r>
       <r>   12.0594    0.0000 </r>
       <r>   15.1942    0.0000 </r>
       <r>   20.3872    0.0000 </r>
       <r>   21.3912    0.0000 </r>
       <r>   24.7737    0.0000 </r>
      </set>
      <set comment="kpoint 22">
       <r>   -0.1896    1.0000 </r>
       <r>    3.7302    1.0000 </r>
       <r>    9.0947    0.0000 </r>
       <r>   12.7301    0.0000 </r>
       <r>   15.9508    0.0000 </r>
       <r>   19.9571    0.0000 </r>
       <r>   21.3113    0.0000 </r>
       <r>   25.1644    0.0000 </r>
      </set>
      <set comment="kpoint 23">
       <r>   -1.7687    1.0000 </r>
       <r>    6.2713    1.0000 </r>
       <r>    8.9477    0.0000 </r>
       <r>   13.6535    0.0000 </r>
       <r>   17.0835    0.0000 </r>
       <r>   19.9206    0.0000 </r>
       <r>   21.0296    0.0000 </r>
       <r>   22.5310    0.0000 </r>
      </set>
      <set comment="kpoint 24">
       <r>   -3.0164    1.0000 </r>
       <r>    9.1204    0.0000 </r>
       <r>    9.1907    0.0000 </r>
       <r>   14.6654    0.0000 </r>
       <r>   18.4927    0.0000 </r>
       <r>   20.2785    0.0000 </r>
       <r>   20.3923    0.0000 </r>
       <r>   20.3925    0.0000 </r>
      </set>
      <set comment="kpoint 25">
       <r>   -2.7458    1.0000 </r>
       <r>   10.5652    0.0000 </r>
       <r>   11.2273    0.0000 </r>
       <r>   11.2273    0.0000 </r>
       <r>   13.6798    0.0000 </r>
       <r>   15.1607    0.0000 </r>
       <r>   25.3139    0.0000 </r>
       <r>   25.3140    0.0000 </r>
      </set>
      <set comment="kpoint 26">
       <r>   -1.7546    1.0000 </r>
       <r>    8.5341    0.0000 </r>
       <r>    9.7584    0.0000 </r>
       <r>   10.8108    0.0000 </r>
       <r>   13.7388    0.0000 </r>
       <r>   15.4668    0.0000 </r>
       <r>   24.8767    0.0000 </r>
       <r>   25.9154    0.0000 </r>
      </set>
      <set comment="kpoint 27">
       <r>   -0.3910    1.0000 </r>
       <r>    6.0597    1.0000 </r>
       <r>    8.2725    0.0000 </r>
       <r>   10.7406    0.0000 </r>
       <r>   13.6707    0.0000 </r>
       <r>   17.7183    0.0000 </r>
       <r>   23.8859    0.0000 </r>
       <r>   25.6206    0.0000 </r>
      </set>
      <set comment="kpoint 28">
       <r>    1.2356    1.0000 </r>
       <r>    3.8005    1.0000 </r>
       <r>    7.2040    0.1747 </r>
       <r>   11.0173    0.0000 </r>
       <r>   13.9522    0.0000 </r>
       <r>   20.3865    0.0000 </r>
       <r>   23.0190    0.0000 </r>
       <r>   24.9888    0.0000 </r>
      </set>
      <set comment="kpoint 29">
       <r>    1.2069    1.0000 </r>
       <r>    3.8586    1.0000 </r>
       <r>    6.5153    1.0000 </r>
       <r>   11.6281    0.0000 </r>
       <r>   14.6324    0.0000 </r>
       <r>   22.3943    0.0000 </r>
       <r>   22.8064    0.0000 </r>
       <r>   24.3094    0.0000 </r>
      </set>
      <set comment="kpoint 30">
       <r>   -0.4130    1.0000 </r>
       <r>    6.1799    1.0000 </r>
       <r>    6.2266    1.0000 </r>
       <r>   12.5419    0.0000 </r>
       <r>   15.6919    0.0000 </r>
       <r>   21.7687    0.0000 </r>
       <r>   22.7308    0.0000 </r>
       <r>   22.9232    0.0000 </r>
      </set>
      <set comment="kpoint 31">
       <r>   -0.8968    1.0000 </r>
       <r>    7.3827    0.0003 </r>
       <r>   10.2824    0.0000 </r>
       <r>   10.2824    0.0000 </r>
       <r>   12.6229    0.0000 </r>
       <r>   13.6515    0.0000 </r>
       <r>   27.5038    0.0000 </r>
       <r>   27.8449    0.0000 </r>
      </set>
      <set comment="kpoint 32">
       <r>    0.3377    1.0000 </r>
       <r>    5.8463    1.0000 </r>
       <r>    8.4427    0.0000 </r>
       <r>   10.1003    0.0000 </r>
       <r>   12.8449    0.0000 </r>
       <r>   14.6228    0.0000 </r>
       <r>   26.7765    0.0000 </r>
       <r>   28.1974    0.0000 </r>
      </set>
      <set comment="kpoint 33">
       <r>    1.8926    1.0000 </r>
       <r>    4.5262    1.0000 </r>
       <r>    6.1878    1.0000 </r>
       <r>   10.2701    0.0000 </r>
       <r>   13.0730    0.0000 </r>
       <r>   17.2568    0.0000 </r>
       <r>   25.8356    0.0000 </r>
       <r>   27.3608    0.0000 </r>
      </set>
      <set comment="kpoint 34">
       <r>    2.6442    1.0000 </r>
       <r>    4.1329    1.0000 </r>
       <r>    4.7861    1.0000 </r>
       <r>   10.7863    0.0000 </r>
       <r>   13.6582    0.0000 </r>
       <r>   20.2404    0.0000 </r>
       <r>   24.6706    0.0000 </r>
       <r>   25.8766    0.0000 </r>
      </set>
      <set comment="kpoint 35">
       <r>    1.4386    1.0000 </r>
       <r>    4.2537    1.0000 </r>
       <r>    9.8053    0.0000 </r>
       <r>    9.8053    0.0000 </r>
       <r>   12.0956    0.0000 </r>
       <r>   12.9879    0.0000 </r>
       <r>   28.7067    0.0000 </r>
       <r>   29.8912    0.0000 </r>
      </set>
      <set comment="kpoint 36">
       <r>    2.7136    1.0000 </r>
       <r>    3.1030    1.0000 </r>
       <r>    8.1408    0.0000 </r>
       <r>    9.8623    0.0000 </r>
       <r>   12.5569    0.0000 </r>
       <r>   14.3570    0.0000 </r>
       <r>   28.0742    0.0000 </r>
       <r>   29.3721    0.0000 </r>
      </set>
      <set comment="kpoint 37">
       <r>   -3.8136    1.0000 </r>
       <r>   10.9318    0.0000 </r>
       <r>   11.0961    0.0000 </r>
       <r>   14.4235    0.0000 </r>
       <r>   17.1868    0.0000 </r>
       <r>   18.6480    0.0000 </r>
       <r>   21.2687    0.0000 </r>
       <r>   21.8341    0.0000 </r>
      </set>
      <set comment="kpoint 38">
       <r>   -2.8174    1.0000 </r>
       <r>    7.9969    0.0000 </r>
       <r>   10.5572    0.0000 </r>
       <r>   13.5232    0.0000 </r>
       <r>   17.2343    0.0000 </r>
       <r>   19.0669    0.0000 </r>
       <r>   20.5968    0.0000 </r>
       <r>   22.3398    0.0000 </r>
      </set>
      <set comment="kpoint 39">
       <r>   -1.4464    1.0000 </r>
       <r>    5.2066    1.0000 </r>
       <r>   10.4150    0.0000 </r>
       <r>   12.5203    0.0000 </r>
       <r>   16.9397    0.0000 </r>
       <r>   18.9098    0.0000 </r>
       <r>   21.1747    0.0000 </r>
       <r>   23.1013    0.0000 </r>
      </set>
      <set comment="kpoint 40">
       <r>    0.1906    1.0000 </r>
       <r>    2.8446    1.0000 </r>
       <r>   10.5008    0.0000 </r>
       <r>   11.8170    0.0000 </r>
       <r>   16.9229    0.0000 </r>
       <r>   18.2714    0.0000 </r>
       <r>   21.5435    0.0000 </r>
       <r>   24.9910    0.0000 </r>
      </set>
      <set comment="kpoint 41">
       <r>   -2.4832    1.0000 </r>
       <r>    9.3413    0.0000 </r>
       <r>    9.6344    0.0000 </r>
       <r>   11.6934    0.0000 </r>
       <r>   15.7445    0.0000 </r>
       <r>   16.4718    0.0000 </r>
       <r>   22.7100    0.0000 </r>
       <r>   24.8796    0.0000 </r>
      </set>
      <set comment="kpoint 42">
       <r>   -1.2382    1.0000 </r>
       <r>    6.7016    1.0000 </r>
       <r>    9.1127    0.0000 </r>
       <r>   10.5601    0.0000 </r>
       <r>   15.8304    0.0000 </r>
       <r>   18.1826    0.0000 </r>
       <r>   21.7230    0.0000 </r>
       <r>   25.2721    0.0000 </r>
      </set>
      <set comment="kpoint 43">
       <r>    0.3367    1.0000 </r>
       <r>    4.2064    1.0000 </r>
       <r>    8.6367    0.0000 </r>
       <r>   10.0842    0.0000 </r>
       <r>   15.9480    0.0000 </r>
       <r>   19.9973    0.0000 </r>
       <r>   21.4726    0.0000 </r>
       <r>   24.9223    0.0000 </r>
      </set>
      <set comment="kpoint 44">
       <r>    1.3159    1.0000 </r>
       <r>    2.9970    1.0000 </r>
       <r>    8.0519    0.0000 </r>
       <r>   10.4122    0.0000 </r>
       <r>   16.4189    0.0000 </r>
       <r>   19.7574    0.0000 </r>
       <r>   23.3405    0.0000 </r>
       <r>   23.9362    0.0000 </r>
      </set>
      <set comment="kpoint 45">
       <r>   -0.2237    1.0000 </r>
       <r>    5.0190    1.0000 </r>
       <r>    7.6930    0.0000 </r>
       <r>   11.2199    0.0000 </r>
       <r>   17.1877    0.0000 </r>
       <r>   19.4886    0.0000 </r>
       <r>   21.7338    0.0000 </r>
       <r>   24.4286    0.0000 </r>
      </set>
      <set comment="kpoint 46">
       <r>   -1.6994    1.0000 </r>
       <r>    7.6391    0.0000 </r>
       <r>    7.6931    0.0000 </r>
       <r>   12.3474    0.0000 </r>
       <r>   18.0286    0.0000 </r>
       <r>   19.0874    0.0000 </r>
       <r>   20.0713    0.0000 </r>
       <r>   23.8935    0.0000 </r>
      </set>
      <set comment="kpoint 47">
       <r>   -0.6413    1.0000 </r>
       <r>    7.3306    0.0032 </r>
       <r>    8.6422    0.0000 </r>
       <r>    9.3478    0.0000 </r>
       <r>   14.7528    0.0000 </r>
       <r>   15.2770    0.0000 </r>
       <r>   24.4633    0.0000 </r>
       <r>   27.7147    0.0000 </r>
      </set>
      <set comment="kpoint 48">
       <r>    0.8262    1.0000 </r>
       <r>    5.6118    1.0000 </r>
       <r>    6.9515    0.9958 </r>
       <r>    8.9981    0.0000 </r>
       <r>   15.0432    0.0000 </r>
       <r>   17.5292    0.0000 </r>
       <r>   23.5334    0.0000 </r>
       <r>   27.1169    0.0000 </r>
      </set>
      <set comment="kpoint 49">
       <r>    2.3297    1.0000 </r>
       <r>    3.8977    1.0000 </r>
       <r>    5.8393    1.0000 </r>
       <r>    9.3505    0.0000 </r>
       <r>   15.4561    0.0000 </r>
       <r>   20.2944    0.0000 </r>
       <r>   22.8284    0.0000 </r>
       <r>   24.8538    0.0000 </r>
      </set>
      <set comment="kpoint 50">
       <r>    1.3166    1.0000 </r>
       <r>    5.1586    1.0000 </r>
       <r>    5.2819    1.0000 </r>
       <r>   10.1108    0.0000 </r>
       <r>   16.2089    0.0000 </r>
       <r>   21.7605    0.0000 </r>
       <r>   22.0091    0.0000 </r>
       <r>   23.8372    0.0000 </r>
      </set>
      <set comment="kpoint 51">
       <r>    1.6765    1.0000 </r>
       <r>    4.4549    1.0000 </r>
       <r>    8.1412    0.0000 </r>
       <r>    8.5523    0.0000 </r>
       <r>   14.2451    0.0000 </r>
       <r>   14.7273    0.0000 </r>
       <r>   26.4253    0.0000 </r>
       <r>   28.3133    0.0000 </r>
      </set>
      <set comment="kpoint 52">
       <r>    3.0340    1.0000 </r>
       <r>    3.6177    1.0000 </r>
       <r>    6.1190    1.0000 </r>
       <r>    8.6731    0.0000 </r>
       <r>   14.7831    0.0000 </r>
       <r>   17.3038    0.0000 </r>
       <r>   25.5861    0.0000 </r>
       <r>   25.6884    0.0000 </r>
      </set>
      <set comment="kpoint 53">
       <r>    0.1142    1.0000 </r>
       <r>    6.4710    1.0000 </r>
       <r>    6.6804    1.0000 </r>
       <r>    9.1704    0.0000 </r>
       <r>   17.9244    0.0000 </r>
       <r>   18.1567    0.0000 </r>
       <r>   20.8177    0.0000 </r>
       <r>   26.6597    0.0000 </r>
      </set>
      <set comment="kpoint 54">
       <r>    1.7263    1.0000 </r>
       <r>    4.3104    1.0000 </r>
       <r>    6.6796    1.0000 </r>
       <r>    8.2966    0.0000 </r>
       <r>   18.0255    0.0000 </r>
       <r>   19.5381    0.0000 </r>
       <r>   21.3468    0.0000 </r>
       <r>   24.3335    0.0000 </r>
      </set>
      <set comment="kpoint 55">
       <r>    2.3478    1.0000 </r>
       <r>    4.9040    1.0000 </r>
       <r>    6.1716    1.0000 </r>
       <r>    7.1333    0.5254 </r>
       <r>   17.6577    0.0000 </r>
       <r>   17.6770    0.0000 </r>
       <r>   22.6647    0.0000 </r>
       <r>   24.9484    0.0000 </r>
      </set>
      <set comment="kpoint 56">
       <r>    3.1179    1.0000 </r>
       <r>    4.6457    1.0000 </r>
       <r>    5.0521    1.0000 </r>
       <r>    7.2597    0.0424 </r>
       <r>   18.0696    0.0000 </r>
       <r>   20.3155    0.0000 </r>
       <r>   21.5749    0.0000 </r>
       <r>   22.7741    0.0000 </r>
      </set>
     </set>
    </set>
   </array>
  </eigenvalues>
  <separator name="orbital magnetization" >
   <v name="MAGDIPOLOUT">      0.00000000      0.00000000      0.00000000</v>
  </separator>
  <dos>
   <i name="efermi">      7.13781678 </i>
   <total>
    <array>
     <dimension dim="1">gridpoints</dimension>
     <dimension dim="2">spin</dimension>
     <field>energy</field>
     <field>total</field>
     <field>integrated</field>
     <set>
      <set comment="spin 1">
       <r>    -6.9075     0.0000     0.0000 </r>
       <r>    -6.7789     0.0000     0.0000 </r>
       <r>    -6.6504     0.0000     0.0000 </r>
       <r>    -6.5219     0.0000     0.0000 </r>
       <r>    -6.3934     0.0000     0.0000 </r>
       <r>    -6.2649     0.0000     0.0000 </r>
       <r>    -6.1364     0.0000     0.0000 </r>
       <r>    -6.0079     0.0000     0.0000 </r>
       <r>    -5.8794     0.0000     0.0000 </r>
       <r>    -5.7509     0.0000     0.0000 </r>
       <r>    -5.6224     0.0000     0.0000 </r>
       <r>    -5.4939     0.0000     0.0000 </r>
       <r>    -5.3654     0.0000     0.0000 </r>
       <r>    -5.2369     0.0014     0.0002 </r>
       <r>    -5.1084     0.0086     0.0013 </r>
       <r>    -4.9799     0.0409     0.0066 </r>
       <r>    -4.8514     0.0954     0.0188 </r>
       <r>    -4.7229     0.0376     0.0236 </r>
       <r>    -4.5944     0.0808     0.0340 </r>
       <r>    -4.4659     0.1203     0.0495 </r>
       <r>    -4.3374     0.2265     0.0786 </r>
       <r>    -4.2089     0.0780     0.0886 </r>
       <r>    -4.0804     0.0360     0.0932 </r>
       <r>    -3.9519     0.0836     0.1040 </r>
       <r>    -3.8234     0.2983     0.1423 </r>
       <r>    -3.6949     0.2049     0.1686 </r>
       <r>    -3.5664     0.1207     0.1842 </r>
       <r>    -3.4379     0.1893     0.2085 </r>
       <r>    -3.3094     0.2424     0.2396 </r>
       <r>    -3.1809     0.1093     0.2537 </r>
       <r>    -3.0524     0.0452     0.2595 </r>
       <r>    -2.9239     0.1237     0.2754 </r>
       <r>    -2.7953     0.4187     0.3292 </r>
       <r>    -2.6668     0.4194     0.3831 </r>
       <r>    -2.5383     0.1083     0.3970 </r>
       <r>    -2.4098     0.1938     0.4219 </r>
       <r>    -2.2813     0.2444     0.4533 </r>
       <r>    -2.1528     0.2915     0.4908 </r>
       <r>    -2.0243     0.0735     0.5002 </r>
       <r>    -1.8958     0.0766     0.5100 </r>
       <r>    -1.7673     0.3048     0.5492 </r>
       <r>    -1.6388     0.4554     0.6077 </r>
       <r>    -1.5103     0.1783     0.6306 </r>
       <r>    -1.3818     0.3848     0.6801 </r>
       <r>    -1.2533     0.4682     0.7403 </r>
       <r>    -1.1248     0.4118     0.7932 </r>
       <r>    -0.9963     0.0421     0.7986 </r>
       <r>    -0.8678     0.0542     0.8056 </r>
       <r>    -0.7393     0.2681     0.8400 </r>
       <r>    -0.6108     0.4594     0.8990 </r>
       <r>    -0.4823     0.1736     0.9213 </r>
       <r>    -0.3538     0.3177     0.9622 </r>
       <r>    -0.2253     0.5009     1.0265 </r>
       <r>    -0.0968     0.4427     1.0834 </r>
       <r>     0.0317     0.0874     1.0947 </r>
       <r>     0.1602     0.3729     1.1426 </r>
       <r>     0.2887     0.7429     1.2380 </r>
       <r>     0.4172     0.6922     1.3270 </r>
       <r>     0.5457     0.1144     1.3417 </r>
       <r>     0.6742     0.0196     1.3442 </r>
       <r>     0.8027     0.3283     1.3864 </r>
       <r>     0.9312     0.4468     1.4438 </r>
       <r>     1.0598     0.0554     1.4509 </r>
       <r>     1.1883     0.2046     1.4772 </r>
       <r>     1.3168     0.7244     1.5703 </r>
       <r>     1.4453     0.4761     1.6315 </r>
       <r>     1.5738     0.0885     1.6429 </r>
       <r>     1.7023     0.3601     1.6891 </r>
       <r>     1.8308     0.4690     1.7494 </r>
       <r>     1.9593     0.3163     1.7900 </r>
       <r>     2.0878     0.2089     1.8169 </r>
       <r>     2.2163     0.0651     1.8253 </r>
       <r>     2.3448     0.4771     1.8866 </r>
       <r>     2.4733     0.5042     1.9514 </r>
       <r>     2.6018     0.2217     1.9798 </r>
       <r>     2.7303     0.2073     2.0065 </r>
       <r>     2.8588     0.3814     2.0555 </r>
       <r>     2.9873     0.5485     2.1260 </r>
       <r>     3.1158     0.6919     2.2149 </r>
       <r>     3.2443     0.4077     2.2673 </r>
       <r>     3.3728     0.1139     2.2819 </r>
       <r>     3.5013     0.0186     2.2843 </r>
       <r>     3.6298     0.1696     2.3061 </r>
       <r>     3.7583     0.3870     2.3558 </r>
       <r>     3.8868     0.6740     2.4425 </r>
       <r>     4.0153     0.5449     2.5125 </r>
       <r>     4.1438     0.3562     2.5583 </r>
       <r>     4.2723     0.6278     2.6389 </r>
       <r>     4.4008     0.5534     2.7101 </r>
       <r>     4.5293     0.5354     2.7788 </r>
       <r>     4.6578     0.4469     2.8363 </r>
       <r>     4.7863     0.2679     2.8707 </r>
       <r>     4.9148     0.2759     2.9062 </r>
       <r>     5.0434     0.5776     2.9804 </r>
       <r>     5.1719     0.6772     3.0674 </r>
       <r>     5.3004     0.6214     3.1472 </r>
       <r>     5.4289     0.1666     3.1687 </r>
       <r>     5.5574     0.1271     3.1850 </r>
       <r>     5.6859     0.3941     3.2356 </r>
       <r>     5.8144     0.5343     3.3043 </r>
       <r>     5.9429     0.5804     3.3789 </r>
       <r>     6.0714     0.3267     3.4209 </r>
       <r>     6.1999     0.7658     3.5193 </r>
       <r>     6.3284     0.5669     3.5921 </r>
       <r>     6.4569     0.2504     3.6243 </r>
       <r>     6.5854     0.4398     3.6808 </r>
       <r>     6.7139     0.9777     3.8064 </r>
       <r>     6.8424     0.6544     3.8905 </r>
       <r>     6.9709     0.3432     3.9346 </r>
       <r>     7.0994     0.3585     3.9807 </r>
       <r>     7.2279     0.6218     4.0606 </r>
       <r>     7.3564     0.5344     4.1293 </r>
       <r>     7.4849     0.1953     4.1544 </r>
       <r>     7.6134     0.2721     4.1893 </r>
       <r>     7.7419     0.6972     4.2789 </r>
       <r>     7.8704     0.2448     4.3104 </r>
       <r>     7.9989     0.4053     4.3625 </r>
       <r>     8.1274     0.7890     4.4639 </r>
       <r>     8.2559     0.5819     4.5386 </r>
       <r>     8.3844     0.5797     4.6131 </r>
       <r>     8.5129     0.4717     4.6738 </r>
       <r>     8.6414     0.9330     4.7936 </r>
       <r>     8.7699     0.7689     4.8924 </r>
       <r>     8.8984     0.1964     4.9177 </r>
       <r>     9.0270     0.6309     4.9988 </r>
       <r>     9.1555     0.9845     5.1253 </r>
       <r>     9.2840     0.6881     5.2137 </r>
       <r>     9.4125     0.7510     5.3102 </r>
       <r>     9.5410     0.2999     5.3487 </r>
       <r>     9.6695     0.4458     5.4060 </r>
       <r>     9.7980     0.5469     5.4763 </r>
       <r>     9.9265     0.2891     5.5135 </r>
       <r>    10.0550     0.4340     5.5692 </r>
       <r>    10.1835     0.8873     5.6832 </r>
       <r>    10.3120     0.5282     5.7511 </r>
       <r>    10.4405     1.1081     5.8935 </r>
       <r>    10.5690     1.4288     6.0771 </r>
       <r>    10.6975     0.7715     6.1763 </r>
       <r>    10.8260     0.4706     6.2367 </r>
       <r>    10.9545     0.3962     6.2877 </r>
       <r>    11.0830     0.4174     6.3413 </r>
       <r>    11.2115     0.4946     6.4049 </r>
       <r>    11.3400     0.4180     6.4586 </r>
       <r>    11.4685     0.2156     6.4863 </r>
       <r>    11.5970     0.2353     6.5165 </r>
       <r>    11.7255     0.8121     6.6209 </r>
       <r>    11.8540     1.0956     6.7617 </r>
       <r>    11.9825     0.6254     6.8420 </r>
       <r>    12.1110     0.5391     6.9113 </r>
       <r>    12.2395     0.4086     6.9638 </r>
       <r>    12.3680     0.2472     6.9956 </r>
       <r>    12.4965     0.5307     7.0638 </r>
       <r>    12.6250     0.9060     7.1802 </r>
       <r>    12.7535     0.6468     7.2633 </r>
       <r>    12.8821     0.6934     7.3524 </r>
       <r>    13.0106     0.5393     7.4217 </r>
       <r>    13.1391     0.4224     7.4760 </r>
       <r>    13.2676     0.4248     7.5306 </r>
       <r>    13.3961     0.2210     7.5590 </r>
       <r>    13.5246     0.4015     7.6106 </r>
       <r>    13.6531     0.8271     7.7169 </r>
       <r>    13.7816     0.9176     7.8348 </r>
       <r>    13.9101     0.6613     7.9198 </r>
       <r>    14.0386     0.4185     7.9736 </r>
       <r>    14.1671     0.2026     7.9996 </r>
       <r>    14.2956     0.2959     8.0376 </r>
       <r>    14.4241     0.4037     8.0895 </r>
       <r>    14.5526     0.5297     8.1576 </r>
       <r>    14.6811     0.9561     8.2804 </r>
       <r>    14.8096     0.8243     8.3864 </r>
       <r>    14.9381     0.5029     8.4510 </r>
       <r>    15.0666     0.6000     8.5281 </r>
       <r>    15.1951     0.6278     8.6087 </r>
       <r>    15.3236     0.8222     8.7144 </r>
       <r>    15.4521     0.6060     8.7923 </r>
       <r>    15.5806     0.4664     8.8522 </r>
       <r>    15.7091     0.3317     8.8948 </r>
       <r>    15.8376     0.5853     8.9701 </r>
       <r>    15.9661     0.7253     9.0633 </r>
       <r>    16.0946     0.3538     9.1087 </r>
       <r>    16.2231     0.1682     9.1303 </r>
       <r>    16.3516     0.2924     9.1679 </r>
       <r>    16.4801     0.6821     9.2556 </r>
       <r>    16.6086     0.3948     9.3063 </r>
       <r>    16.7371     0.3421     9.3503 </r>
       <r>    16.8657     0.2853     9.3869 </r>
       <r>    16.9942     0.7785     9.4870 </r>
       <r>    17.1227     0.8173     9.5920 </r>
       <r>    17.2512     1.5030     9.7851 </r>
       <r>    17.3797     0.9615     9.9087 </r>
       <r>    17.5082     0.5538     9.9799 </r>
       <r>    17.6367     0.6736    10.0664 </r>
       <r>    17.7652     0.5502    10.1371 </r>
       <r>    17.8937     0.2650    10.1712 </r>
       <r>    18.0222     0.7292    10.2649 </r>
       <r>    18.1507     1.2863    10.4302 </r>
       <r>    18.2792     1.2383    10.5893 </r>
       <r>    18.4077     0.5457    10.6595 </r>
       <r>    18.5362     0.4734    10.7203 </r>
       <r>    18.6647     0.7324    10.8144 </r>
       <r>    18.7932     0.3639    10.8612 </r>
       <r>    18.9217     0.7425    10.9566 </r>
       <r>    19.0502     0.8735    11.0688 </r>
       <r>    19.1787     0.8482    11.1778 </r>
       <r>    19.3072     0.7880    11.2791 </r>
       <r>    19.4357     0.6106    11.3576 </r>
       <r>    19.5642     1.1899    11.5105 </r>
       <r>    19.6927     0.7616    11.6083 </r>
       <r>    19.8212     0.7884    11.7096 </r>
       <r>    19.9497     0.9462    11.8312 </r>
       <r>    20.0782     0.9704    11.9559 </r>
       <r>    20.2067     0.4542    12.0143 </r>
       <r>    20.3352     0.8792    12.1273 </r>
       <r>    20.4637     0.8662    12.2386 </r>
       <r>    20.5922     0.5920    12.3147 </r>
       <r>    20.7208     0.6049    12.3924 </r>
       <r>    20.8493     0.4055    12.4445 </r>
       <r>    20.9778     0.2867    12.4814 </r>
       <r>    21.1063     0.5710    12.5547 </r>
       <r>    21.2348     1.0805    12.6936 </r>
       <r>    21.3633     1.1244    12.8381 </r>
       <r>    21.4918     0.9628    12.9618 </r>
       <r>    21.6203     0.9598    13.0851 </r>
       <r>    21.7488     1.0838    13.2244 </r>
       <r>    21.8773     0.8848    13.3381 </r>
       <r>    22.0058     0.2577    13.3712 </r>
       <r>    22.1343     0.2161    13.3990 </r>
       <r>    22.2628     0.2672    13.4333 </r>
       <r>    22.3913     0.5353    13.5021 </r>
       <r>    22.5198     0.5174    13.5686 </r>
       <r>    22.6483     0.4972    13.6325 </r>
       <r>    22.7768     0.8197    13.7378 </r>
       <r>    22.9053     0.9378    13.8583 </r>
       <r>    23.0338     0.8599    13.9688 </r>
       <r>    23.1623     0.7974    14.0713 </r>
       <r>    23.2908     0.5764    14.1454 </r>
       <r>    23.4193     0.9217    14.2638 </r>
       <r>    23.5478     0.8766    14.3765 </r>
       <r>    23.6763     0.3962    14.4274 </r>
       <r>    23.8048     0.2891    14.4645 </r>
       <r>    23.9333     0.9335    14.5845 </r>
       <r>    24.0618     0.4657    14.6443 </r>
       <r>    24.1903     0.0509    14.6509 </r>
       <r>    24.3188     0.4042    14.7028 </r>
       <r>    24.4473     0.8299    14.8094 </r>
       <r>    24.5758     0.4117    14.8623 </r>
       <r>    24.7044     0.1689    14.8840 </r>
       <r>    24.8329     0.6519    14.9678 </r>
       <r>    24.9614     1.4784    15.1578 </r>
       <r>    25.0899     0.9057    15.2742 </r>
       <r>    25.2184     0.3910    15.3244 </r>
       <r>    25.3469     0.4990    15.3885 </r>
       <r>    25.4754     0.1475    15.4075 </r>
       <r>    25.6039     0.2952    15.4454 </r>
       <r>    25.7324     0.4551    15.5039 </r>
       <r>    25.8609     0.3688    15.5513 </r>
       <r>    25.9894     0.3512    15.5964 </r>
       <r>    26.1179     0.0527    15.6032 </r>
       <r>    26.2464     0.0022    15.6035 </r>
       <r>    26.3749     0.0651    15.6119 </r>
       <r>    26.5034     0.1799    15.6350 </r>
       <r>    26.6319     0.1366    15.6526 </r>
       <r>    26.7604     0.2714    15.6874 </r>
       <r>    26.8889     0.1717    15.7095 </r>
       <r>    27.0174     0.0601    15.7172 </r>
       <r>    27.1459     0.3256    15.7591 </r>
       <r>    27.2744     0.2150    15.7867 </r>
       <r>    27.4029     0.1847    15.8104 </r>
       <r>    27.5314     0.1169    15.8254 </r>
       <r>    27.6599     0.0862    15.8365 </r>
       <r>    27.7884     0.1930    15.8613 </r>
       <r>    27.9169     0.0874    15.8725 </r>
       <r>    28.0454     0.0619    15.8805 </r>
       <r>    28.1739     0.1876    15.9046 </r>
       <r>    28.3024     0.2848    15.9412 </r>
       <r>    28.4309     0.1632    15.9622 </r>
       <r>    28.5594     0.0149    15.9641 </r>
       <r>    28.6880     0.0265    15.9675 </r>
       <r>    28.8165     0.0382    15.9724 </r>
       <r>    28.9450     0.0042    15.9729 </r>
       <r>    29.0735     0.0000    15.9730 </r>
       <r>    29.2020     0.0011    15.9731 </r>
       <r>    29.3305     0.0379    15.9780 </r>
       <r>    29.4590     0.0859    15.9890 </r>
       <r>    29.5875     0.0152    15.9910 </r>
       <r>    29.7160     0.0006    15.9910 </r>
       <r>    29.8445     0.0174    15.9933 </r>
       <r>    29.9730     0.0436    15.9989 </r>
       <r>    30.1015     0.0086    16.0000 </r>
       <r>    30.2300     0.0001    16.0000 </r>
       <r>    30.3585     0.0000    16.0000 </r>
       <r>    30.4870     0.0000    16.0000 </r>
       <r>    30.6155     0.0000    16.0000 </r>
       <r>    30.7440     0.0000    16.0000 </r>
       <r>    30.8725     0.0000    16.0000 </r>
       <r>    31.0010     0.0000    16.0000 </r>
       <r>    31.1295     0.0000    16.0000 </r>
       <r>    31.2580     0.0000    16.0000 </r>
       <r>    31.3865     0.0000    16.0000 </r>
       <r>    31.5150     0.0000    16.0000 </r>
       <r>    31.6435     0.0000    16.0000 </r>
      </set>
     </set>
    </array>
   </total>
  </dos>
 </calculation>
 <structure name="finalpos" >
  <crystal>
   <varray name="basis" >
    <v>       2.10000000       2.10000000       0.00000000 </v>
    <v>       0.00000000       2.10000000       2.10000000 </v>
    <v>       2.10000000       0.00000000       2.10000000 </v>
   </varray>
   <i name="volume">     18.52200000 </i>
   <varray name="rec_basis" >
    <v>       0.23809524       0.23809524      -0.23809524 </v>
    <v>      -0.23809524       0.23809524       0.23809524 </v>
    <v>       0.23809524      -0.23809524       0.23809524 </v>
   </varray>
  </crystal>
  <varray name="positions" >
   <v>       0.00000000       0.00000000       0.00000000 </v>
  </varray>
 </structure>
</modeling>
