fcc Si                                  
           1
     2.100000    2.100000    0.000000
     0.000000    2.100000    2.100000
     2.100000    0.000000    2.100000
   Si
     1
Direct configuration=     1
   0.00000000  0.00000000  0.00000000
