fcc Ni                                  
   3.10000000000000     
     0.500000    0.500000    0.000000
     0.000000    0.500000    0.500000
     0.500000    0.000000    0.500000
   Ni
     1
Direct
  0.000000  0.000000  0.000000
 
   20   20   20
  102.31      97.226      83.356      64.272      44.304      27.112      14.818      7.7906      4.9186      4.2299    
  4.0707      4.2299      4.9186      7.7906      14.818      27.112      44.304      64.272      83.356      97.226    
  97.226      87.758      71.355      52.022      33.771      19.463      10.287      5.8013      4.3932      4.0781    
  4.0781      4.3932      5.8014      10.287      19.464      33.771      52.022      71.355      87.758      97.226    
  83.356      71.355      54.860      37.658      22.959      12.609      6.8632      4.6372      4.0974      3.9432    
  4.0973      4.6372      6.8633      12.609      22.960      37.658      54.860      71.355      83.356      87.758    
  64.272      52.022      37.658      24.260      14.011      7.7374      4.9246      4.1208      3.8438      3.8437    
  4.1207      4.9246      7.7374      14.011      24.260      37.658      52.022      64.272      71.355      71.355    
  44.304      33.771      22.959      14.011      8.0758      5.1225      4.1428      3.7840      3.6522      3.7840    
  4.1427      5.1225      8.0758      14.011      22.960      33.771      44.304      52.022      54.860      52.022    
  27.112      19.463      12.609      7.7374      5.1225      4.1535      3.7577      3.5385      3.5385      3.7576    
  4.1534      5.1225      7.7373      12.609      19.463      27.112      33.771      37.658      37.658      33.771    
  14.818      10.287      6.8632      4.9246      4.1428      3.7577      3.5016      3.4131      3.5016      3.7576    
  4.1427      4.9245      6.8632      10.287      14.818      19.463      22.960      24.260      22.960      19.464    
  7.7906      5.8013      4.6372      4.1208      3.7840      3.5385      3.4131      3.4131      3.5386      3.7841    
  4.1208      4.6372      5.8013      7.7904      10.287      12.609      14.011      14.011      12.609      10.287    
  4.9186      4.3932      4.0974      3.8438      3.6522      3.5385      3.5016      3.5386      3.6523      3.8439    
  4.0974      4.3932      4.9185      5.8013      6.8632      7.7373      8.0758      7.7374      6.8633      5.8014    
  4.2299      4.0781      3.9432      3.8437      3.7840      3.7576      3.7576      3.7841      3.8439      3.9433    
  4.0782      4.2300      4.3932      4.6372      4.9245      5.1225      5.1225      4.9246      4.6372      4.3932    
  4.0707      4.0781      4.0973      4.1207      4.1427      4.1534      4.1427      4.1208      4.0974      4.0782    
  4.0708      4.0782      4.0974      4.1208      4.1427      4.1534      4.1427      4.1207      4.0973      4.0781    
  4.2299      4.3932      4.6372      4.9246      5.1225      5.1225      4.9245      4.6372      4.3932      4.2300    
  4.0782      3.9433      3.8439      3.7841      3.7576      3.7576      3.7840      3.8437      3.9432      4.0781    
  4.9186      5.8014      6.8633      7.7374      8.0758      7.7373      6.8632      5.8013      4.9185      4.3932    
  4.0974      3.8439      3.6523      3.5386      3.5016      3.5385      3.6522      3.8438      4.0974      4.3932    
  7.7906      10.287      12.609      14.011      14.011      12.609      10.287      7.7904      5.8013      4.6372    
  4.1208      3.7841      3.5386      3.4131      3.4131      3.5385      3.7840      4.1208      4.6372      5.8013    
  14.818      19.464      22.960      24.260      22.960      19.463      14.818      10.287      6.8632      4.9245    
  4.1427      3.7576      3.5016      3.4131      3.5016      3.7577      4.1428      4.9246      6.8632      10.287    
  27.112      33.771      37.658      37.658      33.771      27.112      19.463      12.609      7.7373      5.1225    
  4.1534      3.7576      3.5385      3.5385      3.7577      4.1535      5.1225      7.7374      12.609      19.463    
  44.304      52.022      54.860      52.022      44.304      33.771      22.960      14.011      8.0758      5.1225    
  4.1427      3.7840      3.6522      3.7840      4.1428      5.1225      8.0758      14.011      22.959      33.771    
  64.272      71.355      71.355      64.272      52.022      37.658      24.260      14.011      7.7374      4.9246    
  4.1207      3.8437      3.8438      4.1208      4.9246      7.7374      14.011      24.260      37.658      52.022    
  83.356      87.758      83.356      71.355      54.860      37.658      22.960      12.609      6.8633      4.6372    
  4.0973      3.9432      4.0974      4.6372      6.8632      12.609      22.959      37.658      54.860      71.355    
  97.226      97.226      87.758      71.355      52.022      33.771      19.464      10.287      5.8014      4.3932    
  4.0781      4.0781      4.3932      5.8013      10.287      19.463      33.771      52.022      71.355      87.758    
  97.226      87.758      71.355      52.022      33.771      19.463      10.287      5.8013      4.3932      4.0781    
  4.0781      4.3932      5.8014      10.287      19.464      33.771      52.022      71.355      87.758      97.226    
  87.758      75.100      57.730      39.637      24.177      13.256      7.1404      4.7291      4.1504      3.9952    
  4.1504      4.7291      7.1405      13.256      24.177      39.637      57.730      75.101      87.758      92.406    
  71.355      57.730      41.791      26.932      15.518      8.4382      5.1720      4.2185      3.9362      3.9361    
  4.2184      5.1719      8.4383      15.518      26.932      41.791      57.730      71.355      79.250      79.250    
  52.022      39.637      26.932      16.363      9.2372      5.5610      4.2875      3.9030      3.7647      3.9030    
  4.2874      5.5609      9.2372      16.363      26.932      39.638      52.022      61.118      64.469      61.118    
  33.771      24.177      15.518      9.2372      5.7161      4.3391      3.8891      3.6528      3.6528      3.8890    
  4.3390      5.7160      9.2372      15.518      24.177      33.771      42.118      46.996      46.995      42.118    
  19.463      13.256      8.4382      5.5610      4.3391      3.8858      3.5997      3.4987      3.5996      3.8857    
  4.3390      5.5609      8.4382      13.256      19.463      25.755      30.472      32.226      30.472      25.755    
  10.287      7.1404      5.1720      4.2875      3.8891      3.5997      3.4476      3.4476      3.5997      3.8891    
  4.2874      5.1719      7.1403      10.287      14.085      17.553      19.629      19.629      17.553      14.085    
  5.8013      4.7291      4.2185      3.9030      3.6528      3.4987      3.4476      3.4987      3.6529      3.9031    
  4.2185      4.7290      5.8012      7.4676      9.3561      10.862      11.437      10.862      9.3562      7.4678    
  4.3932      4.1504      3.9362      3.7647      3.6528      3.5996      3.5997      3.6529      3.7649      3.9363    
  4.1505      4.3932      4.8087      5.4496      6.1343      6.5793      6.5793      6.1344      5.4497      4.8088    
  4.0781      3.9952      3.9361      3.9030      3.8890      3.8857      3.8891      3.9031      3.9363      3.9953    
  4.0782      4.1728      4.2696      4.3996      4.5327      4.5902      4.5327      4.3996      4.2696      4.1728    
  4.0781      4.1504      4.2184      4.2874      4.3390      4.3390      4.2874      4.2185      4.1505      4.0782    
  4.0142      3.9692      3.9459      3.9387      3.9384      3.9384      3.9386      3.9458      3.9691      4.0141    
  4.3932      4.7291      5.1719      5.5609      5.7160      5.5609      5.1719      4.7290      4.3932      4.1728    
  3.9692      3.7962      3.6744      3.6062      3.5848      3.6061      3.6743      3.7961      3.9691      4.1728    
  5.8014      7.1405      8.4383      9.2372      9.2372      8.4382      7.1403      5.8012      4.8087      4.2696    
  3.9459      3.6744      3.4868      3.3939      3.3939      3.4867      3.6743      3.9458      4.2696      4.8088    
  10.287      13.256      15.518      16.363      15.518      13.256      10.287      7.4676      5.4496      4.3996    
  3.9387      3.6062      3.3939      3.3223      3.3939      3.6062      3.9387      4.3996      5.4497      7.4678    
  19.464      24.177      26.932      26.932      24.177      19.463      14.085      9.3561      6.1343      4.5327    
  3.9384      3.5848      3.3939      3.3939      3.5848      3.9384      4.5328      6.1344      9.3561      14.085    
  33.771      39.637      41.791      39.638      33.771      25.755      17.553      10.862      6.5793      4.5902    
  3.9384      3.6061      3.4867      3.6062      3.9384      4.5902      6.5793      10.862      17.553      25.755    
  52.022      57.730      57.730      52.022      42.118      30.472      19.629      11.437      6.5793      4.5327    
  3.9386      3.6743      3.6743      3.9387      4.5328      6.5793      11.437      19.629      30.472      42.118    
  71.355      75.101      71.355      61.118      46.996      32.226      19.629      10.862      6.1344      4.3996    
  3.9458      3.7961      3.9458      4.3996      6.1344      10.862      19.629      32.226      46.995      61.118    
  87.758      87.758      79.250      64.469      46.995      30.472      17.553      9.3562      5.4497      4.2696    
  3.9691      3.9691      4.2696      5.4497      9.3561      17.553      30.472      46.995      64.469      79.250    
  97.226      92.406      79.250      61.118      42.118      25.755      14.085      7.4678      4.8088      4.1728    
  4.0141      4.1728      4.8088      7.4678      14.085      25.755      42.118      61.118      79.250      92.406    
  83.356      71.355      54.860      37.658      22.959      12.609      6.8632      4.6372      4.0974      3.9432    
  4.0973      4.6372      6.8633      12.609      22.960      37.658      54.860      71.355      83.356      87.758    
  71.355      57.730      41.791      26.932      15.518      8.4382      5.1720      4.2185      3.9362      3.9361    
  4.2184      5.1719      8.4383      15.518      26.932      41.791      57.730      71.355      79.250      79.250    
  54.860      41.791      28.391      17.232      9.6736      5.7308      4.3418      3.9448      3.8047      3.9447    
  4.3417      5.7307      9.6736      17.232      28.391      41.791      54.860      64.469      68.012      64.469    
  37.658      26.932      17.232      10.141      6.0893      4.4549      3.9598      3.7159      3.7159      3.9597    
  4.4547      6.0892      10.141      17.232      26.932      37.658      46.996      52.458      52.458      46.995    
  22.959      15.518      9.6736      6.0893      4.5021      3.9707      3.6684      3.5600      3.6683      3.9705    
  4.5019      6.0892      9.6735      15.518      22.960      30.472      36.103      38.196      36.103      30.472    
  12.609      8.4382      5.7308      4.4549      3.9707      3.6539      3.4837      3.4837      3.6538      3.9706    
  4.4547      5.7307      8.4381      12.609      17.553      22.031      24.705      24.705      22.031      17.553    
  6.8632      5.1720      4.3418      3.9598      3.6684      3.4837      3.4216      3.4837      3.6684      3.9598    
  4.3417      5.1719      6.8631      9.3560      12.097      14.251      15.069      14.251      12.097      9.3561    
  4.6372      4.2185      3.9448      3.7159      3.5600      3.4837      3.4837      3.5601      3.7160      3.9449    
  4.2184      4.6372      5.4495      6.6140      7.7938      8.5401      8.5401      7.7939      6.6142      5.4497    
  4.0974      3.9362      3.8047      3.7159      3.6683      3.6538      3.6684      3.7160      3.8048      3.9363    
  4.0974      4.2696      4.5250      4.8859      5.2192      5.3555      5.2193      4.8859      4.5250      4.2696    
  3.9432      3.9361      3.9447      3.9597      3.9705      3.9706      3.9598      3.9449      3.9363      3.9433    
  3.9692      4.0096      4.0543      4.0992      4.1349      4.1349      4.0992      4.0543      4.0095      3.9691    
  4.0973      4.2184      4.3417      4.4547      4.5019      4.4547      4.3417      4.2184      4.0974      3.9692    
  3.8545      3.7693      3.7179      3.6935      3.6868      3.6935      3.7178      3.7692      3.8543      3.9691    
  4.6372      5.1719      5.7307      6.0892      6.0892      5.7307      5.1719      4.6372      4.2696      4.0096    
  3.7693      3.5791      3.4554      3.3967      3.3966      3.4553      3.5790      3.7692      4.0095      4.2696    
  6.8633      8.4383      9.6736      10.141      9.6735      8.4381      6.8631      5.4495      4.5250      4.0543    
  3.7179      3.4554      3.2958      3.2431      3.2957      3.4553      3.7178      4.0543      4.5250      5.4497    
  12.609      15.518      17.232      17.232      15.518      12.609      9.3560      6.6140      4.8859      4.0992    
  3.6935      3.3967      3.2431      3.2431      3.3966      3.6935      4.0993      4.8859      6.6142      9.3562    
  22.960      26.932      28.391      26.932      22.960      17.553      12.097      7.7938      5.2192      4.1349    
  3.6868      3.3966      3.2957      3.3966      3.6868      4.1349      5.2193      7.7939      12.097      17.553    
  37.658      41.791      41.791      37.658      30.472      22.031      14.251      8.5401      5.3555      4.1349    
  3.6935      3.4553      3.4553      3.6935      4.1349      5.3555      8.5401      14.251      22.031      30.472    
  54.860      57.730      54.860      46.996      36.103      24.705      15.069      8.5401      5.2193      4.0992    
  3.7178      3.5790      3.7178      4.0993      5.2193      8.5401      15.069      24.704      36.103      46.995    
  71.355      71.355      64.469      52.458      38.196      24.705      14.251      7.7939      4.8859      4.0543    
  3.7692      3.7692      4.0543      4.8859      7.7939      14.251      24.704      38.196      52.458      64.469    
  83.356      79.250      68.012      52.458      36.103      22.031      12.097      6.6142      4.5250      4.0095    
  3.8543      4.0095      4.5250      6.6142      12.097      22.031      36.103      52.458      68.012      79.250    
  87.758      79.250      64.469      46.995      30.472      17.553      9.3561      5.4497      4.2696      3.9691    
  3.9691      4.2696      5.4497      9.3562      17.553      30.472      46.995      64.469      79.250      87.758    
  64.272      52.022      37.658      24.260      14.011      7.7374      4.9246      4.1208      3.8438      3.8437    
  4.1207      4.9246      7.7374      14.011      24.260      37.658      52.022      64.272      71.355      71.355    
  52.022      39.637      26.932      16.363      9.2372      5.5610      4.2875      3.9030      3.7647      3.9030    
  4.2874      5.5609      9.2372      16.363      26.932      39.638      52.022      61.118      64.469      61.118    
  37.658      26.932      17.232      10.141      6.0893      4.4549      3.9598      3.7159      3.7159      3.9597    
  4.4547      6.0892      10.141      17.232      26.932      37.658      46.996      52.458      52.458      46.995    
  24.260      16.363      10.141      6.2944      4.5668      4.0003      3.6931      3.5823      3.6930      4.0001    
  4.5667      6.2943      10.141      16.363      24.260      32.226      38.196      40.417      38.196      32.226    
  14.011      9.2372      6.0893      4.5668      4.0149      3.6857      3.5065      3.5065      3.6856      4.0147    
  4.5667      6.0892      9.2371      14.011      19.629      24.704      27.733      27.733      24.704      19.629    
  7.7374      5.5610      4.4549      4.0003      3.6857      3.4825      3.4135      3.4825      3.6856      4.0002    
  4.4547      5.5608      7.7372      10.862      14.251      16.897      17.899      16.897      14.251      10.862    
  4.9246      4.2875      3.9598      3.6931      3.5065      3.4135      3.4135      3.5065      3.6931      3.9598    
  4.2874      4.9245      6.1342      7.7937      9.4325      10.456      10.457      9.4327      7.7939      6.1344    
  4.1208      3.9030      3.7159      3.5823      3.5065      3.4825      3.5065      3.5824      3.7160      3.9031    
  4.1207      4.3995      4.8858      5.5305      6.0965      6.3225      6.0966      5.5306      4.8859      4.3996    
  3.8438      3.7647      3.7159      3.6930      3.6856      3.6856      3.6931      3.7160      3.7649      3.8439    
  3.9459      4.0543      4.1720      4.3137      4.4179      4.4179      4.3137      4.1721      4.0543      3.9458    
  3.8437      3.9030      3.9597      4.0001      4.0147      4.0002      3.9598      3.9031      3.8439      3.7962    
  3.7693      3.7639      3.7727      3.7846      3.7897      3.7845      3.7727      3.7639      3.7692      3.7961    
  4.1207      4.2874      4.4547      4.5667      4.5667      4.4547      4.2874      4.1207      3.9459      3.7693    
  3.6188      3.5109      3.4469      3.4188      3.4188      3.4469      3.5108      3.6187      3.7692      3.9458    
  4.9246      5.5609      6.0892      6.2943      6.0892      5.5608      4.9245      4.3995      4.0543      3.7639    
  3.5109      3.3269      3.2202      3.1858      3.2201      3.3268      3.5108      3.7639      4.0543      4.3996    
  7.7374      9.2372      10.141      10.141      9.2371      7.7372      6.1342      4.8858      4.1720      3.7727    
  3.4469      3.2202      3.1072      3.1072      3.2201      3.4469      3.7727      4.1721      4.8859      6.1344    
  14.011      16.363      17.232      16.363      14.011      10.862      7.7937      5.5305      4.3137      3.7846    
  3.4188      3.1858      3.1072      3.1858      3.4188      3.7846      4.3137      5.5306      7.7939      10.862    
  24.260      26.932      26.932      24.260      19.629      14.251      9.4325      6.0965      4.4179      3.7897    
  3.4188      3.2201      3.2201      3.4188      3.7898      4.4179      6.0966      9.4327      14.251      19.629    
  37.658      39.638      37.658      32.226      24.704      16.897      10.456      6.3225      4.4179      3.7845    
  3.4469      3.3268      3.4469      3.7846      4.4179      6.3226      10.457      16.897      24.705      32.226    
  52.022      52.022      46.996      38.196      27.733      17.899      10.457      6.0966      4.3137      3.7727    
  3.5108      3.5108      3.7727      4.3137      6.0966      10.457      17.899      27.733      38.196      46.996    
  64.272      61.118      52.458      40.417      27.733      16.897      9.4327      5.5306      4.1721      3.7639    
  3.6187      3.7639      4.1721      5.5306      9.4327      16.897      27.733      40.417      52.458      61.118    
  71.355      64.469      52.458      38.196      24.704      14.251      7.7939      4.8859      4.0543      3.7692    
  3.7692      4.0543      4.8859      7.7939      14.251      24.705      38.196      52.458      64.469      71.355    
  71.355      61.118      46.995      32.226      19.629      10.862      6.1344      4.3996      3.9458      3.7961    
  3.9458      4.3996      6.1344      10.862      19.629      32.226      46.996      61.118      71.355      75.101    
  44.304      33.771      22.959      14.011      8.0758      5.1225      4.1428      3.7840      3.6522      3.7840    
  4.1427      5.1225      8.0758      14.011      22.960      33.771      44.304      52.022      54.860      52.022    
  33.771      24.177      15.518      9.2372      5.7161      4.3391      3.8891      3.6528      3.6528      3.8890    
  4.3390      5.7160      9.2372      15.518      24.177      33.771      42.118      46.996      46.995      42.118    
  22.959      15.518      9.6736      6.0893      4.5021      3.9707      3.6684      3.5600      3.6683      3.9705    
  4.5019      6.0892      9.6735      15.518      22.960      30.472      36.103      38.196      36.103      30.472    
  14.011      9.2372      6.0893      4.5668      4.0149      3.6857      3.5065      3.5065      3.6856      4.0147    
  4.5667      6.0892      9.2371      14.011      19.629      24.704      27.733      27.733      24.704      19.629    
  8.0758      5.7161      4.5021      4.0149      3.6930      3.4837      3.4124      3.4837      3.6929      4.0147    
  4.5019      5.7159      8.0756      11.437      15.068      17.899      18.971      17.899      15.069      11.437    
  5.1225      4.3391      3.9707      3.6857      3.4837      3.3822      3.3822      3.4837      3.6856      3.9706    
  4.3390      5.1223      6.5791      8.5399      10.456      11.648      11.648      10.457      8.5401      6.5793    
  4.1428      3.8891      3.6684      3.5065      3.4124      3.3822      3.4124      3.5066      3.6684      3.8891    
  4.1427      4.5326      5.2191      6.0964      6.8494      7.1471      6.8495      6.0966      5.2193      4.5328    
  3.7840      3.6528      3.5600      3.5065      3.4837      3.4837      3.5066      3.5601      3.6529      3.7841    
  3.9387      4.0992      4.3136      4.5683      4.7473      4.7474      4.5684      4.3137      4.0993      3.9387    
  3.6522      3.6528      3.6683      3.6856      3.6929      3.6856      3.6684      3.6529      3.6523      3.6744    
  3.7179      3.7727      3.8250      3.8635      3.8791      3.8635      3.8251      3.7727      3.7178      3.6743    
  3.7840      3.8890      3.9705      4.0147      4.0147      3.9706      3.8891      3.7841      3.6744      3.5791    
  3.5109      3.4719      3.4555      3.4509      3.4509      3.4554      3.4719      3.5108      3.5790      3.6743    
  4.1427      4.3390      4.5019      4.5667      4.5019      4.3390      4.1427      3.9387      3.7179      3.5109    
  3.3453      3.2331      3.1715      3.1523      3.1714      3.2330      3.3452      3.5108      3.7178      3.9386    
  5.1225      5.7160      6.0892      6.0892      5.7159      5.1223      4.5326      4.0992      3.7727      3.4719    
  3.2331      3.0758      3.0000      2.9999      3.0757      3.2330      3.4719      3.7727      4.0992      4.5327    
  8.0758      9.2372      9.6735      9.2371      8.0756      6.5791      5.2191      4.3136      3.8250      3.4555    
  3.1715      3.0000      2.9435      2.9999      3.1714      3.4554      3.8251      4.3137      5.2193      6.5793    
  14.011      15.518      15.518      14.011      11.437      8.5399      6.0964      4.5683      3.8635      3.4509    
  3.1523      2.9999      2.9999      3.1522      3.4509      3.8635      4.5684      6.0966      8.5401      11.437    
  22.960      24.177      22.960      19.629      15.068      10.456      6.8494      4.7473      3.8791      3.4509    
  3.1714      3.0757      3.1714      3.4509      3.8791      4.7474      6.8495      10.457      15.069      19.629    
  33.771      33.771      30.472      24.704      17.899      11.648      7.1471      4.7474      3.8635      3.4554    
  3.2330      3.2330      3.4554      3.8635      4.7474      7.1471      11.648      17.899      24.705      30.472    
  44.304      42.118      36.103      27.733      18.971      11.648      6.8495      4.5684      3.8251      3.4719    
  3.3452      3.4719      3.8251      4.5684      6.8495      11.648      18.971      27.733      36.103      42.118    
  52.022      46.996      38.196      27.733      17.899      10.457      6.0966      4.3137      3.7727      3.5108    
  3.5108      3.7727      4.3137      6.0966      10.457      17.899      27.733      38.196      46.996      52.022    
  54.860      46.995      36.103      24.704      15.069      8.5401      5.2193      4.0993      3.7178      3.5790    
  3.7178      4.0992      5.2193      8.5401      15.069      24.705      36.103      46.996      54.860      57.730    
  52.022      42.118      30.472      19.629      11.437      6.5793      4.5328      3.9387      3.6743      3.6743    
  3.9386      4.5327      6.5793      11.437      19.629      30.472      42.118      52.022      57.730      57.730    
  27.112      19.463      12.609      7.7374      5.1225      4.1535      3.7577      3.5385      3.5385      3.7576    
  4.1534      5.1225      7.7373      12.609      19.463      27.112      33.771      37.658      37.658      33.771    
  19.463      13.256      8.4382      5.5610      4.3391      3.8858      3.5997      3.4987      3.5996      3.8857    
  4.3390      5.5609      8.4382      13.256      19.463      25.755      30.472      32.226      30.472      25.755    
  12.609      8.4382      5.7308      4.4548      3.9707      3.6539      3.4837      3.4837      3.6538      3.9706    
  4.4547      5.7307      8.4381      12.609      17.553      22.031      24.705      24.705      22.031      17.553    
  7.7374      5.5610      4.4548      4.0003      3.6857      3.4825      3.4135      3.4825      3.6856      4.0002    
  4.4547      5.5608      7.7372      10.862      14.251      16.897      17.899      16.897      14.251      10.862    
  5.1225      4.3391      3.9707      3.6857      3.4837      3.3822      3.3822      3.4837      3.6856      3.9706    
  4.3390      5.1223      6.5791      8.5399      10.456      11.648      11.648      10.457      8.5401      6.5793    
  4.1535      3.8858      3.6539      3.4825      3.3822      3.3498      3.3822      3.4826      3.6539      3.8857    
  4.1534      4.5901      5.3553      6.3224      7.1470      7.4721      7.1471      6.3226      5.3555      4.5902    
  3.7577      3.5997      3.4837      3.4135      3.3822      3.3822      3.4136      3.4838      3.5997      3.7577    
  3.9384      4.1348      4.4178      4.7473      4.9748      4.9748      4.7474      4.4179      4.1349      3.9384    
  3.5385      3.4987      3.4837      3.4825      3.4837      3.4826      3.4838      3.4988      3.5386      3.6062    
  3.6935      3.7845      3.8635      3.9270      3.9536      3.9270      3.8635      3.7846      3.6935      3.6062    
  3.5385      3.5996      3.6538      3.6856      3.6856      3.6539      3.5997      3.5386      3.4868      3.4554    
  3.4469      3.4554      3.4703      3.4809      3.4809      3.4703      3.4554      3.4469      3.4553      3.4867    
  3.7576      3.8857      3.9706      4.0002      3.9706      3.8857      3.7577      3.6062      3.4554      3.3268    
  3.2330      3.1751      3.1459      3.1374      3.1459      3.1750      3.2330      3.3268      3.4553      3.6061    
  4.1534      4.3390      4.4547      4.4547      4.3390      4.1534      3.9384      3.6935      3.4469      3.2330    
  3.0734      2.9728      2.9256      2.9256      2.9727      3.0733      3.2330      3.4469      3.6935      3.9384    
  5.1225      5.5609      5.7307      5.5608      5.1223      4.5901      4.1348      3.7845      3.4554      3.1751    
  2.9728      2.8552      2.8173      2.8552      2.9727      3.1750      3.4554      3.7845      4.1349      4.5902    
  7.7373      8.4382      8.4381      7.7372      6.5791      5.3553      4.4178      3.8635      3.4703      3.1459    
  2.9256      2.8173      2.8172      2.9256      3.1459      3.4703      3.8635      4.4179      5.3555      6.5793    
  12.609      13.256      12.609      10.862      8.5399      6.3224      4.7473      3.9270      3.4809      3.1374    
  2.9256      2.8552      2.9256      3.1374      3.4809      3.9270      4.7474      6.3225      8.5401      10.862    
  19.463      19.463      17.553      14.251      10.456      7.1470      4.9748      3.9536      3.4809      3.1459    
  2.9727      2.9727      3.1459      3.4809      3.9536      4.9748      7.1471      10.456      14.251      17.553    
  27.112      25.755      22.031      16.897      11.648      7.4721      4.9748      3.9270      3.4703      3.1750    
  3.0733      3.1750      3.4703      3.9270      4.9748      7.4721      11.648      16.897      22.031      25.755    
  33.771      30.472      24.705      17.899      11.648      7.1471      4.7474      3.8635      3.4554      3.2330    
  3.2330      3.4554      3.8635      4.7474      7.1471      11.648      17.899      24.704      30.472      33.771    
  37.658      32.226      24.705      16.897      10.457      6.3226      4.4179      3.7846      3.4469      3.3268    
  3.4469      3.7845      4.4179      6.3225      10.456      16.897      24.704      32.226      37.658      39.638    
  37.658      30.472      22.031      14.251      8.5401      5.3555      4.1349      3.6935      3.4553      3.4553    
  3.6935      4.1349      5.3555      8.5401      14.251      22.031      30.472      37.658      41.791      41.791    
  33.771      25.755      17.553      10.862      6.5793      4.5902      3.9384      3.6062      3.4867      3.6061    
  3.9384      4.5902      6.5793      10.862      17.553      25.755      33.771      39.638      41.791      39.637    
  14.818      10.287      6.8632      4.9246      4.1428      3.7577      3.5016      3.4131      3.5016      3.7576    
  4.1428      4.9245      6.8632      10.287      14.818      19.463      22.960      24.260      22.960      19.464    
  10.287      7.1404      5.1720      4.2875      3.8891      3.5997      3.4476      3.4476      3.5997      3.8891    
  4.2874      5.1719      7.1403      10.287      14.085      17.553      19.629      19.629      17.553      14.085    
  6.8632      5.1720      4.3418      3.9598      3.6684      3.4837      3.4216      3.4837      3.6684      3.9598    