fcc Ni                                  
   3.10000000000000     
     0.500000    0.500000    0.000000
     0.000000    0.500000    0.500000
     0.500000    0.000000    0.500000
   Ni
     1
Direct
  0.000000  0.000000  0.000000
 
   20   20   20
 0.10231265482E+03 0.97225860200E+02 0.83355796288E+02 0.64271854922E+02 0.44304010955E+02
 0.27112101891E+02 0.14818144522E+02 0.77905813403E+01 0.49185625461E+01 0.42299228529E+01
 0.40706502747E+01 0.42299228529E+01 0.49185625461E+01 0.77905813403E+01 0.14818144522E+02
 0.27112101891E+02 0.44304010955E+02 0.64271854922E+02 0.83355796288E+02 0.97225860200E+02
 0.97225860200E+02 0.87758133837E+02 0.71354619461E+02 0.52021830851E+02 0.33771176286E+02
 0.19463398918E+02 0.10286654834E+02 0.58013481226E+01 0.43931918873E+01 0.40780965170E+01
 0.40780932782E+01 0.43931894830E+01 0.58013641740E+01 0.10286710072E+02 0.19463505518E+02
 0.33771330638E+02 0.52022011266E+02 0.71354790005E+02 0.87758256734E+02 0.97225905197E+02
 0.83355796288E+02 0.71354619461E+02 0.54860143500E+02 0.37658003640E+02 0.22959440829E+02
 0.12608904954E+02 0.68632334046E+01 0.46372355022E+01 0.40973672276E+01 0.39431677750E+01
 0.40973488287E+01 0.46372234039E+01 0.68632657944E+01 0.12609016190E+02 0.22959642924E+02
 0.37658276675E+02 0.54860437918E+02 0.71354869084E+02 0.83355939666E+02 0.87758256734E+02
 0.64271854922E+02 0.52021830851E+02 0.37658003640E+02 0.24259851137E+02 0.14010764496E+02
 0.77373849081E+01 0.49245972373E+01 0.41207693794E+01 0.38437562527E+01 0.38437341870E+01
 0.41207192916E+01 0.49245615880E+01 0.77374136788E+01 0.14010892816E+02 0.24260080486E+02
 0.37658297050E+02 0.52022122442E+02 0.64272069609E+02 0.71354869084E+02 0.71354790005E+02
 0.44304010955E+02 0.33771176286E+02 0.22959440829E+02 0.14010764496E+02 0.80757951751E+01
 0.51225353979E+01 0.41427966650E+01 0.37840358953E+01 0.36521534782E+01 0.37839804029E+01
 0.41427144193E+01 0.51224727384E+01 0.80757968713E+01 0.14010853875E+02 0.22959609168E+02
 0.33771383155E+02 0.44304197972E+02 0.52022122442E+02 0.54860437918E+02 0.52022011266E+02
 0.27112101891E+02 0.19463398918E+02 0.12608904954E+02 0.77373849081E+01 0.51225353979E+01
 0.41534784168E+01 0.37576729948E+01 0.35385266404E+01 0.35385011363E+01 0.37576056104E+01
 0.41533923458E+01 0.51224603579E+01 0.77373457032E+01 0.12608911325E+02 0.19463443954E+02
 0.27112164343E+02 0.33771383155E+02 0.37658297050E+02 0.37658276675E+02 0.33771330638E+02
 0.14818144522E+02 0.10286654834E+02 0.68632334046E+01 0.49245972373E+01 0.41427966650E+01
 0.37576729948E+01 0.35016120968E+01 0.34131220448E+01 0.35015982541E+01 0.37576434417E+01
 0.41427499592E+01 0.49245331153E+01 0.68631560280E+01 0.10286570794E+02 0.14818065217E+02
 0.19463443954E+02 0.22959609168E+02 0.24260080486E+02 0.22959642924E+02 0.19463505518E+02
 0.77905813403E+01 0.58013481226E+01 0.46372355022E+01 0.41207693794E+01 0.37840358953E+01
 0.35385266404E+01 0.34131220448E+01 0.34131406407E+01 0.35385722567E+01 0.37840824701E+01
 0.41207866071E+01 0.46371998174E+01 0.58012553266E+01 0.77904485482E+01 0.10286570794E+02
 0.12608911325E+02 0.14010853875E+02 0.14010892816E+02 0.12609016190E+02 0.10286710072E+02
 0.49185625461E+01 0.43931918873E+01 0.40973672276E+01 0.38437562527E+01 0.36521534782E+01
 0.35385011363E+01 0.35015982541E+01 0.35385722567E+01 0.36522691759E+01 0.38438723996E+01
 0.40974413395E+01 0.43931965356E+01 0.49184966654E+01 0.58012553266E+01 0.68631560280E+01
 0.77373457032E+01 0.80757968713E+01 0.77374136788E+01 0.68632657944E+01 0.58013641740E+01
 0.42299228529E+01 0.40780965170E+01 0.39431677750E+01 0.38437341870E+01 0.37839804029E+01
 0.37576056104E+01 0.37576434417E+01 0.37840824701E+01 0.38438723996E+01 0.39433055856E+01
 0.40782018661E+01 0.42299789150E+01 0.43931965356E+01 0.46371998174E+01 0.49245331153E+01
 0.51224603579E+01 0.51224727384E+01 0.49245615880E+01 0.46372234039E+01 0.43931894830E+01
 0.40706502747E+01 0.40780932782E+01 0.40973488287E+01 0.41207192916E+01 0.41427144193E+01
 0.41533923458E+01 0.41427499592E+01 0.41207866071E+01 0.40974413395E+01 0.40782018661E+01
 0.40707640709E+01 0.40782018661E+01 0.40974413395E+01 0.41207866071E+01 0.41427499592E+01
 0.41533923458E+01 0.41427144193E+01 0.41207192916E+01 0.40973488287E+01 0.40780932782E+01
 0.42299228529E+01 0.43931894830E+01 0.46372234039E+01 0.49245615880E+01 0.51224727384E+01
 0.51224603579E+01 0.49245331153E+01 0.46371998174E+01 0.43931965356E+01 0.42299789150E+01
 0.40782018661E+01 0.39433055856E+01 0.38438723996E+01 0.37840824701E+01 0.37576434417E+01
 0.37576056104E+01 0.37839804029E+01 0.38437341870E+01 0.39431677750E+01 0.40780965170E+01
 0.49185625461E+01 0.58013641740E+01 0.68632657944E+01 0.77374136788E+01 0.80757968713E+01
 0.77373457032E+01 0.68631560280E+01 0.58012553266E+01 0.49184966654E+01 0.43931965356E+01
 0.40974413395E+01 0.38438723996E+01 0.36522691759E+01 0.35385722567E+01 0.35015982541E+01
 0.35385011363E+01 0.36521534782E+01 0.38437562527E+01 0.40973672276E+01 0.43931918873E+01
 0.77905813403E+01 0.10286710072E+02 0.12609016190E+02 0.14010892816E+02 0.14010853875E+02
 0.12608911325E+02 0.10286570794E+02 0.77904485482E+01 0.58012553266E+01 0.46371998174E+01
 0.41207866071E+01 0.37840824701E+01 0.35385722567E+01 0.34131406407E+01 0.34131220448E+01
 0.35385266404E+01 0.37840358953E+01 0.41207693794E+01 0.46372355022E+01 0.58013481226E+01
 0.14818144522E+02 0.19463505518E+02 0.22959642924E+02 0.24260080486E+02 0.22959609168E+02
 0.19463443954E+02 0.14818065217E+02 0.10286570794E+02 0.68631560280E+01 0.49245331153E+01
 0.41427499592E+01 0.37576434417E+01 0.35015982541E+01 0.34131220448E+01 0.35016120968E+01
 0.37576729948E+01 0.41427966650E+01 0.49245972373E+01 0.68632334046E+01 0.10286654834E+02
 0.27112101891E+02 0.33771330638E+02 0.37658276675E+02 0.37658297050E+02 0.33771383155E+02
 0.27112164343E+02 0.19463443954E+02 0.12608911325E+02 0.77373457032E+01 0.51224603579E+01
 0.41533923458E+01 0.37576056104E+01 0.35385011363E+01 0.35385266404E+01 0.37576729948E+01
 0.41534784168E+01 0.51225353979E+01 0.77373849081E+01 0.12608904954E+02 0.19463398918E+02
 0.44304010955E+02 0.52022011266E+02 0.54860437918E+02 0.52022122442E+02 0.44304197972E+02
 0.33771383155E+02 0.22959609168E+02 0.14010853875E+02 0.80757968713E+01 0.51224727384E+01
 0.41427144193E+01 0.37839804029E+01 0.36521534782E+01 0.37840358953E+01 0.41427966650E+01
 0.51225353979E+01 0.80757951751E+01 0.14010764496E+02 0.22959440829E+02 0.33771176286E+02
 0.64271854922E+02 0.71354790005E+02 0.71354869084E+02 0.64272069609E+02 0.52022122442E+02
 0.37658297050E+02 0.24260080486E+02 0.14010892816E+02 0.77374136788E+01 0.49245615880E+01
 0.41207192916E+01 0.38437341870E+01 0.38437562527E+01 0.41207693794E+01 0.49245972373E+01
 0.77373849081E+01 0.14010764496E+02 0.24259851137E+02 0.37658003640E+02 0.52021830851E+02
 0.83355796288E+02 0.87758256734E+02 0.83355939666E+02 0.71354869084E+02 0.54860437918E+02
 0.37658276675E+02 0.22959642924E+02 0.12609016190E+02 0.68632657944E+01 0.46372234039E+01
 0.40973488287E+01 0.39431677750E+01 0.40973672276E+01 0.46372355022E+01 0.68632334046E+01
 0.12608904954E+02 0.22959440829E+02 0.37658003640E+02 0.54860143500E+02 0.71354619461E+02
 0.97225860200E+02 0.97225905197E+02 0.87758256734E+02 0.71354790005E+02 0.52022011266E+02
 0.33771330638E+02 0.19463505518E+02 0.10286710072E+02 0.58013641740E+01 0.43931894830E+01
 0.40780932782E+01 0.40780965170E+01 0.43931918873E+01 0.58013481226E+01 0.10286654834E+02
 0.19463398918E+02 0.33771176286E+02 0.52021830851E+02 0.71354619461E+02 0.87758133837E+02
 0.97225860072E+02 0.87758133631E+02 0.71354619330E+02 0.52021830803E+02 0.33771176235E+02
 0.19463398895E+02 0.10286654925E+02 0.58013482596E+01 0.43931919268E+01 0.40780964720E+01
 0.40780932620E+01 0.43931894878E+01 0.58013641236E+01 0.10286710027E+02 0.19463505601E+02
 0.33771330805E+02 0.52022011377E+02 0.71354790050E+02 0.87758256788E+02 0.97225905210E+02
 0.87758133631E+02 0.75100380099E+02 0.57729525425E+02 0.39637177338E+02 0.24176978532E+02
 0.13255900913E+02 0.71404068085E+01 0.47290655834E+01 0.41504052450E+01 0.39952041651E+01
 0.41503890237E+01 0.47290592720E+01 0.71404512193E+01 0.13256032656E+02 0.24177209100E+02
 0.39637484189E+02 0.57729853382E+02 0.75100657034E+02 0.87758292694E+02 0.92405758486E+02
 0.71354619330E+02 0.57729525425E+02 0.41790757488E+02 0.26931841044E+02 0.15517763742E+02
 0.84382165787E+01 0.51719630886E+01 0.42184504387E+01 0.39361691269E+01 0.39361470098E+01
 0.42184031130E+01 0.51719402281E+01 0.84382763358E+01 0.15517945972E+02 0.26932144724E+02
 0.41791135220E+02 0.57729895736E+02 0.71354889827E+02 0.79249706141E+02 0.79249607083E+02
 0.52021830803E+02 0.39637177338E+02 0.26931841044E+02 0.16362744711E+02 0.92371808058E+01
 0.55609770993E+01 0.42874774957E+01 0.39030223806E+01 0.37647426875E+01 0.39029567279E+01
 0.42873861074E+01 0.55609238667E+01 0.92372258132E+01 0.16362917693E+02 0.26932124502E+02
 0.39637509524E+02 0.52022125311E+02 0.61118343096E+02 0.64469379636E+02 0.61118170081E+02
 0.33771176235E+02 0.24176978532E+02 0.15517763742E+02 0.92371808058E+01 0.57160694150E+01
 0.43391210947E+01 0.38891285508E+01 0.36528042689E+01 0.36527634443E+01 0.38890240122E+01
 0.43389989416E+01 0.57159873071E+01 0.92371831243E+01 0.15517863984E+02 0.24177152920E+02
 0.33771370875E+02 0.42117970961E+02 0.46995511057E+02 0.46995453777E+02 0.42117819175E+02
 0.19463398895E+02 0.13255900913E+02 0.84382165787E+01 0.55609770993E+01 0.43391210947E+01
 0.38857811532E+01 0.35996753027E+01 0.34986916626E+01 0.35996161751E+01 0.38856806646E+01
 0.43390084888E+01 0.55608833601E+01 0.84381630743E+01 0.13255892378E+02 0.19463424432E+02
 0.25754940735E+02 0.30472408930E+02 0.32225810175E+02 0.30472382709E+02 0.25754903125E+02
 0.10286654925E+02 0.71404068085E+01 0.51719630886E+01 0.42874774957E+01 0.38891285508E+01
 0.35996753027E+01 0.34476000589E+01 0.34475938126E+01 0.35996542964E+01 0.38890892315E+01
 0.42874162324E+01 0.51718800359E+01 0.71403080020E+01 0.10286551473E+02 0.14085126362E+02
 0.17552884554E+02 0.19629290160E+02 0.19629312455E+02 0.17552947336E+02 0.14085217844E+02
 0.58013482596E+01 0.47290655834E+01 0.42184504387E+01 0.39030223806E+01 0.36528042689E+01
 0.34986916626E+01 0.34475938126E+01 0.34987319209E+01 0.36528645396E+01 0.39030705081E+01
 0.42184564904E+01 0.47290118727E+01 0.58012409892E+01 0.74676419800E+01 0.93560509395E+01
 0.10861653515E+02 0.11436716746E+02 0.10861726473E+02 0.93561740120E+01 0.74677765406E+01
 0.43931919268E+01 0.41504052450E+01 0.39361691269E+01 0.37647426875E+01 0.36527634443E+01
 0.35996161751E+01 0.35996542964E+01 0.36528645396E+01 0.37648722068E+01 0.39362828347E+01
 0.41504678925E+01 0.43931872800E+01 0.48086899148E+01 0.54495705387E+01 0.61342891266E+01
 0.65792617916E+01 0.65792907312E+01 0.61343636977E+01 0.54496584358E+01 0.48087523122E+01
 0.40780964720E+01 0.39952041651E+01 0.39361470098E+01 0.39029567279E+01 0.38890240122E+01
 0.38856806646E+01 0.38890892315E+01 0.39030705081E+01 0.39362828347E+01 0.39953327334E+01
 0.40781954435E+01 0.41728447975E+01 0.42696205046E+01 0.43995592119E+01 0.45327366042E+01
 0.45901762334E+01 0.45327406144E+01 0.43995568318E+01 0.42695961944E+01 0.41727846648E+01
 0.40780932620E+01 0.41503890237E+01 0.42184031130E+01 0.42873861074E+01 0.43389989416E+01
 0.43390084888E+01 0.42874162324E+01 0.42184564904E+01 0.41504678925E+01 0.40781954435E+01
 0.40142154566E+01 0.39692289471E+01 0.39459081304E+01 0.39387035448E+01 0.39384179169E+01
 0.39383924157E+01 0.39386321134E+01 0.39458039283E+01 0.39691091132E+01 0.40140977823E+01
 0.43931894878E+01 0.47290592720E+01 0.51719402281E+01 0.55609238667E+01 0.57159873071E+01
 0.55608833601E+01 0.51718800359E+01 0.47290118727E+01 0.43931872800E+01 0.41728447975E+01
 0.39692289471E+01 0.37962465715E+01 0.36744262153E+01 0.36062084372E+01 0.35847865745E+01
 0.36061313243E+01 0.36742962102E+01 0.37961030494E+01 0.39691136263E+01 0.41727847146E+01
 0.58013641236E+01 0.71404512193E+01 0.84382763358E+01 0.92372258132E+01 0.92371831243E+01
 0.84381630743E+01 0.71403080020E+01 0.58012409892E+01 0.48086899148E+01 0.42696205046E+01
 0.39459081304E+01 0.36744262153E+01 0.34867866792E+01 0.33939469236E+01 0.33939111677E+01
 0.34866935507E+01 0.36743150424E+01 0.39458254484E+01 0.42696034406E+01 0.48087522222E+01
 0.10286710027E+02 0.13256032656E+02 0.15517945972E+02 0.16362917693E+02 0.15517863984E+02
 0.13255892378E+02 0.10286551473E+02 0.74676419800E+01 0.54495705387E+01 0.43995592119E+01
 0.39387035448E+01 0.36062084372E+01 0.33939469236E+01 0.33222631762E+01 0.33939155469E+01
 0.36061651743E+01 0.39386782264E+01 0.43995806378E+01 0.54496525319E+01 0.74677763587E+01
 0.19463505601E+02 0.24177209100E+02 0.26932144724E+02 0.26932124502E+02 0.24177152920E+02
 0.19463424432E+02 0.14085126362E+02 0.93560509395E+01 0.61342891266E+01 0.45327366042E+01
 0.39384179169E+01 0.35847865745E+01 0.33939111677E+01 0.33939155469E+01 0.35848019067E+01
 0.39384484030E+01 0.45327867280E+01 0.61343593938E+01 0.93561368787E+01 0.14085217835E+02
 0.33771330805E+02 0.39637484189E+02 0.41791135220E+02 0.39637509524E+02 0.33771370875E+02
 0.25754940735E+02 0.17552884554E+02 0.10861653515E+02 0.65792617916E+01 0.45901762334E+01
 0.39383924157E+01 0.36061313243E+01 0.34866935507E+01 0.36061651743E+01 0.39384484030E+01
 0.45902354491E+01 0.65793041423E+01 0.10861666820E+02 0.17552867490E+02 0.25754903315E+02
 0.52022011377E+02 0.57729853382E+02 0.57729895736E+02 0.52022125311E+02 0.42117970961E+02
 0.30472408930E+02 0.19629290160E+02 0.11436716746E+02 0.65792907312E+01 0.45327406144E+01
 0.39386321134E+01 0.36742962102E+01 0.36743150424E+01 0.39386782264E+01 0.45327867280E+01
 0.65793041423E+01 0.11436673479E+02 0.19629185694E+02 0.30472262263E+02 0.42117819336E+02
 0.71354790050E+02 0.75100657034E+02 0.71354889827E+02 0.61118343096E+02 0.46995511057E+02
 0.32225810175E+02 0.19629312455E+02 0.10861726473E+02 0.61343636977E+01 0.43995568318E+01
 0.39458039283E+01 0.37961030494E+01 0.39458254484E+01 0.43995806378E+01 0.61343593938E+01
 0.10861666820E+02 0.19629185694E+02 0.32225629108E+02 0.46995310298E+02 0.61118170173E+02
 0.87758256788E+02 0.87758292694E+02 0.79249706141E+02 0.64469379636E+02 0.46995453777E+02
 0.30472382709E+02 0.17552947336E+02 0.93561740120E+01 0.54496584358E+01 0.42695961944E+01
 0.39691091132E+01 0.39691136263E+01 0.42696034406E+01 0.54496525319E+01 0.93561368787E+01
 0.17552867490E+02 0.30472262263E+02 0.46995310298E+02 0.64469242286E+02 0.79249607267E+02
 0.97225905210E+02 0.92405758486E+02 0.79249607083E+02 0.61118170081E+02 0.42117819175E+02
 0.25754903125E+02 0.14085217844E+02 0.74677765406E+01 0.48087523122E+01 0.41727846648E+01
 0.40140977823E+01 0.41727847146E+01 0.48087522222E+01 0.74677763587E+01 0.14085217835E+02
 0.25754903315E+02 0.42117819336E+02 0.61118170173E+02 0.79249607267E+02 0.92405758705E+02
 0.83355796006E+02 0.71354619176E+02 0.54860143447E+02 0.37658003730E+02 0.22959440863E+02
 0.12608905006E+02 0.68632336039E+01 0.46372356865E+01 0.40973671905E+01 0.39431676424E+01
 0.40973488225E+01 0.46372234561E+01 0.68632657574E+01 0.12609016189E+02 0.22959643123E+02
 0.37658276911E+02 0.54860437952E+02 0.71354868989E+02 0.83355939614E+02 0.87758256633E+02
 0.71354619176E+02 0.57729525346E+02 0.41790757567E+02 0.26931841181E+02 0.15517763827E+02
 0.84382166537E+01 0.51719631972E+01 0.42184504861E+01 0.39361690504E+01 0.39361469222E+01
 0.42184031229E+01 0.51719402755E+01 0.84382763493E+01 0.15517946017E+02 0.26932144841E+02
 0.41791135289E+02 0.57729895660E+02 0.71354889687E+02 0.79249706036E+02 0.79249606968E+02
 0.54860143447E+02 0.41790757567E+02 0.28390890891E+02 0.17231900850E+02 0.96735593825E+01
 0.57307747903E+01 0.43417888433E+01 0.39448126900E+01 0.38046742417E+01 0.39447447337E+01
 0.43416963202E+01 0.57307274193E+01 0.96736221478E+01 0.17232105455E+02 0.28391216518E+02
 0.41791135152E+02 0.54860476493E+02 0.64469436789E+02 0.68011810007E+02 0.64469242180E+02
 0.37658003730E+02 0.26931841181E+02 0.17231900850E+02 0.10140689790E+02 0.60893131928E+01
 0.44548500453E+01 0.39598146645E+01 0.37159418842E+01 0.37158935283E+01 0.39596921312E+01
 0.44547120602E+01 0.60892316997E+01 0.10140719648E+02 0.17232057308E+02 0.26932090671E+02
 0.37658274714E+02 0.46995518807E+02 0.52458184308E+02 0.52458106253E+02 0.46995310342E+02
 0.22959440863E+02 0.15517763827E+02 0.96735593825E+01 0.60893131928E+01 0.45020764314E+01
 0.39706760897E+01 0.36683693064E+01 0.35600246978E+01 0.36682784226E+01 0.39705261998E+01
 0.45019193365E+01 0.60892023308E+01 0.96735282305E+01 0.15517815565E+02 0.22959547378E+02
 0.30472375318E+02 0.36102828984E+02 0.38196294243E+02 0.36102757460E+02 0.30472262186E+02
 0.12608905006E+02 0.84382166537E+01 0.57307747903E+01 0.44548500453E+01 0.39706760897E+01
 0.36539065692E+01 0.34836968960E+01 0.34836665545E+01 0.36538218673E+01 0.39705552272E+01
 0.44547165149E+01 0.57306517023E+01 0.84381197350E+01 0.12608839654E+02 0.17552831078E+02
 0.22030819832E+02 0.24704519347E+02 0.24704523830E+02 0.22030836119E+02 0.17552867375E+02
 0.68632336039E+01 0.51719631972E+01 0.43417888433E+01 0.39598146645E+01 0.36683693064E+01
 0.34836968960E+01 0.34215567558E+01 0.34836923722E+01 0.36683520894E+01 0.39597729819E+01
 0.43417128323E+01 0.51718516633E+01 0.68630980109E+01 0.93559982206E+01 0.12097362248E+02
 0.14250937342E+02 0.15068625511E+02 0.14251001821E+02 0.12097476337E+02 0.93561369956E+01
 0.46372356865E+01 0.42184504861E+01 0.39448126900E+01 0.37159418842E+01 0.35600246978E+01
 0.34836665545E+01 0.34836923722E+01 0.35600908865E+01 0.37160173528E+01 0.39448604313E+01
 0.42184422333E+01 0.46371622130E+01 0.54495312921E+01 0.66140403481E+01 0.77937941028E+01
 0.85400844468E+01 0.85401230571E+01 0.77938975854E+01 0.66141741125E+01 0.54496527613E+01
 0.40973671905E+01 0.39361690504E+01 0.38046742417E+01 0.37158935283E+01 0.36682784226E+01
 0.36538218673E+01 0.36683520894E+01 0.37160173528E+01 0.38048100332E+01 0.39362759430E+01
 0.40974191123E+01 0.42695950196E+01 0.45249919982E+01 0.48858668081E+01 0.52192419846E+01
 0.53554583472E+01 0.52192839546E+01 0.48859300301E+01 0.45250438363E+01 0.42696034540E+01
 0.39431676424E+01 0.39361469222E+01 0.39447447337E+01 0.39596921312E+01 0.39705261998E+01
 0.39705552272E+01 0.39597729819E+01 0.39448604313E+01 0.39362759430E+01 0.39432886250E+01
 0.39692110978E+01 0.40095896111E+01 0.40543363569E+01 0.40992481271E+01 0.41348566845E+01
 0.41348510516E+01 0.40992280835E+01 0.40542954723E+01 0.40095213644E+01 0.39691134890E+01
 0.40973488225E+01 0.42184031229E+01 0.43416963202E+01 0.44547120602E+01 0.45019193365E+01
 0.44547165149E+01 0.43417128323E+01 0.42184422333E+01 0.40974191123E+01 0.39692110978E+01
 0.38544620062E+01 0.37693493939E+01 0.37179008382E+01 0.36935451719E+01 0.36868252744E+01
 0.36934866155E+01 0.37177975136E+01 0.37692232637E+01 0.38543378136E+01 0.39691091231E+01
 0.46372234561E+01 0.51719402755E+01 0.57307274193E+01 0.60892316997E+01 0.60892023308E+01
 0.57306517023E+01 0.51718516633E+01 0.46371622130E+01 0.42695950196E+01 0.40095896111E+01
 0.37693493939E+01 0.35791370293E+01 0.34554198941E+01 0.33966628889E+01 0.33966228364E+01
 0.34553136989E+01 0.35790004291E+01 0.37692285816E+01 0.40095215492E+01 0.42695962915E+01
 0.68632657574E+01 0.84382763493E+01 0.96736221478E+01 0.10140719648E+02 0.96735282305E+01
 0.84381197350E+01 0.68630980109E+01 0.54495312921E+01 0.45249919982E+01 0.40543363569E+01
 0.37179008382E+01 0.34554198941E+01 0.32957607596E+01 0.32430881024E+01 0.32956986738E+01
 0.34553239384E+01 0.37178166557E+01 0.40543071512E+01 0.45250438363E+01 0.54496583593E+01
 0.12609016189E+02 0.15517946017E+02 0.17232105455E+02 0.17232057308E+02 0.15517815565E+02
 0.12608839654E+02 0.93559982206E+01 0.66140403481E+01 0.48858668081E+01 0.40992481271E+01
 0.36935451719E+01 0.33966628889E+01 0.32430881024E+01 0.32430721499E+01 0.33966260903E+01
 0.36935145882E+01 0.40992561896E+01 0.48859367640E+01 0.66141739278E+01 0.93561738747E+01
 0.22959643123E+02 0.26932144841E+02 0.28391216518E+02 0.26932090671E+02 0.22959547378E+02
 0.17552831078E+02 0.12097362248E+02 0.77937941028E+01 0.52192419846E+01 0.41348566845E+01
 0.36868252744E+01 0.33966228364E+01 0.32956986738E+01 0.33966260903E+01 0.36868385922E+01
 0.41348906032E+01 0.52193050220E+01 0.77938869972E+01 0.12097476337E+02 0.17552947445E+02
 0.37658276911E+02 0.41791135289E+02 0.41791135152E+02 0.37658274714E+02 0.30472375318E+02
 0.22030819832E+02 0.14250937342E+02 0.85400844468E+01 0.53554583472E+01 0.41348510516E+01
 0.36934866155E+01 0.34553136989E+01 0.34553239384E+01 0.36935145882E+01 0.41348906032E+01
 0.53555007614E+01 0.85401221644E+01 0.14250965345E+02 0.22030836303E+02 0.30472382969E+02
 0.54860437952E+02 0.57729895660E+02 0.54860476493E+02 0.46995518807E+02 0.36102828984E+02
 0.24704519347E+02 0.15068625511E+02 0.85401230571E+01 0.52192839546E+01 0.40992280835E+01
 0.37177975136E+01 0.35790004291E+01 0.37178166557E+01 0.40992561896E+01 0.52193050220E+01
 0.85401221644E+01 0.15068594527E+02 0.24704460909E+02 0.36102757460E+02 0.46995453862E+02
 0.71354868989E+02 0.71354889687E+02 0.64469436789E+02 0.52458184308E+02 0.38196294243E+02
 0.24704523830E+02 0.14251001821E+02 0.77938975854E+01 0.48859300301E+01 0.40542954723E+01
 0.37692232637E+01 0.37692285816E+01 0.40543071512E+01 0.48859367640E+01 0.77938869972E+01
 0.14250965345E+02 0.24704460909E+02 0.38196215100E+02 0.52458106068E+02 0.64469379589E+02
 0.83355939614E+02 0.79249706036E+02 0.68011810007E+02 0.52458106253E+02 0.36102757460E+02
 0.22030836119E+02 0.12097476337E+02 0.66141741125E+01 0.45250438363E+01 0.40095213644E+01
 0.38543378136E+01 0.40095215492E+01 0.45250438363E+01 0.66141739278E+01 0.12097476337E+02
 0.22030836303E+02 0.36102757460E+02 0.52458106068E+02 0.68011810007E+02 0.79249706220E+02
 0.87758256633E+02 0.79249606968E+02 0.64469242180E+02 0.46995310342E+02 0.30472262186E+02
 0.17552867375E+02 0.93561369956E+01 0.54496527613E+01 0.42696034540E+01 0.39691134890E+01
 0.39691091231E+01 0.42695962915E+01 0.54496583593E+01 0.93561738747E+01 0.17552947445E+02
 0.30472382969E+02 0.46995453862E+02 0.64469379589E+02 0.79249706220E+02 0.87758292799E+02
 0.64271854699E+02 0.52021830708E+02 0.37658003789E+02 0.24259851338E+02 0.14010764511E+02
 0.77373849193E+01 0.49245974152E+01 0.41207694906E+01 0.38437561069E+01 0.38437340356E+01
 0.41207193708E+01 0.49245616992E+01 0.77374136230E+01 0.14010892797E+02 0.24260080673E+02
 0.37658297183E+02 0.52022122296E+02 0.64272069405E+02 0.71354869048E+02 0.71354789955E+02
 0.52021830708E+02 0.39637177401E+02 0.26931841324E+02 0.16362744960E+02 0.92371808720E+01
 0.55609771335E+01 0.42874775828E+01 0.39030223547E+01 0.37647425021E+01 0.39029566215E+01
 0.42873862028E+01 0.55609239731E+01 0.92372258079E+01 0.16362917719E+02 0.26932124606E+02
 0.39637509489E+02 0.52022125054E+02 0.61118342847E+02 0.64469379547E+02 0.61118170017E+02
 0.37658003789E+02 0.26931841324E+02 0.17231901051E+02 0.10140689902E+02 0.60893131741E+01
 0.44548500044E+01 0.39598146430E+01 0.37159418110E+01 0.37158934195E+01 0.39596921124E+01
 0.44547121456E+01 0.60892317587E+01 0.10140719630E+02 0.17232057290E+02 0.26932090657E+02
 0.37658274611E+02 0.46995518627E+02 0.52458184199E+02 0.52458106269E+02 0.46995310393E+02
 0.24259851338E+02 0.16362744960E+02 0.10140689902E+02 0.62943901313E+01 0.45668328623E+01
 0.40002820813E+01 0.36930593250E+01 0.35823290404E+01 0.36929571489E+01 0.40001149302E+01
 0.45666605718E+01 0.62942736941E+01 0.10140667004E+02 0.16362818249E+02 0.24259986879E+02
 0.32225769463E+02 0.38196303380E+02 0.40416741072E+02 0.38196215396E+02 0.32225629265E+02
 0.14010764511E+02 0.92371808720E+01 0.60893131741E+01 0.45668328623E+01 0.40148801657E+01
 0.36856943800E+01 0.35065243578E+01 0.35064793809E+01 0.36855711148E+01 0.40147100716E+01
 0.45666557198E+01 0.60891659682E+01 0.92370848856E+01 0.14010721884E+02 0.19629181882E+02
 0.24704472318E+02 0.27732565521E+02 0.27732558888E+02 0.24704460890E+02 0.19629185599E+02
 0.77373849193E+01 0.55609771335E+01 0.44548500044E+01 0.40002820813E+01 0.36856943800E+01
 0.34825346403E+01 0.34135204946E+01 0.34824906185E+01 0.36856091268E+01 0.40001619169E+01
 0.44547035068E+01 0.55608176178E+01 0.77372280844E+01 0.10861529006E+02 0.14250862991E+02
 0.16896915533E+02 0.17899224237E+02 0.16896970170E+02 0.14250965119E+02 0.10861666664E+02
 0.49245974152E+01 0.42874775828E+01 0.39598146430E+01 0.36930593250E+01 0.35065243578E+01
 0.34135204946E+01 0.34135276336E+01 0.35065385436E+01 0.36930596963E+01 0.39597781295E+01
 0.42873881459E+01 0.49244563941E+01 0.61341888224E+01 0.77937217798E+01 0.94325368983E+01
 0.10456483152E+02 0.10456527186E+02 0.94326568838E+01 0.77938869758E+01 0.61343594892E+01
 0.41207694906E+01 0.39030223547E+01 0.37159418110E+01 0.35823290404E+01 0.35064793809E+01
 0.34824906185E+01 0.35065385436E+01 0.35824230311E+01 0.37160309315E+01 0.39030672155E+01
 0.41207479089E+01 0.43994940604E+01 0.48858126175E+01 0.55304789585E+01 0.60964943344E+01
 0.63225123580E+01 0.60965669697E+01 0.55305984518E+01 0.48859368755E+01 0.43995807940E+01
 0.38437561069E+01 0.37647425021E+01 0.37158934195E+01 0.36929571489E+01 0.36855711148E+01
 0.36856091268E+01 0.36930596963E+01 0.37160309315E+01 0.37648769901E+01 0.38438534682E+01
 0.39458689200E+01 0.40543008102E+01 0.41720362237E+01 0.43136876023E+01 0.44178693624E+01
 0.44178851995E+01 0.43137256109E+01 0.41720723445E+01 0.40543070424E+01 0.39458253531E+01
 0.38437340356E+01 0.39029566215E+01 0.39596921124E+01 0.40001149302E+01 0.40147100716E+01
 0.40001619169E+01 0.39597781295E+01 0.39030672155E+01 0.38438534682E+01 0.37962162383E+01
 0.37693239102E+01 0.37639256956E+01 0.37727415275E+01 0.37845593787E+01 0.37897392253E+01
 0.37845363460E+01 0.37726942620E+01 0.37638538843E+01 0.37692283781E+01 0.37961028932E+01
 0.41207193708E+01 0.42873862028E+01 0.44547121456E+01 0.45666605718E+01 0.45666557198E+01
 0.44547035068E+01 0.42873881459E+01 0.41207479089E+01 0.39458689200E+01 0.37693239102E+01
 0.36188040997E+01 0.35108822366E+01 0.34469447114E+01 0.34188096184E+01 0.34187786910E+01
 0.34468601928E+01 0.35107652345E+01 0.36186822159E+01 0.37692233492E+01 0.39458040237E+01
 0.49245616992E+01 0.55609239731E+01 0.60892317587E+01 0.62942736941E+01 0.60891659682E+01
 0.55608176178E+01 0.49244563941E+01 0.43994940604E+01 0.40543008102E+01 0.37639256956E+01
 0.35108822366E+01 0.33268727536E+01 0.32201663249E+01 0.31858260048E+01 0.32200974296E+01
 0.33267607876E+01 0.35107693027E+01 0.37638541468E+01 0.40542957160E+01 0.43995569880E+01
 0.77374136230E+01 0.92372258079E+01 0.10140719630E+02 0.10140667004E+02 0.92370848856E+01
 0.77372280844E+01 0.61341888224E+01 0.48858126175E+01 0.41720362237E+01 0.37727415275E+01
 0.34469447114E+01 0.32201663249E+01 0.31072407503E+01 0.31072127374E+01 0.32200957861E+01
 0.34468690959E+01 0.37727047929E+01 0.41720724345E+01 0.48859300113E+01 0.61343636023E+01
 0.14010892797E+02 0.16362917719E+02 0.17232057290E+02 0.16362818249E+02 0.14010721884E+02
 0.10861529006E+02 0.77937217798E+01 0.55304789585E+01 0.43136876023E+01 0.37845593787E+01
 0.34188096184E+01 0.31858260048E+01 0.31072127374E+01 0.31858005587E+01 0.34187789884E+01
 0.37845548304E+01 0.43137388731E+01 0.55305983215E+01 0.77938973818E+01 0.10861726317E+02
 0.24260080673E+02 0.26932124606E+02 0.26932090657E+02 0.24259986879E+02 0.19629181882E+02
 0.14250862991E+02 0.94325368983E+01 0.60964943344E+01 0.44178693624E+01 0.37897392253E+01
 0.34187786910E+01 0.32200974296E+01 0.32200957861E+01 0.34187789884E+01 0.37897543887E+01
 0.44179148003E+01 0.60965785488E+01 0.94326568920E+01 0.14251001808E+02 0.19629312550E+02
 0.37658297183E+02 0.39637509489E+02 0.37658274611E+02 0.32225769463E+02 0.24704472318E+02
 0.16896915533E+02 0.10456483152E+02 0.63225123580E+01 0.44178851995E+01 0.37845363460E+01
 0.34468601928E+01 0.33267607876E+01 0.34468690959E+01 0.37845548304E+01 0.44179148003E+01
 0.63225532294E+01 0.10456533771E+02 0.16896970292E+02 0.24704523911E+02 0.32225810331E+02
 0.52022122296E+02 0.52022125054E+02 0.46995518627E+02 0.38196303380E+02 0.27732565521E+02
 0.17899224237E+02 0.10456527186E+02 0.60965669697E+01 0.43137256109E+01 0.37726942620E+01
 0.35107652345E+01 0.35107693027E+01 0.37727047929E+01 0.43137388731E+01 0.60965785488E+01
 0.10456533771E+02 0.17899223657E+02 0.27732558726E+02 0.38196294063E+02 0.46995510962E+02
 0.64272069405E+02 0.61118342847E+02 0.52458184199E+02 0.40416741072E+02 0.27732558888E+02
 0.16896970170E+02 0.94326568838E+01 0.55305984518E+01 0.41720723445E+01 0.37638538843E+01
 0.36186822159E+01 0.37638541468E+01 0.41720724345E+01 0.55305983215E+01 0.94326568920E+01
 0.16896970292E+02 0.27732558726E+02 0.40416740666E+02 0.52458184015E+02 0.61118342940E+02
 0.71354869048E+02 0.64469379547E+02 0.52458106269E+02 0.38196215396E+02 0.24704460890E+02
 0.14250965119E+02 0.77938869758E+01 0.48859368755E+01 0.40543070424E+01 0.37692283781E+01
 0.37692233492E+01 0.40542957160E+01 0.48859300113E+01 0.77938973818E+01 0.14251001808E+02
 0.24704523911E+02 0.38196294063E+02 0.52458184015E+02 0.64469436805E+02 0.71354889923E+02
 0.71354789955E+02 0.61118170017E+02 0.46995310393E+02 0.32225629265E+02 0.19629185599E+02
 0.10861666664E+02 0.61343594892E+01 0.43995807940E+01 0.39458253531E+01 0.37961028932E+01
 0.39458040237E+01 0.43995569880E+01 0.61343636023E+01 0.10861726317E+02 0.19629312550E+02
 0.32225810331E+02 0.46995510962E+02 0.61118342940E+02 0.71354889923E+02 0.75100657191E+02
 0.44304010796E+02 0.33771176205E+02 0.22959440988E+02 0.14010764577E+02 0.80757950166E+01
 0.51225353172E+01 0.41427968235E+01 0.37840359761E+01 0.36521533197E+01 0.37839803221E+01
 0.41427145778E+01 0.51224728191E+01 0.80757967128E+01 0.14010853794E+02 0.22959609326E+02
 0.33771383235E+02 0.44304197813E+02 0.52022122361E+02 0.54860438076E+02 0.52022011347E+02
 0.33771176205E+02 0.24176978658E+02 0.15517764032E+02 0.92371809343E+01 0.57160693071E+01
 0.43391210369E+01 0.38891286185E+01 0.36528042127E+01 0.36527632463E+01 0.38890239764E+01