   1   1   1   0
  0.7447750E+01  0.2192031E-09  0.2192031E-09  0.2192031E-09  0.5000000E-15
  1.000000000000000E-004
  CAR 
 fcc Ni                                  
     70.22740052      0.87841057  301     15.99777269      1.00000000
      0.878  0.0000E+00  0.0000E+00  0.0000E+00  0.0000E+00
      1.110  0.0000E+00  0.0000E+00  0.0000E+00  0.0000E+00
      1.341  0.0000E+00  0.0000E+00  0.0000E+00  0.0000E+00
      1.572  0.0000E+00  0.0000E+00  0.0000E+00  0.0000E+00
      1.803  0.0000E+00  0.0000E+00  0.0000E+00  0.0000E+00
      2.034  0.0000E+00  0.0000E+00  0.0000E+00  0.0000E+00
      2.265 -0.1190E-35 -0.6474E-36 -0.2750E-36 -0.1497E-36
      2.497 -0.1974E-27 -0.1164E-27 -0.4562E-28 -0.2691E-28
      2.728 -0.2212E-20 -0.1414E-20 -0.5112E-21 -0.3269E-21
      2.959 -0.1602E-14 -0.1112E-14 -0.3704E-15 -0.2570E-15
      3.190 -0.7752E-10 -0.5841E-10 -0.1792E-10 -0.1350E-10
      3.421 -0.2326E-06 -0.1907E-06 -0.5378E-07 -0.4409E-07
      3.652 -0.3609E-04 -0.3257E-04 -0.8397E-05 -0.7574E-05
      3.884  0.1239E-03  0.8761E-04  0.2025E-04  0.1268E-04
      4.115  0.2114E-02  0.2122E-02  0.5088E-03  0.5031E-03
      4.346  0.2796E-02  0.2373E-02  0.1155E-02  0.1052E-02
      4.577  0.2954E-01  0.2882E-01  0.7983E-02  0.7714E-02
      4.808  0.1451E-01  0.1572E-01  0.1134E-01  0.1135E-01
      5.039  0.3546E-02  0.2549E-02  0.1216E-01  0.1194E-01
      5.271  0.2917E-01  0.2935E-01  0.1890E-01  0.1872E-01
      5.502  0.3166E-01  0.2805E-01  0.2622E-01  0.2521E-01
      5.733  0.7380E-01  0.7568E-01  0.4328E-01  0.4270E-01
      5.964  0.5175E-02  0.7766E-02  0.4447E-01  0.4450E-01
      6.195  0.9503E-02  0.8490E-02  0.4667E-01  0.4646E-01
      6.426  0.1907E-01  0.1415E-01  0.5108E-01  0.4973E-01
      6.657  0.1064E+00  0.9934E-01  0.7567E-01  0.7269E-01
      6.889  0.4491E-01  0.5466E-01  0.8605E-01  0.8533E-01
      7.120  0.5768E-01  0.4541E-01  0.9939E-01  0.9583E-01
      7.351  0.7861E-01  0.7328E-01  0.1176E+00  0.1128E+00
      7.582  0.4266E-01  0.6318E-01  0.1274E+00  0.1274E+00
      7.813 -0.4321E-02 -0.5151E-02  0.1264E+00  0.1262E+00
      8.044  0.1296E+00  0.5235E-01  0.1564E+00  0.1383E+00
      8.276  0.2006E+00  0.2037E+00  0.2028E+00  0.1854E+00
      8.507  0.1907E+00  0.1197E+00  0.2468E+00  0.2130E+00
      8.738  0.3906E+00  0.1559E+00  0.3371E+00  0.2491E+00
      8.969  0.2895E+00  0.2638E+00  0.4040E+00  0.3101E+00
      9.200  0.4509E+00  0.3119E+00  0.5083E+00  0.3822E+00
      9.431  0.7445E+00  0.3970E+00  0.6804E+00  0.4739E+00
      9.663  0.4981E+00  0.6140E+00  0.7955E+00  0.6159E+00
      9.894  0.6224E+00  0.3821E+00  0.9394E+00  0.7042E+00
     10.125  0.7405E+00  0.5255E+00  0.1111E+01  0.8257E+00
     10.356  0.5249E+00  0.5996E+00  0.1232E+01  0.9643E+00
     10.587  0.5218E+00  0.6812E+00  0.1353E+01  0.1122E+01
     10.818  0.6541E+00  0.4722E+00  0.1504E+01  0.1231E+01
     11.050  0.3875E+00  0.5500E+00  0.1593E+01  0.1358E+01
     11.281  0.4123E+00  0.5882E+00  0.1689E+01  0.1494E+01
     11.512  0.8133E+00  0.4011E+00  0.1877E+01  0.1587E+01
     11.743  0.6394E+00  0.3727E+00  0.2024E+01  0.1673E+01
     11.974  0.6395E+00  0.7476E+00  0.2172E+01  0.1846E+01
     12.205  0.8300E+00  0.6739E+00  0.2364E+01  0.2001E+01
     12.437  0.8538E+00  0.4999E+00  0.2561E+01  0.2117E+01
     12.668  0.9753E+00  0.8569E+00  0.2787E+01  0.2315E+01
     12.899  0.9824E+00  0.7154E+00  0.3014E+01  0.2481E+01
     13.130  0.6492E+00  0.9177E+00  0.3164E+01  0.2693E+01
     13.361  0.6236E+00  0.9444E+00  0.3308E+01  0.2911E+01
     13.592  0.5692E+00  0.8127E+00  0.3440E+01  0.3099E+01
     13.824  0.5933E+00  0.6171E+00  0.3577E+01  0.3241E+01
     14.055  0.7570E+00  0.5775E+00  0.3752E+01  0.3375E+01
     14.286  0.1051E+01  0.6276E+00  0.3995E+01  0.3520E+01
     14.517  0.5706E+00  0.4968E+00  0.4127E+01  0.3635E+01
     14.748  0.4577E+00  0.8771E+00  0.4233E+01  0.3838E+01
     14.979  0.9049E+00  0.9955E+00  0.4442E+01  0.4068E+01
     15.211  0.8000E+00  0.4154E+00  0.4627E+01  0.4164E+01
     15.442  0.1135E+01  0.4427E+00  0.4889E+01  0.4266E+01
     15.673  0.1361E+01  0.8287E+00  0.5204E+01  0.4458E+01
     15.904  0.3704E+00  0.7944E+00  0.5290E+01  0.4641E+01
     16.135 -0.2833E-01  0.1046E+01  0.5283E+01  0.4883E+01
     16.366  0.2958E-01  0.1253E+01  0.5290E+01  0.5173E+01
     16.598  0.1014E+00  0.4569E+00  0.5313E+01  0.5278E+01
     16.829  0.7882E-01  0.2942E-01  0.5332E+01  0.5285E+01
     17.060  0.2150E+00  0.1026E+00  0.5381E+01  0.5309E+01
     17.291  0.2525E+00  0.5231E-01  0.5440E+01  0.5321E+01
     17.522  0.1338E+00  0.1510E+00  0.5471E+01  0.5356E+01
     17.753  0.4416E-01  0.3315E+00  0.5481E+01  0.5432E+01
     17.984  0.5448E-01  0.1688E+00  0.5493E+01  0.5472E+01
     18.216  0.1121E+00  0.5264E-01  0.5519E+01  0.5484E+01
     18.447  0.1389E-01  0.1105E+00  0.5523E+01  0.5509E+01
     18.678  0.1518E+00  0.5565E-01  0.5558E+01  0.5522E+01
     18.909  0.8343E-01  0.2549E-01  0.5577E+01  0.5528E+01
     19.140  0.1101E+00  0.1602E+00  0.5602E+01  0.5565E+01
     19.371  0.8281E-01  0.4884E-01  0.5621E+01  0.5576E+01
     19.603  0.1370E+00  0.1142E+00  0.5653E+01  0.5603E+01
     19.834  0.1728E+00  0.1015E+00  0.5693E+01  0.5626E+01
     20.065  0.1105E+00  0.2048E+00  0.5719E+01  0.5674E+01
     20.296  0.1663E+00  0.1582E+00  0.5757E+01  0.5710E+01
     20.527 -0.5734E-03  0.1519E+00  0.5757E+01  0.5745E+01
     20.758 -0.2431E-02  0.5474E-01  0.5756E+01  0.5758E+01
     20.990 -0.7941E-02 -0.5508E-02  0.5755E+01  0.5757E+01
     21.221  0.1456E+00 -0.6864E-02  0.5788E+01  0.5755E+01
     21.452  0.1906E+00  0.5540E-01  0.5832E+01  0.5768E+01
     21.683  0.5490E-01  0.2438E+00  0.5845E+01  0.5824E+01
     21.914  0.3585E-01  0.6647E-01  0.5853E+01  0.5840E+01
     22.145  0.4832E-01  0.3624E-01  0.5864E+01  0.5848E+01
     22.377  0.1512E-01  0.5801E-01  0.5868E+01  0.5861E+01
     22.608  0.1883E+00  0.1384E-01  0.5911E+01  0.5865E+01
     22.839  0.4865E-01  0.1520E+00  0.5923E+01  0.5900E+01
     23.070  0.5622E-01  0.9331E-01  0.5936E+01  0.5921E+01
     23.301  0.1330E-01  0.5445E-01  0.5939E+01  0.5934E+01
     23.532  0.1250E+00  0.1235E-01  0.5968E+01  0.5937E+01
     23.764  0.2645E-01  0.1064E+00  0.5974E+01  0.5961E+01
     23.995 -0.3498E-02  0.5571E-01  0.5973E+01  0.5974E+01
     24.226 -0.1208E-02 -0.5017E-02  0.5973E+01  0.5973E+01
     24.457  0.2238E-01 -0.1453E-02  0.5978E+01  0.5973E+01
     24.688  0.1772E-01  0.1578E-01  0.5982E+01  0.5976E+01
     24.919  0.1059E-01  0.2430E-01  0.5984E+01  0.5982E+01
     25.151  0.7474E-01  0.1156E-01  0.6002E+01  0.5985E+01
     25.382  0.1444E+00  0.2400E-01  0.6035E+01  0.5990E+01
     25.613  0.1264E+00  0.9863E-01  0.6064E+01  0.6013E+01
     25.844  0.2564E+00  0.1739E+00  0.6124E+01  0.6053E+01
     26.075  0.2381E+00  0.2039E+00  0.6179E+01  0.6100E+01
     26.306  0.5195E-01  0.3229E+00  0.6191E+01  0.6175E+01
     26.538  0.1269E+00  0.4258E-01  0.6220E+01  0.6185E+01
     26.769  0.4646E-01  0.1197E+00  0.6231E+01  0.6212E+01
     27.000  0.1461E+00  0.6314E-01  0.6264E+01  0.6227E+01
     27.231  0.1085E+00  0.1211E+00  0.6289E+01  0.6255E+01
     27.462  0.1783E+00  0.1353E+00  0.6331E+01  0.6286E+01
     27.693  0.6217E-01  0.1657E+00  0.6345E+01  0.6325E+01
     27.925  0.5140E-01  0.7473E-01  0.6357E+01  0.6342E+01
     28.156  0.2896E-01  0.5339E-01  0.6364E+01  0.6354E+01
     28.387  0.6501E-01  0.3054E-01  0.6379E+01  0.6361E+01
     28.618  0.7047E-01  0.7329E-01  0.6395E+01  0.6378E+01
     28.849  0.1765E+00  0.8008E-01  0.6436E+01  0.6397E+01
     29.080  0.8169E-01  0.1512E+00  0.6455E+01  0.6432E+01
     29.311  0.6341E-01  0.9416E-01  0.6469E+01  0.6453E+01
     29.543  0.1507E+00  0.6898E-01  0.6504E+01  0.6469E+01
     29.774  0.1049E+00  0.1335E+00  0.6528E+01  0.6500E+01
     30.005  0.3066E+00  0.1462E+00  0.6599E+01  0.6534E+01
     30.236  0.1432E+00  0.2748E+00  0.6632E+01  0.6598E+01
     30.467  0.9550E-01  0.1555E+00  0.6654E+01  0.6633E+01
     30.698  0.1309E+00  0.1017E+00  0.6685E+01  0.6657E+01
     30.930  0.1396E+00  0.1206E+00  0.6717E+01  0.6685E+01
     31.161  0.1464E+00  0.1541E+00  0.6751E+01  0.6720E+01
     31.392  0.1705E+00  0.1445E+00  0.6790E+01  0.6754E+01
     31.623  0.9161E-02  0.1581E+00  0.6792E+01  0.6790E+01
     31.854  0.1667E+00  0.1659E-01  0.6831E+01  0.6794E+01
     32.085  0.9405E-01  0.1764E+00  0.6853E+01  0.6835E+01
     32.317  0.3100E+00  0.1177E+00  0.6924E+01  0.6862E+01
     32.548  0.1316E+00  0.3175E+00  0.6955E+01  0.6936E+01
     32.779  0.2346E+00  0.1183E+00  0.7009E+01  0.6963E+01
     33.010  0.2321E+00  0.2946E+00  0.7063E+01  0.7031E+01
     33.241  0.8695E-01  0.1527E+00  0.7083E+01  0.7066E+01
     33.472  0.6044E-01  0.8322E-01  0.7097E+01  0.7086E+01
     33.704  0.4871E-01  0.5152E-01  0.7108E+01  0.7098E+01
     33.935  0.2626E+00  0.1249E+00  0.7169E+01  0.7126E+01
     34.166  0.1300E+00  0.2698E+00  0.7199E+01  0.7189E+01
     34.397  0.2614E+00  0.8972E-01  0.7259E+01  0.7210E+01
     34.628  0.2849E+00  0.3322E+00  0.7325E+01  0.7286E+01
     34.859  0.1442E+00  0.2311E+00  0.7358E+01  0.7340E+01
     35.091  0.6528E-01  0.1104E+00  0.7373E+01  0.7365E+01
     35.322  0.2287E+00  0.1242E+00  0.7426E+01  0.7394E+01
     35.553  0.2189E+00  0.2404E+00  0.7477E+01  0.7450E+01
     35.784  0.1237E+00  0.1889E+00  0.7505E+01  0.7493E+01
     36.015  0.8352E-01  0.5495E-01  0.7525E+01  0.7506E+01
     36.246  0.4232E+00  0.2529E+00  0.7623E+01  0.7564E+01
     36.478  0.2046E+00  0.3935E+00  0.7670E+01  0.7655E+01
     36.709  0.9262E-01  0.8220E-01  0.7691E+01  0.7674E+01
     36.940  0.2370E+00  0.1974E+00  0.7746E+01  0.7720E+01
     37.171  0.9659E-01  0.1956E+00  0.7768E+01  0.7765E+01
     37.402  0.8474E-01  0.2990E-01  0.7788E+01  0.7772E+01
     37.633  0.6265E-01  0.1148E+00  0.7803E+01  0.7799E+01
     37.865  0.5099E-01  0.1405E-01  0.7814E+01  0.7802E+01
     38.096  0.2240E+00  0.1498E+00  0.7866E+01  0.7837E+01
     38.327  0.2684E+00  0.2713E+00  0.7928E+01  0.7899E+01
     38.558  0.2948E+00  0.3182E+00  0.7996E+01  0.7973E+01
     38.789  0.3214E+00  0.2675E+00  0.8071E+01  0.8035E+01
     39.020  0.1699E+00  0.2548E+00  0.8110E+01  0.8094E+01
     39.252  0.1284E+00  0.1347E+00  0.8140E+01  0.8125E+01
     39.483  0.1012E+00  0.1256E+00  0.8163E+01  0.8154E+01
     39.714  0.5081E-02  0.4976E-01  0.8164E+01  0.8165E+01
     39.945  0.6873E-01  0.2175E-01  0.8180E+01  0.8170E+01
     40.176  0.2303E+00  0.2327E+00  0.8233E+01  0.8224E+01
     40.407  0.1982E+00  0.1809E+00  0.8279E+01  0.8266E+01
     40.638  0.1271E+00  0.1598E+00  0.8308E+01  0.8303E+01
     40.870  0.1262E+00  0.1439E+00  0.8338E+01  0.8336E+01
     41.101  0.4599E-02  0.1125E-01  0.8339E+01  0.8339E+01
     41.332  0.1221E+00  0.5774E-01  0.8367E+01  0.8352E+01
     41.563  0.3936E+00  0.3120E+00  0.8458E+01  0.8424E+01
     41.794  0.2910E+00  0.3687E+00  0.8525E+01  0.8509E+01
     42.025  0.3211E-01  0.9775E-01  0.8533E+01  0.8532E+01
     42.257  0.6994E-01  0.3830E-01  0.8549E+01  0.8541E+01
     42.488  0.1039E+00  0.1027E+00  0.8573E+01  0.8565E+01
     42.719  0.2692E+00  0.1848E+00  0.8635E+01  0.8607E+01
     42.950  0.2204E+00  0.2941E+00  0.8686E+01  0.8675E+01
     43.181  0.3079E-01  0.6798E-01  0.8693E+01  0.8691E+01
     43.412  0.1160E+00  0.7591E-01  0.8720E+01  0.8708E+01
     43.644  0.1129E+00  0.1104E+00  0.8746E+01  0.8734E+01
     43.875  0.2377E+00  0.2022E+00  0.8801E+01  0.8781E+01
     44.106  0.1939E+00  0.2409E+00  0.8846E+01  0.8836E+01
     44.337  0.1516E+00  0.1423E+00  0.8881E+01  0.8869E+01
     44.568  0.1491E+00  0.1304E+00  0.8915E+01  0.8899E+01
     44.799  0.3886E+00  0.3103E+00  0.9005E+01  0.8971E+01
     45.031  0.1347E+00  0.2406E+00  0.9036E+01  0.9027E+01
     45.262  0.1539E+00  0.1146E+00  0.9072E+01  0.9053E+01
     45.493  0.2058E+00  0.2266E+00  0.9119E+01  0.9106E+01
     45.724  0.1324E+00  0.1494E+00  0.9150E+01  0.9140E+01
     45.955  0.1859E+00  0.1619E+00  0.9193E+01  0.9178E+01
     46.186  0.1789E+00  0.1819E+00  0.9234E+01  0.9220E+01
     46.418  0.1180E+00  0.1397E+00  0.9262E+01  0.9252E+01
     46.649  0.1832E+00  0.1547E+00  0.9304E+01  0.9288E+01
     46.880  0.3666E+00  0.3102E+00  0.9389E+01  0.9359E+01
     47.111  0.3025E+00  0.4029E+00  0.9459E+01  0.9453E+01
     47.342  0.1724E+00  0.1642E+00  0.9498E+01  0.9491E+01
     47.573  0.1696E+00  0.1504E+00  0.9538E+01  0.9525E+01
     47.805  0.7799E-01  0.1146E+00  0.9556E+01  0.9552E+01
     48.036  0.2121E+00  0.1471E+00  0.9605E+01  0.9586E+01
     48.267  0.2936E+00  0.2842E+00  0.9673E+01  0.9652E+01
     48.498  0.1222E+00  0.1634E+00  0.9701E+01  0.9689E+01
     48.729  0.2811E+00  0.2583E+00  0.9766E+01  0.9749E+01
     48.960  0.1527E+00  0.2143E+00  0.9801E+01  0.9799E+01
     49.192  0.2392E-01  0.2265E-01  0.9807E+01  0.9804E+01
     49.423  0.1251E+00  0.9409E-01  0.9836E+01  0.9826E+01
     49.654  0.1422E+00  0.1056E+00  0.9868E+01  0.9850E+01
     49.885  0.1288E+00  0.1843E+00  0.9898E+01  0.9893E+01
     50.116  0.4992E-01  0.7565E-01  0.9910E+01  0.9910E+01
     50.347  0.2498E-01 -0.4337E-02  0.9916E+01  0.9909E+01
     50.579  0.7909E-01  0.4306E-01  0.9934E+01  0.9919E+01
     50.810  0.2245E+00  0.1694E+00  0.9986E+01  0.9958E+01
     51.041  0.3209E+00  0.3305E+00  0.1006E+02  0.1003E+02
     51.272  0.1572E+00  0.2558E+00  0.1010E+02  0.1009E+02
     51.503  0.7538E-01  0.7239E-01  0.1011E+02  0.1011E+02
     51.734  0.6245E-01  0.7037E-01  0.1013E+02  0.1013E+02
     51.965  0.6673E-01  0.6986E-01  0.1014E+02  0.1014E+02
     52.197  0.3662E-01  0.3961E-01  0.1015E+02  0.1015E+02
     52.428  0.2459E-01  0.1400E-01  0.1016E+02  0.1016E+02
     52.659  0.5103E-01  0.2876E-01  0.1017E+02  0.1016E+02
     52.890  0.1590E+00  0.7911E-01  0.1021E+02  0.1018E+02
     53.121  0.2258E+00  0.3063E+00  0.1026E+02  0.1025E+02
     53.352 -0.3684E-02  0.3559E-01  0.1026E+02  0.1026E+02
     53.584  0.4667E+00  0.2584E+00  0.1037E+02  0.1032E+02
     53.815  0.7961E+00  0.7316E+00  0.1055E+02  0.1049E+02
     54.046  0.4279E+00  0.4919E+00  0.1065E+02  0.1060E+02
     54.277  0.3018E+00  0.4165E+00  0.1072E+02  0.1070E+02
     54.508  0.3844E-01  0.1266E+00  0.1073E+02  0.1073E+02
     54.739  0.5106E-01  0.3365E-01  0.1074E+02  0.1074E+02
     54.971  0.1597E+00  0.1227E+00  0.1078E+02  0.1076E+02
     55.202  0.1842E+00  0.1641E+00  0.1082E+02  0.1080E+02
     55.433  0.2198E+00  0.1956E+00  0.1087E+02  0.1085E+02
     55.664  0.2309E+00  0.2784E+00  0.1092E+02  0.1091E+02
     55.895  0.2715E-01  0.7883E-01  0.1093E+02  0.1093E+02
     56.126  0.1970E+00  0.1739E+00  0.1097E+02  0.1097E+02
     56.358  0.1815E+00  0.1874E+00  0.1102E+02  0.1101E+02
     56.589  0.1895E+00  0.1038E+00  0.1106E+02  0.1104E+02
     56.820  0.2289E+00  0.2043E+00  0.1111E+02  0.1108E+02
     57.051  0.2734E-01  0.1487E+00  0.1112E+02  0.1112E+02
     57.282  0.1248E+00  0.1010E+00  0.1115E+02  0.1114E+02
     57.513  0.9164E-01  0.1127E+00  0.1117E+02  0.1117E+02
     57.745  0.1045E+00  0.8031E-01  0.1119E+02  0.1119E+02
     57.976  0.3454E+00  0.3230E+00  0.1127E+02  0.1126E+02
     58.207  0.1184E+00  0.1681E+00  0.1130E+02  0.1130E+02
     58.438  0.1100E+00  0.1134E+00  0.1133E+02  0.1133E+02
     58.669  0.1956E+00  0.5744E-01  0.1137E+02  0.1134E+02
     58.900  0.3576E+00  0.3193E+00  0.1145E+02  0.1141E+02
     59.132  0.1668E+00  0.2431E+00  0.1149E+02  0.1147E+02
     59.363  0.3820E-01  0.1254E+00  0.1150E+02  0.1150E+02
     59.594  0.1939E+00  0.1127E+00  0.1155E+02  0.1152E+02
     59.825  0.2036E+00  0.1749E+00  0.1159E+02  0.1156E+02
     60.056  0.8253E-01  0.1766E+00  0.1161E+02  0.1161E+02
     60.287  0.1011E+00  0.8846E-01  0.1164E+02  0.1163E+02
     60.519  0.1126E+00 -0.2050E-02  0.1166E+02  0.1163E+02
     60.750 -0.6465E-02  0.1060E+00  0.1166E+02  0.1165E+02
     60.981  0.1892E+00  0.6219E-01  0.1170E+02  0.1166E+02
     61.212  0.1525E+00  0.2098E+00  0.1174E+02  0.1171E+02
     61.443  0.8764E-01  0.1844E+00  0.1176E+02  0.1176E+02
     61.674  0.1220E+00  0.1282E+00  0.1179E+02  0.1179E+02
     61.906  0.2502E-02  0.1540E-01  0.1179E+02  0.1179E+02
     62.137 -0.4446E-02 -0.5493E-02  0.1179E+02  0.1179E+02
     62.368  0.3747E-01  0.3668E-01  0.1180E+02  0.1180E+02
     62.599  0.1575E+00  0.1189E+00  0.1183E+02  0.1182E+02
     62.830  0.1670E+00  0.1400E+00  0.1187E+02  0.1186E+02
     63.061  0.5970E-01  0.1177E+00  0.1188E+02  0.1188E+02
     63.293  0.3425E-01  0.2158E-01  0.1189E+02  0.1189E+02
     63.524  0.5400E-01 -0.2922E-02  0.1191E+02  0.1189E+02
     63.755  0.5479E-01 -0.1844E-02  0.1192E+02  0.1189E+02
     63.986  0.2524E-01  0.8976E-02  0.1192E+02  0.1189E+02
     64.217  0.5576E-02  0.1080E+00  0.1193E+02  0.1191E+02
     64.448  0.3277E-01  0.6430E-01  0.1193E+02  0.1193E+02
     64.679  0.5540E-01 -0.4088E-02  0.1195E+02  0.1193E+02
     64.911  0.1075E-01 -0.3373E-02  0.1195E+02  0.1193E+02
     65.142  0.1356E+00  0.7858E-01  0.1198E+02  0.1195E+02
     65.373  0.3453E-01  0.8396E-01  0.1199E+02  0.1196E+02
     65.604 -0.1865E-02 -0.2356E-02  0.1199E+02  0.1196E+02
     65.835  0.4558E-01 -0.1066E-02  0.1200E+02  0.1196E+02
     66.066  0.1291E-01 -0.1420E-02  0.1200E+02  0.1196E+02
     66.298 -0.1452E-02  0.5482E-01  0.1200E+02  0.1198E+02
     66.529 -0.2724E-04  0.4463E-01  0.1200E+02  0.1199E+02
     66.760 -0.2277E-07 -0.1125E-02  0.1200E+02  0.1199E+02
     66.991 -0.1164E-11  0.1273E-01  0.1200E+02  0.1199E+02
     67.222  0.0000E+00  0.4568E-01  0.1200E+02  0.1200E+02
     67.453  0.0000E+00  0.1710E-02  0.1200E+02  0.1200E+02
     67.685  0.0000E+00 -0.5906E-03  0.1200E+02  0.1200E+02
     67.916  0.0000E+00 -0.3554E-05  0.1200E+02  0.1200E+02
     68.147  0.0000E+00 -0.1128E-08  0.1200E+02  0.1200E+02
     68.378  0.0000E+00 -0.2241E-13  0.1200E+02  0.1200E+02
     68.609  0.0000E+00  0.0000E+00  0.1200E+02  0.1200E+02
     68.840  0.0000E+00  0.0000E+00  0.1200E+02  0.1200E+02
     69.072  0.0000E+00  0.0000E+00  0.1200E+02  0.1200E+02
     69.303  0.0000E+00  0.0000E+00  0.1200E+02  0.1200E+02
     69.534  0.0000E+00  0.0000E+00  0.1200E+02  0.1200E+02
     69.765  0.0000E+00  0.0000E+00  0.1200E+02  0.1200E+02
     69.996  0.0000E+00  0.0000E+00  0.1200E+02  0.1200E+02
     70.227  0.0000E+00  0.0000E+00  0.1200E+02  0.1200E+02
     70.22740052      0.87841057  301     15.99777269      1.00000000
      0.878  0.0000E+00  0.0000E+00  0.0000E+00  0.0000E+00  0.0000E+00  0.0000E+00  0.0000E+00  0.0000E+00  0.0000E+00  0.0000E+00  0.0000E+00  0.0000E+00  0.0000E+00  0.0000E+00  0.0000E+00  0.0000E+00  0.0000E+00  0.0000E+00
      1.110  0.0000E+00  0.0000E+00  0.0000E+00  0.0000E+00  0.0000E+00  0.0000E+00  0.0000E+00  0.0000E+00  0.0000E+00  0.0000E+00  0.0000E+00  0.0000E+00  0.0000E+00  0.0000E+00  0.0000E+00  0.0000E+00  0.0000E+00  0.0000E+00
      1.341  0.0000E+00  0.0000E+00  0.0000E+00  0.0000E+00  0.0000E+00  0.0000E+00  0.0000E+00  0.0000E+00  0.0000E+00  0.0000E+00  0.0000E+00  0.0000E+00  0.0000E+00  0.0000E+00  0.0000E+00  0.0000E+00  0.0000E+00  0.0000E+00
      1.572  0.0000E+00  0.0000E+00  0.0000E+00  0.0000E+00  0.0000E+00  0.0000E+00  0.0000E+00  0.0000E+00  0.0000E+00  0.0000E+00  0.0000E+00  0.0000E+00  0.0000E+00  0.0000E+00  0.0000E+00  0.0000E+00  0.0000E+00  0.0000E+00
      1.803  0.0000E+00  0.0000E+00  0.0000E+00  0.0000E+00  0.0000E+00  0.0000E+00  0.0000E+00  0.0000E+00  0.0000E+00  0.0000E+00  0.0000E+00  0.0000E+00  0.0000E+00  0.0000E+00  0.0000E+00  0.0000E+00  0.0000E+00  0.0000E+00
      2.034  0.0000E+00  0.0000E+00  0.0000E+00  0.0000E+00  0.0000E+00  0.0000E+00  0.0000E+00  0.0000E+00  0.0000E+00  0.0000E+00  0.0000E+00  0.0000E+00  0.0000E+00  0.0000E+00  0.0000E+00  0.0000E+00  0.0000E+00  0.0000E+00
      2.265 -0.1364E-35 -0.7455E-36 -0.5739E-50 -0.1523E-49 -0.5739E-50 -0.1523E-49 -0.5739E-50 -0.1523E-49 -0.1099E-46 -0.1072E-46 -0.1099E-46 -0.1072E-46 -0.2070E-50 -0.9805E-52 -0.1099E-46 -0.1072E-46 -0.2070E-50 -0.9805E-52
      2.497 -0.2262E-27 -0.1340E-27 -0.9519E-42 -0.2738E-41 -0.9519E-42 -0.2738E-41 -0.9519E-42 -0.2738E-41 -0.1822E-38 -0.1927E-38 -0.1822E-38 -0.1927E-38 -0.3434E-42 -0.1763E-43 -0.1822E-38 -0.1927E-38 -0.3434E-42 -0.1763E-43
      2.728 -0.2535E-20 -0.1629E-20 -0.1280E-34 -0.3434E-34 -0.1280E-34 -0.3434E-34 -0.1280E-34 -0.3434E-34 -0.2042E-31 -0.2341E-31 -0.2042E-31 -0.2341E-31 -0.3848E-35 -0.2142E-36 -0.2042E-31 -0.2341E-31 -0.3848E-35 -0.2142E-36
      2.959 -0.1836E-14 -0.1280E-14 -0.2526E-27 -0.1617E-27 -0.2526E-27 -0.1617E-27 -0.2526E-27 -0.1617E-27 -0.1480E-25 -0.1841E-25 -0.1480E-25 -0.1841E-25 -0.2788E-29 -0.1685E-30 -0.1480E-25 -0.1841E-25 -0.2788E-29 -0.1685E-30
      3.190 -0.8884E-10 -0.6725E-10 -0.1897E-20 -0.1154E-20 -0.1897E-20 -0.1154E-20 -0.1897E-20 -0.1154E-20 -0.7711E-21 -0.9973E-21 -0.7711E-21 -0.9973E-21 -0.1419E-24 -0.1257E-25 -0.7711E-21 -0.9973E-21 -0.1419E-24 -0.1257E-25
      3.421 -0.2665E-06 -0.2196E-06 -0.9467E-15 -0.6323E-15 -0.9467E-15 -0.6323E-15 -0.9467E-15 -0.6323E-15 -0.2975E-16 -0.1989E-16 -0.2975E-16 -0.1989E-16 -0.1849E-19 -0.1120E-19 -0.2975E-16 -0.1989E-16 -0.1849E-19 -0.1120E-19
      3.652 -0.4136E-04 -0.3751E-04 -0.3150E-10 -0.2314E-10 -0.3150E-10 -0.2314E-10 -0.3150E-10 -0.2314E-10 -0.9168E-12 -0.6117E-12 -0.9168E-12 -0.6117E-12 -0.3291E-14 -0.2133E-14 -0.9168E-12 -0.6117E-12 -0.3291E-14 -0.2133E-14
      3.884  0.1422E-03  0.1010E-03 -0.6477E-07 -0.5247E-07 -0.6477E-07 -0.5247E-07 -0.6477E-07 -0.5247E-07 -0.1864E-08 -0.1372E-08 -0.1864E-08 -0.1372E-08 -0.3746E-10 -0.2680E-10 -0.1864E-08 -0.1372E-08 -0.3746E-10 -0.2680E-10
      4.115  0.2443E-02  0.2462E-02 -0.6887E-05 -0.6232E-05 -0.6887E-05 -0.6232E-05 -0.6887E-05 -0.6232E-05 -0.1845E-06 -0.1525E-06 -0.1845E-06 -0.1525E-06 -0.2488E-07 -0.1976E-07 -0.1845E-06 -0.1525E-06 -0.2488E-07 -0.1976E-07
      4.346  0.3121E-02  0.2671E-02  0.2761E-04  0.2062E-04  0.2761E-04  0.2062E-04  0.2761E-04  0.2062E-04  0.1170E-05  0.8727E-06  0.1170E-05  0.8727E-06 -0.5565E-06 -0.5194E-06  0.1170E-05  0.8727E-06 -0.5565E-06 -0.5194E-06
      4.577  0.3244E-01  0.3181E-01  0.4652E-03  0.4545E-03  0.4652E-03  0.4545E-03  0.4652E-03  0.4545E-03  0.8908E-05  0.8122E-05  0.8908E-05  0.8122E-05  0.7084E-05  0.6194E-05  0.8908E-05  0.8122E-05  0.7084E-05  0.6194E-05
      4.808  0.1586E-01  0.1726E-01  0.2533E-03  0.2769E-03  0.2533E-03  0.2769E-03  0.2533E-03  0.2769E-03 -0.2900E-06  0.1174E-06 -0.2900E-06  0.1174E-06  0.1007E-04  0.1010E-04 -0.2900E-06  0.1174E-06  0.1007E-04  0.1010E-04
      5.039  0.3601E-02  0.2588E-02  0.1455E-03  0.1097E-03  0.1455E-03  0.1097E-03  0.1455E-03  0.1097E-03  0.9157E-05  0.6323E-05  0.9157E-05  0.6323E-05  0.2767E-05  0.2029E-05  0.9157E-05  0.6323E-05  0.2767E-05  0.2029E-05
      5.271  0.3019E-01  0.3051E-01  0.1030E-02  0.1047E-02  0.1030E-02  0.1047E-02  0.1030E-02  0.1047E-02  0.5886E-04  0.5451E-04  0.5886E-04  0.5451E-04  0.1501E-04  0.1513E-04  0.5886E-04  0.5451E-04  0.1501E-04  0.1513E-04
      5.502  0.3139E-01  0.2804E-01  0.1487E-02  0.1309E-02  0.1487E-02  0.1309E-02  0.1487E-02  0.1309E-02  0.8780E-04  0.6679E-04  0.8780E-04  0.6679E-04  0.1063E-03  0.8602E-04  0.8780E-04  0.6679E-04  0.1063E-03  0.8602E-04
      5.733  0.7251E-01  0.7481E-01  0.3610E-02  0.3737E-02  0.3610E-02  0.3737E-02  0.3610E-02  0.3737E-02  0.3172E-03  0.2827E-03  0.3172E-03  0.2827E-03  0.2040E-03  0.2034E-03  0.3172E-03  0.2827E-03  0.2040E-03  0.2034E-03
      5.964  0.5057E-02  0.7648E-02  0.2519E-03  0.3829E-03  0.2519E-03  0.3829E-03  0.2519E-03  0.3829E-03  0.5162E-04  0.6127E-04  0.5162E-04  0.6127E-04 -0.1113E-04 -0.9250E-05  0.5162E-04  0.6127E-04 -0.1113E-04 -0.9250E-05
      6.195  0.8610E-02  0.7708E-02  0.6454E-03  0.5889E-03  0.6454E-03  0.5889E-03  0.6454E-03  0.5889E-03 -0.3680E-04 -0.2594E-04 -0.3680E-04 -0.2594E-04  0.2190E-03  0.1818E-03 -0.3680E-04 -0.2594E-04  0.2190E-03  0.1818E-03
      6.426  0.1697E-01  0.1283E-01  0.1332E-02  0.9737E-03  0.1332E-02  0.9737E-03  0.1332E-02  0.9737E-03  0.1977E-03  0.8335E-04  0.1977E-03  0.8335E-04  0.1540E-03  0.1487E-03  0.1977E-03  0.8335E-04  0.1540E-03  0.1487E-03
      6.657  0.9214E-01  0.8685E-01  0.8042E-02  0.7603E-02  0.8042E-02  0.7603E-02  0.8042E-02  0.7603E-02  0.1377E-02  0.1181E-02  0.1377E-02  0.1181E-02  0.7821E-03  0.6330E-03  0.1377E-02  0.1181E-02  0.7821E-03  0.6330E-03
      6.889  0.3840E-01  0.4741E-01  0.3533E-02  0.4320E-02  0.3533E-02  0.4320E-02  0.3533E-02  0.4320E-02  0.4452E-03  0.4447E-03  0.4452E-03  0.4447E-03  0.5563E-03  0.6090E-03  0.4452E-03  0.4447E-03  0.5563E-03  0.6090E-03
      7.120  0.4563E-01  0.3655E-01  0.4652E-02  0.3809E-02  0.4652E-02  0.3809E-02  0.4652E-02  0.3809E-02  0.1872E-02  0.1224E-02  0.1872E-02  0.1224E-02  0.3994E-03  0.3060E-03  0.1872E-02  0.1224E-02  0.3994E-03  0.3060E-03
      7.351  0.5889E-01  0.5673E-01  0.6708E-02  0.6349E-02  0.6708E-02  0.6349E-02  0.6708E-02  0.6349E-02  0.2048E-02  0.1800E-02  0.2048E-02  0.1800E-02  0.2207E-02  0.1457E-02  0.2048E-02  0.1800E-02  0.2207E-02  0.1457E-02
      7.582  0.3135E-01  0.4717E-01  0.3932E-02  0.5869E-02  0.3932E-02  0.5869E-02  0.3932E-02  0.5869E-02  0.3844E-03  0.8139E-03  0.3844E-03  0.8139E-03  0.2077E-02  0.2510E-02  0.3844E-03  0.8139E-03  0.2077E-02  0.2510E-02
      7.813 -0.2696E-02 -0.3427E-02 -0.3340E-03 -0.4757E-03 -0.3340E-03 -0.4757E-03 -0.3340E-03 -0.4757E-03 -0.2602E-03 -0.2320E-03 -0.2602E-03 -0.2320E-03 -0.1968E-03 -0.1624E-03 -0.2602E-03 -0.2320E-03 -0.1968E-03 -0.1624E-03
      8.044  0.8236E-01  0.3480E-01  0.1224E-01  0.5355E-02  0.1224E-01  0.5355E-02  0.1224E-01  0.5355E-02  0.7046E-02  0.2013E-02  0.7046E-02  0.2013E-02  0.3405E-02  0.1448E-02  0.7046E-02  0.2013E-02  0.3405E-02  0.1448E-02
      8.276  0.1203E+00  0.1316E+00  0.1799E-01  0.2048E-01  0.1799E-01  0.2048E-01  0.1799E-01  0.2048E-01  0.1389E-01  0.9665E-02  0.1389E-01  0.9665E-02  0.5434E-02  0.5234E-02  0.1389E-01  0.9665E-02  0.5434E-02  0.5234E-02
      8.507  0.7747E-01  0.6859E-01  0.1151E-01  0.1104E-01  0.1151E-01  0.1104E-01  0.1151E-01  0.1104E-01  0.1415E-01  0.8008E-02  0.1415E-01  0.8008E-02  0.2747E-01  0.4950E-02  0.1415E-01  0.8008E-02  0.2747E-01  0.4950E-02
      8.738  0.1031E+00  0.7109E-01  0.1510E-01  0.1158E-01  0.1510E-01  0.1158E-01  0.1510E-01  0.1158E-01  0.3514E-01  0.1043E-01  0.3514E-01  0.1043E-01  0.8280E-01  0.1816E-01  0.3514E-01  0.1043E-01  0.8280E-01  0.1816E-01
      8.969  0.6330E-01  0.7240E-01  0.7633E-02  0.1232E-01  0.7633E-02  0.1232E-01  0.7633E-02  0.1232E-01  0.3703E-01  0.1322E-01  0.3703E-01  0.1322E-01  0.5632E-01  0.6728E-01  0.3703E-01  0.1322E-01  0.5632E-01  0.6728E-01
      9.200  0.9245E-01  0.6990E-01  0.1915E-01  0.7306E-02  0.1915E-01  0.7306E-02  0.1915E-01  0.7306E-02  0.4982E-01  0.4216E-01  0.4982E-01  0.4216E-01  0.9082E-01  0.5903E-01  0.4982E-01  0.4216E-01  0.9082E-01  0.5903E-01
      9.431  0.1418E+00  0.1059E+00  0.3380E-01  0.2174E-01  0.3380E-01  0.2174E-01  0.3380E-01  0.2174E-01  0.1115E+00  0.4092E-01  0.1115E+00  0.4092E-01  0.1101E+00  0.6836E-01  0.1115E+00  0.4092E-01  0.1101E+00  0.6836E-01
      9.663  0.4782E-01  0.1416E+00  0.1393E-01  0.3685E-01  0.1393E-01  0.3685E-01  0.1393E-01  0.3685E-01  0.9931E-01  0.5247E-01  0.9931E-01  0.5247E-01  0.6974E-01  0.1253E+00  0.9931E-01  0.5247E-01  0.6974E-01  0.1253E+00
      9.894  0.2812E-01  0.5498E-01  0.1682E-01  0.1207E-01  0.1682E-01  0.1207E-01  0.1682E-01  0.1207E-01  0.1078E+00  0.7247E-01  0.1078E+00  0.7247E-01  0.1233E+00  0.5082E-01  0.1078E+00  0.7247E-01  0.1233E+00  0.5082E-01
     10.125  0.4771E-01  0.3367E-01  0.2900E-01  0.1323E-01  0.2900E-01  0.1323E-01  0.2900E-01  0.1323E-01  0.1606E+00  0.9229E-01  0.1606E+00  0.9229E-01  0.8255E-01  0.1011E+00  0.1606E+00  0.9229E-01  0.8255E-01  0.1011E+00
     10.356  0.2170E-01  0.3889E-01  0.2349E-01  0.2418E-01  0.2349E-01  0.2418E-01  0.2349E-01  0.2418E-01  0.1157E+00  0.9506E-01  0.1157E+00  0.9506E-01  0.5704E-01  0.1171E+00  0.1157E+00  0.9506E-01  0.5704E-01  0.1171E+00
     10.587  0.4855E-02  0.4718E-01  0.2102E-01  0.2987E-01  0.2102E-01  0.2987E-01  0.2102E-01  0.2987E-01  0.1192E+00  0.1562E+00  0.1192E+00  0.1562E+00  0.5916E-01  0.6033E-01  0.1192E+00  0.1562E+00  0.5916E-01  0.6033E-01
     10.818  0.8666E-02  0.1058E-01  0.3126E-01  0.1989E-01  0.3126E-01  0.1989E-01  0.3126E-01  0.1989E-01  0.1185E+00  0.1157E+00  0.1185E+00  0.1157E+00  0.1101E+00  0.4143E-01  0.1185E+00  0.1157E+00  0.1101E+00  0.4143E-01
     11.050  0.1840E-02  0.5249E-02  0.1381E-01  0.2614E-01  0.1381E-01  0.2614E-01  0.1381E-01  0.2614E-01  0.8353E-01  0.1110E+00  0.8353E-01  0.1110E+00  0.5253E-01  0.7926E-01  0.8353E-01  0.1110E+00  0.5253E-01  0.7926E-01
     11.281  0.1954E-02  0.8367E-02  0.1504E-01  0.2712E-01  0.1504E-01  0.2712E-01  0.1504E-01  0.2712E-01  0.7821E-01  0.1234E+00  0.7821E-01  0.1234E+00  0.6995E-01  0.7743E-01  0.7821E-01  0.1234E+00  0.6995E-01  0.7743E-01
     11.512  0.1169E-01  0.2080E-02  0.3760E-01  0.1607E-01  0.3760E-01  0.1607E-01  0.3760E-01  0.1607E-01  0.1760E+00  0.8887E-01  0.1760E+00  0.8887E-01  0.9378E-01  0.4954E-01  0.1760E+00  0.8887E-01  0.9378E-01  0.4954E-01
     11.743  0.1468E-01  0.1011E-02  0.2994E-01  0.1444E-01  0.2994E-01  0.1444E-01  0.2994E-01  0.1444E-01  0.1449E+00  0.7122E-01  0.1449E+00  0.7122E-01  0.6075E-01  0.6230E-01  0.1449E+00  0.7122E-01  0.6075E-01  0.6230E-01
     11.974  0.1361E-01  0.8127E-02  0.2633E-01  0.3865E-01  0.2633E-01  0.3865E-01  0.2633E-01  0.3865E-01  0.1395E+00  0.1519E+00  0.1395E+00  0.1519E+00  0.7347E-01  0.9696E-01  0.1395E+00  0.1519E+00  0.7347E-01  0.9696E-01
     12.205  0.1958E-01  0.1409E-01  0.3351E-01  0.3490E-01  0.3351E-01  0.3490E-01  0.3351E-01  0.3490E-01  0.1760E+00  0.1680E+00  0.1760E+00  0.1680E+00  0.1037E+00  0.4007E-01  0.1760E+00  0.1680E+00  0.1037E+00  0.4007E-01
     12.437  0.1180E-01  0.8719E-02  0.2503E-01  0.2009E-01  0.2503E-01  0.2009E-01  0.2503E-01  0.2009E-01  0.1702E+00  0.1132E+00  0.1702E+00  0.1132E+00  0.1376E+00  0.5355E-01  0.1702E+00  0.1132E+00  0.1376E+00  0.5355E-01