    1    1    1    2
  0.7447750E+01  0.2192031E-09  0.2192031E-09  0.2192031E-09  0.5000000E-15
  1.000000000000000E-004
  CAR 
 fcc Ni                                  
     10     56     12
 
  0.0000000E+00  0.0000000E+00  0.0000000E+00  0.7513148E-03
      1          4.030637        4.037563   1.000000   1.000000
      2         12.288463       12.949544   1.000000   1.000000
      3         12.288463       12.949571   1.000000   1.000000
      4         12.288500       12.949571   1.000000   1.000000
      5         14.272959       14.864797   1.000000   1.000000
      6         14.272959       14.864797   1.000000   1.000000
      7         42.805357       42.725677   0.000000   0.000000
      8         49.809818       49.792336   0.000000   0.000000
      9         49.810012       49.792336   0.000000   0.000000
     10         49.810013       49.792393   0.000000   0.000000
     11         55.951686       56.050556   0.000000   0.000000
     12         55.951819       56.050592   0.000000   0.000000
 
  0.9090909E-01  0.3114872E-17 -0.3824022E-17  0.6010518E-02
      1          4.461342        4.469347   1.000000   1.000000
      2         12.137386       12.785298   1.000000   1.000000
      3         12.408512       13.072036   1.000000   1.000000
      4         12.408544       13.072061   1.000000   1.000000
      5         14.218257       14.807571   1.000000   1.000000
      6         14.218258       14.807575   1.000000   1.000000
      7         42.375143       42.348227   0.000000   0.000000
      8         46.361267       46.346171   0.000000   0.000000
      9         49.621065       49.631733   0.000000   0.000000
     10         49.621259       49.631786   0.000000   0.000000
     11         55.446551       55.468974   0.000000   0.000000
     12         56.340316       56.411853   0.000000   0.000000
 
  0.1818182E+00  0.2760296E-17  0.2760296E-17  0.6010518E-02
      1          5.662713        5.679926   1.000000   1.000000
      2         11.814924       12.421478   1.000000   1.000000
      3         12.627796       13.283488   1.000000   1.000000
      4         12.627829       13.283516   1.000000   1.000000
      5         14.200343       14.798712   1.000000   1.000000
      6         14.200350       14.798733   1.000000   1.000000
      7         38.776821       38.889825   0.000000   0.000000
      8         44.227381       44.161367   0.000000   0.000000
      9         49.266470       49.328325   0.000000   0.000000
     10         49.266686       49.328388   0.000000   0.000000
     11         54.887301       54.903979   0.000000   0.000000
     12         56.276690       56.320450   0.000000   0.000000
 
  0.2727273E+00 -0.9563871E-17 -0.9563871E-17  0.6010518E-02
      1          7.244786        7.321189   1.000000   1.000000
      2         11.781227       12.279811   1.000000   1.000000
      3         12.614142       13.231831   1.000000   1.000000
      4         12.614169       13.231856   1.000000   1.000000
      5         14.515615       15.159866   1.000000   1.000000
      6         14.515670       15.159930   1.000000   1.000000
      7         33.645196       33.840531   0.000000   0.000000
      8         43.112035       43.048997   0.000000   0.000000
      9         48.805889       48.911272   0.000000   0.000000
     10         48.806050       48.911342   0.000000   0.000000
     11         54.295241       54.352029   0.000000   0.000000
     12         54.295241       54.352124   0.000000   0.000000
 
  0.3636364E+00  0.8990039E-17  0.8990039E-17  0.6010518E-02
      1          8.284273        8.540447   1.000000   1.000000
      2         12.406094       12.992941   1.000000   1.000000
      3         12.406111       12.992963   1.000000   1.000000
      4         12.866194       13.114057   1.000000   1.000000
      5         15.065443       15.751659   1.000000   1.035453
      6         15.065526       15.751747   1.000000   1.035453
      7         28.936894       29.221772   0.000000   0.000000
      8         41.932733       41.860968   0.000000   0.000000
      9         48.369329       48.488610   0.000000   0.000000
     10         48.369476       48.488646   0.000000   0.000000
     11         52.415632       52.479091   0.000000   0.000000
     12         52.415850       52.479159   0.000000   0.000000
 
  0.4545455E+00  0.2563931E-17  0.2563931E-17  0.6010518E-02
      1          8.515795        8.888983   1.000000   1.000000
      2         12.246314       12.819298   1.000000   1.000000
      3         12.246327       12.819317   1.000000   1.000000
      4         14.652836       14.685945   1.000000   1.000000
      5         15.459071       16.168192   1.000467  -0.002201
      6         15.459169       16.168294   1.000468  -0.002309
      7         25.607371       25.998631   0.000000   0.000000
      8         41.200220       41.120429   0.000000   0.000000
      9         48.012230       48.123053   0.000000   0.000000
     10         48.012378       48.123214   0.000000   0.000000
     11         51.423461       51.498558   0.000000   0.000000
     12         51.423772       51.498691   0.000000   0.000000
 
  0.9090909E-01  0.9090909E-01  0.5465907E-17  0.4507889E-02
      1          4.603018        4.611245   1.000000   1.000000
      2         12.005682       12.651300   1.000000   1.000000
      3         12.499956       13.165072   1.000000   1.000000
      4         12.499981       13.165090   1.000000   1.000000
      5         14.013888       14.593104   1.000000   1.000000
      6         14.369691       14.963809   1.000000   1.000000
      7         42.590782       42.556043   0.000000   0.000000
      8         47.190430       47.151324   0.000000   0.000000
      9         47.785854       47.836253   0.000000   0.000000
     10         47.785990       47.836285   0.000000   0.000000
     11         57.312863       57.346058   0.000000   0.000000
     12         57.313271       57.348868   0.000000   0.000000
 
  0.1818182E+00  0.9090909E-01 -0.3477078E-17  0.1803156E-01
      1          5.545882        5.559358   1.000000   1.000000
      2         11.676403       12.297375   1.000000   1.000000
      3         12.724058       13.382804   1.000000   1.000000
      4         12.749278       13.414060   1.000000   1.000000
      5         13.823686       14.399791   1.000000   1.000000
      6         14.462090       15.063557   1.000000   1.000000
      7         40.639857       40.719348   0.000000   0.000000
      8         43.870263       43.844323   0.000000   0.000000
      9         46.272244       46.359045   0.000000   0.000000
     10         48.851952       48.860866   0.000000   0.000000
     11         55.427414       55.495503   0.000000   0.000000
     12         58.048946       58.062962   0.000000   0.000000
 
  0.2727273E+00  0.9090909E-01  0.2760296E-17  0.1803156E-01
      1          7.038967        7.085493   1.000000   1.000000
      2         11.425983       11.989048   1.000000   1.000000
      3         12.636879       13.239716   1.000000   1.000000
      4         12.855416       13.493311   1.000000   1.000000
      5         14.185308       14.803560   1.000000   1.000000
      6         14.736853       15.373141   1.000000   1.000046
      7         35.598263       35.762428   0.000000   0.000000
      8         42.732117       42.712242   0.000000   0.000000
      9         45.233227       45.343444   0.000000   0.000000
     10         49.718232       49.766579   0.000000   0.000000
     11         53.785604       53.854039   0.000000   0.000000
     12         57.685456       57.705603   0.000000   0.000000
 
  0.3636364E+00  0.9090909E-01 -0.9563871E-17  0.1803156E-01
      1          8.339146        8.531735   1.000000   1.000000
      2         11.824993       12.226237   1.000000   1.000000
      3         12.320843       12.899797   1.000000   1.000000
      4         12.708059       13.311465   1.000000   1.000000
      5         15.164053       15.774142   1.000000   1.033443
      6         15.190211       15.871469   1.000000   0.933656
      7         30.616622       30.860694   0.000000   0.000000
      8         41.571433       41.548528   0.000000   0.000000
      9         44.729894       44.846606   0.000000   0.000000
     10         48.239736       48.356223   0.000000   0.000000
     11         53.712712       53.753705   0.000000   0.000000
     12         56.138286       56.180996   0.000000   0.000000
 
  0.4545455E+00  0.9090909E-01  0.3327617E-16  0.1803156E-01
      1          8.754292        9.112852   1.000000   1.000000
      2         11.998866       12.500646   1.000000   1.000000
      3         12.511523       13.093500   1.000000   1.000000
      4         13.083095       13.441655   1.000000   1.000000
      5         15.508644       16.217013   1.001471  -0.032446
      6         16.541980       17.032109  -0.000408  -0.000000
      7         26.571980       26.915233   0.000000   0.000000
      8         40.619093       40.594219   0.000000   0.000000
      9         44.941363       45.053909   0.000000   0.000000
     10         46.430131       46.539973   0.000000   0.000000
     11         53.794851       53.845169   0.000000   0.000000
     12         54.661167       54.720473   0.000000   0.000000
 
 -0.4545455E+00  0.9090909E-01  0.6637734E-17  0.1803156E-01
      1          8.797894        9.191327   1.000000   1.000000
      2         11.963899       12.482832   1.000000   1.000000
      3         12.427771       13.001472   1.000000   1.000000
      4         13.583385       13.923295   1.000000   1.000000
      5         15.434958       16.147192   1.000254   0.024752
      6         17.312336       17.724121  -0.000000  -0.000000
      7         25.150653       25.553724   0.000000   0.000000
      8         40.144859       40.133233   0.000000   0.000000
      9         45.351758       45.439708   0.000000   0.000000
     10         46.069188       46.179225   0.000000   0.000000
     11         53.564381       53.637007   0.000000   0.000000
     12         53.986781       54.038151   0.000000   0.000000
 
 -0.3636364E+00  0.9090909E-01  0.2116261E-18  0.1803156E-01
      1          8.709681        9.027846   1.000000   1.000000
      2         12.136669       12.657709   1.000000   1.000000
      3         12.516291       13.094860   1.000000   1.000000
      4         12.774834       13.111296   1.000000   1.000000
      5         14.958570       15.652062   1.000000   1.017321
      6         16.395194       16.972966  -0.008333  -0.000000
      7         27.759036       28.068276   0.000000   0.000000
      8         40.201030       40.216472   0.000000   0.000000
      9         45.419778       45.484547   0.000000   0.000000
     10         48.195658       48.306925   0.000000   0.000000
     11         52.928477       53.007968   0.000000   0.000000
     12         53.929481       53.972862   0.000000   0.000000
 
 -0.2727273E+00  0.9090909E-01  0.1252053E-16  0.1803156E-01
      1          8.019807        8.145125   1.000000   1.000000
      2         11.672247       12.142813   1.000000   1.000000
      3         12.434179       13.016193   1.000000   1.000000
      4         12.737564       13.339264   1.000000   1.000000
      5         14.284420       14.939887   1.000000   1.000000
      6         15.435611       16.081086   1.000259   0.179102
      7         32.233413       32.450802   0.000000   0.000000
      8         40.680656       40.722118   0.000000   0.000000
      9         46.589600       46.635535   0.000000   0.000000
     10         50.962087       51.044932   0.000000   0.000000
     11         52.857061       52.957951   0.000000   0.000000
     12         52.968920       52.984903   0.000000   0.000000
 
 -0.1818182E+00  0.9090909E-01  0.3318867E-17  0.1803156E-01
      1          6.519664        6.548029   1.000000   1.000000
      2         11.549050       12.139004   1.000000   1.000000
      3         12.657932       13.278402   1.000000   1.000000
      4         12.850015       13.507738   1.000000   1.000000
      5         13.833896       14.424167   1.000000   1.000000
      6         14.730568       15.359078   1.000000   1.000030
      7         37.327304       37.467396   0.000000   0.000000
      8         41.492332       41.534942   0.000000   0.000000
      9         48.130083       48.145475   0.000000   0.000000
     10         51.685184       51.705981   0.000000   0.000000
     11         51.962326       51.972446   0.000000   0.000000
     12         55.146283       55.266992   0.000000   0.000000
 
 -0.9090909E-01  0.9090909E-01 -0.6229743E-17  0.9015778E-02
      1          5.151620        5.162542   1.000000   1.000000
      2         11.878457       12.509172   1.000000   1.000000
      3         12.588924       13.256058   1.000000   1.000000
      4         12.600664       13.259492   1.000000   1.000000
      5         13.962480       14.539273   1.000000   1.000000
      6         14.374161       14.973566   1.000000   1.000000
      7         41.461195       41.505026   0.000000   0.000000
      8         43.432538       43.456497   0.000000   0.000000
      9         48.179566       48.179784   0.000000   0.000000
     10         51.328767       51.314394   0.000000   0.000000
     11         53.106417       53.156252   0.000000   0.000000
     12         56.247104       56.333835   0.000000   0.000000
 
  0.1818182E+00  0.1818182E+00 -0.3639864E-17  0.4507889E-02
      1          6.166574        6.185131   1.000000   1.000000
      2         11.279950       11.888868   1.000000   1.000000
      3         13.104239       13.783711   1.000000   1.000000
      4         13.104264       13.783730   1.000000   1.000000
      5         13.418671       13.956321   1.000000   1.000000
      6         14.630307       15.230960   1.000000   1.000000
      7         42.190711       42.243080   0.000000   0.000000
      8         43.386062       43.373553   0.000000   0.000000
      9         43.858944       43.963350   0.000000   0.000000
     10         43.859075       43.963377   0.000000   0.000000
     11         55.267640       55.558614   0.000000   0.000000
     12         59.999579       59.995763   0.000000   0.000000
 
  0.2727273E+00  0.1818182E+00 -0.6946525E-17  0.1803156E-01
      1          7.353128        7.398950   1.000000   1.000000
      2         10.889878       11.472464   1.000000   1.000000
      3         12.803810       13.361043   1.000000   1.000000
      4         13.396216       14.065884   1.000000   1.000000
      5         14.032905       14.658037   1.000000   1.000000
      6         14.870479       15.494606   1.000000   1.001079
      7         37.970688       38.100405   0.000000   0.000000
      8         41.615739       41.657797   0.000000   0.000000
      9         42.210549       42.322599   0.000000   0.000000
     10         45.097744       45.168043   0.000000   0.000000
     11         53.635940       53.890275   0.000000   0.000000
     12         59.670527       59.674927   0.000000   0.000000
 
  0.3636364E+00  0.1818182E+00 -0.4525543E-17  0.1803156E-01
      1          8.629804        8.776567   1.000000   1.000000
      2         10.782665       11.298754   1.000000   1.000000
      3         12.314514       12.850950   1.000000   1.000000
      4         13.369148       14.000632   1.000000   1.000000
      5         15.284498       15.958648   1.000003   0.662089
      6         15.465757       16.039646   1.000550   0.327053
      7         32.805583       33.000678   0.000000   0.000000
      8         39.993202       40.055006   0.000000   0.000000
      9         41.377467       41.489310   0.000000   0.000000
     10         45.319923       45.424215   0.000000   0.000000
     11         55.455759       55.637494   0.000000   0.000000
     12         58.822170       58.848227   0.000000   0.000000
 
  0.4545455E+00  0.1818182E+00 -0.9563871E-17  0.1803156E-01
      1          9.265006        9.605655   1.000000   1.000000
      2         11.088635       11.488331   1.000000   1.000000
      3         12.204147       12.729090   1.000000   1.000000
      4         13.175364       13.776927   1.000000   1.000000
      5         15.568221       16.276914   1.004819  -0.031928
      6         17.572772       18.030490  -0.000000  -0.000000
      7         28.191560       28.462611   0.000000   0.000000
      8         38.325391       38.409366   0.000000   0.000000
      9         41.469253       41.578495   0.000000   0.000000
     10         44.599051       44.693817   0.000000   0.000000
     11         57.785751       57.807427   0.000000   0.000000
     12         58.640553       58.685672   0.000000   0.000000
 
 -0.4545455E+00  0.1818182E+00  0.1028828E-16  0.1803156E-01
      1          9.445686        9.868829   1.000000   1.000000
      2         11.213399       11.611398   1.000000   1.000000
      3         12.491596       12.983702   1.000000   1.000000
      4         13.015095       13.598663   1.000000   1.000000
      5         15.451686       16.170157   1.000389  -0.004237
      6         19.570873       19.908551  -0.000000  -0.000000
      7         25.247838       25.615255   0.000000   0.000000
      8         36.971219       37.077842   0.000000   0.000000
      9         42.589502       42.701171   0.000000   0.000000
     10         44.082936       44.148693   0.000000   0.000000
     11         57.184558       57.212722   0.000000   0.000000
     12         57.350877       57.409512   0.000000   0.000000
 
 -0.3636364E+00  0.1818182E+00  0.1912774E-16  0.1803156E-01
      1          9.517912        9.899686   1.000000   1.000000
      2         11.443714       11.866502   1.000000   1.000000
      3         12.185110       12.652250   1.000000   1.000000
      4         12.994882       13.570258   1.000000   1.000000
      5         14.919645       15.627558   1.000000   1.012547
      6         18.708710       19.153117  -0.000000  -0.000000
      7         26.984643       27.298877   0.000000   0.000000
      8         36.154437       36.279322   0.000000   0.000000
      9         44.406491       44.445032   0.000000   0.000000
     10         44.708450       44.825671   0.000000   0.000000
     11         55.936697       55.943603   0.000000   0.000000
     12         56.593298       56.663156   0.000000   0.000000
 
 -0.2727273E+00  0.1818182E+00  0.9926078E-17  0.1803156E-01
      1          9.200761        9.393348   1.000000   1.000000
      2         11.352124       11.839532   1.000000   1.000000
      3         11.903472       12.428877   1.000000   1.000000
      4         13.146875       13.722634   1.000000   1.000000
      5         14.155054       14.842889   1.000000   1.000000
      6         16.971567       17.559883  -0.000000  -0.000000
      7         31.277502       31.510501   0.000000   0.000000
      8         35.979699       36.115047   0.000000   0.000000
      9         45.721611       45.749396   0.000000   0.000000
     10         47.527563       47.641188   0.000000   0.000000
     11         53.549164       53.528585   0.000000   0.000000
     12         56.532622       56.609284   0.000000   0.000000
 
 -0.1818182E+00  0.1818182E+00 -0.5520592E-17  0.9015778E-02
      1          7.923828        7.983664   1.000000   1.000000
      2         11.219174       11.793051   1.000000   1.000000
      3         12.388733       12.954956   1.000000   1.000000
      4         13.384005       14.022412   1.000000   1.000000
      5         13.468754       14.080570   1.000000   1.000000
      6         15.658316       16.297647   1.018666  -0.027679
      7         35.991333       36.185714   0.000000   0.000000
      8         36.753014       36.851751   0.000000   0.000000
      9         47.918614       47.950477   0.000000   0.000000
     10         50.568128       50.643647   0.000000   0.000000
     11         50.881270       50.845273   0.000000   0.000000
     12         57.122508       57.185690   0.000000   0.000000
 
  0.2727273E+00  0.2727273E+00 -0.1968453E-16  0.4507889E-02
      1          7.982329        8.075644   1.000000   1.000000
      2         10.397517       10.966138   1.000000   1.000000
      3         13.348094       13.763162   1.000000   1.000000
      4         14.013733       14.719176   1.000000   1.000000
      5         14.013759       14.719195   1.000000   1.000000
      6         14.981582       15.591061   1.000000   1.007162
      7         39.199482       39.269419   0.000000   0.000000
      8         39.985249       40.092074   0.000000   0.000000
      9         39.985375       40.092100   0.000000   0.000000
     10         41.877644       42.005730   0.000000   0.000000
     11         50.628822       50.874980   0.000000   0.000000
     12         64.219342       64.207318   0.000000   0.000000
 
  0.3636364E+00  0.2727273E+00 -0.1527320E-16  0.1803156E-01
      1          8.666873        8.852271   1.000000   1.000000
      2         10.085453       10.632914   1.000000   1.000000
      3         13.205058       13.663879   1.000000   1.000000
      4         14.240242       14.913895   1.000000   1.000000
      5         15.308032       15.967983   1.000006   0.624515
      6         15.472636       16.034300   1.000648   0.348261
      7         35.216204       35.354506   0.000000   0.000000
      8         37.435016       37.566300   0.000000   0.000000
      9         38.664423       38.763402   0.000000   0.000000
     10         43.241427       43.364201   0.000000   0.000000
     11         50.703799       50.915202   0.000000   0.000000
     12         63.707767       64.242531   0.000000   0.000000
 
  0.4545455E+00  0.2727273E+00  0.1351558E-16  0.1803156E-01
      1          9.210630        9.510879   1.000000   1.000000
      2         10.103036       10.602135   1.000000   1.000000
      3         12.808908       13.300581   1.000000   1.000000
      4         14.098220       14.728252   1.000000   1.000000
      5         15.616529       16.326871   1.010695  -0.020978
      6         18.044444       18.475786  -0.000000  -0.000000
      7         30.504535       30.699152   0.000000   0.000000
      8         35.145794       35.303395   0.000000   0.000000
      9         38.440217       38.534826   0.000000   0.000000
     10         43.764324       43.884873   0.000000   0.000000
     11         53.964018       54.139589   0.000000   0.000000
     12         62.958676       62.997762   0.000000   0.000000
 
 -0.4545455E+00  0.2727273E+00  0.1948995E-16  0.1803156E-01
      1          9.651925       10.061309   1.000000   1.000000
      2         10.357123       10.773367   1.000000   1.000000
      3         12.418421       12.935375   1.000000   1.000000
      4         13.882868       14.481765   1.000000   1.000000
      5         15.508440       16.239211   1.001465  -0.035409
      6         21.168410       21.498277  -0.000000   0.000000
      7         26.381737       26.650697   0.000000   0.000000
      8         33.336862       33.513858   0.000000   0.000000
      9         39.397477       39.497953   0.000000   0.000000
     10         43.755648       43.853341   0.000000   0.000000
     11         58.697823       58.856089   0.000000   0.000000
     12         61.283715       61.325869   0.000000   0.000000
 
 -0.3636364E+00  0.2727273E+00  0.2832941E-16  0.1803156E-01
      1         10.142307       10.613285   1.000000   1.000000
      2         10.648778       10.990262   1.000000   1.000000
      3         11.899112       12.419546   1.000000   1.000000
      4         13.703905       14.275300   1.000000   1.000000
      5         14.999712       15.734182   1.000000   1.034282
      6         21.563844       21.900722   0.000000   0.000000
      7         26.296245       26.593834   0.000000   0.000000
      8         32.183716       32.369855   0.000000   0.000000
      9         41.425687       41.538871   0.000000   0.000000
     10         43.923257       43.993491   0.000000   0.000000
     11         59.429521       59.407753   0.000000   0.000000
     12         60.101179       60.142281   0.000000   0.000000
 
 -0.2727273E+00  0.2727273E+00  0.1912774E-16  0.9015778E-02
      1         10.215381       10.511408   1.000000   1.000000
      2         11.191683       11.632863   1.000000   1.000000
      3         11.283475       11.815646   1.000000   1.000000
      4         13.533549       14.082990   1.000000   1.000000
      5         14.389991       15.120850   1.000000   1.000000
      6         19.042047       19.517992  -0.000000  -0.000000
      7         29.941813       30.198113   0.000000   0.000000
      8         32.251712       32.423336   0.000000   0.000000
      9         44.260450       44.380862   0.000000   0.000000
     10         44.599756       44.646121   0.000000   0.000000
     11         56.373703       56.334713   0.000000   0.000000
     12         59.058966       59.101279   0.000000   0.000000
 
  0.3636364E+00  0.3636364E+00 -0.1421862E-16  0.4507889E-02
      1          8.570770        8.824056   1.000000   1.000000
      2          9.643369       10.180970   1.000000   1.000000
      3         15.011148       15.519650   1.000000   1.001861
      4         15.011175       15.753704   1.000000   1.035455
      5         15.314531       15.753725   1.000008   1.035455
      6         15.326660       15.932520   1.000011   0.760491
      7         34.236848       34.410454   0.000000   0.000000
      8         36.845386       36.926832   0.000000   0.000000
      9         36.845509       36.926859   0.000000   0.000000
     10         41.712528       41.889812   0.000000   0.000000
     11         48.539416       48.752340   0.000000   0.000000
     12         65.136208       66.427597   0.000000   0.000000
 
  0.4545455E+00  0.3636364E+00  0.1577835E-16  0.1803156E-01
      1          8.669543        8.969293   1.000000   1.000000
      2          9.504069       10.029607   1.000000   1.000000
      3         14.455589       15.006090   1.000000   1.000000
      4         15.026003       15.680111   1.000000   1.023607
      5         15.639266       16.359948   1.014720  -0.014017
      6         18.009118       18.331026  -0.000000  -0.000000
      7         31.780063       31.990327   0.000000   0.000000
      8         33.757991       33.883044   0.000000   0.000000
      9         36.180093       36.251260   0.000000   0.000000
     10         42.745013       42.902029   0.000000   0.000000
     11         49.570283       49.767118   0.000000   0.000000
     12         65.025371       66.257902   0.000000   0.000000
 
 -0.4545455E+00  0.3636364E+00 -0.1933530E-15  0.1803156E-01
      1          9.029746        9.369274   1.000000   1.000000
      2          9.716595       10.220476   1.000000   1.000000
      3         13.579886       14.118468   1.000000   1.000000
      4         14.786629       15.396910   1.000000   1.000091
      5         15.609432       16.363785   1.009608  -0.013303
      6         21.261528       21.546712  -0.000000   0.000000
      7         28.713379       28.911989   0.000000   0.000000
      8         30.926936       31.142854   0.000000   0.000000
      9         36.833662       36.911896   0.000000   0.000000
     10         43.456816       43.591749   0.000000   0.000000
     11         53.497514       53.671137   0.000000   0.000000
     12         65.062647       65.095106   0.000000   0.000000
 
 -0.3636364E+00  0.3636364E+00 -0.1798008E-16  0.9015778E-02
      1          9.624830       10.015830   1.000000   1.000000
      2         10.172131       10.625116   1.000000   1.000000
      3         12.585095       13.111132   1.000000   1.000000
      4         14.375178       14.949878   1.000000   1.000000
      5         15.256312       16.018392   1.000001   0.413264
      6         24.447070       24.719125   0.000000   0.000000
      7         24.948436       25.198079   0.000000   0.000000
      8         30.248350       30.480940   0.000000   0.000000
      9         38.687712       38.784876   0.000000   0.000000
     10         43.671735       43.777924   0.000000   0.000000
     11         58.704909       58.938190   0.000000   0.000000
     12         62.677212       62.711435   0.000000   0.000000
 
  0.4545455E+00  0.4545455E+00  0.4120732E-16  0.4507889E-02
      1          8.381859        8.693205   1.000000   1.000000
      2          9.217702        9.738999   1.000000   1.000000
      3         15.509434       16.133497   1.001497   0.047813
      4         15.713681       16.489035   1.031000  -0.001404
      5         15.713712       16.489057   1.031006  -0.001404
      6         18.258341       18.310529  -0.000000  -0.000000
      7         30.028423       30.298057   0.000000   0.000000
      8         35.029821       35.082583   0.000000   0.000000
      9         35.029943       35.082611   0.000000   0.000000
     10         41.672509       41.872060   0.000000   0.000000
     11         48.070692       48.266502   0.000000   0.000000
     12         65.733207       67.054384   0.000000   0.000000
 
 -0.4545455E+00  0.4545455E+00 -0.5127863E-17  0.9015778E-02
      1          8.513680        8.834667   1.000000   1.000000
      2          9.294941        9.813065   1.000000   1.000000
      3         14.992313       15.618036   1.000000   1.010937
      4         15.370453       15.986182   1.000043   0.548955
      5         15.746681       16.525614   1.035318  -0.000608
      6         19.943101       20.120766  -0.000000  -0.000000
      7         29.213814       29.500307   0.000000   0.000000
      8         32.814810       32.916086   0.000000   0.000000
      9         35.266707       35.322889   0.000000   0.000000
     10         42.637471       42.805060   0.000000   0.000000