       N       E                     dE             d eps       ncg     rms          rms(c)
DAV:   1     0.173346883563E+02    0.17335E+02   -0.29430E+03  3068   0.670E+02
DAV:   2    -0.456421793345E+01   -0.21899E+02   -0.20683E+02  2956   0.123E+02
DAV:   3    -0.490605355423E+01   -0.34184E+00   -0.34149E+00  3024   0.162E+01
DAV:   4    -0.490743879541E+01   -0.13852E-02   -0.13852E-02  3112   0.948E-01
DAV:   5    -0.490744878984E+01   -0.99944E-05   -0.99933E-05  2964   0.737E-02    0.170E+01
DAV:   6    -0.419130992398E+01    0.71614E+00   -0.51180E+00  3508   0.298E+01    0.653E+00
DAV:   7    -0.411777980979E+01    0.73530E-01   -0.24382E-01  3164   0.670E+00    0.415E+00
DAV:   8    -0.408824936463E+01    0.29530E-01   -0.21239E-02  3464   0.109E+00    0.841E-01
DAV:   9    -0.408861625766E+01   -0.36689E-03   -0.42803E-04  3328   0.166E-01    0.121E-01
DAV:  10    -0.408859614646E+01    0.20111E-04   -0.31401E-05  1896   0.568E-02
   1 F= -.40885961E+01 E0= -.40895219E+01  d E =0.277716E-02  mag=     0.5728
