PROCAR lm decomposed
# of k-points:   56         # of bands:   12         # of ions:    1

 k-point     1 :    0.00000000 0.00000000 0.00000000     weight = 0.00075131

band     1 # energy    4.03063738 # occ.  1.00000000
 
ion      s     py     pz     px    dxy    dyz    dz2    dxz  x2-y2    tot
    1  1.146  0.000  0.000  0.000  0.000  0.000  0.000  0.000  0.000  1.146
 
band     2 # energy   12.28846318 # occ.  1.00000000
 
ion      s     py     pz     px    dxy    dyz    dz2    dxz  x2-y2    tot
    1  0.000  0.000  0.000  0.000  0.412  0.581  0.000  0.025  0.000  1.019
 
band     3 # energy   12.28846318 # occ.  1.00000000
 
ion      s     py     pz     px    dxy    dyz    dz2    dxz  x2-y2    tot
    1  0.000  0.000  0.000  0.000  0.267  0.098  0.000  0.654  0.000  1.019
 
band     4 # energy   12.28849972 # occ.  1.00000000
 
ion      s     py     pz     px    dxy    dyz    dz2    dxz  x2-y2    tot
    1  0.000  0.000  0.000  0.000  0.340  0.340  0.000  0.340  0.000  1.019
 
band     5 # energy   14.27295911 # occ.  1.00000000
 
ion      s     py     pz     px    dxy    dyz    dz2    dxz  x2-y2    tot
    1  0.000  0.000  0.000  0.000  0.000  0.000  0.227  0.000  0.772  0.999
 
band     6 # energy   14.27295911 # occ.  1.00000000
 
ion      s     py     pz     px    dxy    dyz    dz2    dxz  x2-y2    tot
    1  0.000  0.000  0.000  0.000  0.000  0.000  0.772  0.000  0.227  0.999
 
band     7 # energy   42.80535668 # occ.  0.00000000
 
ion      s     py     pz     px    dxy    dyz    dz2    dxz  x2-y2    tot
    1  0.000  0.000  0.000  0.000  0.000  0.000  0.000  0.000  0.000  0.000
 
band     8 # energy   49.80981808 # occ.  0.00000000
 
ion      s     py     pz     px    dxy    dyz    dz2    dxz  x2-y2    tot
    1  0.000  0.079  0.079  0.079  0.000  0.000  0.000  0.000  0.000  0.237
 
band     9 # energy   49.81001239 # occ.  0.00000000
 
ion      s     py     pz     px    dxy    dyz    dz2    dxz  x2-y2    tot
    1  0.000  0.138  0.004  0.095  0.000  0.000  0.000  0.000  0.000  0.237
 
band    10 # energy   49.81001251 # occ.  0.00000000
 
ion      s     py     pz     px    dxy    dyz    dz2    dxz  x2-y2    tot
    1  0.000  0.020  0.154  0.063  0.000  0.000  0.000  0.000  0.000  0.237
 
band    11 # energy   55.95168600 # occ.  0.00000000
 
ion      s     py     pz     px    dxy    dyz    dz2    dxz  x2-y2    tot
    1  0.000  0.000  0.000  0.000  0.363  0.367  0.000  1.248  0.000  1.977
 
band    12 # energy   55.95181929 # occ.  0.00000000
 
ion      s     py     pz     px    dxy    dyz    dz2    dxz  x2-y2    tot
    1  0.000  0.000  0.000  0.000  0.646  1.257  0.000  0.074  0.000  1.977
 

 k-point     2 :    0.09090909 0.00000000-0.00000000     weight = 0.00601052

band     1 # energy    4.46134235 # occ.  1.00000000
 
ion      s     py     pz     px    dxy    dyz    dz2    dxz  x2-y2    tot
    1  1.103  0.014  0.014  0.014  0.000  0.000  0.000  0.000  0.000  1.147
 
band     2 # energy   12.13738644 # occ.  1.00000000
 
ion      s     py     pz     px    dxy    dyz    dz2    dxz  x2-y2    tot
    1  0.000  0.002  0.002  0.002  0.337  0.337  0.000  0.337  0.000  1.019
 
band     3 # energy   12.40851185 # occ.  1.00000000
 
ion      s     py     pz     px    dxy    dyz    dz2    dxz  x2-y2    tot
    1  0.000  0.001  0.000  0.001  0.000  0.505  0.000  0.505  0.005  1.016
 
band     4 # energy   12.40854431 # occ.  1.00000000
 
ion      s     py     pz     px    dxy    dyz    dz2    dxz  x2-y2    tot
    1  0.000  0.000  0.001  0.000  0.673  0.168  0.005  0.168  0.000  1.016
 
band     5 # energy   14.21825655 # occ.  1.00000000
 
ion      s     py     pz     px    dxy    dyz    dz2    dxz  x2-y2    tot
    1  0.000  0.000  0.000  0.000  0.003  0.001  0.993  0.001  0.000  0.998
 
band     6 # energy   14.21825782 # occ.  1.00000000
 
ion      s     py     pz     px    dxy    dyz    dz2    dxz  x2-y2    tot
    1  0.000  0.000  0.000  0.000  0.000  0.002  0.000  0.002  0.993  0.998
 
band     7 # energy   42.37514283 # occ.  0.00000000
 
ion      s     py     pz     px    dxy    dyz    dz2    dxz  x2-y2    tot
    1  0.002  0.010  0.010  0.010  0.097  0.097  0.000  0.097  0.000  0.323
 
band     8 # energy   46.36126743 # occ.  0.00000000
 
ion      s     py     pz     px    dxy    dyz    dz2    dxz  x2-y2    tot
    1  0.034  0.063  0.063  0.063  0.039  0.039  0.000  0.039  0.000  0.340
 
band     9 # energy   49.62106461 # occ.  0.00000000
 
ion      s     py     pz     px    dxy    dyz    dz2    dxz  x2-y2    tot
    1  0.000  0.040  0.159  0.040  0.134  0.034  0.064  0.034  0.000  0.504
 
band    10 # energy   49.62125869 # occ.  0.00000000
 
ion      s     py     pz     px    dxy    dyz    dz2    dxz  x2-y2    tot
    1  0.000  0.119  0.000  0.119  0.000  0.101  0.000  0.101  0.064  0.504
 
band    11 # energy   55.44655056 # occ.  0.00000000
 
ion      s     py     pz     px    dxy    dyz    dz2    dxz  x2-y2    tot
    1  0.018  0.037  0.037  0.037  0.254  0.255  0.000  0.254  0.000  0.891
 
band    12 # energy   56.34031583 # occ.  0.00000000
 
ion      s     py     pz     px    dxy    dyz    dz2    dxz  x2-y2    tot
    1  0.000  0.002  0.001  0.000  0.434  0.186  0.012  0.953  0.016  1.605
 

 k-point     3 :    0.18181818 0.00000000 0.00000000     weight = 0.00601052

band     1 # energy    5.66271282 # occ.  1.00000000
 
ion      s     py     pz     px    dxy    dyz    dz2    dxz  x2-y2    tot
    1  0.973  0.050  0.050  0.050  0.008  0.008  0.000  0.008  0.000  1.148
 
band     2 # energy   11.81492395 # occ.  1.00000000
 
ion      s     py     pz     px    dxy    dyz    dz2    dxz  x2-y2    tot
    1  0.006  0.014  0.014  0.014  0.324  0.324  0.000  0.324  0.000  1.021
 
band     3 # energy   12.62779558 # occ.  1.00000000
 
ion      s     py     pz     px    dxy    dyz    dz2    dxz  x2-y2    tot
    1  0.000  0.002  0.000  0.002  0.000  0.456  0.000  0.456  0.097  1.012
 
band     4 # energy   12.62782923 # occ.  1.00000000
 
ion      s     py     pz     px    dxy    dyz    dz2    dxz  x2-y2    tot
    1  0.000  0.001  0.002  0.001  0.608  0.152  0.097  0.152  0.000  1.012
 
band     5 # energy   14.20034322 # occ.  1.00000000
 
ion      s     py     pz     px    dxy    dyz    dz2    dxz  x2-y2    tot
    1  0.000  0.000  0.000  0.000  0.000  0.047  0.000  0.047  0.899  0.995
 
band     6 # energy   14.20035047 # occ.  1.00000000
 
ion      s     py     pz     px    dxy    dyz    dz2    dxz  x2-y2    tot
    1  0.000  0.000  0.001  0.000  0.063  0.016  0.899  0.016  0.000  0.995
 
band     7 # energy   38.77682109 # occ.  0.00000000
 
ion      s     py     pz     px    dxy    dyz    dz2    dxz  x2-y2    tot
    1  0.052  0.078  0.078  0.078  0.227  0.227  0.000  0.227  0.000  0.966
 
band     8 # energy   44.22738075 # occ.  0.00000000
 
ion      s     py     pz     px    dxy    dyz    dz2    dxz  x2-y2    tot
    1  0.029  0.007  0.007  0.007  0.016  0.016  0.000  0.016  0.000  0.097
 
band     9 # energy   49.26646984 # occ.  0.00000000
 
ion      s     py     pz     px    dxy    dyz    dz2    dxz  x2-y2    tot
    1  0.000  0.044  0.175  0.044  0.344  0.086  0.154  0.086  0.000  0.933
 
band    10 # energy   49.26668628 # occ.  0.00000000
 
ion      s     py     pz     px    dxy    dyz    dz2    dxz  x2-y2    tot
    1  0.000  0.131  0.000  0.131  0.000  0.258  0.000  0.258  0.154  0.933
 
band    11 # energy   54.88730095 # occ.  0.00000000
 
ion      s     py     pz     px    dxy    dyz    dz2    dxz  x2-y2    tot
    1  0.006  0.077  0.077  0.077  0.054  0.054  0.000  0.054  0.000  0.399
 
band    12 # energy   56.27669029 # occ.  0.00000000
 
ion      s     py     pz     px    dxy    dyz    dz2    dxz  x2-y2    tot
    1  0.000  0.040  0.002  0.025  0.016  0.211  0.014  0.340  0.317  0.965
 

 k-point     4 :    0.27272727-0.00000000-0.00000000     weight = 0.00601052

band     1 # energy    7.24478563 # occ.  1.00000000
 
ion      s     py     pz     px    dxy    dyz    dz2    dxz  x2-y2    tot
    1  0.743  0.073  0.073  0.073  0.061  0.061  0.000  0.061  0.000  1.143
 
band     2 # energy   11.78122710 # occ.  1.00000000
 
ion      s     py     pz     px    dxy    dyz    dz2    dxz  x2-y2    tot
    1  0.049  0.065  0.065  0.065  0.265  0.265  0.000  0.265  0.000  1.037
 
band     3 # energy   12.61414165 # occ.  1.00000000
 
ion      s     py     pz     px    dxy    dyz    dz2    dxz  x2-y2    tot
    1  0.000  0.001  0.000  0.001  0.000  0.326  0.000  0.326  0.354  1.008
 
band     4 # energy   12.61416854 # occ.  1.00000000
 
ion      s     py     pz     px    dxy    dyz    dz2    dxz  x2-y2    tot
    1  0.000  0.000  0.002  0.000  0.435  0.109  0.354  0.109  0.000  1.008
 
band     5 # energy   14.51561478 # occ.  1.00000000
 
ion      s     py     pz     px    dxy    dyz    dz2    dxz  x2-y2    tot
    1  0.000  0.001  0.000  0.001  0.000  0.173  0.000  0.173  0.640  0.990
 
band     6 # energy   14.51567019 # occ.  1.00000000
 
ion      s     py     pz     px    dxy    dyz    dz2    dxz  x2-y2    tot
    1  0.000  0.000  0.002  0.000  0.231  0.058  0.640  0.058  0.000  0.990
 
band     7 # energy   33.64519614 # occ.  0.00000000
 
ion      s     py     pz     px    dxy    dyz    dz2    dxz  x2-y2    tot
    1  0.140  0.102  0.102  0.102  0.220  0.220  0.000  0.220  0.000  1.103
 
band     8 # energy   43.11203517 # occ.  0.00000000
 
ion      s     py     pz     px    dxy    dyz    dz2    dxz  x2-y2    tot
    1  0.014  0.001  0.001  0.001  0.039  0.039  0.000  0.039  0.000  0.137
 
band     9 # energy   48.80588854 # occ.  0.00000000
 
ion      s     py     pz     px    dxy    dyz    dz2    dxz  x2-y2    tot
    1  0.000  0.055  0.221  0.055  0.435  0.108  0.174  0.109  0.000  1.157
 
band    10 # energy   48.80605036 # occ.  0.00000000
 
ion      s     py     pz     px    dxy    dyz    dz2    dxz  x2-y2    tot
    1  0.000  0.165  0.000  0.166  0.000  0.326  0.000  0.326  0.174  1.157
 
band    11 # energy   54.29524055 # occ.  0.00000000
 
ion      s     py     pz     px    dxy    dyz    dz2    dxz  x2-y2    tot
    1  0.000  0.023  0.087  0.024  0.013  0.004  0.754  0.003  0.017  0.925
 
band    12 # energy   54.29524093 # occ.  0.00000000
 
ion      s     py     pz     px    dxy    dyz    dz2    dxz  x2-y2    tot
    1  0.000  0.067  0.002  0.065  0.000  0.010  0.017  0.010  0.754  0.925
 

 k-point     5 :    0.36363636 0.00000000 0.00000000     weight = 0.00601052

band     1 # energy    8.28427278 # occ.  1.00000000
 
ion      s     py     pz     px    dxy    dyz    dz2    dxz  x2-y2    tot
    1  0.429  0.034  0.034  0.034  0.195  0.195  0.000  0.195  0.000  1.118
 
band     2 # energy   12.40609392 # occ.  1.00000000
 
ion      s     py     pz     px    dxy    dyz    dz2    dxz  x2-y2    tot
    1  0.000  0.000  0.000  0.000  0.000  0.242  0.000  0.242  0.524  1.009
 
band     3 # energy   12.40611055 # occ.  1.00000000
 
ion      s     py     pz     px    dxy    dyz    dz2    dxz  x2-y2    tot
    1  0.000  0.000  0.001  0.000  0.323  0.081  0.524  0.081  0.000  1.009
 
band     4 # energy   12.86619420 # occ.  1.00000000
 
ion      s     py     pz     px    dxy    dyz    dz2    dxz  x2-y2    tot
    1  0.127  0.199  0.199  0.199  0.117  0.117  0.000  0.117  0.000  1.077
 
band     5 # energy   15.06544345 # occ.  1.00000000
 
ion      s     py     pz     px    dxy    dyz    dz2    dxz  x2-y2    tot
    1  0.000  0.001  0.000  0.001  0.000  0.258  0.000  0.258  0.472  0.990
 
band     6 # energy   15.06552618 # occ.  1.00000000
 
ion      s     py     pz     px    dxy    dyz    dz2    dxz  x2-y2    tot
    1  0.000  0.000  0.002  0.000  0.344  0.086  0.472  0.086  0.000  0.990
 
band     7 # energy   28.93689372 # occ.  0.00000000
 
ion      s     py     pz     px    dxy    dyz    dz2    dxz  x2-y2    tot
    1  0.280  0.083  0.083  0.083  0.204  0.204  0.000  0.204  0.000  1.142
 
band     8 # energy   41.93273341 # occ.  0.00000000
 
ion      s     py     pz     px    dxy    dyz    dz2    dxz  x2-y2    tot
    1  0.004  0.009  0.009  0.009  0.019  0.019  0.000  0.019  0.000  0.087
 
band     9 # energy   48.36932877 # occ.  0.00000000
 
ion      s     py     pz     px    dxy    dyz    dz2    dxz  x2-y2    tot
    1  0.000  0.076  0.306  0.076  0.283  0.071  0.101  0.071  0.000  0.984
 
band    10 # energy   48.36947612 # occ.  0.00000000
 
ion      s     py     pz     px    dxy    dyz    dz2    dxz  x2-y2    tot
    1  0.000  0.229  0.000  0.229  0.000  0.212  0.000  0.212  0.101  0.984
 
band    11 # energy   52.41563162 # occ.  0.00000000
 
ion      s     py     pz     px    dxy    dyz    dz2    dxz  x2-y2    tot
    1  0.000  0.015  0.062  0.015  0.092  0.023  1.010  0.023  0.000  1.240
 
band    12 # energy   52.41584985 # occ.  0.00000000
 
ion      s     py     pz     px    dxy    dyz    dz2    dxz  x2-y2    tot
    1  0.000  0.046  0.000  0.046  0.000  0.069  0.000  0.069  1.010  1.240
 

 k-point     6 :    0.45454545 0.00000000 0.00000000     weight = 0.00601052

band     1 # energy    8.51579511 # occ.  1.00000000
 
ion      s     py     pz     px    dxy    dyz    dz2    dxz  x2-y2    tot
    1  0.276  0.003  0.003  0.003  0.273  0.273  0.000  0.273  0.000  1.104
 
band     2 # energy   12.24631395 # occ.  1.00000000
 
ion      s     py     pz     px    dxy    dyz    dz2    dxz  x2-y2    tot
    1  0.000  0.000  0.000  0.000  0.000  0.212  0.000  0.212  0.586  1.011
 
band     3 # energy   12.24632667 # occ.  1.00000000
 
ion      s     py     pz     px    dxy    dyz    dz2    dxz  x2-y2    tot
    1  0.000  0.000  0.000  0.000  0.283  0.071  0.586  0.071  0.000  1.011
 
band     4 # energy   14.65283622 # occ.  1.00000000
 
ion      s     py     pz     px    dxy    dyz    dz2    dxz  x2-y2    tot
    1  0.037  0.339  0.339  0.339  0.015  0.015  0.000  0.015  0.000  1.101
 
band     5 # energy   15.45907056 # occ.  1.00046721
 
ion      s     py     pz     px    dxy    dyz    dz2    dxz  x2-y2    tot
    1  0.000  0.000  0.000  0.000  0.000  0.290  0.000  0.290  0.413  0.994
 
band     6 # energy   15.45916851 # occ.  1.00046833
 
ion      s     py     pz     px    dxy    dyz    dz2    dxz  x2-y2    tot
    1  0.000  0.000  0.000  0.000  0.386  0.097  0.413  0.097  0.000  0.994
 
band     7 # energy   25.60737146 # occ.  0.00000000
 
ion      s     py     pz     px    dxy    dyz    dz2    dxz  x2-y2    tot
    1  0.467  0.019  0.019  0.019  0.208  0.208  0.000  0.208  0.000  1.148
 
band     8 # energy   41.20022027 # occ.  0.00000000
 
ion      s     py     pz     px    dxy    dyz    dz2    dxz  x2-y2    tot
    1  0.000  0.012  0.012  0.012  0.002  0.002  0.000  0.002  0.000  0.044
 
band     9 # energy   48.01222955 # occ.  0.00000000
 
ion      s     py     pz     px    dxy    dyz    dz2    dxz  x2-y2    tot
    1  0.000  0.096  0.385  0.096  0.042  0.010  0.013  0.010  0.000  0.654
 
band    10 # energy   48.01237762 # occ.  0.00000000
 
ion      s     py     pz     px    dxy    dyz    dz2    dxz  x2-y2    tot
    1  0.000  0.289  0.000  0.289  0.000  0.031  0.000  0.031  0.013  0.654
 
band    11 # energy   51.42346056 # occ.  0.00000000
 
ion      s     py     pz     px    dxy    dyz    dz2    dxz  x2-y2    tot
    1  0.000  0.002  0.009  0.002  0.313  0.078  1.147  0.078  0.000  1.630
 
band    12 # energy   51.42377199 # occ.  0.00000000
 
ion      s     py     pz     px    dxy    dyz    dz2    dxz  x2-y2    tot
    1  0.000  0.007  0.000  0.007  0.000  0.235  0.000  0.235  1.147  1.630
 

 k-point     7 :    0.09090909 0.09090909 0.00000000     weight = 0.00450789

band     1 # energy    4.60301841 # occ.  1.00000000
 
ion      s     py     pz     px    dxy    dyz    dz2    dxz  x2-y2    tot
    1  1.088  0.058  0.000  0.000  0.000  0.000  0.000  0.000  0.001  1.147
 
band     2 # energy   12.00568189 # occ.  1.00000000
 
ion      s     py     pz     px    dxy    dyz    dz2    dxz  x2-y2    tot
    1  0.000  0.000  0.000  0.000  0.000  0.000  0.000  1.019  0.000  1.019
 
band     3 # energy   12.49995628 # occ.  1.00000000
 
ion      s     py     pz     px    dxy    dyz    dz2    dxz  x2-y2    tot
    1  0.000  0.000  0.003  0.003  0.505  0.505  0.000  0.000  0.000  1.016
 
band     4 # energy   12.49998071 # occ.  1.00000000
 
ion      s     py     pz     px    dxy    dyz    dz2    dxz  x2-y2    tot
    1  0.000  0.000  0.003  0.003  0.505  0.505  0.000  0.000  0.000  1.016
 
band     5 # energy   14.01388840 # occ.  1.00000000
 
ion      s     py     pz     px    dxy    dyz    dz2    dxz  x2-y2    tot
    1  0.001  0.000  0.000  0.000  0.000  0.000  0.249  0.000  0.747  0.997
 
band     6 # energy   14.36969131 # occ.  1.00000000
 
ion      s     py     pz     px    dxy    dyz    dz2    dxz  x2-y2    tot
    1  0.000  0.000  0.000  0.000  0.000  0.000  0.749  0.000  0.250  0.998
 
band     7 # energy   42.59078215 # occ.  0.00000000
 
ion      s     py     pz     px    dxy    dyz    dz2    dxz  x2-y2    tot
    1  0.000  0.000  0.000  0.000  0.000  0.000  0.000  0.286  0.000  0.286
 
band     8 # energy   47.19042952 # occ.  0.00000000
 
ion      s     py     pz     px    dxy    dyz    dz2    dxz  x2-y2    tot
    1  0.041  0.089  0.000  0.000  0.000  0.000  0.037  0.000  0.111  0.279
 
band     9 # energy   47.78585437 # occ.  0.00000000
 
ion      s     py     pz     px    dxy    dyz    dz2    dxz  x2-y2    tot
    1  0.000  0.000  0.154  0.154  0.224  0.224  0.000  0.000  0.000  0.756
 
band    10 # energy   47.78599017 # occ.  0.00000000
 
ion      s     py     pz     px    dxy    dyz    dz2    dxz  x2-y2    tot
    1  0.000  0.000  0.154  0.154  0.224  0.224  0.000  0.000  0.000  0.757
 
band    11 # energy   57.31286307 # occ.  0.00000000
 
ion      s     py     pz     px    dxy    dyz    dz2    dxz  x2-y2    tot
    1  0.000  0.000  0.003  0.003  0.477  0.611  0.000  0.000  0.000  1.093
 
band    12 # energy   57.31327066 # occ.  0.00000000
 
ion      s     py     pz     px    dxy    dyz    dz2    dxz  x2-y2    tot
    1  0.000  0.000  0.003  0.003  0.609  0.475  0.000  0.005  0.000  1.094
 

 k-point     8 :    0.18181818 0.09090909-0.00000000     weight = 0.01803156

band     1 # energy    5.54588194 # occ.  1.00000000
 
ion      s     py     pz     px    dxy    dyz    dz2    dxz  x2-y2    tot
    1  0.986  0.120  0.013  0.013  0.004  0.004  0.002  0.001  0.006  1.148
 
band     2 # energy   11.67640341 # occ.  1.00000000
 
ion      s     py     pz     px    dxy    dyz    dz2    dxz  x2-y2    tot
    1  0.001  0.001  0.005  0.005  0.057  0.057  0.000  0.895  0.000  1.021
 
band     3 # energy   12.72405771 # occ.  1.00000000
 
ion      s     py     pz     px    dxy    dyz    dz2    dxz  x2-y2    tot
    1  0.000  0.002  0.004  0.004  0.409  0.410  0.017  0.112  0.051  1.010
 
band     4 # energy   12.74927828 # occ.  1.00000000
 
ion      s     py     pz     px    dxy    dyz    dz2    dxz  x2-y2    tot
    1  0.000  0.000  0.005  0.005  0.480  0.479  0.032  0.000  0.011  1.011
 
band     5 # energy   13.82368627 # occ.  1.00000000
 
ion      s     py     pz     px    dxy    dyz    dz2    dxz  x2-y2    tot
    1  0.006  0.004  0.000  0.000  0.029  0.029  0.230  0.007  0.689  0.995
 
band     6 # energy   14.46208986 # occ.  1.00000000
 
ion      s     py     pz     px    dxy    dyz    dz2    dxz  x2-y2    tot
    1  0.000  0.000  0.000  0.000  0.021  0.021  0.715  0.000  0.238  0.996
 
band     7 # energy   40.63985745 # occ.  0.00000000
 
ion      s     py     pz     px    dxy    dyz    dz2    dxz  x2-y2    tot
    1  0.023  0.021  0.076  0.076  0.152  0.152  0.003  0.359  0.008  0.870
 
band     8 # energy   43.87026334 # occ.  0.00000000
 
ion      s     py     pz     px    dxy    dyz    dz2    dxz  x2-y2    tot
    1  0.038  0.025  0.014  0.014  0.015  0.015  0.024  0.143  0.072  0.360
 
band     9 # energy   46.27224352 # occ.  0.00000000
 
ion      s     py     pz     px    dxy    dyz    dz2    dxz  x2-y2    tot
    1  0.000  0.000  0.183  0.183  0.290  0.290  0.022  0.000  0.007  0.974
 
band    10 # energy   48.85195157 # occ.  0.00000000
 
ion      s     py     pz     px    dxy    dyz    dz2    dxz  x2-y2    tot
    1  0.000  0.000  0.086  0.086  0.075  0.075  0.063  0.004  0.190  0.581
 
band    11 # energy   55.42741361 # occ.  0.00000000
 
ion      s     py     pz     px    dxy    dyz    dz2    dxz  x2-y2    tot
    1  0.015  0.210  0.000  0.000  0.206  0.206  0.000  0.322  0.001  0.960
 
band    12 # energy   58.04894553 # occ.  0.00000000
 
ion      s     py     pz     px    dxy    dyz    dz2    dxz  x2-y2    tot
    1  0.000  0.000  0.012  0.012  0.257  0.257  0.103  0.000  0.034  0.674
 

 k-point     9 :    0.27272727 0.09090909 0.00000000     weight = 0.01803156

band     1 # energy    7.03896678 # occ.  1.00000000
 
ion      s     py     pz     px    dxy    dyz    dz2    dxz  x2-y2    tot
    1  0.794  0.171  0.036  0.036  0.034  0.034  0.005  0.020  0.014  1.144
 
band     2 # energy   11.42598333 # occ.  1.00000000
 
ion      s     py     pz     px    dxy    dyz    dz2    dxz  x2-y2    tot
    1  0.015  0.019  0.030  0.030  0.094  0.094  0.001  0.741  0.004  1.029
 
band     3 # energy   12.63687913 # occ.  1.00000000
 
ion      s     py     pz     px    dxy    dyz    dz2    dxz  x2-y2    tot
    1  0.000  0.001  0.003  0.003  0.208  0.208  0.105  0.163  0.315  1.004
 
band     4 # energy   12.85541593 # occ.  1.00000000
 
ion      s     py     pz     px    dxy    dyz    dz2    dxz  x2-y2    tot
    1  0.000  0.000  0.005  0.005  0.377  0.377  0.183  0.000  0.061  1.008
 
band     5 # energy   14.18530849 # occ.  1.00000000
 
ion      s     py     pz     px    dxy    dyz    dz2    dxz  x2-y2    tot
    1  0.021  0.022  0.004  0.004  0.158  0.158  0.138  0.079  0.413  0.997
 
band     6 # energy   14.73685331 # occ.  1.00000000
 
ion      s     py     pz     px    dxy    dyz    dz2    dxz  x2-y2    tot
    1  0.000  0.000  0.001  0.001  0.120  0.120  0.564  0.000  0.188  0.993
 
band     7 # energy   35.59826347 # occ.  0.00000000
 
ion      s     py     pz     px    dxy    dyz    dz2    dxz  x2-y2    tot
    1  0.095  0.046  0.129  0.129  0.195  0.195  0.004  0.267  0.011  1.071
 
band     8 # energy   42.73211670 # occ.  0.00000000
 
ion      s     py     pz     px    dxy    dyz    dz2    dxz  x2-y2    tot
    1  0.018  0.000  0.002  0.002  0.002  0.002  0.035  0.262  0.105  0.427
 
band     9 # energy   45.23322674 # occ.  0.00000000
 
ion      s     py     pz     px    dxy    dyz    dz2    dxz  x2-y2    tot
    1  0.000  0.000  0.211  0.211  0.282  0.282  0.063  0.000  0.021  1.069
 
band    10 # energy   49.71823151 # occ.  0.00000000
 
ion      s     py     pz     px    dxy    dyz    dz2    dxz  x2-y2    tot
    1  0.035  0.141  0.014  0.014  0.011  0.011  0.113  0.107  0.339  0.785
 
band    11 # energy   53.78560406 # occ.  0.00000000
 
ion      s     py     pz     px    dxy    dyz    dz2    dxz  x2-y2    tot
    1  0.030  0.202  0.022  0.022  0.078  0.078  0.032  0.324  0.095  0.884
 
band    12 # energy   57.68545593 # occ.  0.00000000
 
ion      s     py     pz     px    dxy    dyz    dz2    dxz  x2-y2    tot
    1  0.000  0.000  0.031  0.039  0.026  0.023  0.351  0.000  0.130  0.600
 

 k-point    10 :    0.36363636 0.09090909-0.00000000     weight = 0.01803156

band     1 # energy    8.33914646 # occ.  1.00000000
 
ion      s     py     pz     px    dxy    dyz    dz2    dxz  x2-y2    tot
    1  0.492  0.132  0.025  0.025  0.138  0.138  0.005  0.150  0.016  1.122
 
band     2 # energy   11.82499256 # occ.  1.00000000
 
ion      s     py     pz     px    dxy    dyz    dz2    dxz  x2-y2    tot
    1  0.068  0.100  0.107  0.107  0.064  0.064  0.033  0.403  0.100  1.047
 
band     3 # energy   12.32084265 # occ.  1.00000000
 
ion      s     py     pz     px    dxy    dyz    dz2    dxz  x2-y2    tot
    1  0.009  0.005  0.001  0.001  0.098  0.098  0.119  0.321  0.357  1.009
 
band     4 # energy   12.70805906 # occ.  1.00000000
 
ion      s     py     pz     px    dxy    dyz    dz2    dxz  x2-y2    tot
    1  0.000  0.000  0.004  0.004  0.272  0.272  0.341  0.000  0.114  1.007
 
band     5 # energy   15.16405252 # occ.  1.00000003
 
ion      s     py     pz     px    dxy    dyz    dz2    dxz  x2-y2    tot
    1  0.046  0.065  0.022  0.022  0.188  0.189  0.091  0.109  0.275  1.008
 
band     6 # energy   15.19021061 # occ.  1.00000009
 
ion      s     py     pz     px    dxy    dyz    dz2    dxz  x2-y2    tot
    1  0.000  0.000  0.001  0.001  0.225  0.224  0.406  0.000  0.135  0.992
 
band     7 # energy   30.61662213 # occ.  0.00000000
 
ion      s     py     pz     px    dxy    dyz    dz2    dxz  x2-y2    tot
    1  0.210  0.043  0.131  0.131  0.180  0.180  0.003  0.242  0.008  1.129
 
band     8 # energy   41.57143305 # occ.  0.00000000
 
ion      s     py     pz     px    dxy    dyz    dz2    dxz  x2-y2    tot
    1  0.004  0.011  0.007  0.007  0.000  0.000  0.046  0.188  0.138  0.401
 
band     9 # energy   44.72989417 # occ.  0.00000000
 
ion      s     py     pz     px    dxy    dyz    dz2    dxz  x2-y2    tot
    1  0.000  0.000  0.236  0.236  0.209  0.209  0.116  0.000  0.039  1.045
 
band    10 # energy   48.23973582 # occ.  0.00000000
 
ion      s     py     pz     px    dxy    dyz    dz2    dxz  x2-y2    tot
    1  0.087  0.314  0.014  0.014  0.001  0.001  0.080  0.170  0.240  0.920
 
band    11 # energy   53.71271244 # occ.  0.00000000
 
ion      s     py     pz     px    dxy    dyz    dz2    dxz  x2-y2    tot
    1  0.010  0.052  0.006  0.006  0.076  0.076  0.148  0.331  0.444  1.148
 
band    12 # energy   56.13828603 # occ.  0.00000000
 
ion      s     py     pz     px    dxy    dyz    dz2    dxz  x2-y2    tot
    1  0.000  0.000  0.050  0.050  0.021  0.021  0.552  0.000  0.184  0.878
 

 k-point    11 :    0.45454545 0.09090909 0.00000000     weight = 0.01803156

band     1 # energy    8.75429248 # occ.  1.00000000
 
ion      s     py     pz     px    dxy    dyz    dz2    dxz  x2-y2    tot
    1  0.276  0.049  0.001  0.001  0.236  0.236  0.002  0.295  0.005  1.102
 
band     2 # energy   11.99886575 # occ.  1.00000000
 
ion      s     py     pz     px    dxy    dyz    dz2    dxz  x2-y2    tot
    1  0.000  0.006  0.018  0.018  0.086  0.086  0.171  0.105  0.514  1.006
 
band     3 # energy   12.51152344 # occ.  1.00000000
 
ion      s     py     pz     px    dxy    dyz    dz2    dxz  x2-y2    tot
    1  0.000  0.000  0.003  0.003  0.219  0.219  0.423  0.000  0.141  1.008
 
band     4 # energy   13.08309451 # occ.  1.00000000
 
ion      s     py     pz     px    dxy    dyz    dz2    dxz  x2-y2    tot
    1  0.044  0.169  0.153  0.153  0.020  0.020  0.010  0.460  0.030  1.059
 
band     5 # energy   15.50864363 # occ.  1.00147116
 
ion      s     py     pz     px    dxy    dyz    dz2    dxz  x2-y2    tot
    1  0.000  0.000  0.000  0.000  0.281  0.281  0.324  0.000  0.108  0.994
 
band     6 # energy   16.54197972 # occ. -0.00040779
 
ion      s     py     pz     px    dxy    dyz    dz2    dxz  x2-y2    tot
    1  0.047  0.163  0.098  0.098  0.131  0.131  0.068  0.097  0.205  1.038
 
band     7 # energy   26.57197991 # occ.  0.00000000
 
ion      s     py     pz     px    dxy    dyz    dz2    dxz  x2-y2    tot
    1  0.388  0.010  0.075  0.075  0.178  0.178  0.001  0.231  0.004  1.139
 
band     8 # energy   40.61909267 # occ.  0.00000000
 
ion      s     py     pz     px    dxy    dyz    dz2    dxz  x2-y2    tot
    1  0.000  0.042  0.004  0.004  0.006  0.006  0.052  0.108  0.155  0.376
 
band     9 # energy   44.94136294 # occ.  0.00000000
 
ion      s     py     pz     px    dxy    dyz    dz2    dxz  x2-y2    tot
    1  0.000  0.000  0.251  0.251  0.109  0.109  0.183  0.000  0.061  0.964
 
band    10 # energy   46.43013130 # occ.  0.00000000
 
ion      s     py     pz     px    dxy    dyz    dz2    dxz  x2-y2    tot
    1  0.076  0.315  0.060  0.060  0.013  0.013  0.045  0.064  0.135  0.783
 
band    11 # energy   53.79485099 # occ.  0.00000000
 
ion      s     py     pz     px    dxy    dyz    dz2    dxz  x2-y2    tot
    1  0.022  0.026  0.002  0.002  0.044  0.044  0.189  0.421  0.567  1.317
 
band    12 # energy   54.66116675 # occ.  0.00000000
 
ion      s     py     pz     px    dxy    dyz    dz2    dxz  x2-y2    tot
    1  0.000  0.000  0.052  0.052  0.128  0.128  0.588  0.000  0.196  1.143
 

 k-point    12 :   -0.45454545 0.09090909 0.00000000     weight = 0.01803156

band     1 # energy    8.79789359 # occ.  1.00000000
 
ion      s     py     pz     px    dxy    dyz    dz2    dxz  x2-y2    tot
    1  0.236  0.011  0.007  0.007  0.264  0.264  0.000  0.309  0.000  1.098
 
band     2 # energy   11.96389892 # occ.  1.00000000
 
ion      s     py     pz     px    dxy    dyz    dz2    dxz  x2-y2    tot
    1  0.000  0.001  0.014  0.014  0.056  0.056  0.165  0.204  0.496  1.007
 
band     3 # energy   12.42777088 # occ.  1.00000000
 
ion      s     py     pz     px    dxy    dyz    dz2    dxz  x2-y2    tot
    1  0.000  0.000  0.001  0.001  0.198  0.198  0.456  0.000  0.152  1.007
 
band     4 # energy   13.58338522 # occ.  1.00000000
 
ion      s     py     pz     px    dxy    dyz    dz2    dxz  x2-y2    tot
    1  0.001  0.176  0.172  0.172  0.093  0.093  0.025  0.250  0.074  1.056
 
band     5 # energy   15.43495846 # occ.  1.00025427
 
ion      s     py     pz     px    dxy    dyz    dz2    dxz  x2-y2    tot
    1  0.000  0.000  0.000  0.000  0.303  0.303  0.290  0.000  0.097  0.993
 
band     6 # energy   17.31233628 # occ. -0.00000000
 
ion      s     py     pz     px    dxy    dyz    dz2    dxz  x2-y2    tot
    1  0.005  0.175  0.175  0.175  0.032  0.032  0.063  0.202  0.190  1.050
 
band     7 # energy   25.15065337 # occ.  0.00000000
 
ion      s     py     pz     px    dxy    dyz    dz2    dxz  x2-y2    tot
    1  0.494  0.033  0.000  0.000  0.210  0.210  0.000  0.202  0.000  1.151
 
band     8 # energy   40.14485948 # occ.  0.00000000
 
ion      s     py     pz     px    dxy    dyz    dz2    dxz  x2-y2    tot