<?xml version="1.0" encoding="ISO-8859-1"?>
<modeling>
 <generator>
  <i name="program" type="string">vasp </i>
  <i name="version" type="string">6.3.0  </i>
  <i name="subversion" type="string">20Jan22 (build Feb 01 2022 16:52:37) complex                          parallel </i>
  <i name="platform" type="string">TETRA_NSC1 </i>
  <i name="date" type="string">2022 02 23 </i>
  <i name="time" type="string">15:19:12 </i>
 </generator>
 <incar>
  <i type="string" name="SYSTEM">fcc Ni</i>
  <i type="int" name="ISTART">     0</i>
  <i type="int" name="ISPIN">     2</i>
  <i type="int" name="ICHARG">     2</i>
  <i name="ENCUT">    270.00000000</i>
  <v name="MAGMOM">      1.00000000</v>
  <i type="int" name="ISMEAR">     1</i>
  <i name="SIGMA">      0.20000000</i>
  <i type="int" name="LORBIT">    11</i>
 </incar>
 <primitive_cell>
  <structure name="primitive_cell" >
   <crystal>
    <varray name="basis" >
     <v>       1.55000000       1.55000000       0.00000000 </v>
     <v>       0.00000000       1.55000000       1.55000000 </v>
     <v>       1.55000000       0.00000000       1.55000000 </v>
    </varray>
    <i name="volume">      7.44775000 </i>
    <varray name="rec_basis" >
     <v>       0.32258065       0.32258065      -0.32258065 </v>
     <v>      -0.32258065       0.32258065       0.32258065 </v>
     <v>       0.32258065      -0.32258065       0.32258065 </v>
    </varray>
   </crystal>
   <varray name="positions" >
    <v>       0.00000000       0.00000000       0.00000000 </v>
   </varray>
  </structure>
  <varray name="primitive_index" >
   <v type="int" >        1 </v>
  </varray>
 </primitive_cell>
 <kpoints>
  <generation param="Monkhorst-Pack">
   <v type="int" name="divisions">      11       11       11 </v>
   <v name="usershift">      0.00000000       0.00000000       0.00000000 </v>
   <v name="genvec1">      0.09090909       0.00000000       0.00000000 </v>
   <v name="genvec2">      0.00000000       0.09090909      -0.00000000 </v>
   <v name="genvec3">     -0.00000000      -0.00000000       0.09090909 </v>
   <v name="shift">      0.00000000       0.00000000       0.00000000 </v>
  </generation>
  <varray name="kpointlist" >
   <v>       0.00000000       0.00000000       0.00000000 </v>
   <v>       0.09090909       0.00000000      -0.00000000 </v>
   <v>       0.18181818       0.00000000       0.00000000 </v>
   <v>       0.27272727      -0.00000000      -0.00000000 </v>
   <v>       0.36363636       0.00000000       0.00000000 </v>
   <v>       0.45454545       0.00000000       0.00000000 </v>
   <v>       0.09090909       0.09090909       0.00000000 </v>
   <v>       0.18181818       0.09090909      -0.00000000 </v>
   <v>       0.27272727       0.09090909       0.00000000 </v>
   <v>       0.36363636       0.09090909      -0.00000000 </v>
   <v>       0.45454545       0.09090909       0.00000000 </v>
   <v>      -0.45454545       0.09090909       0.00000000 </v>
   <v>      -0.36363636       0.09090909       0.00000000 </v>
   <v>      -0.27272727       0.09090909       0.00000000 </v>
   <v>      -0.18181818       0.09090909       0.00000000 </v>
   <v>      -0.09090909       0.09090909      -0.00000000 </v>
   <v>       0.18181818       0.18181818      -0.00000000 </v>
   <v>       0.27272727       0.18181818      -0.00000000 </v>
   <v>       0.36363636       0.18181818      -0.00000000 </v>
   <v>       0.45454545       0.18181818      -0.00000000 </v>
   <v>      -0.45454545       0.18181818       0.00000000 </v>
   <v>      -0.36363636       0.18181818       0.00000000 </v>
   <v>      -0.27272727       0.18181818       0.00000000 </v>
   <v>      -0.18181818       0.18181818      -0.00000000 </v>
   <v>       0.27272727       0.27272727      -0.00000000 </v>
   <v>       0.36363636       0.27272727      -0.00000000 </v>
   <v>       0.45454545       0.27272727       0.00000000 </v>
   <v>      -0.45454545       0.27272727       0.00000000 </v>
   <v>      -0.36363636       0.27272727       0.00000000 </v>
   <v>      -0.27272727       0.27272727       0.00000000 </v>
   <v>       0.36363636       0.36363636      -0.00000000 </v>
   <v>       0.45454545       0.36363636       0.00000000 </v>
   <v>      -0.45454545       0.36363636      -0.00000000 </v>
   <v>      -0.36363636       0.36363636      -0.00000000 </v>
   <v>       0.45454545       0.45454545       0.00000000 </v>
   <v>      -0.45454545       0.45454545      -0.00000000 </v>
   <v>       0.27272727       0.18181818       0.09090909 </v>
   <v>       0.36363636       0.18181818       0.09090909 </v>
   <v>       0.45454545       0.18181818       0.09090909 </v>
   <v>      -0.45454545       0.18181818       0.09090909 </v>
   <v>       0.36363636       0.27272727       0.09090909 </v>
   <v>       0.45454545       0.27272727       0.09090909 </v>
   <v>      -0.45454545       0.27272727       0.09090909 </v>
   <v>      -0.36363636       0.27272727       0.09090909 </v>
   <v>      -0.27272727       0.27272727       0.09090909 </v>
   <v>      -0.18181818       0.27272727       0.09090909 </v>
   <v>       0.45454545       0.36363636       0.09090909 </v>
   <v>      -0.45454545       0.36363636       0.09090909 </v>
   <v>      -0.36363636       0.36363636       0.09090909 </v>
   <v>      -0.27272727       0.36363636       0.09090909 </v>
   <v>      -0.45454545       0.45454545       0.09090909 </v>
   <v>      -0.36363636       0.45454545       0.09090909 </v>
   <v>      -0.45454545       0.36363636       0.18181818 </v>
   <v>      -0.36363636       0.36363636       0.18181818 </v>
   <v>      -0.36363636       0.45454545       0.18181818 </v>
   <v>      -0.27272727       0.45454545       0.18181818 </v>
  </varray>
  <varray name="weights" >
   <v>       0.00075131 </v>
   <v>       0.00601052 </v>
   <v>       0.00601052 </v>
   <v>       0.00601052 </v>
   <v>       0.00601052 </v>
   <v>       0.00601052 </v>
   <v>       0.00450789 </v>
   <v>       0.01803156 </v>
   <v>       0.01803156 </v>
   <v>       0.01803156 </v>
   <v>       0.01803156 </v>
   <v>       0.01803156 </v>
   <v>       0.01803156 </v>
   <v>       0.01803156 </v>
   <v>       0.01803156 </v>
   <v>       0.00901578 </v>
   <v>       0.00450789 </v>
   <v>       0.01803156 </v>
   <v>       0.01803156 </v>
   <v>       0.01803156 </v>
   <v>       0.01803156 </v>
   <v>       0.01803156 </v>
   <v>       0.01803156 </v>
   <v>       0.00901578 </v>
   <v>       0.00450789 </v>
   <v>       0.01803156 </v>
   <v>       0.01803156 </v>
   <v>       0.01803156 </v>
   <v>       0.01803156 </v>
   <v>       0.00901578 </v>
   <v>       0.00450789 </v>
   <v>       0.01803156 </v>
   <v>       0.01803156 </v>
   <v>       0.00901578 </v>
   <v>       0.00450789 </v>
   <v>       0.00901578 </v>
   <v>       0.01803156 </v>
   <v>       0.03606311 </v>
   <v>       0.03606311 </v>
   <v>       0.03606311 </v>
   <v>       0.01803156 </v>
   <v>       0.03606311 </v>
   <v>       0.03606311 </v>
   <v>       0.03606311 </v>
   <v>       0.03606311 </v>
   <v>       0.01803156 </v>
   <v>       0.01803156 </v>
   <v>       0.03606311 </v>
   <v>       0.03606311 </v>
   <v>       0.01803156 </v>
   <v>       0.01803156 </v>
   <v>       0.01803156 </v>
   <v>       0.01803156 </v>
   <v>       0.03606311 </v>
   <v>       0.01803156 </v>
   <v>       0.01803156 </v>
  </varray>
 </kpoints>
 <parameters>
  <separator name="general" >
   <i type="string" name="SYSTEM">fcc Ni</i>
   <i type="logical" name="LCOMPAT"> F  </i>
  </separator>
  <separator name="electronic" >
   <i type="string" name="PREC">normal</i>
   <i name="ENMAX">    270.00000000</i>
   <i name="ENAUG">    544.56500000</i>
   <i name="EDIFF">      0.00010000</i>
   <i type="int" name="IALGO">    38</i>
   <i type="int" name="IWAVPR">    10</i>
   <i type="int" name="NBANDS">    12</i>
   <i type="int" name="NBANDSLOW">    -1</i>
   <i type="int" name="NBANDSHIGH">    -1</i>
   <i name="NELECT">     10.00000000</i>
   <i type="int" name="TURBO">     0</i>
   <i type="int" name="IRESTART">     0</i>
   <i type="int" name="NREBOOT">     0</i>
   <i type="int" name="NMIN">     0</i>
   <i name="EREF">      0.00000000</i>
   <separator name="electronic smearing" >
    <i type="int" name="ISMEAR">     1</i>
    <i name="SIGMA">      0.20000000</i>
    <i name="KSPACING">      0.50000000</i>
    <i type="logical" name="KGAMMA"> T  </i>
    <i type="logical" name="KBLOWUP"> T  </i>
   </separator>
   <separator name="electronic projectors" >
    <i type="logical" name="LREAL"> F  </i>
    <v name="ROPT">      0.00000000</v>
    <i type="int" name="LMAXPAW">  -100</i>
    <i type="int" name="LMAXMIX">     2</i>
    <i type="logical" name="NLSPLINE"> F  </i>
   </separator>
   <separator name="electronic startup" >
    <i type="int" name="ISTART">     0</i>
    <i type="int" name="ICHARG">     2</i>
    <i type="int" name="INIWAV">     1</i>
   </separator>
   <separator name="electronic spin" >
    <i type="int" name="ISPIN">     2</i>
    <i type="logical" name="LNONCOLLINEAR"> F  </i>
    <v name="MAGMOM">      1.00000000</v>
    <i name="NUPDOWN">     -1.00000000</i>
    <i type="logical" name="LSORBIT"> F  </i>
    <v name="SAXIS">      0.00000000      0.00000000      1.00000000</v>
    <i type="logical" name="LSPIRAL"> F  </i>
    <v name="QSPIRAL">      0.00000000      0.00000000      0.00000000</v>
    <i type="logical" name="LZEROZ"> F  </i>
   </separator>
   <separator name="electronic exchange-correlation" >
    <i type="logical" name="LASPH"> F  </i>
    <i type="logical" name="LMETAGGA"> F  </i>
   </separator>
   <separator name="electronic convergence" >
    <i type="int" name="NELM">    60</i>
    <i type="int" name="NELMDL">    -5</i>
    <i type="int" name="NELMIN">     2</i>
    <i name="ENINI">    270.00000000</i>
    <separator name="electronic convergence detail" >
     <i type="logical" name="LDIAG"> T  </i>
     <i type="logical" name="LSUBROT"> F  </i>
     <i name="WEIMIN">      0.00000000</i>
     <i name="EBREAK">      0.00000208</i>
     <i name="DEPER">      0.30000000</i>
     <i type="int" name="NRMM">     4</i>
     <i name="TIME">      0.40000000</i>
    </separator>
   </separator>
   <separator name="electronic mixer" >
    <i name="AMIX">      0.40000000</i>
    <i name="BMIX">      1.00000000</i>
    <i name="AMIN">      0.10000000</i>
    <i name="AMIX_MAG">      1.60000000</i>
    <i name="BMIX_MAG">      1.00000000</i>
    <separator name="electronic mixer details" >
     <i type="int" name="IMIX">     4</i>
     <i type="logical" name="MIXFIRST"> F  </i>
     <i type="int" name="MAXMIX">   -45</i>
     <i name="WC">    100.00000000</i>
     <i type="int" name="INIMIX">     1</i>
     <i type="int" name="MIXPRE">     1</i>
     <i type="int" name="MREMOVE">     5</i>
    </separator>
   </separator>
   <separator name="electronic dipolcorrection" >
    <i type="logical" name="LDIPOL"> F  </i>
    <i type="logical" name="LMONO"> F  </i>
    <i type="int" name="IDIPOL">     0</i>
    <i name="EPSILON">      1.00000000</i>
    <v name="DIPOL">   -100.00000000   -100.00000000   -100.00000000</v>
    <i name="EFIELD">      0.00000000</i>
   </separator>
  </separator>
  <separator name="grids" >
   <i type="int" name="NGX">    10</i>
   <i type="int" name="NGY">    10</i>
   <i type="int" name="NGZ">    10</i>
   <i type="int" name="NGXF">    20</i>
   <i type="int" name="NGYF">    20</i>
   <i type="int" name="NGZF">    20</i>
   <i type="logical" name="ADDGRID"> F  </i>
  </separator>
  <separator name="ionic" >
   <i type="int" name="NSW">     0</i>
   <i type="int" name="IBRION">    -1</i>
   <i type="int" name="MDALGO">     0</i>
   <i type="int" name="ISIF">     2</i>
   <i name="PSTRESS">      0.00000000</i>
   <i name="EDIFFG">      0.00100000</i>
   <i type="int" name="NFREE">     0</i>
   <i name="POTIM">      0.50000000</i>
   <i name="SMASS">     -3.00000000</i>
   <i name="SCALEE">      1.00000000</i>
  </separator>
  <separator name="ionic md" >
   <i name="TEBEG">      0.00010000</i>
   <i name="TEEND">      0.00010000</i>
   <i type="int" name="NBLOCK">     1</i>
   <i type="int" name="KBLOCK">     1</i>
   <i type="int" name="NPACO">   256</i>
   <i name="APACO">     10.00000000</i>
  </separator>
  <separator name="symmetry" >
   <i type="int" name="ISYM">     2</i>
   <i name="SYMPREC">      0.00001000</i>
  </separator>
  <separator name="dos" >
   <i type="int" name="LORBIT">    11</i>
   <v name="RWIGS">     -1.00000000</v>
   <i type="int" name="NEDOS">   301</i>
   <i name="EMIN">     10.00000000</i>
   <i name="EMAX">    -10.00000000</i>
   <i name="EFERMI">      0.00000000</i>
  </separator>
  <separator name="writing" >
   <i type="int" name="NWRITE">     2</i>
   <i type="logical" name="LWAVE"> T  </i>
   <i type="logical" name="LDOWNSAMPLE"> F  </i>
   <i type="logical" name="LCHARG"> T  </i>
   <i type="logical" name="LPARD"> F  </i>
   <i type="logical" name="LVTOT"> F  </i>
   <i type="logical" name="LVHAR"> F  </i>
   <i type="logical" name="LELF"> F  </i>
   <i type="logical" name="LOPTICS"> F  </i>
   <v name="STM">      0.00000000      0.00000000      0.00000000      0.00000000      0.00000000      0.00000000      0.00000000</v>
  </separator>
  <separator name="performance" >
   <i type="int" name="NPAR">     4</i>
   <i type="int" name="NSIM">     4</i>
   <i type="int" name="NBLK">    -1</i>
   <i type="logical" name="LPLANE"> T  </i>
   <i type="logical" name="LSCALAPACK"> T  </i>
   <i type="logical" name="LSCAAWARE"> F  </i>
   <i type="logical" name="LSCALU"> F  </i>
   <i type="logical" name="LASYNC"> F  </i>
   <i type="logical" name="LORBITALREAL"> F  </i>
  </separator>
  <separator name="miscellaneous" >
   <i type="int" name="IDIOT">     3</i>
   <i type="int" name="PHON_NSTRUCT">    -1</i>
   <i type="logical" name="LMUSIC"> F  </i>
   <v name="POMASS">     58.69000000</v>
   <v name="DARWINR">      0.00000000</v>
   <v name="DARWINV">      1.00000000</v>
   <i type="logical" name="LCORR"> T  </i>
  </separator>
  <i type="logical" name="GGA_COMPAT"> T  </i>
  <i type="logical" name="LBERRY"> F  </i>
  <i type="int" name="ICORELEVEL">     0</i>
  <i type="logical" name="LDAU"> F  </i>
  <i type="int" name="I_CONSTRAINED_M">     0</i>
  <separator name="electronic exchange-correlation" >
   <i type="string" name="GGA">--</i>
   <i type="int" name="VOSKOWN">     0</i>
   <i type="logical" name="LHFCALC"> F  </i>
   <i type="string" name="PRECFOCK"></i>
   <i type="logical" name="LSYMGRAD"> F  </i>
   <i type="logical" name="LHFONE"> F  </i>
   <i type="logical" name="LRHFCALC"> F  </i>
   <i type="logical" name="LTHOMAS"> F  </i>
   <i type="logical" name="LMODELHF"> F  </i>
   <i type="logical" name="LFOCKACE"> F  </i>
   <i name="ENCUT4O">     -1.00000000</i>
   <i type="int" name="EXXOEP">     0</i>
   <i type="int" name="FOURORBIT">     0</i>
   <i name="AEXX">      0.00000000</i>
   <i name="HFALPHA">      0.00000000</i>
   <i name="MCALPHA">      0.00000000</i>
   <i name="ALDAX">      1.00000000</i>
   <i name="AGGAX">      1.00000000</i>
   <i name="ALDAC">      1.00000000</i>
   <i name="AGGAC">      1.00000000</i>
   <i type="int" name="NKREDX">     1</i>
   <i type="int" name="NKREDY">     1</i>
   <i type="int" name="NKREDZ">     1</i>
   <i type="logical" name="SHIFTRED"> F  </i>
   <i type="logical" name="ODDONLY"> F  </i>
   <i type="logical" name="EVENONLY"> F  </i>
   <i type="int" name="LMAXFOCK">     0</i>
   <i type="int" name="NMAXFOCKAE">     0</i>
   <i type="logical" name="LFOCKAEDFT"> F  </i>
   <i name="HFSCREEN">      0.00000000</i>
   <i name="HFSCREENC">      0.00000000</i>
   <i type="int" name="NBANDSGWLOW">     0</i>
  </separator>
  <separator name="vdW DFT" >
   <i type="logical" name="LUSE_VDW"> F  </i>
   <i name="Zab_VDW">     -0.84910000</i>
   <i name="PARAM1">      0.12340000</i>
   <i name="PARAM2">      1.00000000</i>
   <i name="PARAM3">      0.00000000</i>
  </separator>
  <separator name="model GW" >
   <i type="int" name="MODEL_GW">     0</i>
   <i name="MODEL_EPS0">      4.46865000</i>
   <i name="MODEL_ALPHA">      1.00000000</i>
  </separator>
  <separator name="linear response parameters" >
   <i type="logical" name="LEPSILON"> F  </i>
   <i type="logical" name="LRPA"> F  </i>
   <i type="logical" name="LNABLA"> F  </i>
   <i type="logical" name="LVEL"> F  </i>
   <i name="CSHIFT">      0.10000000</i>
   <i name="OMEGAMAX">     -1.00000000</i>
   <i name="DEG_THRESHOLD">      0.00200000</i>
   <i name="RTIME">     -0.10000000</i>
   <i name="WPLASMAI">      0.00000000</i>
   <v name="DFIELD">      0.00000000      0.00000000      0.00000000</v>
   <v name="WPLASMA">      0.00000000      0.00000000      0.00000000      0.00000000      0.00000000      0.00000000      0.00000000      0.00000000      0.00000000</v>
  </separator>
  <separator name="orbital magnetization" >
   <i type="logical" name="NUCIND"> F  </i>
   <v name="MAGPOS">      0.00000000      0.00000000      0.00000000</v>
   <i type="logical" name="LNICSALL"> T  </i>
   <i type="logical" name="ORBITALMAG"> F  </i>
   <i type="logical" name="LMAGBLOCH"> F  </i>
   <i type="logical" name="LCHIMAG"> F  </i>
   <i type="logical" name="LGAUGE"> T  </i>
   <i type="int" name="MAGATOM">     0</i>
   <v name="MAGDIPOL">      0.00000000      0.00000000      0.00000000</v>
   <v name="AVECCONST">      0.00000000      0.00000000      0.00000000</v>
  </separator>
  <separator name="response functions" >
   <i type="logical" name="LFINITE_TEMPERATURE"> F  </i>
   <i type="logical" name="LADDER"> F  </i>
   <i type="logical" name="LRPAFORCE"> F  </i>
   <i type="logical" name="LFXC"> F  </i>
   <i type="logical" name="LHARTREE"> T  </i>
   <i type="int" name="IBSE">     0</i>
   <v type="int" name="KPOINT">    -1     0     0     0</v>
   <i type="logical" name="LTCTC"> F  </i>
   <i type="logical" name="LTCTE"> F  </i>
   <i type="logical" name="LTETE"> F  </i>
   <i type="logical" name="LTRIPLET"> F  </i>
   <i type="logical" name="LFXCEPS"> F  </i>
   <i type="logical" name="LFXHEG"> F  </i>
   <i type="int" name="NATURALO">     2</i>
   <i type="logical" name="LHOLEGF"> F  </i>
   <i type="logical" name="L2ORDER"> F  </i>
   <i type="logical" name="LDMP1"> F  </i>
   <i type="logical" name="LMP2LT"> F  </i>
   <i type="logical" name="LSMP2LT"> F  </i>
   <i type="logical" name="LGWLF"> F  </i>
   <i name="ENCUTGW">     -2.00000000</i>
   <i name="ENCUTGWSOFT">     -2.00000000</i>
   <i name="ENCUTLF">     -1.00000000</i>
   <i type="logical" name="LESF_SPLINES"> F  </i>
   <i type="int" name="LMAXMP2">    -1</i>
   <i name="SCISSOR">      0.00000000</i>
   <i type="int" name="NOMEGA">     0</i>
   <i type="int" name="NOMEGAR">     0</i>
   <i type="int" name="NBANDSGW">    -1</i>
   <i type="int" name="NBANDSO">    -1</i>
   <i type="int" name="NBANDSV">    -1</i>
   <i type="int" name="NELMGW">     1</i>
   <i type="int" name="NELMHF">     1</i>
   <i type="int" name="DIM">     3</i>
   <i type="int" name="IESPILON">     4</i>
   <i type="int" name="ANTIRES">     0</i>
   <i name="OMEGAMAX">    -30.00000000</i>
   <i name="OMEGAMIN">    -30.00000000</i>
   <i name="OMEGATL">   -200.00000000</i>
   <i type="int" name="OMEGAGRID">     0</i>
   <i name="CSHIFT">     -0.10000000</i>
   <i type="logical" name="LSELFENERGY"> F  </i>
   <i type="logical" name="LSPECTRAL"> F  </i>
   <i type="logical" name="LSPECTRALGW"> F  </i>
   <i type="logical" name="LSINGLES"> F  </i>
   <i type="logical" name="LFERMIGW"> F  </i>
   <i type="logical" name="ODDONLYGW"> F  </i>
   <i type="logical" name="EVENONLYGW"> F  </i>
   <i type="int" name="NKREDLFX">     1</i>
   <i type="int" name="NKREDLFY">     1</i>
   <i type="int" name="NKREDLFZ">     1</i>
   <i type="int" name="MAXMEM">  2800</i>
   <i type="int" name="TELESCOPE">     0</i>
   <i type="int" name="NTAUPAR">    -1</i>
   <i type="int" name="NOMEGAPAR">    -1</i>
   <i name="DAMP_NEWTON">      0.80000001</i>
   <i name="LAMBDA">      1.00000000</i>
  </separator>
  <separator name="External order field" >
   <i name="OFIELD_KAPPA">      0.00000000</i>
   <v name="OFIELD_K">      0.00000000      0.00000000      0.00000000</v>
   <i name="OFIELD_Q6_NEAR">      0.00000000</i>
   <i name="OFIELD_Q6_FAR">      0.00000000</i>
   <i name="OFIELD_A">      0.00000000</i>
  </separator>
  <separator name="optional k-points parameters" >
   <i type="int" name="KPOINTS_OPT_MODE">     1</i>
   <i type="logical" name="LKPOINTS_OPT"> F  </i>
  </separator>
 </parameters>
 <atominfo>
  <atoms>       1 </atoms>
  <types>       1 </types>
  <array name="atoms" >
   <dimension dim="1">ion</dimension>
   <field type="string">element</field>
   <field type="int">atomtype</field>
   <set>
    <rc><c>Ni</c><c>   1</c></rc>
   </set>
  </array>
  <array name="atomtypes" >
   <dimension dim="1">type</dimension>
   <field type="int">atomspertype</field>
   <field type="string">element</field>
   <field>mass</field>
   <field>valence</field>
   <field type="string">pseudopotential</field>
   <set>
    <rc><c>   1</c><c>Ni</c><c>     58.69000000</c><c>     10.00000000</c><c>  PAW_PBE Ni 02Aug2007                  </c></rc>
   </set>
  </array>
 </atominfo>
 <structure name="initialpos" >
  <crystal>
   <varray name="basis" >
    <v>       1.55000000       1.55000000       0.00000000 </v>
    <v>       0.00000000       1.55000000       1.55000000 </v>
    <v>       1.55000000       0.00000000       1.55000000 </v>
   </varray>
   <i name="volume">      7.44775000 </i>
   <varray name="rec_basis" >
    <v>       0.32258065       0.32258065      -0.32258065 </v>
    <v>      -0.32258065       0.32258065       0.32258065 </v>
    <v>       0.32258065      -0.32258065       0.32258065 </v>
   </varray>
  </crystal>
  <varray name="positions" >
   <v>       0.00000000       0.00000000       0.00000000 </v>
  </varray>
 </structure>
 <calculation>
  <scstep>
   <time name="dav">    0.19    0.19</time>
   <time name="total">    0.20    0.20</time>
   <energy>
    <i name="alphaZ">     68.47625256 </i>
    <i name="ewald">  -1064.85545237 </i>
    <i name="hartreedc">   -189.84995838 </i>
    <i name="XCdc">     33.18830153 </i>
    <i name="pawpsdc">    962.83317360 </i>
    <i name="pawaedc">  -1029.67071227 </i>
    <i name="eentropy">     -0.00030664 </i>
    <i name="bandstr">    159.57731567 </i>
    <i name="atom">   1077.63607467 </i>
    <i name="e_fr_energy">     17.33468836 </i>
    <i name="e_wo_entrp">     17.33499500 </i>
    <i name="e_0_energy">     17.33479057 </i>
   </energy>
  </scstep>
  <scstep>
   <time name="dav">    0.18    0.18</time>
   <time name="total">    0.18    0.18</time>
   <energy>
    <i name="e_fr_energy">     -4.56421793 </i>
    <i name="e_wo_entrp">     -4.56794400 </i>
    <i name="e_0_energy">     -4.56545995 </i>
   </energy>
  </scstep>
  <scstep>
   <time name="dav">    0.18    0.18</time>
   <time name="total">    0.18    0.18</time>
   <energy>
    <i name="e_fr_energy">     -4.90605355 </i>
    <i name="e_wo_entrp">     -4.91032641 </i>
    <i name="e_0_energy">     -4.90747784 </i>
   </energy>
  </scstep>
  <scstep>
   <time name="dav">    0.19    0.19</time>
   <time name="total">    0.19    0.19</time>
   <energy>
    <i name="e_fr_energy">     -4.90743880 </i>
    <i name="e_wo_entrp">     -4.91171274 </i>
    <i name="e_0_energy">     -4.90886344 </i>
   </energy>
  </scstep>
  <scstep>
   <time name="dav">    0.18    0.18</time>
   <time name="total">    0.18    0.18</time>
   <energy>
    <i name="e_fr_energy">     -4.90744879 </i>
    <i name="e_wo_entrp">     -4.91172273 </i>
    <i name="e_0_energy">     -4.90887344 </i>
   </energy>
  </scstep>
  <scstep>
   <time name="dav">    0.20    0.20</time>
   <time name="total">    0.21    0.22</time>
   <energy>
    <i name="e_fr_energy">     -4.19130992 </i>
    <i name="e_wo_entrp">     -4.19532054 </i>
    <i name="e_0_energy">     -4.19264679 </i>
   </energy>
  </scstep>
  <scstep>
   <time name="dav">    0.19    0.19</time>
   <time name="total">    0.20    0.20</time>
   <energy>
    <i name="e_fr_energy">     -4.11777981 </i>
    <i name="e_wo_entrp">     -4.12003059 </i>
    <i name="e_0_energy">     -4.11853007 </i>
   </energy>
  </scstep>
  <scstep>
   <time name="dav">    0.21    0.21</time>
   <time name="total">    0.22    0.22</time>
   <energy>
    <i name="e_fr_energy">     -4.08824936 </i>
    <i name="e_wo_entrp">     -4.09187336 </i>
    <i name="e_0_energy">     -4.08945736 </i>
   </energy>
  </scstep>
  <scstep>
   <time name="dav">    0.20    0.20</time>
   <time name="total">    0.21    0.21</time>
   <energy>
    <i name="e_fr_energy">     -4.08861626 </i>
    <i name="e_wo_entrp">     -4.09146891 </i>
    <i name="e_0_energy">     -4.08956714 </i>
   </energy>
  </scstep>
  <scstep>
   <time name="dav">    0.14    0.14</time>
   <time name="total">    0.14    0.15</time>
   <energy>
    <i name="alphaZ">     68.47625256 </i>
    <i name="ewald">  -1064.85545237 </i>
    <i name="hartreedc">   -168.50738860 </i>
    <i name="XCdc">     31.99415397 </i>
    <i name="pawpsdc">   1484.88680881 </i>
    <i name="pawaedc">  -1557.48901947 </i>
    <i name="eentropy">      0.00277716 </i>
    <i name="bandstr">    123.76719713 </i>
    <i name="atom">   1077.63607467 </i>
    <i name="e_fr_energy">     -4.08859615 </i>
    <i name="e_wo_entrp">     -4.09137330 </i>
    <i name="e_0_energy">     -4.08952187 </i>
   </energy>
  </scstep>
  <structure>
   <crystal>
    <varray name="basis" >
     <v>       1.55000000       1.55000000       0.00000000 </v>
     <v>       0.00000000       1.55000000       1.55000000 </v>
     <v>       1.55000000       0.00000000       1.55000000 </v>
    </varray>
    <i name="volume">      7.44775000 </i>
    <varray name="rec_basis" >
     <v>       0.32258065       0.32258065      -0.32258065 </v>
     <v>      -0.32258065       0.32258065       0.32258065 </v>
     <v>       0.32258065      -0.32258065       0.32258065 </v>
    </varray>
   </crystal>
   <varray name="positions" >
    <v>       0.00000000       0.00000000       0.00000000 </v>
   </varray>
  </structure>
  <varray name="forces" >
   <v>      -0.00000000      -0.00000000      -0.00000000 </v>
  </varray>
  <varray name="stress" >
   <v>    1823.26782523       0.00000000      -0.00000000 </v>
   <v>      -0.00000000    1823.26782523      -0.00000000 </v>
   <v>      -0.00000000       0.00000000    1823.26782523 </v>
  </varray>
  <energy>
   <i name="e_fr_energy">     -4.08859615 </i>
   <i name="e_wo_entrp">     -4.09137330 </i>
   <i name="e_0_energy">     -4.08952187 </i>
  </energy>
  <time name="totalsc">    2.00    2.01</time>
  <eigenvalues>
   <array>
    <dimension dim="1">band</dimension>
    <dimension dim="2">kpoint</dimension>
    <dimension dim="3">spin</dimension>
    <field>eigene</field>
    <field>occ</field>
    <set>
     <set comment="spin 1">
      <set comment="kpoint 1">
       <r>    4.0306    1.0000 </r>
       <r>   12.2885    1.0000 </r>
       <r>   12.2885    1.0000 </r>
       <r>   12.2885    1.0000 </r>
       <r>   14.2730    1.0000 </r>
       <r>   14.2730    1.0000 </r>
       <r>   42.8054    0.0000 </r>
       <r>   49.8098    0.0000 </r>
       <r>   49.8100    0.0000 </r>
       <r>   49.8100    0.0000 </r>
       <r>   55.9517    0.0000 </r>
       <r>   55.9518    0.0000 </r>
      </set>
      <set comment="kpoint 2">
       <r>    4.4613    1.0000 </r>
       <r>   12.1374    1.0000 </r>
       <r>   12.4085    1.0000 </r>
       <r>   12.4085    1.0000 </r>
       <r>   14.2183    1.0000 </r>
       <r>   14.2183    1.0000 </r>
       <r>   42.3751    0.0000 </r>
       <r>   46.3613    0.0000 </r>
       <r>   49.6211    0.0000 </r>
       <r>   49.6213    0.0000 </r>
       <r>   55.4466    0.0000 </r>
       <r>   56.3403    0.0000 </r>
      </set>
      <set comment="kpoint 3">
       <r>    5.6627    1.0000 </r>
       <r>   11.8149    1.0000 </r>
       <r>   12.6278    1.0000 </r>
       <r>   12.6278    1.0000 </r>
       <r>   14.2003    1.0000 </r>
       <r>   14.2004    1.0000 </r>
       <r>   38.7768    0.0000 </r>
       <r>   44.2274    0.0000 </r>
       <r>   49.2665    0.0000 </r>
       <r>   49.2667    0.0000 </r>
       <r>   54.8873    0.0000 </r>
       <r>   56.2767    0.0000 </r>
      </set>
      <set comment="kpoint 4">
       <r>    7.2448    1.0000 </r>
       <r>   11.7812    1.0000 </r>
       <r>   12.6141    1.0000 </r>
       <r>   12.6142    1.0000 </r>
       <r>   14.5156    1.0000 </r>
       <r>   14.5157    1.0000 </r>
       <r>   33.6452    0.0000 </r>
       <r>   43.1120    0.0000 </r>
       <r>   48.8059    0.0000 </r>
       <r>   48.8061    0.0000 </r>
       <r>   54.2952    0.0000 </r>
       <r>   54.2952    0.0000 </r>
      </set>
      <set comment="kpoint 5">
       <r>    8.2843    1.0000 </r>
       <r>   12.4061    1.0000 </r>
       <r>   12.4061    1.0000 </r>
       <r>   12.8662    1.0000 </r>
       <r>   15.0654    1.0000 </r>
       <r>   15.0655    1.0000 </r>
       <r>   28.9369    0.0000 </r>
       <r>   41.9327    0.0000 </r>
       <r>   48.3693    0.0000 </r>
       <r>   48.3695    0.0000 </r>
       <r>   52.4156    0.0000 </r>
       <r>   52.4158    0.0000 </r>
      </set>
      <set comment="kpoint 6">
       <r>    8.5158    1.0000 </r>
       <r>   12.2463    1.0000 </r>
       <r>   12.2463    1.0000 </r>
       <r>   14.6528    1.0000 </r>
       <r>   15.4591    1.0005 </r>
       <r>   15.4592    1.0005 </r>
       <r>   25.6074    0.0000 </r>
       <r>   41.2002    0.0000 </r>
       <r>   48.0122    0.0000 </r>
       <r>   48.0124    0.0000 </r>
       <r>   51.4235    0.0000 </r>
       <r>   51.4238    0.0000 </r>
      </set>
      <set comment="kpoint 7">
       <r>    4.6030    1.0000 </r>
       <r>   12.0057    1.0000 </r>
       <r>   12.5000    1.0000 </r>
       <r>   12.5000    1.0000 </r>
       <r>   14.0139    1.0000 </r>
       <r>   14.3697    1.0000 </r>
       <r>   42.5908    0.0000 </r>
       <r>   47.1904    0.0000 </r>
       <r>   47.7859    0.0000 </r>
       <r>   47.7860    0.0000 </r>
       <r>   57.3129    0.0000 </r>
       <r>   57.3133    0.0000 </r>
      </set>
      <set comment="kpoint 8">
       <r>    5.5459    1.0000 </r>
       <r>   11.6764    1.0000 </r>
       <r>   12.7241    1.0000 </r>
       <r>   12.7493    1.0000 </r>
       <r>   13.8237    1.0000 </r>
       <r>   14.4621    1.0000 </r>
       <r>   40.6399    0.0000 </r>
       <r>   43.8703    0.0000 </r>
       <r>   46.2722    0.0000 </r>
       <r>   48.8520    0.0000 </r>
       <r>   55.4274    0.0000 </r>
       <r>   58.0489    0.0000 </r>
      </set>
      <set comment="kpoint 9">
       <r>    7.0390    1.0000 </r>
       <r>   11.4260    1.0000 </r>
       <r>   12.6369    1.0000 </r>
       <r>   12.8554    1.0000 </r>
       <r>   14.1853    1.0000 </r>
       <r>   14.7369    1.0000 </r>
       <r>   35.5983    0.0000 </r>
       <r>   42.7321    0.0000 </r>
       <r>   45.2332    0.0000 </r>
       <r>   49.7182    0.0000 </r>
       <r>   53.7856    0.0000 </r>
       <r>   57.6855    0.0000 </r>
      </set>
      <set comment="kpoint 10">
       <r>    8.3391    1.0000 </r>
       <r>   11.8250    1.0000 </r>
       <r>   12.3208    1.0000 </r>
       <r>   12.7081    1.0000 </r>
       <r>   15.1641    1.0000 </r>
       <r>   15.1902    1.0000 </r>
       <r>   30.6166    0.0000 </r>
       <r>   41.5714    0.0000 </r>
       <r>   44.7299    0.0000 </r>
       <r>   48.2397    0.0000 </r>
       <r>   53.7127    0.0000 </r>
       <r>   56.1383    0.0000 </r>
      </set>
      <set comment="kpoint 11">
       <r>    8.7543    1.0000 </r>
       <r>   11.9989    1.0000 </r>
       <r>   12.5115    1.0000 </r>
       <r>   13.0831    1.0000 </r>
       <r>   15.5086    1.0015 </r>
       <r>   16.5420   -0.0004 </r>
       <r>   26.5720    0.0000 </r>
       <r>   40.6191    0.0000 </r>
       <r>   44.9414    0.0000 </r>
       <r>   46.4301    0.0000 </r>
       <r>   53.7949    0.0000 </r>
       <r>   54.6612    0.0000 </r>
      </set>
      <set comment="kpoint 12">
       <r>    8.7979    1.0000 </r>
       <r>   11.9639    1.0000 </r>
       <r>   12.4278    1.0000 </r>
       <r>   13.5834    1.0000 </r>
       <r>   15.4350    1.0003 </r>
       <r>   17.3123   -0.0000 </r>
       <r>   25.1507    0.0000 </r>
       <r>   40.1449    0.0000 </r>
       <r>   45.3518    0.0000 </r>
       <r>   46.0692    0.0000 </r>
       <r>   53.5644    0.0000 </r>
       <r>   53.9868    0.0000 </r>
      </set>
      <set comment="kpoint 13">
       <r>    8.7097    1.0000 </r>
       <r>   12.1367    1.0000 </r>
       <r>   12.5163    1.0000 </r>
       <r>   12.7748    1.0000 </r>
       <r>   14.9586    1.0000 </r>
       <r>   16.3952   -0.0083 </r>
       <r>   27.7590    0.0000 </r>
       <r>   40.2010    0.0000 </r>
       <r>   45.4198    0.0000 </r>
       <r>   48.1957    0.0000 </r>
       <r>   52.9285    0.0000 </r>
       <r>   53.9295    0.0000 </r>
      </set>
      <set comment="kpoint 14">
       <r>    8.0198    1.0000 </r>
       <r>   11.6722    1.0000 </r>
       <r>   12.4342    1.0000 </r>
       <r>   12.7376    1.0000 </r>
       <r>   14.2844    1.0000 </r>
       <r>   15.4356    1.0003 </r>
       <r>   32.2334    0.0000 </r>
       <r>   40.6807    0.0000 </r>
       <r>   46.5896    0.0000 </r>
       <r>   50.9621    0.0000 </r>
       <r>   52.8571    0.0000 </r>
       <r>   52.9689    0.0000 </r>
      </set>
      <set comment="kpoint 15">
       <r>    6.5197    1.0000 </r>
       <r>   11.5490    1.0000 </r>
       <r>   12.6579    1.0000 </r>
       <r>   12.8500    1.0000 </r>
       <r>   13.8339    1.0000 </r>
       <r>   14.7306    1.0000 </r>
       <r>   37.3273    0.0000 </r>
       <r>   41.4923    0.0000 </r>
       <r>   48.1301    0.0000 </r>
       <r>   51.6852    0.0000 </r>
       <r>   51.9623    0.0000 </r>
       <r>   55.1463    0.0000 </r>
      </set>
      <set comment="kpoint 16">
       <r>    5.1516    1.0000 </r>
       <r>   11.8785    1.0000 </r>
       <r>   12.5889    1.0000 </r>
       <r>   12.6007    1.0000 </r>
       <r>   13.9625    1.0000 </r>
       <r>   14.3742    1.0000 </r>
       <r>   41.4612    0.0000 </r>
       <r>   43.4325    0.0000 </r>
       <r>   48.1796    0.0000 </r>
       <r>   51.3288    0.0000 </r>
       <r>   53.1064    0.0000 </r>
       <r>   56.2471    0.0000 </r>
      </set>
      <set comment="kpoint 17">
       <r>    6.1666    1.0000 </r>
       <r>   11.2800    1.0000 </r>
       <r>   13.1042    1.0000 </r>
       <r>   13.1043    1.0000 </r>
       <r>   13.4187    1.0000 </r>
       <r>   14.6303    1.0000 </r>
       <r>   42.1907    0.0000 </r>
       <r>   43.3861    0.0000 </r>
       <r>   43.8589    0.0000 </r>
       <r>   43.8591    0.0000 </r>
       <r>   55.2676    0.0000 </r>
       <r>   59.9996    0.0000 </r>
      </set>
      <set comment="kpoint 18">
       <r>    7.3531    1.0000 </r>
       <r>   10.8899    1.0000 </r>
       <r>   12.8038    1.0000 </r>
       <r>   13.3962    1.0000 </r>
       <r>   14.0329    1.0000 </r>
       <r>   14.8705    1.0000 </r>
       <r>   37.9707    0.0000 </r>
       <r>   41.6157    0.0000 </r>
       <r>   42.2105    0.0000 </r>
       <r>   45.0977    0.0000 </r>
       <r>   53.6359    0.0000 </r>
       <r>   59.6705    0.0000 </r>
      </set>
      <set comment="kpoint 19">
       <r>    8.6298    1.0000 </r>
       <r>   10.7827    1.0000 </r>
       <r>   12.3145    1.0000 </r>
       <r>   13.3691    1.0000 </r>
       <r>   15.2845    1.0000 </r>
       <r>   15.4658    1.0005 </r>
       <r>   32.8056    0.0000 </r>
       <r>   39.9932    0.0000 </r>
       <r>   41.3775    0.0000 </r>
       <r>   45.3199    0.0000 </r>
       <r>   55.4558    0.0000 </r>
       <r>   58.8222    0.0000 </r>
      </set>
      <set comment="kpoint 20">
       <r>    9.2650    1.0000 </r>
       <r>   11.0886    1.0000 </r>
       <r>   12.2041    1.0000 </r>
       <r>   13.1754    1.0000 </r>
       <r>   15.5682    1.0048 </r>
       <r>   17.5728   -0.0000 </r>
       <r>   28.1916    0.0000 </r>
       <r>   38.3254    0.0000 </r>
       <r>   41.4693    0.0000 </r>
       <r>   44.5991    0.0000 </r>
       <r>   57.7858    0.0000 </r>
       <r>   58.6406    0.0000 </r>
      </set>
      <set comment="kpoint 21">
       <r>    9.4457    1.0000 </r>
       <r>   11.2134    1.0000 </r>
       <r>   12.4916    1.0000 </r>
       <r>   13.0151    1.0000 </r>
       <r>   15.4517    1.0004 </r>
       <r>   19.5709   -0.0000 </r>
       <r>   25.2478    0.0000 </r>
       <r>   36.9712    0.0000 </r>
       <r>   42.5895    0.0000 </r>
       <r>   44.0829    0.0000 </r>
       <r>   57.1846    0.0000 </r>
       <r>   57.3509    0.0000 </r>
      </set>
      <set comment="kpoint 22">
       <r>    9.5179    1.0000 </r>
       <r>   11.4437    1.0000 </r>
       <r>   12.1851    1.0000 </r>
       <r>   12.9949    1.0000 </r>
       <r>   14.9196    1.0000 </r>
       <r>   18.7087   -0.0000 </r>
       <r>   26.9846    0.0000 </r>
       <r>   36.1544    0.0000 </r>
       <r>   44.4065    0.0000 </r>
       <r>   44.7085    0.0000 </r>
       <r>   55.9367    0.0000 </r>
       <r>   56.5933    0.0000 </r>
      </set>
      <set comment="kpoint 23">
       <r>    9.2008    1.0000 </r>
       <r>   11.3521    1.0000 </r>
       <r>   11.9035    1.0000 </r>
       <r>   13.1469    1.0000 </r>
       <r>   14.1551    1.0000 </r>
       <r>   16.9716   -0.0000 </r>
       <r>   31.2775    0.0000 </r>
       <r>   35.9797    0.0000 </r>
       <r>   45.7216    0.0000 </r>
       <r>   47.5276    0.0000 </r>
       <r>   53.5492    0.0000 </r>
       <r>   56.5326    0.0000 </r>
      </set>
      <set comment="kpoint 24">
       <r>    7.9238    1.0000 </r>
       <r>   11.2192    1.0000 </r>
       <r>   12.3887    1.0000 </r>
       <r>   13.3840    1.0000 </r>
       <r>   13.4688    1.0000 </r>
       <r>   15.6583    1.0187 </r>
       <r>   35.9913    0.0000 </r>
       <r>   36.7530    0.0000 </r>
       <r>   47.9186    0.0000 </r>
       <r>   50.5681    0.0000 </r>
       <r>   50.8813    0.0000 </r>
       <r>   57.1225    0.0000 </r>
      </set>
      <set comment="kpoint 25">
       <r>    7.9823    1.0000 </r>
       <r>   10.3975    1.0000 </r>
       <r>   13.3481    1.0000 </r>
       <r>   14.0137    1.0000 </r>
       <r>   14.0138    1.0000 </r>
       <r>   14.9816    1.0000 </r>
       <r>   39.1995    0.0000 </r>
       <r>   39.9852    0.0000 </r>
       <r>   39.9854    0.0000 </r>
       <r>   41.8776    0.0000 </r>
       <r>   50.6288    0.0000 </r>
       <r>   64.2193    0.0000 </r>
      </set>
      <set comment="kpoint 26">
       <r>    8.6669    1.0000 </r>
       <r>   10.0855    1.0000 </r>
       <r>   13.2051    1.0000 </r>
       <r>   14.2402    1.0000 </r>
       <r>   15.3080    1.0000 </r>
       <r>   15.4726    1.0006 </r>
       <r>   35.2162    0.0000 </r>
       <r>   37.4350    0.0000 </r>
       <r>   38.6644    0.0000 </r>
       <r>   43.2414    0.0000 </r>
       <r>   50.7038    0.0000 </r>
       <r>   63.7078    0.0000 </r>
      </set>
      <set comment="kpoint 27">
       <r>    9.2106    1.0000 </r>
       <r>   10.1030    1.0000 </r>
       <r>   12.8089    1.0000 </r>
       <r>   14.0982    1.0000 </r>
       <r>   15.6165    1.0107 </r>
       <r>   18.0444   -0.0000 </r>
       <r>   30.5045    0.0000 </r>
       <r>   35.1458    0.0000 </r>
       <r>   38.4402    0.0000 </r>
       <r>   43.7643    0.0000 </r>
       <r>   53.9640    0.0000 </r>
       <r>   62.9587    0.0000 </r>
      </set>
      <set comment="kpoint 28">
       <r>    9.6519    1.0000 </r>
       <r>   10.3571    1.0000 </r>
       <r>   12.4184    1.0000 </r>
       <r>   13.8829    1.0000 </r>
       <r>   15.5084    1.0015 </r>
       <r>   21.1684   -0.0000 </r>
       <r>   26.3817    0.0000 </r>
       <r>   33.3369    0.0000 </r>
       <r>   39.3975    0.0000 </r>
       <r>   43.7556    0.0000 </r>
       <r>   58.6978    0.0000 </r>
       <r>   61.2837    0.0000 </r>
      </set>
      <set comment="kpoint 29">
       <r>   10.1423    1.0000 </r>
       <r>   10.6488    1.0000 </r>
       <r>   11.8991    1.0000 </r>
       <r>   13.7039    1.0000 </r>
       <r>   14.9997    1.0000 </r>
       <r>   21.5638    0.0000 </r>
       <r>   26.2962    0.0000 </r>
       <r>   32.1837    0.0000 </r>
       <r>   41.4257    0.0000 </r>
       <r>   43.9233    0.0000 </r>
       <r>   59.4295    0.0000 </r>
       <r>   60.1012    0.0000 </r>
      </set>
      <set comment="kpoint 30">
       <r>   10.2154    1.0000 </r>
       <r>   11.1917    1.0000 </r>
       <r>   11.2835    1.0000 </r>
       <r>   13.5335    1.0000 </r>
       <r>   14.3900    1.0000 </r>
       <r>   19.0420   -0.0000 </r>
       <r>   29.9418    0.0000 </r>
       <r>   32.2517    0.0000 </r>
       <r>   44.2604    0.0000 </r>
       <r>   44.5998    0.0000 </r>
       <r>   56.3737    0.0000 </r>
       <r>   59.0590    0.0000 </r>
      </set>
      <set comment="kpoint 31">
       <r>    8.5708    1.0000 </r>
       <r>    9.6434    1.0000 </r>
       <r>   15.0111    1.0000 </r>
       <r>   15.0112    1.0000 </r>
       <r>   15.3145    1.0000 </r>
       <r>   15.3267    1.0000 </r>
       <r>   34.2368    0.0000 </r>
       <r>   36.8454    0.0000 </r>
       <r>   36.8455    0.0000 </r>
       <r>   41.7125    0.0000 </r>
       <r>   48.5394    0.0000 </r>
       <r>   65.1362    0.0000 </r>
      </set>
      <set comment="kpoint 32">
       <r>    8.6695    1.0000 </r>
       <r>    9.5041    1.0000 </r>
       <r>   14.4556    1.0000 </r>
       <r>   15.0260    1.0000 </r>
       <r>   15.6393    1.0147 </r>
       <r>   18.0091   -0.0000 </r>
       <r>   31.7801    0.0000 </r>
       <r>   33.7580    0.0000 </r>
       <r>   36.1801    0.0000 </r>
       <r>   42.7450    0.0000 </r>
       <r>   49.5703    0.0000 </r>
       <r>   65.0254    0.0000 </r>
      </set>
      <set comment="kpoint 33">
       <r>    9.0297    1.0000 </r>
       <r>    9.7166    1.0000 </r>
       <r>   13.5799    1.0000 </r>
       <r>   14.7866    1.0000 </r>
       <r>   15.6094    1.0096 </r>
       <r>   21.2615   -0.0000 </r>
       <r>   28.7134    0.0000 </r>
       <r>   30.9269    0.0000 </r>
       <r>   36.8337    0.0000 </r>
       <r>   43.4568    0.0000 </r>
       <r>   53.4975    0.0000 </r>
       <r>   65.0626    0.0000 </r>
      </set>
      <set comment="kpoint 34">
       <r>    9.6248    1.0000 </r>
       <r>   10.1721    1.0000 </r>
       <r>   12.5851    1.0000 </r>
       <r>   14.3752    1.0000 </r>
       <r>   15.2563    1.0000 </r>
       <r>   24.4471    0.0000 </r>
       <r>   24.9484    0.0000 </r>
       <r>   30.2483    0.0000 </r>
       <r>   38.6877    0.0000 </r>
       <r>   43.6717    0.0000 </r>
       <r>   58.7049    0.0000 </r>
       <r>   62.6772    0.0000 </r>
      </set>
      <set comment="kpoint 35">
       <r>    8.3819    1.0000 </r>
       <r>    9.2177    1.0000 </r>
       <r>   15.5094    1.0015 </r>
       <r>   15.7137    1.0310 </r>
       <r>   15.7137    1.0310 </r>
       <r>   18.2583   -0.0000 </r>
       <r>   30.0284    0.0000 </r>
       <r>   35.0298    0.0000 </r>
       <r>   35.0299    0.0000 </r>
       <r>   41.6725    0.0000 </r>
       <r>   48.0707    0.0000 </r>
       <r>   65.7332    0.0000 </r>
      </set>
      <set comment="kpoint 36">
       <r>    8.5137    1.0000 </r>
       <r>    9.2949    1.0000 </r>
       <r>   14.9923    1.0000 </r>
       <r>   15.3705    1.0000 </r>
       <r>   15.7467    1.0353 </r>
       <r>   19.9431   -0.0000 </r>
       <r>   29.2138    0.0000 </r>
       <r>   32.8148    0.0000 </r>
       <r>   35.2667    0.0000 </r>
       <r>   42.6375    0.0000 </r>
       <r>   49.4084    0.0000 </r>
       <r>   65.7676    0.0000 </r>
      </set>
      <set comment="kpoint 37">
       <r>    6.6474    1.0000 </r>
       <r>   11.3051    1.0000 </r>
       <r>   12.7188    1.0000 </r>
       <r>   13.1278    1.0000 </r>
       <r>   13.7053    1.0000 </r>
       <r>   14.7966    1.0000 </r>
       <r>   39.2420    0.0000 </r>
       <r>   39.9585    0.0000 </r>
       <r>   46.8884    0.0000 </r>
       <r>   47.2935    0.0000 </r>
       <r>   56.0300    0.0000 </r>
       <r>   56.5873    0.0000 </r>
      </set>
      <set comment="kpoint 38">
       <r>    8.1149    1.0000 </r>
       <r>   11.0978    1.0000 </r>
       <r>   12.3198    1.0000 </r>
       <r>   13.2455    1.0000 </r>
       <r>   14.1411    1.0000 </r>
       <r>   15.5764    1.0056 </r>
       <r>   34.3395    0.0000 </r>
       <r>   38.7521    0.0000 </r>
       <r>   44.7007    0.0000 </r>
       <r>   48.6272    0.0000 </r>
       <r>   54.1286    0.0000 </r>
       <r>   56.7201    0.0000 </r>
      </set>
      <set comment="kpoint 39">
       <r>    9.0828    1.0000 </r>
       <r>   11.4936    1.0000 </r>
       <r>   11.9849    1.0000 </r>
       <r>   13.0413    1.0000 </r>
       <r>   14.9120    1.0000 </r>
       <r>   16.8669   -0.0000 </r>
       <r>   29.5015    0.0000 </r>
       <r>   38.3333    0.0000 </r>
       <r>   42.7694    0.0000 </r>
       <r>   47.9812    0.0000 </r>
       <r>   53.6311    0.0000 </r>
       <r>   57.8798    0.0000 </r>
      </set>
      <set comment="kpoint 40">
       <r>    9.2734    1.0000 </r>
       <r>   11.4763    1.0000 </r>
       <r>   12.5614    1.0000 </r>
       <r>   12.8731    1.0000 </r>
       <r>   15.3624    1.0000 </r>
       <r>   18.6005   -0.0000 </r>
       <r>   25.8114    0.0000 </r>
       <r>   38.2752    0.0000 </r>
       <r>   41.6168    0.0000 </r>
       <r>   46.9279    0.0000 </r>
       <r>   53.5834    0.0000 </r>
       <r>   58.3269    0.0000 </r>
      </set>
      <set comment="kpoint 41">
       <r>    8.3992    1.0000 </r>
       <r>   10.5352    1.0000 </r>
       <r>   12.5061    1.0000 </r>
       <r>   14.0131    1.0000 </r>
       <r>   14.2935    1.0000 </r>
       <r>   15.5538    1.0037 </r>
       <r>   36.6935    0.0000 </r>
       <r>   36.9116    0.0000 </r>
       <r>   41.1933    0.0000 </r>
       <r>   45.6924    0.0000 </r>
       <r>   52.6828    0.0000 </r>
       <r>   59.5415    0.0000 </r>
      </set>
      <set comment="kpoint 42">
       <r>    9.3178    1.0000 </r>
       <r>   10.4869    1.0000 </r>
       <r>   12.0965    1.0000 </r>
       <r>   13.9456    1.0000 </r>
       <r>   15.0054    1.0000 </r>
       <r>   17.1771   -0.0000 </r>
       <r>   31.7997    0.0000 </r>
       <r>   36.1583    0.0000 </r>
       <r>   39.0080    0.0000 </r>
       <r>   46.8211    0.0000 </r>
       <r>   54.1305    0.0000 </r>
       <r>   58.6798    0.0000 </r>
      </set>
      <set comment="kpoint 43">
       <r>    9.7488    1.0000 </r>
       <r>   10.6712    1.0000 </r>
       <r>   11.9818    1.0000 </r>
       <r>   13.6709    1.0000 </r>
       <r>   15.4057    1.0001 </r>
       <r>   19.6828   -0.0000 </r>
       <r>   27.3737    0.0000 </r>
       <r>   35.5538    0.0000 </r>
       <r>   37.9220    0.0000 </r>
       <r>   46.9175    0.0000 </r>
       <r>   55.5137    0.0000 </r>
       <r>   60.3456    0.0000 </r>
      </set>
      <set comment="kpoint 44">
       <r>   10.0157    1.0000 </r>
       <r>   10.7115    1.0000 </r>
       <r>   11.9785    1.0000 </r>
       <r>   13.4953    1.0000 </r>
       <r>   15.2968    1.0000 </r>
       <r>   21.2535   -0.0000 </r>
       <r>   25.4452    0.0000 </r>
       <r>   34.5265    0.0000 </r>
       <r>   38.6137    0.0000 </r>
       <r>   47.2838    0.0000 </r>
       <r>   54.9415    0.0000 </r>
       <r>   62.5806    0.0000 </r>
      </set>
      <set comment="kpoint 45">
       <r>   10.0473    1.0000 </r>
       <r>   11.0262    1.0000 </r>
       <r>   11.4588    1.0000 </r>
       <r>   13.5875    1.0000 </r>
       <r>   14.7861    1.0000 </r>
       <r>   19.1377   -0.0000 </r>
       <r>   28.8100    0.0000 </r>
       <r>   33.8762    0.0000 </r>
       <r>   40.2887    0.0000 </r>
       <r>   48.6420    0.0000 </r>
       <r>   53.5632    0.0000 </r>
       <r>   61.5165    0.0000 </r>
      </set>
      <set comment="kpoint 46">
       <r>    9.4009    1.0000 </r>
       <r>   10.8932    1.0000 </r>
       <r>   11.7489    1.0000 </r>
       <r>   13.7636    1.0000 </r>
       <r>   14.0765    1.0000 </r>
       <r>   17.0702   -0.0000 </r>
       <r>   33.1063    0.0000 </r>
       <r>   34.2591    0.0000 </r>
       <r>   42.4739    0.0000 </r>
       <r>   51.0102    0.0000 </r>
       <r>   51.0279    0.0000 </r>
       <r>   59.4598    0.0000 </r>
      </set>
      <set comment="kpoint 47">
       <r>    8.9563    1.0000 </r>
       <r>    9.8637    1.0000 </r>
       <r>   13.2369    1.0000 </r>
       <r>   15.0066    1.0000 </r>
       <r>   15.0254    1.0000 </r>
       <r>   17.3110   -0.0000 </r>
       <r>   33.8476    0.0000 </r>
       <r>   34.3503    0.0000 </r>
       <r>   36.1437    0.0000 </r>
       <r>   44.6573    0.0000 </r>
       <r>   50.8826    0.0000 </r>
       <r>   62.6803    0.0000 </r>
      </set>
      <set comment="kpoint 48">
       <r>    9.3028    1.0000 </r>
       <r>    9.9824    1.0000 </r>
       <r>   12.7999    1.0000 </r>
       <r>   14.6019    1.0000 </r>
       <r>   15.5116    1.0016 </r>
       <r>   20.1332   -0.0000 </r>
       <r>   29.8315    0.0000 </r>
       <r>   32.6124    0.0000 </r>
       <r>   35.3296    0.0000 </r>
       <r>   45.9992    0.0000 </r>
       <r>   53.7956    0.0000 </r>
       <r>   60.9831    0.0000 </r>
      </set>
      <set comment="kpoint 49">
       <r>    9.7644    1.0000 </r>
       <r>   10.3139    1.0000 </r>
       <r>   12.2069    1.0000 </r>
       <r>   14.2033    1.0000 </r>
       <r>   15.4473    1.0003 </r>
       <r>   23.4387    0.0000 </r>
       <r>   25.9037    0.0000 </r>
       <r>   31.2137    0.0000 </r>
       <r>   36.2684    0.0000 </r>
       <r>   46.6499    0.0000 </r>
       <r>   57.8720    0.0000 </r>
       <r>   59.7694    0.0000 </r>
      </set>
      <set comment="kpoint 50">
       <r>   10.3817    1.0000 </r>
       <r>   10.5796    1.0000 </r>
       <r>   11.4999    1.0000 </r>
       <r>   13.9392    1.0000 </r>
       <r>   15.0480    1.0000 </r>
       <r>   21.9518    0.0000 </r>
       <r>   27.3666    0.0000 </r>
       <r>   30.9594    0.0000 </r>
       <r>   38.0482    0.0000 </r>
       <r>   47.5545    0.0000 </r>
       <r>   56.1380    0.0000 </r>
       <r>   63.3438    0.0000 </r>
      </set>
      <set comment="kpoint 51">
       <r>    8.7280    1.0000 </r>
       <r>    9.4807    1.0000 </r>
       <r>   14.1915    1.0000 </r>
       <r>   15.2066    1.0000 </r>
       <r>   15.7081    1.0299 </r>
       <r>   20.0761   -0.0000 </r>
       <r>   29.9832    0.0000 </r>
       <r>   32.8685    0.0000 </r>
       <r>   33.9864    0.0000 </r>
       <r>   44.1955    0.0000 </r>
       <r>   50.3805    0.0000 </r>
       <r>   64.5090    0.0000 </r>
      </set>
      <set comment="kpoint 52">
       <r>    9.1211    1.0000 </r>
       <r>    9.8129    1.0000 </r>
       <r>   13.2614    1.0000 </r>
       <r>   14.7734    1.0000 </r>
       <r>   15.7070    1.0297 </r>
       <r>   22.5074    0.0000 </r>
       <r>   28.4705    0.0000 </r>
       <r>   30.2714    0.0000 </r>
       <r>   34.4984    0.0000 </r>
       <r>   45.7742    0.0000 </r>
       <r>   53.8589    0.0000 </r>
       <r>   62.3588    0.0000 </r>
      </set>
      <set comment="kpoint 53">
       <r>    9.8777    1.0000 </r>
       <r>   10.5094    1.0000 </r>
       <r>   11.6632    1.0000 </r>
       <r>   14.3259    1.0000 </r>
       <r>   15.0048    1.0000 </r>
       <r>   19.5372   -0.0000 </r>
       <r>   30.7516    0.0000 </r>
       <r>   32.3235    0.0000 </r>
       <r>   36.4754    0.0000 </r>
       <r>   49.9242    0.0000 </r>
       <r>   52.9772    0.0000 </r>
       <r>   58.9760    0.0000 </r>
      </set>
      <set comment="kpoint 54">
       <r>   10.0830    1.0000 </r>
       <r>   10.6981    1.0000 </r>
       <r>   11.4656    1.0000 </r>
       <r>   14.0382    1.0000 </r>
       <r>   15.4156    1.0002 </r>
       <r>   22.5082    0.0000 </r>
       <r>   26.9639    0.0000 </r>
       <r>   32.2062    0.0000 </r>
       <r>   34.7416    0.0000 </r>
       <r>   50.7766    0.0000 </r>
       <r>   53.6217    0.0000 </r>
       <r>   60.9336    0.0000 </r>
      </set>
      <set comment="kpoint 55">
       <r>    9.5091    1.0000 </r>
       <r>   10.2675    1.0000 </r>
       <r>   12.2851    1.0000 </r>
       <r>   14.4375    1.0000 </r>
       <r>   15.7085    1.0300 </r>
       <r>   22.9321    0.0000 </r>
       <r>   29.3203    0.0000 </r>
       <r>   29.9765    0.0000 </r>
       <r>   32.7043    0.0000 </r>
       <r>   49.3009    0.0000 </r>
       <r>   55.0284    0.0000 </r>
       <r>   58.8002    0.0000 </r>
      </set>
      <set comment="kpoint 56">
       <r>    9.7951    1.0000 </r>
       <r>   10.7989    1.0000 </r>
       <r>   11.5545    1.0000 </r>
       <r>   14.1320    1.0000 </r>
       <r>   15.7050    1.0292 </r>
       <r>   25.7667    0.0000 </r>
       <r>   25.8679    0.0000 </r>
       <r>   29.8847    0.0000 </r>
       <r>   32.9161    0.0000 </r>
       <r>   51.1850    0.0000 </r>
       <r>   55.3284    0.0000 </r>
       <r>   58.9758    0.0000 </r>
      </set>
     </set>
     <set comment="spin 2">
      <set comment="kpoint 1">
       <r>    4.0376    1.0000 </r>
       <r>   12.9495    1.0000 </r>
       <r>   12.9496    1.0000 </r>
       <r>   12.9496    1.0000 </r>
       <r>   14.8648    1.0000 </r>
       <r>   14.8648    1.0000 </r>
       <r>   42.7257    0.0000 </r>
       <r>   49.7923    0.0000 </r>
       <r>   49.7923    0.0000 </r>
       <r>   49.7924    0.0000 </r>
       <r>   56.0506    0.0000 </r>
       <r>   56.0506    0.0000 </r>
      </set>
      <set comment="kpoint 2">
       <r>    4.4693    1.0000 </r>
       <r>   12.7853    1.0000 </r>
       <r>   13.0720    1.0000 </r>
       <r>   13.0721    1.0000 </r>
       <r>   14.8076    1.0000 </r>
       <r>   14.8076    1.0000 </r>
       <r>   42.3482    0.0000 </r>
       <r>   46.3462    0.0000 </r>
       <r>   49.6317    0.0000 </r>
       <r>   49.6318    0.0000 </r>
       <r>   55.4690    0.0000 </r>
       <r>   56.4119    0.0000 </r>
      </set>
      <set comment="kpoint 3">
       <r>    5.6799    1.0000 </r>
       <r>   12.4215    1.0000 </r>
       <r>   13.2835    1.0000 </r>
       <r>   13.2835    1.0000 </r>
       <r>   14.7987    1.0000 </r>
       <r>   14.7987    1.0000 </r>
       <r>   38.8898    0.0000 </r>
       <r>   44.1614    0.0000 </r>
       <r>   49.3283    0.0000 </r>
       <r>   49.3284    0.0000 </r>
       <r>   54.9040    0.0000 </r>
       <r>   56.3204    0.0000 </r>
      </set>
      <set comment="kpoint 4">
       <r>    7.3212    1.0000 </r>
       <r>   12.2798    1.0000 </r>
       <r>   13.2318    1.0000 </r>
       <r>   13.2319    1.0000 </r>
       <r>   15.1599    1.0000 </r>
       <r>   15.1599    1.0000 </r>
       <r>   33.8405    0.0000 </r>
       <r>   43.0490    0.0000 </r>
       <r>   48.9113    0.0000 </r>
       <r>   48.9113    0.0000 </r>
       <r>   54.3520    0.0000 </r>
       <r>   54.3521    0.0000 </r>
      </set>
      <set comment="kpoint 5">
       <r>    8.5404    1.0000 </r>
       <r>   12.9929    1.0000 </r>
       <r>   12.9930    1.0000 </r>
       <r>   13.1141    1.0000 </r>
       <r>   15.7517    1.0355 </r>
       <r>   15.7517    1.0355 </r>
       <r>   29.2218    0.0000 </r>
       <r>   41.8610    0.0000 </r>
       <r>   48.4886    0.0000 </r>
       <r>   48.4886    0.0000 </r>
       <r>   52.4791    0.0000 </r>
       <r>   52.4792    0.0000 </r>
      </set>
      <set comment="kpoint 6">
       <r>    8.8890    1.0000 </r>
       <r>   12.8193    1.0000 </r>
       <r>   12.8193    1.0000 </r>
       <r>   14.6859    1.0000 </r>
       <r>   16.1682   -0.0022 </r>
       <r>   16.1683   -0.0023 </r>
       <r>   25.9986    0.0000 </r>
       <r>   41.1204    0.0000 </r>
       <r>   48.1231    0.0000 </r>
       <r>   48.1232    0.0000 </r>
       <r>   51.4986    0.0000 </r>
       <r>   51.4987    0.0000 </r>
      </set>
      <set comment="kpoint 7">
       <r>    4.6112    1.0000 </r>
       <r>   12.6513    1.0000 </r>
       <r>   13.1651    1.0000 </r>
       <r>   13.1651    1.0000 </r>
       <r>   14.5931    1.0000 </r>
       <r>   14.9638    1.0000 </r>
       <r>   42.5560    0.0000 </r>
       <r>   47.1513    0.0000 </r>
       <r>   47.8363    0.0000 </r>
       <r>   47.8363    0.0000 </r>
       <r>   57.3461    0.0000 </r>
       <r>   57.3489    0.0000 </r>
      </set>
      <set comment="kpoint 8">
       <r>    5.5594    1.0000 </r>
       <r>   12.2974    1.0000 </r>
       <r>   13.3828    1.0000 </r>
       <r>   13.4141    1.0000 </r>
       <r>   14.3998    1.0000 </r>
       <r>   15.0636    1.0000 </r>
       <r>   40.7193    0.0000 </r>
       <r>   43.8443    0.0000 </r>
       <r>   46.3590    0.0000 </r>
       <r>   48.8609    0.0000 </r>
       <r>   55.4955    0.0000 </r>
       <r>   58.0630    0.0000 </r>
      </set>
      <set comment="kpoint 9">
       <r>    7.0855    1.0000 </r>
       <r>   11.9890    1.0000 </r>
       <r>   13.2397    1.0000 </r>
       <r>   13.4933    1.0000 </r>
       <r>   14.8036    1.0000 </r>
       <r>   15.3731    1.0000 </r>
       <r>   35.7624    0.0000 </r>
       <r>   42.7122    0.0000 </r>
       <r>   45.3434    0.0000 </r>
       <r>   49.7666    0.0000 </r>
       <r>   53.8540    0.0000 </r>
       <r>   57.7056    0.0000 </r>
      </set>
      <set comment="kpoint 10">
       <r>    8.5317    1.0000 </r>
       <r>   12.2262    1.0000 </r>
       <r>   12.8998    1.0000 </r>
       <r>   13.3115    1.0000 </r>
       <r>   15.7741    1.0334 </r>
       <r>   15.8715    0.9337 </r>
       <r>   30.8607    0.0000 </r>
       <r>   41.5485    0.0000 </r>
       <r>   44.8466    0.0000 </r>
       <r>   48.3562    0.0000 </r>
       <r>   53.7537    0.0000 </r>
       <r>   56.1810    0.0000 </r>
      </set>
      <set comment="kpoint 11">
       <r>    9.1129    1.0000 </r>
       <r>   12.5006    1.0000 </r>
       <r>   13.0935    1.0000 </r>
       <r>   13.4417    1.0000 </r>
       <r>   16.2170   -0.0324 </r>
       <r>   17.0321   -0.0000 </r>
       <r>   26.9152    0.0000 </r>
       <r>   40.5942    0.0000 </r>
       <r>   45.0539    0.0000 </r>
       <r>   46.5400    0.0000 </r>
       <r>   53.8452    0.0000 </r>
       <r>   54.7205    0.0000 </r>
      </set>
      <set comment="kpoint 12">
       <r>    9.1913    1.0000 </r>
       <r>   12.4828    1.0000 </r>
       <r>   13.0015    1.0000 </r>
       <r>   13.9233    1.0000 </r>
       <r>   16.1472    0.0248 </r>
       <r>   17.7241   -0.0000 </r>
       <r>   25.5537    0.0000 </r>
       <r>   40.1332    0.0000 </r>
       <r>   45.4397    0.0000 </r>
       <r>   46.1792    0.0000 </r>
       <r>   53.6370    0.0000 </r>
       <r>   54.0382    0.0000 </r>
      </set>
      <set comment="kpoint 13">
       <r>    9.0278    1.0000 </r>
       <r>   12.6577    1.0000 </r>
       <r>   13.0949    1.0000 </r>
       <r>   13.1113    1.0000 </r>
       <r>   15.6521    1.0173 </r>
       <r>   16.9730   -0.0000 </r>
       <r>   28.0683    0.0000 </r>
       <r>   40.2165    0.0000 </r>
       <r>   45.4845    0.0000 </r>
       <r>   48.3069    0.0000 </r>
       <r>   53.0080    0.0000 </r>
       <r>   53.9729    0.0000 </r>
      </set>
      <set comment="kpoint 14">
       <r>    8.1451    1.0000 </r>
       <r>   12.1428    1.0000 </r>
       <r>   13.0162    1.0000 </r>
       <r>   13.3393    1.0000 </r>
       <r>   14.9399    1.0000 </r>
       <r>   16.0811    0.1791 </r>
       <r>   32.4508    0.0000 </r>
       <r>   40.7221    0.0000 </r>
       <r>   46.6355    0.0000 </r>
       <r>   51.0449    0.0000 </r>
       <r>   52.9580    0.0000 </r>
       <r>   52.9849    0.0000 </r>
      </set>
      <set comment="kpoint 15">
       <r>    6.5480    1.0000 </r>
       <r>   12.1390    1.0000 </r>
       <r>   13.2784    1.0000 </r>
       <r>   13.5077    1.0000 </r>
       <r>   14.4242    1.0000 </r>
       <r>   15.3591    1.0000 </r>
       <r>   37.4674    0.0000 </r>
       <r>   41.5349    0.0000 </r>
       <r>   48.1455    0.0000 </r>
       <r>   51.7060    0.0000 </r>
       <r>   51.9724    0.0000 </r>
       <r>   55.2670    0.0000 </r>
      </set>
      <set comment="kpoint 16">
       <r>    5.1625    1.0000 </r>
       <r>   12.5092    1.0000 </r>
       <r>   13.2561    1.0000 </r>
       <r>   13.2595    1.0000 </r>
       <r>   14.5393    1.0000 </r>
       <r>   14.9736    1.0000 </r>
       <r>   41.5050    0.0000 </r>
       <r>   43.4565    0.0000 </r>
       <r>   48.1798    0.0000 </r>
       <r>   51.3144    0.0000 </r>
       <r>   53.1563    0.0000 </r>
       <r>   56.3338    0.0000 </r>
      </set>
      <set comment="kpoint 17">
       <r>    6.1851    1.0000 </r>
       <r>   11.8889    1.0000 </r>
       <r>   13.7837    1.0000 </r>
       <r>   13.7837    1.0000 </r>
       <r>   13.9563    1.0000 </r>
       <r>   15.2310    1.0000 </r>
       <r>   42.2431    0.0000 </r>
       <r>   43.3736    0.0000 </r>
       <r>   43.9633    0.0000 </r>
       <r>   43.9634    0.0000 </r>
       <r>   55.5586    0.0000 </r>
       <r>   59.9958    0.0000 </r>
      </set>
      <set comment="kpoint 18">
       <r>    7.3990    1.0000 </r>
       <r>   11.4725    1.0000 </r>
       <r>   13.3610    1.0000 </r>
       <r>   14.0659    1.0000 </r>
       <r>   14.6580    1.0000 </r>
       <r>   15.4946    1.0011 </r>
       <r>   38.1004    0.0000 </r>
       <r>   41.6578    0.0000 </r>
       <r>   42.3226    0.0000 </r>
       <r>   45.1680    0.0000 </r>
       <r>   53.8903    0.0000 </r>
       <r>   59.6749    0.0000 </r>
      </set>
      <set comment="kpoint 19">
       <r>    8.7766    1.0000 </r>
       <r>   11.2988    1.0000 </r>
       <r>   12.8510    1.0000 </r>
       <r>   14.0006    1.0000 </r>
       <r>   15.9586    0.6621 </r>
       <r>   16.0396    0.3271 </r>
       <r>   33.0007    0.0000 </r>
       <r>   40.0550    0.0000 </r>
       <r>   41.4893    0.0000 </r>
       <r>   45.4242    0.0000 </r>
       <r>   55.6375    0.0000 </r>
       <r>   58.8482    0.0000 </r>
      </set>
      <set comment="kpoint 20">
       <r>    9.6057    1.0000 </r>
       <r>   11.4883    1.0000 </r>
       <r>   12.7291    1.0000 </r>
       <r>   13.7769    1.0000 </r>
       <r>   16.2769   -0.0319 </r>
       <r>   18.0305   -0.0000 </r>
       <r>   28.4626    0.0000 </r>
       <r>   38.4094    0.0000 </r>
       <r>   41.5785    0.0000 </r>
       <r>   44.6938    0.0000 </r>
       <r>   57.8074    0.0000 </r>
       <r>   58.6857    0.0000 </r>
      </set>
      <set comment="kpoint 21">
       <r>    9.8688    1.0000 </r>
       <r>   11.6114    1.0000 </r>
       <r>   12.9837    1.0000 </r>
       <r>   13.5987    1.0000 </r>
       <r>   16.1702   -0.0042 </r>
       <r>   19.9086   -0.0000 </r>
       <r>   25.6153    0.0000 </r>
       <r>   37.0778    0.0000 </r>
       <r>   42.7012    0.0000 </r>
       <r>   44.1487    0.0000 </r>
       <r>   57.2127    0.0000 </r>
       <r>   57.4095    0.0000 </r>
      </set>
      <set comment="kpoint 22">
       <r>    9.8997    1.0000 </r>
       <r>   11.8665    1.0000 </r>
       <r>   12.6522    1.0000 </r>
       <r>   13.5703    1.0000 </r>
       <r>   15.6276    1.0125 </r>
       <r>   19.1531   -0.0000 </r>
       <r>   27.2989    0.0000 </r>
       <r>   36.2793    0.0000 </r>
       <r>   44.4450    0.0000 </r>
       <r>   44.8257    0.0000 </r>
       <r>   55.9436    0.0000 </r>
       <r>   56.6632    0.0000 </r>
      </set>
      <set comment="kpoint 23">
       <r>    9.3933    1.0000 </r>
       <r>   11.8395    1.0000 </r>
       <r>   12.4289    1.0000 </r>
       <r>   13.7226    1.0000 </r>
       <r>   14.8429    1.0000 </r>
       <r>   17.5599   -0.0000 </r>
       <r>   31.5105    0.0000 </r>
       <r>   36.1150    0.0000 </r>
       <r>   45.7494    0.0000 </r>
       <r>   47.6412    0.0000 </r>
       <r>   53.5286    0.0000 </r>
       <r>   56.6093    0.0000 </r>
      </set>
      <set comment="kpoint 24">
       <r>    7.9837    1.0000 </r>
       <r>   11.7931    1.0000 </r>
       <r>   12.9550    1.0000 </r>
       <r>   14.0224    1.0000 </r>
       <r>   14.0806    1.0000 </r>
       <r>   16.2976   -0.0277 </r>
       <r>   36.1857    0.0000 </r>
       <r>   36.8518    0.0000 </r>
       <r>   47.9505    0.0000 </r>
       <r>   50.6436    0.0000 </r>
       <r>   50.8453    0.0000 </r>
       <r>   57.1857    0.0000 </r>
      </set>
      <set comment="kpoint 25">
       <r>    8.0756    1.0000 </r>
       <r>   10.9661    1.0000 </r>
       <r>   13.7632    1.0000 </r>
       <r>   14.7192    1.0000 </r>
       <r>   14.7192    1.0000 </r>
       <r>   15.5911    1.0072 </r>
       <r>   39.2694    0.0000 </r>
       <r>   40.0921    0.0000 </r>
       <r>   40.0921    0.0000 </r>
       <r>   42.0057    0.0000 </r>
       <r>   50.8750    0.0000 </r>
       <r>   64.2073    0.0000 </r>
      </set>
      <set comment="kpoint 26">
       <r>    8.8523    1.0000 </r>
       <r>   10.6329    1.0000 </r>
       <r>   13.6639    1.0000 </r>
       <r>   14.9139    1.0000 </r>
       <r>   15.9680    0.6245 </r>
       <r>   16.0343    0.3483 </r>
       <r>   35.3545    0.0000 </r>
       <r>   37.5663    0.0000 </r>
       <r>   38.7634    0.0000 </r>
       <r>   43.3642    0.0000 </r>
       <r>   50.9152    0.0000 </r>
       <r>   64.2425    0.0000 </r>
      </set>
      <set comment="kpoint 27">
       <r>    9.5109    1.0000 </r>
       <r>   10.6021    1.0000 </r>
       <r>   13.3006    1.0000 </r>
       <r>   14.7283    1.0000 </r>
       <r>   16.3269   -0.0210 </r>
       <r>   18.4758   -0.0000 </r>
       <r>   30.6992    0.0000 </r>
       <r>   35.3034    0.0000 </r>
       <r>   38.5348    0.0000 </r>
       <r>   43.8849    0.0000 </r>
       <r>   54.1396    0.0000 </r>
       <r>   62.9978    0.0000 </r>
      </set>
      <set comment="kpoint 28">
       <r>   10.0613    1.0000 </r>
       <r>   10.7734    1.0000 </r>
       <r>   12.9354    1.0000 </r>
       <r>   14.4818    1.0000 </r>
       <r>   16.2392   -0.0354 </r>
       <r>   21.4983    0.0000 </r>
       <r>   26.6507    0.0000 </r>
       <r>   33.5139    0.0000 </r>
       <r>   39.4980    0.0000 </r>
       <r>   43.8533    0.0000 </r>
       <r>   58.8561    0.0000 </r>
       <r>   61.3259    0.0000 </r>
      </set>
      <set comment="kpoint 29">
       <r>   10.6133    1.0000 </r>
       <r>   10.9903    1.0000 </r>
       <r>   12.4195    1.0000 </r>
       <r>   14.2753    1.0000 </r>
       <r>   15.7342    1.0343 </r>
       <r>   21.9007    0.0000 </r>
       <r>   26.5938    0.0000 </r>
       <r>   32.3699    0.0000 </r>
       <r>   41.5389    0.0000 </r>
       <r>   43.9935    0.0000 </r>
       <r>   59.4078    0.0000 </r>
       <r>   60.1423    0.0000 </r>
      </set>
      <set comment="kpoint 30">
       <r>   10.5114    1.0000 </r>
       <r>   11.6329    1.0000 </r>
       <r>   11.8156    1.0000 </r>
       <r>   14.0830    1.0000 </r>
       <r>   15.1208    1.0000 </r>
       <r>   19.5180   -0.0000 </r>
       <r>   30.1981    0.0000 </r>
       <r>   32.4233    0.0000 </r>
       <r>   44.3809    0.0000 </r>
       <r>   44.6461    0.0000 </r>
       <r>   56.3347    0.0000 </r>
       <r>   59.1013    0.0000 </r>
      </set>
      <set comment="kpoint 31">
       <r>    8.8241    1.0000 </r>
       <r>   10.1810    1.0000 </r>
       <r>   15.5196    1.0019 </r>
       <r>   15.7537    1.0355 </r>
       <r>   15.7537    1.0355 </r>
       <r>   15.9325    0.7605 </r>
       <r>   34.4105    0.0000 </r>
       <r>   36.9268    0.0000 </r>
       <r>   36.9269    0.0000 </r>
       <r>   41.8898    0.0000 </r>
       <r>   48.7523    0.0000 </r>
       <r>   66.4276    0.0000 </r>
      </set>
      <set comment="kpoint 32">
       <r>    8.9693    1.0000 </r>
       <r>   10.0296    1.0000 </r>
       <r>   15.0061    1.0000 </r>
       <r>   15.6801    1.0236 </r>
       <r>   16.3599   -0.0140 </r>
       <r>   18.3310   -0.0000 </r>
       <r>   31.9903    0.0000 </r>
       <r>   33.8830    0.0000 </r>
       <r>   36.2513    0.0000 </r>
       <r>   42.9020    0.0000 </r>
       <r>   49.7671    0.0000 </r>
       <r>   66.2579    0.0000 </r>
      </set>
      <set comment="kpoint 33">
       <r>    9.3693    1.0000 </r>
       <r>   10.2205    1.0000 </r>
       <r>   14.1185    1.0000 </r>
       <r>   15.3969    1.0001 </r>
       <r>   16.3638   -0.0133 </r>
       <r>   21.5467    0.0000 </r>
       <r>   28.9120    0.0000 </r>
       <r>   31.1429    0.0000 </r>
       <r>   36.9119    0.0000 </r>
       <r>   43.5917    0.0000 </r>
       <r>   53.6711    0.0000 </r>
       <r>   65.0951    0.0000 </r>
      </set>
      <set comment="kpoint 34">
       <r>   10.0158    1.0000 </r>
       <r>   10.6251    1.0000 </r>
       <r>   13.1111    1.0000 </r>
       <r>   14.9499    1.0000 </r>
       <r>   16.0184    0.4133 </r>
       <r>   24.7191    0.0000 </r>
       <r>   25.1981    0.0000 </r>
       <r>   30.4809    0.0000 </r>
       <r>   38.7849    0.0000 </r>
       <r>   43.7779    0.0000 </r>
       <r>   58.9382    0.0000 </r>
       <r>   62.7114    0.0000 </r>
      </set>
      <set comment="kpoint 35">
       <r>    8.6932    1.0000 </r>
       <r>    9.7390    1.0000 </r>
       <r>   16.1335    0.0478 </r>
       <r>   16.4890   -0.0014 </r>
       <r>   16.4891   -0.0014 </r>
       <r>   18.3105   -0.0000 </r>
       <r>   30.2981    0.0000 </r>
       <r>   35.0826    0.0000 </r>
       <r>   35.0826    0.0000 </r>
       <r>   41.8721    0.0000 </r>
       <r>   48.2665    0.0000 </r>
       <r>   67.0544    0.0000 </r>
      </set>
      <set comment="kpoint 36">
       <r>    8.8347    1.0000 </r>
       <r>    9.8131    1.0000 </r>
       <r>   15.6180    1.0109 </r>
       <r>   15.9862    0.5490 </r>
       <r>   16.5256   -0.0006 </r>
       <r>   20.1208   -0.0000 </r>
       <r>   29.5003    0.0000 </r>
       <r>   32.9161    0.0000 </r>
       <r>   35.3229    0.0000 </r>
       <r>   42.8051    0.0000 </r>
       <r>   49.5988    0.0000 </r>
       <r>   67.0752    0.0000 </r>
      </set>
      <set comment="kpoint 37">
       <r>    6.6735    1.0000 </r>
       <r>   11.9037    1.0000 </r>
       <r>   13.3269    1.0000 </r>
       <r>   13.8111    1.0000 </r>
       <r>   14.2777    1.0000 </r>
       <r>   15.4214    1.0002 </r>
       <r>   39.3783    0.0000 </r>
       <r>   40.0191    0.0000 </r>
       <r>   46.9352    0.0000 </r>
       <r>   47.3090    0.0000 </r>
       <r>   56.0325    0.0000 </r>
       <r>   56.8481    0.0000 </r>
      </set>
      <set comment="kpoint 38">
       <r>    8.1974    1.0000 </r>
       <r>   11.6472    1.0000 </r>
       <r>   12.8840    1.0000 </r>
       <r>   13.8712    1.0000 </r>
       <r>   14.7676    1.0000 </r>
       <r>   16.2150   -0.0319 </r>
       <r>   34.5222    0.0000 </r>
       <r>   38.8521    0.0000 </r>
       <r>   44.7651    0.0000 </r>
       <r>   48.6704    0.0000 </r>
       <r>   54.1809    0.0000 </r>
       <r>   56.8426    0.0000 </r>
      </set>
      <set comment="kpoint 39">
       <r>    9.3522    1.0000 </r>
       <r>   11.8923    1.0000 </r>
       <r>   12.5423    1.0000 </r>
       <r>   13.6299    1.0000 </r>
       <r>   15.5863    1.0066 </r>
       <r>   17.4258   -0.0000 </r>
       <r>   29.7592    0.0000 </r>
       <r>   38.4235    0.0000 </r>
       <r>   42.8595    0.0000 </r>
       <r>   48.0493    0.0000 </r>
       <r>   53.6856    0.0000 </r>
       <r>   57.9135    0.0000 </r>
      </set>
      <set comment="kpoint 40">
       <r>    9.6737    1.0000 </r>
       <r>   11.9069    1.0000 </r>
       <r>   13.0267    1.0000 </r>
       <r>   13.4460    1.0000 </r>
       <r>   16.0739    0.2024 </r>
       <r>   18.9932   -0.0000 </r>
       <r>   26.1659    0.0000 </r>
       <r>   38.3458    0.0000 </r>
       <r>   41.7376    0.0000 </r>
       <r>   46.9809    0.0000 </r>
       <r>   53.6602    0.0000 </r>
       <r>   58.3507    0.0000 </r>
      </set>
      <set comment="kpoint 41">
       <r>    8.5019    1.0000 </r>
       <r>   11.0987    1.0000 </r>
       <r>   13.0301    1.0000 </r>
       <r>   14.7210    1.0000 </r>
       <r>   14.8505    1.0000 </r>
       <r>   16.1878   -0.0191 </r>
       <r>   36.8669    0.0000 </r>
       <r>   37.0105    0.0000 </r>
       <r>   41.2940    0.0000 </r>
       <r>   45.7566    0.0000 </r>
       <r>   52.9023    0.0000 </r>
       <r>   59.6143    0.0000 </r>
      </set>
      <set comment="kpoint 42">
       <r>    9.5445    1.0000 </r>
       <r>   11.0010    1.0000 </r>
       <r>   12.6067    1.0000 </r>
       <r>   14.5574    1.0000 </r>
       <r>   15.6756    1.0226 </r>
       <r>   17.7102   -0.0000 </r>
       <r>   32.0000    0.0000 </r>
       <r>   36.2881    0.0000 </r>
       <r>   39.1325    0.0000 </r>
       <r>   46.8918    0.0000 </r>
       <r>   54.2592    0.0000 </r>
       <r>   58.8640    0.0000 </r>
      </set>
      <set comment="kpoint 43">
       <r>   10.1360    1.0000 </r>
       <r>   11.0839    1.0000 </r>
       <r>   12.4997    1.0000 </r>
       <r>   14.2601    1.0000 </r>
       <r>   16.1255    0.0634 </r>
       <r>   20.0732   -0.0000 </r>
       <r>   27.6441    0.0000 </r>
       <r>   35.6903    0.0000 </r>
       <r>   38.0564    0.0000 </r>
       <r>   46.9808    0.0000 </r>
       <r>   55.5571    0.0000 </r>
       <r>   60.7039    0.0000 </r>
      </set>
      <set comment="kpoint 44">
       <r>   10.4672    1.0000 </r>
       <r>   11.0800    1.0000 </r>
       <r>   12.4934    1.0000 </r>
       <r>   14.0725    1.0000 </r>
       <r>   16.0261    0.3815 </r>
       <r>   21.5693    0.0000 </r>
       <r>   25.7817    0.0000 </r>
       <r>   34.6779    0.0000 </r>
       <r>   38.7420    0.0000 </r>
       <r>   47.3359    0.0000 </r>
       <r>   54.9861    0.0000 </r>
       <r>   62.6099    0.0000 </r>
      </set>
      <set comment="kpoint 45">
       <r>   10.3798    1.0000 </r>
       <r>   11.4532    1.0000 </r>
       <r>   11.9870    1.0000 </r>
       <r>   14.1539    1.0000 </r>
       <r>   15.5016    1.0013 </r>
       <r>   19.5911   -0.0000 </r>
       <r>   29.0697    0.0000 </r>
       <r>   34.0335    0.0000 </r>
       <r>   40.4012    0.0000 </r>
       <r>   48.6940    0.0000 </r>
       <r>   53.5852    0.0000 </r>
       <r>   61.5604    0.0000 </r>
      </set>
      <set comment="kpoint 46">
       <r>    9.5518    1.0000 </r>
       <r>   11.4422    1.0000 </r>
       <r>   12.2733    1.0000 </r>
       <r>   14.3046    1.0000 </r>
       <r>   14.7928    1.0000 </r>
       <r>   17.6514   -0.0000 </r>
       <r>   33.3308    0.0000 </r>
       <r>   34.3928    0.0000 </r>
       <r>   42.5649    0.0000 </r>
       <r>   51.0369    0.0000 </r>
       <r>   51.0769    0.0000 </r>
       <r>   59.7574    0.0000 </r>
      </set>
      <set comment="kpoint 47">
       <r>    9.2196    1.0000 </r>
       <r>   10.3993    1.0000 </r>
       <r>   13.7305    1.0000 </r>
       <r>   15.5980    1.0080 </r>
       <r>   15.7499    1.0354 </r>
       <r>   17.7790   -0.0000 </r>
       <r>   33.9973    0.0000 </r>
       <r>   34.5089    0.0000 </r>
       <r>   36.2693    0.0000 </r>
       <r>   44.7613    0.0000 </r>
       <r>   51.0800    0.0000 </r>
       <r>   62.8998    0.0000 </r>
      </set>
      <set comment="kpoint 48">
       <r>    9.6286    1.0000 </r>
       <r>   10.4944    1.0000 </r>
       <r>   13.3125    1.0000 </r>
       <r>   15.2000    1.0000 </r>
       <r>   16.2559   -0.0348 </r>
       <r>   20.4867   -0.0000 </r>
       <r>   30.0244    0.0000 </r>
       <r>   32.8058    0.0000 </r>
       <r>   35.4506    0.0000 </r>
       <r>   46.0889    0.0000 </r>
       <r>   53.9677    0.0000 </r>
       <r>   61.1008    0.0000 </r>
      </set>
      <set comment="kpoint 49">
       <r>   10.1395    1.0000 </r>
       <r>   10.7847    1.0000 </r>
       <r>   12.7300    1.0000 </r>
       <r>   14.7785    1.0000 </r>
       <r>   16.2046   -0.0283 </r>
       <r>   23.7210    0.0000 </r>
       <r>   26.1622    0.0000 </r>
       <r>   31.4239    0.0000 </r>
       <r>   36.3951    0.0000 </r>
       <r>   46.7252    0.0000 </r>
       <r>   57.9354    0.0000 </r>
       <r>   59.9591    0.0000 </r>
      </set>
      <set comment="kpoint 50">
       <r>   10.7476    1.0000 </r>
       <r>   11.0331    1.0000 </r>
       <r>   12.0240    1.0000 </r>
       <r>   14.4970    1.0000 </r>
       <r>   15.7992    1.0244 </r>
       <r>   22.2922    0.0000 </r>
       <r>   27.6274    0.0000 </r>
       <r>   31.1602    0.0000 </r>
       <r>   38.1764    0.0000 </r>
       <r>   47.6158    0.0000 </r>
       <r>   56.1434    0.0000 </r>
       <r>   64.0841    0.0000 </r>
      </set>
      <set comment="kpoint 51">
       <r>    9.0481    1.0000 </r>
       <r>   10.0015    1.0000 </r>
       <r>   14.7628    1.0000 </r>
       <r>   15.8121    1.0160 </r>
       <r>   16.4839   -0.0016 </r>
       <r>   20.3293   -0.0000 </r>
       <r>   30.2400    0.0000 </r>
       <r>   33.0000    0.0000 </r>
       <r>   34.0748    0.0000 </r>
       <r>   44.3220    0.0000 </r>
       <r>   50.5761    0.0000 </r>
       <r>   65.1985    0.0000 </r>
      </set>
      <set comment="kpoint 52">
       <r>    9.4607    1.0000 </r>
       <r>   10.3241    1.0000 </r>
       <r>   13.8053    1.0000 </r>
       <r>   15.3612    1.0000 </r>
       <r>   16.4832   -0.0016 </r>
       <r>   22.7572    0.0000 </r>
       <r>   28.6974    0.0000 </r>
       <r>   30.4836    0.0000 </r>
       <r>   34.6095    0.0000 </r>
       <r>   45.8716    0.0000 </r>
       <r>   54.0364    0.0000 </r>
       <r>   62.3649    0.0000 </r>
      </set>
      <set comment="kpoint 53">
       <r>   10.1696    1.0000 </r>
       <r>   11.0394    1.0000 </r>
       <r>   12.1571    1.0000 </r>
       <r>   14.8832    1.0000 </r>
       <r>   15.7504    1.0354 </r>
       <r>   19.9603   -0.0000 </r>
       <r>   30.9733    0.0000 </r>
       <r>   32.4814    0.0000 </r>
       <r>   36.6199    0.0000 </r>
       <r>   49.9649    0.0000 </r>
       <r>   53.0475    0.0000 </r>
       <r>   59.2643    0.0000 </r>
      </set>
      <set comment="kpoint 54">
       <r>   10.4319    1.0000 </r>
       <r>   11.1940    1.0000 </r>
       <r>   11.9797    1.0000 </r>
       <r>   14.6031    1.0000 </r>
       <r>   16.1720   -0.0061 </r>
       <r>   22.8235    0.0000 </r>
       <r>   27.2222    0.0000 </r>
       <r>   32.3869    0.0000 </r>
       <r>   34.8948    0.0000 </r>
       <r>   50.8169    0.0000 </r>
       <r>   53.6570    0.0000 </r>
       <r>   61.2161    0.0000 </r>
      </set>
      <set comment="kpoint 55">
       <r>    9.8491    1.0000 </r>
       <r>   10.7871    1.0000 </r>
       <r>   12.8074    1.0000 </r>
       <r>   15.0086    1.0000 </r>
       <r>   16.4843   -0.0016 </r>
       <r>   23.2131    0.0000 </r>
       <r>   29.5232    0.0000 </r>
       <r>   30.1990    0.0000 </r>
       <r>   32.8539    0.0000 </r>
       <r>   49.3533    0.0000 </r>
       <r>   55.1798    0.0000 </r>
       <r>   58.8749    0.0000 </r>
      </set>
[...]
       </set>
       <set comment="band 5">
        <r>  0.0000  0.0058  0.0043  0.0002  0.1754  0.6530  0.0521  0.0109  0.0883 </r>
       </set>
       <set comment="band 6">
        <r>  0.1392  0.0158  0.1953  0.0936  0.0031  0.0010  0.1193  0.3722  0.1222 </r>
       </set>
       <set comment="band 7">
        <r>  0.1628  0.3788  0.0040  0.0399  0.2807  0.1723  0.0205  0.0603  0.0272 </r>
       </set>
       <set comment="band 8">
        <r>  0.1414  0.1847  0.0056  0.0989  0.1096  0.0535  0.1268  0.1063  0.1792 </r>
       </set>
       <set comment="band 9">
        <r>  0.1232  0.0116  0.3038  0.0047  0.0001  0.0070  0.4156  0.0428  0.0219 </r>
       </set>
       <set comment="band 10">
        <r>  0.0086  0.0136  0.0338  0.2745  0.0186  0.0002  0.0809  0.0584  0.1088 </r>
       </set>
       <set comment="band 11">
        <r>  0.0273  0.0526  0.0004  0.0010  0.4925  0.0475  0.0242  0.0650  0.1132 </r>
       </set>
       <set comment="band 12">
        <r>  0.0573  0.0181  0.0282  0.0517  0.1385  0.1928  0.1766  0.0005  0.0040 </r>
       </set>
      </set>
      <set comment="kpoint 46">
       <set comment="band 1">
        <r>  0.4299  0.0000  0.2571  0.1243  0.0000  0.0000  0.1247  0.1749  0.0106 </r>
       </set>
       <set comment="band 2">
        <r>  0.0000  0.0895  0.0000  0.0000  0.7747  0.1833  0.0000  0.0000  0.0000 </r>
       </set>
       <set comment="band 3">
        <r>  0.0120  0.0000  0.0008  0.0180  0.0000  0.0000  0.4223  0.3848  0.1669 </r>
       </set>
       <set comment="band 4">
        <r>  0.0076  0.0000  0.0382  0.0051  0.0000  0.0000  0.3339  0.0096  0.6022 </r>
       </set>
       <set comment="band 5">
        <r>  0.0000  0.0087  0.0000  0.0000  0.2069  0.7762  0.0000  0.0000  0.0000 </r>
       </set>
       <set comment="band 6">
        <r>  0.1010  0.0000  0.0943  0.0451  0.0000  0.0000  0.1184  0.4584  0.2146 </r>
       </set>
       <set comment="band 7">
        <r>  0.0000  0.5069  0.0000  0.0000  0.4376  0.2994  0.0000  0.0000  0.0000 </r>
       </set>
       <set comment="band 8">
        <r>  0.2091  0.0000  0.0268  0.1810  0.0000  0.0000  0.1280  0.2275  0.1304 </r>
       </set>
       <set comment="band 9">
        <r>  0.0915  0.0000  0.2667  0.0074  0.0000  0.0000  0.4873  0.0033  0.0109 </r>
       </set>
       <set comment="band 10">
        <r>  0.0000  0.1067  0.0000  0.0000  0.4791  0.0542  0.0000  0.0000  0.0000 </r>
       </set>
       <set comment="band 11">
        <r>  0.0016  0.0000  0.0410  0.2743  0.0000  0.0000  0.1906  0.0041  0.1956 </r>
       </set>
       <set comment="band 12">
        <r>  0.7292  0.0000  0.1685  0.1449  0.0000  0.0000  0.1665  0.1549  0.2121 </r>
       </set>
      </set>
      <set comment="kpoint 47">
       <set comment="band 1">
        <r>  0.1860  0.1216  0.0000  0.0296  0.0080  0.0000  0.2060  0.0000  0.4988 </r>
       </set>
       <set comment="band 2">
        <r>  0.0000  0.0000  0.0273  0.0000  0.0000  0.0113  0.0000  1.0199  0.0000 </r>
       </set>
       <set comment="band 3">
        <r>  0.0917  0.2280  0.0000  0.0032  0.5455  0.0000  0.1326  0.0000  0.0461 </r>
       </set>
       <set comment="band 4">
        <r>  0.0112  0.0540  0.0000  0.0079  0.0001  0.0000  0.5103  0.0000  0.4194 </r>
       </set>
       <set comment="band 5">
        <r>  0.0000  0.0000  0.0185  0.0000  0.0000  0.9597  0.0000  0.0147  0.0000 </r>
       </set>
       <set comment="band 6">
        <r>  0.1150  0.2875  0.0000  0.0235  0.4460  0.0000  0.1487  0.0000  0.0382 </r>
       </set>
       <set comment="band 7">
        <r>  0.0001  0.0853  0.0000  0.2221  0.0977  0.0000  0.2680  0.0000  0.3752 </r>
       </set>
       <set comment="band 8">
        <r>  0.0000  0.0000  0.5949  0.0000  0.0000  0.1394  0.0000  0.3675  0.0000 </r>
       </set>
       <set comment="band 9">
        <r>  0.2365  0.1444  0.0000  0.2746  0.0485  0.0000  0.0019  0.0000  0.2087 </r>
       </set>
       <set comment="band 10">
        <r>  0.0000  0.0000  0.0966  0.0000  0.0000  0.0302  0.0000  1.1188  0.0000 </r>
       </set>
       <set comment="band 11">
        <r>  0.4681  0.1170  0.0000  0.1710  0.0209  0.0000  0.0110  0.0000  0.0740 </r>
       </set>
       <set comment="band 12">
        <r>  0.6427  0.0021  0.0000  0.0342  0.1038  0.0000  0.0360  0.0000  0.3011 </r>
       </set>
      </set>
      <set comment="kpoint 48">
       <set comment="band 1">
        <r>  0.0822  0.0480  0.0014  0.0502  0.0061  0.0016  0.2799  0.0345  0.5252 </r>
       </set>
       <set comment="band 2">
        <r>  0.0007  0.0000  0.0645  0.0140  0.0040  0.0125  0.0122  0.9399  0.0169 </r>
       </set>
       <set comment="band 3">
        <r>  0.0492  0.2363  0.0005  0.0004  0.6386  0.0379  0.0696  0.0135  0.0048 </r>
       </set>
       <set comment="band 4">
        <r>  0.0000  0.0255  0.0039  0.0098  0.0000  0.1408  0.4738  0.0020  0.3384 </r>
       </set>
       <set comment="band 5">
        <r>  0.0003  0.0007  0.0052  0.0004  0.0854  0.7590  0.0812  0.0104  0.0519 </r>
       </set>
       <set comment="band 6">
        <r>  0.1047  0.4742  0.0091  0.0337  0.3130  0.0332  0.0720  0.0019  0.0577 </r>
       </set>
       <set comment="band 7">
        <r>  0.0680  0.0093  0.3414  0.1740  0.0454  0.0485  0.0872  0.2376  0.0646 </r>
       </set>
       <set comment="band 8">
        <r>  0.1442  0.1565  0.0781  0.0308  0.0293  0.0024  0.1942  0.0892  0.3794 </r>
       </set>
       <set comment="band 9">
        <r>  0.2086  0.0409  0.2183  0.2093  0.0158  0.0224  0.0651  0.0710  0.0612 </r>
       </set>
       <set comment="band 10">
        <r>  0.0486  0.0083  0.0593  0.0389  0.0008  0.0111  0.0001  0.9086  0.0205 </r>
       </set>
       <set comment="band 11">
        <r>  0.3498  0.0412  0.0285  0.2314  0.0011  0.0046  0.0172  0.1425  0.0919 </r>
       </set>
       <set comment="band 12">
        <r>  0.3735  0.0060  0.0020  0.0078  0.2926  0.0063  0.0297  0.0018  0.2619 </r>
       </set>
      </set>
      <set comment="kpoint 49">
       <set comment="band 1">
        <r>  0.0297  0.0110  0.0038  0.0613  0.0026  0.0015  0.3465  0.0868  0.4718 </r>
       </set>
       <set comment="band 2">
        <r>  0.0180  0.0016  0.1137  0.0471  0.0156  0.0109  0.0369  0.8056  0.0232 </r>
       </set>
       <set comment="band 3">
        <r>  0.0091  0.2318  0.0033  0.0009  0.6712  0.0968  0.0100  0.0327  0.0001 </r>
       </set>
       <set comment="band 4">
        <r>  0.0048  0.0057  0.0080  0.0069  0.0011  0.0567  0.4991  0.0003  0.4058 </r>
       </set>
       <set comment="band 5">
        <r>  0.0011  0.0018  0.0003  0.0001  0.1548  0.7749  0.0308  0.0054  0.0235 </r>
       </set>
       <set comment="band 6">
        <r>  0.0102  0.5015  0.0821  0.0791  0.2212  0.0553  0.0690  0.0341  0.0707 </r>
       </set>
       <set comment="band 7">
        <r>  0.1793  0.1008  0.2637  0.1055  0.0863  0.0507  0.0466  0.2376  0.0262 </r>
       </set>
       <set comment="band 8">
        <r>  0.2790  0.1076  0.0057  0.0488  0.0287  0.0037  0.1683  0.0665  0.3560 </r>
       </set>
       <set comment="band 9">
        <r>  0.1567  0.0068  0.3033  0.1383  0.0026  0.0068  0.2228  0.0954  0.0274 </r>
       </set>
       <set comment="band 10">
        <r>  0.0678  0.0045  0.0309  0.1256  0.0001  0.0017  0.0035  0.5844  0.0765 </r>
       </set>
       <set comment="band 11">
        <r>  0.0656  0.0338  0.0148  0.1260  0.2419  0.0185  0.0281  0.1934  0.0000 </r>
       </set>
       <set comment="band 12">
        <r>  0.5363  0.0035  0.0353  0.0941  0.2433  0.0049  0.0003  0.1217  0.1884 </r>
       </set>
      </set>
      <set comment="kpoint 50">
       <set comment="band 1">
        <r>  0.0014  0.0000  0.0561  0.1210  0.0000  0.0000  0.4730  0.0002  0.3618 </r>
       </set>
       <set comment="band 2">
        <r>  0.0879  0.0000  0.1206  0.0276  0.0000  0.0000  0.0008  0.8165  0.0238 </r>
       </set>
       <set comment="band 3">
        <r>  0.0000  0.1946  0.0000  0.0000  0.7122  0.1522  0.0000  0.0000  0.0000 </r>
       </set>
       <set comment="band 4">
        <r>  0.0032  0.0000  0.0216  0.0006  0.0000  0.0000  0.4372  0.0063  0.5198 </r>
       </set>
       <set comment="band 5">
        <r>  0.0000  0.0057  0.0000  0.0000  0.1960  0.7885  0.0000  0.0000  0.0000 </r>
       </set>
       <set comment="band 6">
        <r>  0.1528  0.0000  0.2855  0.1376  0.0000  0.0000  0.1027  0.3103  0.0882 </r>
       </set>
       <set comment="band 7">
        <r>  0.0000  0.6743  0.0000  0.0000  0.3507  0.1635  0.0000  0.0000  0.0000 </r>
       </set>
       <set comment="band 8">
        <r>  0.3528  0.0000  0.0016  0.0977  0.0000  0.0000  0.1532  0.1035  0.2964 </r>
       </set>
       <set comment="band 9">
        <r>  0.1392  0.0000  0.3186  0.0586  0.0000  0.0000  0.3588  0.0884  0.0214 </r>
       </set>
       <set comment="band 10">
        <r>  0.0456  0.0000  0.0248  0.2107  0.0000  0.0000  0.0245  0.3008  0.1330 </r>
       </set>
       <set comment="band 11">
        <r>  0.0000  0.0574  0.0000  0.0000  0.5698  0.0335  0.0000  0.0000  0.0000 </r>
       </set>
       <set comment="band 12">
        <r>  0.1124  0.0000  0.0012  0.3653  0.0000  0.0000  0.1264  0.4762  0.0304 </r>
       </set>
      </set>
      <set comment="kpoint 51">
       <set comment="band 1">
        <r>  0.0785  0.0117  0.0000  0.0266  0.0004  0.0000  0.2673  0.0000  0.6421 </r>
       </set>
       <set comment="band 2">
        <r>  0.0000  0.0000  0.0285  0.0000  0.0000  0.0011  0.0000  1.0404  0.0000 </r>
       </set>
       <set comment="band 3">
        <r>  0.0139  0.2603  0.0000  0.0014  0.7260  0.0000  0.0383  0.0000  0.0002 </r>
       </set>
       <set comment="band 4">
        <r>  0.0001  0.0154  0.0000  0.0069  0.0193  0.0000  0.6496  0.0000  0.3036 </r>
       </set>
       <set comment="band 5">
        <r>  0.0000  0.0000  0.0032  0.0000  0.0000  0.9913  0.0000  0.0016  0.0000 </r>
       </set>
       <set comment="band 6">
        <r>  0.0453  0.7350  0.0000  0.0065  0.2901  0.0000  0.0196  0.0000  0.0235 </r>
       </set>
       <set comment="band 7">
        <r>  0.1814  0.0690  0.0000  0.0781  0.0114  0.0000  0.2524  0.0000  0.5463 </r>
       </set>
       <set comment="band 8">
        <r>  0.0000  0.0000  0.6917  0.0000  0.0000  0.0188  0.0000  0.3123  0.0000 </r>
       </set>
       <set comment="band 9">
        <r>  0.2321  0.0082  0.0000  0.4996  0.0125  0.0000  0.0457  0.0000  0.0196 </r>
       </set>
       <set comment="band 10">
        <r>  0.0000  0.0000  0.0764  0.0000  0.0000  0.0027  0.0000  1.3163  0.0000 </r>
       </set>
       <set comment="band 11">
        <r>  0.5229  0.0137  0.0000  0.1542  0.0017  0.0000  0.0306  0.0000  0.1968 </r>
       </set>
       <set comment="band 12">
        <r>  1.3371  0.0159  0.0000  0.0185  0.2006  0.0000  0.0186  0.0000  0.0504 </r>
       </set>
      </set>
      <set comment="kpoint 52">
       <set comment="band 1">
        <r>  0.0463  0.0000  0.0027  0.0508  0.0000  0.0000  0.3165  0.0153  0.5888 </r>
       </set>
       <set comment="band 2">
        <r>  0.0013  0.0000  0.0648  0.0110  0.0000  0.0000  0.0041  0.9843  0.0051 </r>
       </set>
       <set comment="band 3">
        <r>  0.0000  0.2780  0.0000  0.0000  0.7186  0.0535  0.0000  0.0000  0.0000 </r>
       </set>
       <set comment="band 4">
        <r>  0.0055  0.0000  0.0021  0.0109  0.0000  0.0000  0.6245  0.0001  0.3453 </r>
       </set>
       <set comment="band 5">
        <r>  0.0000  0.0017  0.0000  0.0000  0.0794  0.9149  0.0000  0.0000  0.0000 </r>
       </set>
       <set comment="band 6">
        <r>  0.0000  0.7907  0.0000  0.0000  0.3072  0.0415  0.0000  0.0000  0.0000 </r>
       </set>
       <set comment="band 7">
        <r>  0.0066  0.0000  0.2460  0.2208  0.0000  0.0000  0.2109  0.1235  0.2781 </r>
       </set>
       <set comment="band 8">
        <r>  0.3852  0.0000  0.1921  0.0013  0.0000  0.0000  0.0623  0.1811  0.2269 </r>
       </set>
       <set comment="band 9">
        <r>  0.1741  0.0000  0.2516  0.2550  0.0000  0.0000  0.1230  0.0807  0.0190 </r>
       </set>
       <set comment="band 10">
        <r>  0.0495  0.0000  0.0549  0.0332  0.0000  0.0000  0.0000  0.9954  0.0323 </r>
       </set>
       <set comment="band 11">
        <r>  0.3979  0.0000  0.0281  0.2174  0.0000  0.0000  0.0188  0.1339  0.1788 </r>
       </set>
       <set comment="band 12">
        <r>  0.0000  0.0308  0.0000  0.0000  0.4229  0.0082  0.0000  0.0000  0.0000 </r>
       </set>
      </set>
      <set comment="kpoint 53">
       <set comment="band 1">
        <r>  0.1094  0.1207  0.0000  0.1025  0.0382  0.0000  0.3186  0.0000  0.3533 </r>
       </set>
       <set comment="band 2">
        <r>  0.0000  0.0000  0.1004  0.0000  0.0000  0.0518  0.0000  0.9071  0.0000 </r>
       </set>
       <set comment="band 3">
        <r>  0.0769  0.1317  0.0000  0.0007  0.6403  0.0000  0.1759  0.0000  0.0217 </r>
       </set>
       <set comment="band 4">
        <r>  0.0003  0.0474  0.0000  0.0091  0.0083  0.0000  0.3519  0.0000  0.5790 </r>
       </set>
       <set comment="band 5">
        <r>  0.0000  0.0000  0.0137  0.0000  0.0000  0.9109  0.0000  0.0675  0.0000 </r>
       </set>
       <set comment="band 6">
        <r>  0.1454  0.3021  0.0000  0.0589  0.3770  0.0000  0.1573  0.0000  0.0385 </r>
       </set>
       <set comment="band 7">
        <r>  0.0000  0.0000  0.6184  0.0000  0.0000  0.1418  0.0000  0.4287  0.0000 </r>
       </set>
       <set comment="band 8">
        <r>  0.1675  0.0023  0.0000  0.2599  0.1380  0.0000  0.3468  0.0000  0.0595 </r>
       </set>
       <set comment="band 9">
        <r>  0.2529  0.2791  0.0000  0.0018  0.0146  0.0000  0.0299  0.0000  0.4029 </r>
       </set>
       <set comment="band 10">
        <r>  0.0000  0.0000  0.0881  0.0000  0.0000  0.0333  0.0000  0.8095  0.0000 </r>
       </set>
       <set comment="band 11">
        <r>  0.0227  0.0591  0.0000  0.3171  0.0435  0.0000  0.0265  0.0000  0.0239 </r>
       </set>
       <set comment="band 12">
        <r>  0.8821  0.0166  0.0000  0.0653  0.2771  0.0000  0.0268  0.0000  0.4821 </r>
       </set>
      </set>
      <set comment="kpoint 54">
       <set comment="band 1">
        <r>  0.0142  0.0383  0.0010  0.1153  0.0056  0.0012  0.5399  0.0148  0.2869 </r>
       </set>
       <set comment="band 2">
        <r>  0.0350  0.0317  0.1099  0.0040  0.1933  0.0464  0.0349  0.6112  0.0004 </r>
       </set>
       <set comment="band 3">
        <r>  0.0220  0.1333  0.0426  0.0067  0.5913  0.0000  0.0225  0.2407  0.0003 </r>
       </set>
       <set comment="band 4">
        <r>  0.0071  0.0205  0.0032  0.0018  0.0062  0.0474  0.2764  0.0004  0.6263 </r>
       </set>
       <set comment="band 5">
        <r>  0.0016  0.0000  0.0050  0.0000  0.0260  0.8676  0.0131  0.0511  0.0285 </r>
       </set>
       <set comment="band 6">
        <r>  0.0888  0.4013  0.0351  0.0966  0.2850  0.0058  0.1286  0.0092  0.0500 </r>
       </set>
       <set comment="band 7">
        <r>  0.1531  0.0131  0.4540  0.0344  0.0476  0.0731  0.0407  0.3114  0.0030 </r>
       </set>
       <set comment="band 8">
        <r>  0.0461  0.0369  0.1432  0.1705  0.0835  0.0058  0.4190  0.0917  0.0774 </r>
       </set>
       <set comment="band 9">
        <r>  0.3689  0.2192  0.0442  0.0010  0.0276  0.0094  0.0001  0.0035  0.2826 </r>
       </set>
       <set comment="band 10">
        <r>  0.0026  0.0219  0.0392  0.1690  0.0614  0.0042  0.0024  0.3335  0.0002 </r>
       </set>
       <set comment="band 11">
        <r>  0.0194  0.0200  0.0198  0.0497  0.2627  0.0181  0.0405  0.3494  0.0787 </r>
       </set>
       <set comment="band 12">
        <r>  0.6901  0.0017  0.0109  0.2433  0.2282  0.0001  0.0011  0.0724  0.2553 </r>
       </set>
      </set>
      <set comment="kpoint 55">
       <set comment="band 1">
        <r>  0.0269  0.0101  0.0000  0.0903  0.0009  0.0000  0.4269  0.0000  0.4622 </r>
       </set>
       <set comment="band 2">
        <r>  0.0000  0.0000  0.1046  0.0000  0.0000  0.0051  0.0000  0.9565  0.0000 </r>
       </set>
       <set comment="band 3">
        <r>  0.0160  0.2334  0.0000  0.0000  0.7840  0.0000  0.0209  0.0000  0.0003 </r>
       </set>
       <set comment="band 4">
        <r>  0.0119  0.0104  0.0000  0.0082  0.0093  0.0000  0.4713  0.0000  0.4759 </r>
       </set>
       <set comment="band 5">
        <r>  0.0000  0.0000  0.0030  0.0000  0.0000  0.9857  0.0000  0.0076  0.0000 </r>
       </set>
       <set comment="band 6">
        <r>  0.0553  0.6328  0.0000  0.0257  0.3413  0.0000  0.0413  0.0000  0.0312 </r>
       </set>
       <set comment="band 7">
        <r>  0.0000  0.0000  0.6983  0.0000  0.0000  0.0191  0.0000  0.4244  0.0000 </r>
       </set>
       <set comment="band 8">
        <r>  0.0096  0.0741  0.0000  0.2566  0.0490  0.0000  0.4082  0.0000  0.3032 </r>
       </set>
       <set comment="band 9">
        <r>  0.5698  0.0430  0.0000  0.0877  0.0000  0.0000  0.0466  0.0000  0.1371 </r>
       </set>
       <set comment="band 10">
        <r>  0.0000  0.0000  0.0800  0.0000  0.0000  0.0041  0.0000  0.9536  0.0000 </r>
       </set>
       <set comment="band 11">
        <r>  0.2385  0.0221  0.0000  0.3474  0.0392  0.0000  0.0152  0.0000  0.1001 </r>
       </set>
       <set comment="band 12">
        <r>  0.2137  0.0197  0.0000  0.0198  0.4883  0.0000  0.0056  0.0000  0.1618 </r>
       </set>
      </set>
      <set comment="kpoint 56">
       <set comment="band 1">
        <r>  0.0023  0.0000  0.0042  0.1129  0.0000  0.0000  0.5753  0.0018  0.3157 </r>
       </set>
       <set comment="band 2">
        <r>  0.0108  0.0000  0.1514  0.0048  0.0000  0.0000  0.0012  0.8958  0.0018 </r>
       </set>
       <set comment="band 3">
        <r>  0.0000  0.2021  0.0000  0.0000  0.8413  0.0154  0.0000  0.0000  0.0000 </r>
       </set>
       <set comment="band 4">
        <r>  0.0235  0.0000  0.0041  0.0011  0.0000  0.0000  0.3353  0.0029  0.6167 </r>
       </set>
       <set comment="band 5">
        <r>  0.0000  0.0025  0.0000  0.0000  0.0235  0.9701  0.0000  0.0000  0.0000 </r>
       </set>
       <set comment="band 6">
        <r>  0.0000  0.7395  0.0000  0.0000  0.3950  0.0245  0.0000  0.0000  0.0000 </r>
       </set>
       <set comment="band 7">
        <r>  0.0514  0.0000  0.5051  0.0974  0.0000  0.0000  0.1162  0.3087  0.0375 </r>
       </set>
       <set comment="band 8">
        <r>  0.1388  0.0000  0.0723  0.1863  0.0000  0.0000  0.3169  0.0863  0.2819 </r>
       </set>
       <set comment="band 9">
        <r>  0.4861  0.0000  0.1351  0.0400  0.0000  0.0000  0.1598  0.0380  0.0726 </r>
       </set>
       <set comment="band 10">
        <r>  0.0150  0.0000  0.0553  0.0776  0.0000  0.0000  0.0008  0.6627  0.0330 </r>
       </set>
       <set comment="band 11">
        <r>  0.0000  0.0554  0.0000  0.0000  0.6995  0.0043  0.0000  0.0000  0.0000 </r>
       </set>
       <set comment="band 12">
        <r>  0.0991  0.0000  0.0098  0.4396  0.0000  0.0000  0.0342  0.1690  0.0627 </r>
       </set>
      </set>
     </set>
    </set>
   </array>
  </projected>
 </calculation>
 <structure name="finalpos" >
  <crystal>
   <varray name="basis" >
    <v>       1.55000000       1.55000000       0.00000000 </v>
    <v>       0.00000000       1.55000000       1.55000000 </v>
    <v>       1.55000000       0.00000000       1.55000000 </v>
   </varray>
   <i name="volume">      7.44775000 </i>
   <varray name="rec_basis" >
    <v>       0.32258065       0.32258065      -0.32258065 </v>
    <v>      -0.32258065       0.32258065       0.32258065 </v>
    <v>       0.32258065      -0.32258065       0.32258065 </v>
   </varray>
  </crystal>
  <varray name="positions" >
   <v>       0.00000000       0.00000000       0.00000000 </v>
  </varray>
 </structure>
</modeling>
