fcc Si                                  
   3.90000000000000     
     0.500000    0.500000    0.000000
     0.000000    0.500000    0.500000
     0.500000    0.000000    0.500000
   Si
     1
Direct
  0.000000  0.000000  0.000000
 
   20   20   20
 -2.5594     -1.7613     0.29564      2.7786      4.7890      5.7881      5.7838      5.2104      4.5945      4.1740    
  4.0262      4.1740      4.5945      5.2104      5.7838      5.7881      4.7890      2.7786     0.29564     -1.7613    
 -1.7613     -.33658      1.9108      4.0970      5.5015      5.8793      5.4845      4.8351      4.3079      4.0213    
  4.0215      4.3081      4.8351      5.4843      5.8793      5.5018      4.0972      1.9104     -.33737     -1.7617    
 0.29564      1.9108      3.8127      5.2658      5.8551      5.6349      5.0092      4.4111      4.0095      3.8693    
  4.0095      4.4110      5.0092      5.6349      5.8552      5.2658      3.8127      1.9107     0.29553     -.33737    
  2.7786      4.0970      5.2658      5.8294      5.6923      5.1112      4.4783      3.9956      3.7384      3.7383    
  3.9954      4.4783      5.1113      5.6923      5.8292      5.2657      4.0973      2.7792      1.9107      1.9104    
  4.7890      5.5015      5.8551      5.6923      5.1441      4.5110      3.9846      3.6441      3.5273      3.6442    
  3.9846      4.5110      5.1441      5.6923      5.8551      5.5015      4.7891      4.0973      3.8127      4.0972    
  5.7881      5.8793      5.6349      5.1112      4.5110      3.9806      3.5954      3.3956      3.3956      3.5955    
  3.9806      4.5110      5.1113      5.6351      5.8793      5.7879      5.5015      5.2657      5.2658      5.5018    
  5.7838      5.4845      5.0092      4.4783      3.9846      3.5954      3.3512      3.2685      3.3512      3.5954    
  3.9846      4.4783      5.0092      5.4845      5.7838      5.8793      5.8551      5.8292      5.8552      5.8793    
  5.2104      4.8351      4.4111      3.9956      3.6441      3.3956      3.2685      3.2686      3.3956      3.6441    
  3.9954      4.4109      4.8351      5.2106      5.4845      5.6351      5.6923      5.6923      5.6349      5.4843    
  4.5945      4.3079      4.0095      3.7384      3.5273      3.3956      3.3512      3.3956      3.5272      3.7384    
  4.0095      4.3079      4.5945      4.8351      5.0092      5.1113      5.1441      5.1113      5.0092      4.8351    
  4.1740      4.0213      3.8693      3.7383      3.6442      3.5955      3.5954      3.6441      3.7384      3.8695    
  4.0215      4.1739      4.3079      4.4109      4.4783      4.5110      4.5110      4.4783      4.4110      4.3081    
  4.0262      4.0215      4.0095      3.9954      3.9846      3.9806      3.9846      3.9954      4.0095      4.0215    
  4.0262      4.0215      4.0095      3.9954      3.9846      3.9806      3.9846      3.9954      4.0095      4.0215    
  4.1740      4.3081      4.4110      4.4783      4.5110      4.5110      4.4783      4.4109      4.3079      4.1739    
  4.0215      3.8695      3.7384      3.6441      3.5954      3.5955      3.6442      3.7383      3.8693      4.0213    
  4.5945      4.8351      5.0092      5.1113      5.1441      5.1113      5.0092      4.8351      4.5945      4.3079    
  4.0095      3.7384      3.5272      3.3956      3.3512      3.3956      3.5273      3.7384      4.0095      4.3079    
  5.2104      5.4843      5.6349      5.6923      5.6923      5.6351      5.4845      5.2106      4.8351      4.4109    
  3.9954      3.6441      3.3956      3.2686      3.2685      3.3956      3.6441      3.9956      4.4111      4.8351    
  5.7838      5.8793      5.8552      5.8292      5.8551      5.8793      5.7838      5.4845      5.0092      4.4783    
  3.9846      3.5954      3.3512      3.2685      3.3512      3.5954      3.9846      4.4783      5.0092      5.4845    
  5.7881      5.5018      5.2658      5.2657      5.5015      5.7879      5.8793      5.6351      5.1113      4.5110    
  3.9806      3.5955      3.3956      3.3956      3.5954      3.9806      4.5110      5.1112      5.6349      5.8793    
  4.7890      4.0972      3.8127      4.0973      4.7891      5.5015      5.8551      5.6923      5.1441      4.5110    
  3.9846      3.6442      3.5273      3.6441      3.9846      4.5110      5.1441      5.6923      5.8551      5.5015    
  2.7786      1.9104      1.9107      2.7792      4.0973      5.2657      5.8292      5.6923      5.1113      4.4783    
  3.9954      3.7383      3.7384      3.9956      4.4783      5.1112      5.6923      5.8294      5.2658      4.0970    
 0.29564     -.33737     0.29553      1.9107      3.8127      5.2658      5.8552      5.6349      5.0092      4.4110    
  4.0095      3.8693      4.0095      4.4111      5.0092      5.6349      5.8551      5.2658      3.8127      1.9108    
 -1.7613     -1.7617     -.33737      1.9104      4.0972      5.5018      5.8793      5.4843      4.8351      4.3081    
  4.0215      4.0213      4.3079      4.8351      5.4845      5.8793      5.5015      4.0970      1.9108     -.33658    
 -1.7613     -.33662      1.9107      4.0970      5.5015      5.8793      5.4845      4.8351      4.3079      4.0213    
  4.0215      4.3082      4.8351      5.4843      5.8793      5.5019      4.0972      1.9104     -.33736     -1.7617    
 -.33662      1.4214      3.5095      5.1388      5.8556      5.7006      5.0884      4.4835      4.0752      3.9323    
  4.0753      4.4835      5.0884      5.7007      5.8559      5.1391      3.5092      1.4206     -.33743     -1.0236    
  1.9107      3.5095      4.9805      5.7879      5.7933      5.2563      4.6128      4.1145      3.8473      3.8472    
  4.1143      4.6127      5.2565      5.7935      5.7879      4.9804      3.5093      1.9106     0.87296     0.87301    
  4.0970      5.1388      5.7879      5.8156      5.3364      4.6904      4.1389      3.7783      3.6540      3.7783    
  4.1388      4.6903      5.3363      5.8155      5.7878      5.1389      4.0974      3.1458      2.7624      3.1455    
  5.5015      5.8556      5.7933      5.3364      4.7162      4.1506      3.7342      3.5167      3.5168      3.7343    
  4.1505      4.7160      5.3363      5.7934      5.8557      5.5016      4.9541      4.5551      4.5552      4.9541    
  5.8793      5.7006      5.2563      4.6904      4.1506      3.7193      3.4465      3.3539      3.4465      3.7193    
  4.1505      4.6904      5.2565      5.7007      5.8792      5.8040      5.6310      5.5462      5.6312      5.8042    
  5.4845      5.0884      4.6128      4.1389      3.7342      3.4465      3.2991      3.2991      3.4465      3.7342    
  4.1389      4.6128      5.0884      5.4844      5.7202      5.8026      5.8086      5.8086      5.8025      5.7202    
  4.8351      4.4835      4.1145      3.7783      3.5167      3.3539      3.2991      3.3539      3.5167      3.7783    
  4.1143      4.4833      4.8351      5.1258      5.3259      5.4302      5.4605      5.4300      5.3256      5.1256    
  4.3079      4.0752      3.8473      3.6540      3.5168      3.4465      3.4465      3.5167      3.6539      3.8473    
  4.0752      4.3079      4.5154      4.6762      4.7819      4.8330      4.8330      4.7818      4.6762      4.5154    
  4.0213      3.9323      3.8472      3.7783      3.7343      3.7193      3.7342      3.7783      3.8473      3.9326    
  4.0214      4.1012      4.1633      4.2050      4.2279      4.2351      4.2279      4.2051      4.1635      4.1013    
  4.0215      4.0753      4.1143      4.1388      4.1505      4.1505      4.1389      4.1143      4.0752      4.0214    
  3.9561      3.8867      3.8235      3.7762      3.7510      3.7511      3.7762      3.8235      3.8867      3.9561    
  4.3082      4.4835      4.6127      4.6903      4.7160      4.6904      4.6128      4.4833      4.3079      4.1012    
  3.8867      3.6913      3.5383      3.4424      3.4100      3.4424      3.5382      3.6911      3.8866      4.1013    
  4.8351      5.0884      5.2565      5.3363      5.3363      5.2565      5.0884      4.8351      4.5154      4.1633    
  3.8235      3.5383      3.3372      3.2345      3.2345      3.3372      3.5383      3.8235      4.1633      4.5154    
  5.4843      5.7007      5.7935      5.8155      5.7934      5.7007      5.4844      5.1258      4.6762      4.2050    
  3.7762      3.4424      3.2345      3.1643      3.2344      3.4424      3.7763      4.2051      4.6762      5.1256    
  5.8793      5.8559      5.7879      5.7878      5.8557      5.8792      5.7202      5.3259      4.7819      4.2279    
  3.7510      3.4100      3.2345      3.2344      3.4099      3.7510      4.2279      4.7819      5.3258      5.7202    
  5.5019      5.1391      4.9804      5.1389      5.5016      5.8040      5.8026      5.4302      4.8330      4.2351    
  3.7511      3.4424      3.3372      3.4424      3.7510      4.2349      4.8329      5.4301      5.8027      5.8042    
  4.0972      3.5092      3.5093      4.0974      4.9541      5.6310      5.8086      5.4605      4.8330      4.2279    
  3.7762      3.5382      3.5383      3.7763      4.2279      4.8329      5.4604      5.8087      5.6311      4.9541    
  1.9104      1.4206      1.9106      3.1458      4.5551      5.5462      5.8086      5.4300      4.7818      4.2051    
  3.8235      3.6911      3.8235      4.2051      4.7819      5.4301      5.8087      5.5462      4.5549      3.1455    
 -.33736     -.33743     0.87296      2.7624      4.5552      5.6312      5.8025      5.3256      4.6762      4.1635    
  3.8867      3.8866      4.1633      4.6762      5.3258      5.8027      5.6311      4.5549      2.7623     0.87304    
 -1.7617     -1.0236     0.87301      3.1455      4.9541      5.8042      5.7202      5.1256      4.5154      4.1013    
  3.9561      4.1013      4.5154      5.1256      5.7202      5.8042      4.9541      3.1455     0.87304     -1.0236    
 0.29559      1.9107      3.8127      5.2658      5.8551      5.6349      5.0093      4.4111      4.0095      3.8692    
  4.0095      4.4111      5.0092      5.6349      5.8552      5.2659      3.8127      1.9106     0.29552     -.33738    
  1.9107      3.5094      4.9805      5.7879      5.7933      5.2563      4.6128      4.1145      3.8473      3.8472    
  4.1143      4.6127      5.2565      5.7935      5.7879      4.9804      3.5092      1.9106     0.87294     0.87298    
  3.8127      4.9805      5.7442      5.8482      5.4002      4.7525      4.1928      3.8255      3.6985      3.8254    
  4.1928      4.7525      5.4002      5.8482      5.7442      4.9805      3.8128      2.7623      2.3414      2.7622    
  5.2658      5.7879      5.8482      5.4461      4.8235      4.2408      3.8086      3.5818      3.5819      3.8087    
  4.2408      4.8234      5.4459      5.8481      5.7879      5.2660      4.5552      4.0553      4.0551      4.5550    
  5.8551      5.7933      5.4002      4.8235      4.2570      3.7998      3.5090      3.4099      3.5090      3.7998    
  4.2570      4.8235      5.4002      5.7933      5.8551      5.6311      5.3334      5.1999      5.3333      5.6311    
  5.6349      5.2563      4.7525      4.2408      3.7998      3.4844      3.3223      3.3222      3.4844      3.7998    
  4.2409      4.7527      5.2565      5.6349      5.8025      5.7991      5.7466      5.7467      5.7993      5.8026    
  5.0093      4.6128      4.1928      3.8086      3.5090      3.3223      3.2593      3.3223      3.5090      3.8086    
  4.1928      4.6128      5.0092      5.3258      5.5182      5.6007      5.6201      5.6007      5.5183      5.3258    
  4.4111      4.1145      3.8255      3.5818      3.4099      3.3222      3.3223      3.4100      3.5819      3.8254    
  4.1143      4.4109      4.6762      4.8819      5.0161      5.0794      5.0793      5.0159      4.8818      4.6762    
  4.0095      3.8473      3.6985      3.5819      3.5090      3.4844      3.5090      3.5819      3.6985      3.8473    
  4.0095      4.1633      4.2907      4.3817      4.4346      4.4518      4.4346      4.3816      4.2906      4.1633    
  3.8692      3.8472      3.8254      3.8087      3.7998      3.7998      3.8086      3.8254      3.8473      3.8694    
  3.8867      3.8961      3.8982      3.8963      3.8942      3.8943      3.8964      3.8983      3.8961      3.8866    
  4.0095      4.1143      4.1928      4.2408      4.2570      4.2409      4.1928      4.1143      4.0095      3.8867    
  3.7587      3.6409      3.5474      3.4881      3.4679      3.4881      3.5474      3.6409      3.7587      3.8867    
  4.4111      4.6127      4.7525      4.8234      4.8235      4.7527      4.6128      4.4109      4.1633      3.8961    
  3.6409      3.4275      3.2771      3.2001      3.2001      3.2770      3.4274      3.6408      3.8961      4.1635    
  5.0092      5.2565      5.4002      5.4459      5.4002      5.2565      5.0092      4.6762      4.2907      3.8982    
  3.5474      3.2771      3.1094      3.0530      3.1094      3.2771      3.5474      3.8982      4.2906      4.6762    
  5.6349      5.7935      5.8482      5.8481      5.7933      5.6349      5.3258      4.8819      4.3817      3.8963    
  3.4881      3.2001      3.0530      3.0529      3.2001      3.4882      3.8964      4.3817      4.8817      5.3256    
  5.8552      5.7879      5.7442      5.7879      5.8551      5.8025      5.5182      5.0161      4.4346      3.8942    
  3.4679      3.2001      3.1094      3.2001      3.4679      3.8942      4.4346      5.0161      5.5182      5.8025    
  5.2659      4.9804      4.9805      5.2660      5.6311      5.7991      5.6007      5.0794      4.4518      3.8943    
  3.4881      3.2770      3.2771      3.4882      3.8942      4.4516      5.0793      5.6009      5.7993      5.6312    
  3.8127      3.5092      3.8128      4.5552      5.3334      5.7466      5.6201      5.0793      4.4346      3.8964    
  3.5474      3.4274      3.5474      3.8964      4.4346      5.0793      5.6201      5.7466      5.3333      4.5552    
  1.9106      1.9106      2.7623      4.0553      5.1999      5.7467      5.6007      5.0159      4.3816      3.8983    
  3.6409      3.6408      3.8982      4.3817      5.0161      5.6009      5.7466      5.1996      4.0551      2.7624    
 0.29552     0.87294      2.3414      4.0551      5.3333      5.7993      5.5183      4.8818      4.2906      3.8961    
  3.7587      3.8961      4.2906      4.8817      5.5182      5.7993      5.3333      4.0551      2.3414     0.87297    
 -.33738     0.87298      2.7622      4.5550      5.6311      5.8026      5.3258      4.6762      4.1633      3.8866    
  3.8867      4.1635      4.6762      5.3256      5.8025      5.6312      4.5552      2.7624     0.87297     -.33740    
  2.7786      4.0970      5.2658      5.8294      5.6923      5.1112      4.4784      3.9956      3.7384      3.7383    
  3.9954      4.4783      5.1113      5.6922      5.8292      5.2657      4.0973      2.7792      1.9107      1.9104    
  4.0970      5.1387      5.7879      5.8156      5.3364      4.6904      4.1389      3.7784      3.6540      3.7783    
  4.1388      4.6903      5.3363      5.8155      5.7878      5.1389      4.0973      3.1458      2.7623      3.1455    
  5.2658      5.7879      5.8482      5.4461      4.8235      4.2408      3.8086      3.5818      3.5819      3.8087    
  4.2408      4.8234      5.4459      5.8481      5.7879      5.2660      4.5552      4.0552      4.0551      4.5550    
  5.8294      5.8156      5.4461      4.8686      4.2935      3.8277      3.5307      3.4294      3.5307      3.8278    
  4.2936      4.8687      5.4459      5.8153      5.8293      5.5465      5.1999      5.0473      5.1996      5.5462    
  5.6923      5.3364      4.8235      4.2935      3.8342      3.5046      3.3348      3.3348      3.5046      3.8342    
  4.2936      4.8236      5.3362      5.6921      5.8086      5.7466      5.6553      5.6552      5.7466      5.8087    
  5.1112      4.6904      4.2408      3.8277      3.5046      3.3030      3.2349      3.3029      3.5046      3.8277    
  4.2409      4.6905      5.1113      5.4300      5.6006      5.6561      5.6639      5.6564      5.6008      5.4301    
  4.4784      4.1389      3.8086      3.5307      3.3348      3.2349      3.2349      3.3348      3.5307      3.8086    
  4.1389      4.4784      4.7819      5.0160      5.1629      5.2282      5.2282      5.1631      5.0161      4.7819    
  3.9956      3.7784      3.5818      3.4294      3.3348      3.3029      3.3348      3.4295      3.5819      3.7783    
  3.9955      4.2050      4.3817      4.5102      4.5861      4.6108      4.5860      4.5101      4.3817      4.2051    
  3.7384      3.6540      3.5819      3.5307      3.5046      3.5046      3.5307      3.5819      3.6539      3.7384    
  3.8235      3.8982      3.9551      3.9919      4.0096      4.0096      3.9919      3.9551      3.8982      3.8235    
  3.7383      3.7783      3.8087      3.8278      3.8342      3.8277      3.8086      3.7783      3.7384      3.6913    
  3.6409      3.5928      3.5531      3.5272      3.5183      3.5273      3.5532      3.5928      3.6408      3.6911    
  3.9954      4.1388      4.2408      4.2936      4.2936      4.2409      4.1389      3.9955      3.8235      3.6409    
  3.4678      3.3233      3.2210      3.1685      3.1685      3.2210      3.3233      3.4679      3.6409      3.8235    
  4.4783      4.6903      4.8234      4.8687      4.8236      4.6905      4.4784      4.2050      3.8982      3.5928    
  3.3233      3.1168      2.9889      2.9459      2.9889      3.1168      3.3233      3.5928      3.8983      4.2051    
  5.1113      5.3363      5.4459      5.4459      5.3362      5.1113      4.7819      4.3817      3.9551      3.5531    
  3.2210      2.9889      2.8709      2.8709      2.9890      3.2210      3.5531      3.9551      4.3816      4.7818    
  5.6922      5.8155      5.8481      5.8153      5.6921      5.4300      5.0160      4.5102      3.9919      3.5272    
  3.1685      2.9459      2.8709      2.9459      3.1685      3.5273      3.9919      4.5101      5.0159      5.4300    
  5.8292      5.7878      5.7879      5.8293      5.8086      5.6006      5.1629      4.5861      4.0096      3.5183    
  3.1685      2.9889      2.9890      3.1685      3.5182      4.0095      4.5861      5.1630      5.6007      5.8086    
  5.2657      5.1389      5.2660      5.5465      5.7466      5.6561      5.2282      4.6108      4.0096      3.5273    
  3.2210      3.1168      3.2210      3.5273      4.0095      4.6108      5.2284      5.6564      5.7467      5.5463    
  4.0973      4.0973      4.5552      5.1999      5.6553      5.6639      5.2282      4.5860      3.9919      3.5532    
  3.3233      3.3233      3.5531      3.9919      4.5861      5.2284      5.6639      5.6552      5.1998      4.5551    
  2.7792      3.1458      4.0552      5.0473      5.6552      5.6564      5.1631      4.5101      3.9551      3.5928    
  3.4679      3.5928      3.9551      4.5101      5.1630      5.6564      5.6552      5.0473      4.0552      3.1458    
  1.9107      2.7623      4.0551      5.1996      5.7466      5.6008      5.0161      4.3817      3.8982      3.6408    
  3.6409      3.8983      4.3816      5.0159      5.6007      5.7467      5.1998      4.0552      2.7623      1.9106    
  1.9104      3.1455      4.5550      5.5462      5.8087      5.4301      4.7819      4.2051      3.8235      3.6911    
  3.8235      4.2051      4.7818      5.4300      5.8086      5.5463      4.5551      3.1458      1.9106      1.4206    
  4.7890      5.5015      5.8552      5.6923      5.1441      4.5109      3.9846      3.6442      3.5272      3.6441    
  3.9846      4.5110      5.1441      5.6923      5.8552      5.5016      4.7891      4.0973      3.8127      4.0973    
  5.5015      5.8556      5.7933      5.3364      4.7162      4.1505      3.7342      3.5167      3.5168      3.7343    
  4.1505      4.7161      5.3363      5.7934      5.8557      5.5016      4.9540      4.5551      4.5552      4.9541    
  5.8552      5.7933      5.4002      4.8235      4.2570      3.7998      3.5090      3.4099      3.5090      3.7998    
  4.2570      4.8235      5.4002      5.7933      5.8551      5.6311      5.3333      5.1998      5.3333      5.6311    
  5.6923      5.3364      4.8235      4.2935      3.8341      3.5046      3.3348      3.3348      3.5046      3.8342    
  4.2936      4.8235      5.3362      5.6920      5.8086      5.7466      5.6553      5.6552      5.7466      5.8087    
  5.1441      4.7162      4.2570      3.8341      3.5032      3.2965      3.2268      3.2965      3.5032      3.8342    
  4.2570      4.7162      5.1441      5.4603      5.6200      5.6638      5.6665      5.6639      5.6201      5.4604    
  4.5109      4.1505      3.7998      3.5046      3.2965      3.1903      3.1904      3.2965      3.5046      3.7998    
  4.1506      4.5111      4.8330      5.0792      5.2282      5.2917      5.2918      5.2283      5.0793      4.8328    
  3.9846      3.7342      3.5090      3.3348      3.2268      3.1904      3.2267      3.3348      3.5090      3.7343    
  3.9847      4.2279      4.4346      4.5861      4.6760      4.7054      4.6760      4.5861      4.4346      4.2279    
  3.6442      3.5167      3.4099      3.3348      3.2965      3.2965      3.3348      3.4100      3.5168      3.6441    
  3.7762      3.8964      3.9919      4.0564      4.0883      4.0883      4.0563      3.9919      3.8965      3.7763    
  3.5272      3.5168      3.5090      3.5046      3.5032      3.5046      3.5090      3.5168      3.5272      3.5383    
  3.5474      3.5531      3.5556      3.5561      3.5560      3.5561      3.5556      3.5531      3.5474      3.5383    
  3.6441      3.7343      3.7998      3.8342      3.8342      3.7998      3.7343      3.6441      3.5383      3.4275    
  3.3233      3.2362      3.1742      3.1422      3.1422      3.1743      3.2362      3.3233      3.4274      3.5382    
  3.9846      4.1505      4.2570      4.2936      4.2570      4.1506      3.9847      3.7762      3.5474      3.3233    
  3.1272      2.9773      2.8842      2.8528      2.8842      2.9773      3.1273      3.3233      3.5474      3.7762    
  4.5110      4.7161      4.8235      4.8235      4.7162      4.5111      4.2279      3.8964      3.5531      3.2362    
  2.9773      2.7971      2.7056      2.7056      2.7971      2.9773      3.2362      3.5532      3.8965      4.2279    
  5.1441      5.3363      5.4002      5.3362      5.1441      4.8330      4.4346      3.9919      3.5556      3.1742    
  2.8842      2.7056      2.6456      2.7056      2.8842      3.1742      3.5556      3.9919      4.4346      4.8330    
  5.6923      5.7934      5.7933      5.6920      5.4603      5.0792      4.5861      4.0564      3.5561      3.1422    
  2.8528      2.7056      2.7056      2.8528      3.1422      3.5560      4.0563      4.5860      5.0792      5.4605    
  5.8552      5.8557      5.8551      5.8086      5.6200      5.2282      4.6760      4.0883      3.5560      3.1422    
  2.8842      2.7971      2.8842      3.1422      3.5560      4.0883      4.6760      5.2282      5.6201      5.8086    
  5.5016      5.5016      5.6311      5.7466      5.6638      5.2917      4.7054      4.0883      3.5561      3.1743    
  2.9773      2.9773      3.1742      3.5560      4.0883      4.7056      5.2918      5.6639      5.7466      5.6310    
  4.7891      4.9540      5.3333      5.6553      5.6665      5.2918      4.6760      4.0563      3.5556      3.2362    
  3.1273      3.2362      3.5556      4.0563      4.6760      5.2918      5.6665      5.6553      5.3334      4.9541    
  4.0973      4.5551      5.1998      5.6552      5.6639      5.2283      4.5861      3.9919      3.5531      3.3233    
  3.3233      3.5532      3.9919      4.5860      5.2282      5.6639      5.6553      5.1999      4.5552      4.0973    
  3.8127      4.5552      5.3333      5.7466      5.6201      5.0793      4.4346      3.8965      3.5474      3.4274    
  3.5474      3.8965      4.4346      5.0792      5.6201      5.7466      5.3334      4.5552      3.8128      3.5093    
  4.0973      4.9541      5.6311      5.8087      5.4604      4.8328      4.2279      3.7763      3.5383      3.5382    
  3.7762      4.2279      4.8330      5.4605      5.8086      5.6310      4.9541      4.0973      3.5093      3.5092    
  5.7881      5.8793      5.6349      5.1112      4.5109      3.9806      3.5954      3.3956      3.3956      3.5955    
  3.9807      4.5110      5.1113      5.6350      5.8793      5.7879      5.5015      5.2657      5.2659      5.5018    
  5.8793      5.7006      5.2563      4.6904      4.1505      3.7193      3.4465      3.3539      3.4465      3.7193    
  4.1506      4.6904      5.2565      5.7007      5.8792      5.8040      5.6310      5.5462      5.6312      5.8042    
  5.6349      5.2563      4.7525      4.2408      3.7998      3.4844      3.3223      3.3222      3.4843      3.7998    
  4.2409      4.7527      5.2564      5.6349      5.8025      5.7991      5.7466      5.7467      5.7993      5.8027    
  5.1112      4.6904      4.2408      3.8277      3.5046      3.3029      3.2349      3.3029      3.5046      3.8277    
  4.2409      4.6905      5.1113      5.4300      5.6006      5.6561      5.6639      5.6564      5.6009      5.4301    
  4.5109      4.1505      3.7998      3.5046      3.2965      3.1903      3.1904      3.2965      3.5046      3.7998    
  4.1506      4.5111      4.8330      5.0792      5.2282      5.2917      5.2918      5.2284      5.0793      4.8328    
  3.9806      3.7193      3.4844      3.3029      3.1903      3.1524      3.1903      3.3029      3.4844      3.7192    
  3.9807      4.2351      4.4518      4.6108      4.7055      4.7366      4.7056      4.6108      4.4516      4.2349    
  3.5954      3.4465      3.3223      3.2349      3.1904      3.1903      3.2349      3.3222      3.4465      3.5954    
  3.7511      3.8943      4.0096      4.0883      4.1277      4.1277      4.0883      4.0095      3.8942      3.7510    
  3.3956      3.3539      3.3222      3.3029      3.2965      3.3029      3.3222      3.3539      3.3956      3.4424    
  3.4882      3.5273      3.5561      3.5734      3.5790      3.5733      3.5560      3.5273      3.4882      3.4424    
  3.3956      3.4465      3.4843      3.5046      3.5046      3.4844      3.4465      3.3956      3.3372      3.2771    
  3.2210      3.1742      3.1407      3.1233      3.1233      3.1407      3.1742      3.2211      3.2771      3.3372    
  3.5955      3.7193      3.7998      3.8277      3.7998      3.7192      3.5954      3.4424      3.2771      3.1168    
  2.9773      2.8704      2.8038      2.7812      2.8038      2.8704      2.9773      3.1168      3.2770      3.4424    
  3.9807      4.1506      4.2409      4.2409      4.1506      3.9807      3.7511      3.4882      3.2210      2.9773    
  2.7790      2.6409      2.5705      2.5705      2.6410      2.7791      2.9773      3.2210      3.4882      3.7511    
  4.5110      4.6904      4.7527      4.6905      4.5111      4.2351      3.8943      3.5273      3.1742      2.8704    
  2.6409      2.4998      2.4523      2.4998      2.6409      2.8704      3.1743      3.5273      3.8943      4.2351    
  5.1113      5.2565      5.2564      5.1113      4.8330      4.4518      4.0096      3.5561      3.1407      2.8038    
  2.5705      2.4523      2.4523      2.5705      2.8037      3.1407      3.5561      4.0096      4.4518      4.8330    
  5.6350      5.7007      5.6349      5.4300      5.0792      4.6108      4.0883      3.5734      3.1233      2.7812    
  2.5705      2.4998      2.5705      2.7812      3.1233      3.5733      4.0883      4.6108      5.0793      5.4302    
  5.8793      5.8792      5.8025      5.6006      5.2282      4.7055      4.1277      3.5790      3.1233      2.8038    
  2.6410      2.6409      2.8037      3.1233      3.5790      4.1277      4.7054      5.2282      5.6007      5.8026    
  5.7879      5.8040      5.7991      5.6561      5.2917      4.7366      4.1277      3.5733      3.1407      2.8704    
  2.7791      2.8704      3.1407      3.5733      4.1277      4.7366      5.2917      5.6562      5.7991      5.8040    
  5.5015      5.6310      5.7466      5.6639      5.2918      4.7056      4.0883      3.5560      3.1742      2.9773    
  2.9773      3.1743      3.5561      4.0883      4.7054      5.2917      5.6639      5.7466      5.6311      5.5016    
  5.2657      5.5462      5.7467      5.6564      5.2284      4.6108      4.0095      3.5273      3.2211      3.1168    
  3.2210      3.5273      4.0096      4.6108      5.2282      5.6562      5.7466      5.5465      5.2660      5.1389    
  5.2659      5.6312      5.7993      5.6009      5.0793      4.4516      3.8942      3.4882      3.2771      3.2770    
  3.4882      3.8943      4.4518      5.0793      5.6007      5.7991      5.6311      5.2660      4.9805      4.9804    
  5.5018      5.8042      5.8027      5.4301      4.8328      4.2349      3.7510      3.4424      3.3372      3.4424    
  3.7511      4.2351      4.8330      5.4302      5.8026      5.8040      5.5016      5.1389      4.9804      5.1391    
  5.7838      5.4844      5.0092      4.4783      3.9846      3.5954      3.3512      3.2686      3.3512      3.5954    
  3.9847      4.4783      5.0092      5.4845      5.7839      5.8793      5.8551      5.8292      5.8552      5.8793    
  5.4844      5.0884      4.6128      4.1389      3.7342      3.4465      3.2991      3.2991      3.4465      3.7342    
  4.1389      4.6128      5.0884      5.4845      5.7203      5.8026      5.8086      5.8086      5.8025      5.7202    
  5.0092      4.6128      4.1928      3.8086      3.5089      3.3223      3.2593      3.3223      3.5090      3.8086    