 vasp.6.3.0 20Jan22 (build Feb 01 2022 16:52:37) complex                        
  
 executed on           TETRA_NSC1 date 2022.02.22  16:05:27
 running    4 mpi-ranks, with    1 threads/rank
 distrk:  each k-point on    4 cores,    1 groups
 distr:  one band on NCORE=   1 cores,    4 groups


--------------------------------------------------------------------------------------------------------


 INCAR:
   SYSTEM = fcc Si
   ISTART = 0
   ICHARG = 2
   ENCUT = 240
   ISMEAR = 0
   SIGMA = 0.1

 POTCAR:    PAW_PBE Si 05Jan2001                  
 POTCAR:    PAW_PBE Si 05Jan2001                  
   VRHFIN =Si: s2p2                                                                                 
   LEXCH  = PE                                                                                      
   EATOM  =   103.0669 eV,    7.5752 Ry                                                             
                                                                                                    
   TITEL  = PAW_PBE Si 05Jan2001                                                                    
   LULTRA =        F    use ultrasoft PP ?                                                          
   IUNSCR =        1    unscreen: 0-lin 1-nonlin 2-no                                               
   RPACOR =    1.500    partial core radius                                                         
   POMASS =   28.085; ZVAL   =    4.000    mass and valenz                                          
   RCORE  =    1.900    outmost cutoff radius                                                       
   RWIGS  =    2.480; RWIGS  =    1.312    wigner-seitz radius (au A)                               
   ENMAX  =  245.345; ENMIN  =  184.009 eV                                                          
   ICORE  =        2    local potential                                                             
   LCOR   =        T    correct aug charges                                                         
   LPAW   =        T    paw PP                                                                      
   EAUG   =  322.069                                                                                
   DEXC   =    0.000                                                                                
   RMAX   =    1.950    core radius for proj-oper                                                   
   RAUG   =    1.300    factor for augmentation sphere                                              
   RDEP   =    1.993    radius for radial grids                                                     
   RDEPT  =    1.837    core radius for aug-charge                                                  
                                                                                                    
   Atomic configuration                                                                             
    6 entries                                                                                       
     n  l   j            E        occ.                                                              
     1  0  0.50     -1785.8828   2.0000                                                             
     2  0  0.50      -139.4969   2.0000                                                             
     2  1  1.50       -95.5546   6.0000                                                             
     3  0  0.50       -10.8127   2.0000                                                             
     3  1  0.50        -4.0811   2.0000                                                             
     3  2  1.50        -4.0817   0.0000                                                             
   Description                                                                                      
     l       E           TYP  RCUT    TYP  RCUT                                                     
     0    -10.8127223     23  1.900                                                                 
     0     -7.6451159     23  1.900                                                                 
     1     -4.0811372     23  1.900                                                                 
     1      2.4879257     23  1.900                                                                 
     2     -4.0817478      7  1.900                                                                 
  local pseudopotential read in
  partial core-charges read in
  partial kinetic energy density read in
  atomic valenz-charges read in
  non local Contribution for L=           0  read in
    real space projection operators read in
  non local Contribution for L=           0  read in
    real space projection operators read in
  non local Contribution for L=           1  read in
    real space projection operators read in
  non local Contribution for L=           1  read in
    real space projection operators read in
    PAW grid and wavefunctions read in
 
   number of l-projection  operators is LMAX  =           4
   number of lm-projection operators is LMMAX =           8
 
  PAW_PBE Si 05Jan2001                  :
 energy of atom  1       EATOM= -103.0669
 kinetic energy error for atom=    0.0061 (will be added to EATOM!!)
 
 
 POSCAR: fcc Si
  positions in cartesian coordinates
  velocities in cartesian coordinates
  No initial velocities read in
 exchange correlation table for  LEXCH =        8
   RHO(1)=    0.500       N(1)  =     2000
   RHO(2)=  100.500       N(2)  =     4000
 


--------------------------------------------------------------------------------------------------------


 ion  position               nearest neighbor table
   1  0.000  0.000  0.000-
 
  LATTYP: Found a face centered cubic cell.
 ALAT       =     3.9000000000
  
  Lattice vectors:
  
 A1 = (   1.9500000000,   1.9500000000,   0.0000000000)
 A2 = (   0.0000000000,   1.9500000000,   1.9500000000)
 A3 = (   1.9500000000,   0.0000000000,   1.9500000000)


Analysis of symmetry for initial positions (statically):
=====================================================================
 Subroutine PRICEL returns:
 Original cell was already a primitive cell.
 

 Routine SETGRP: Setting up the symmetry group for a 
 face centered cubic supercell.


 Subroutine GETGRP returns: Found 48 space group operations
 (whereof 48 operations were pure point group operations)
 out of a pool of 48 trial point group operations.


The static configuration has the point symmetry O_h .


Analysis of symmetry for dynamics (positions and initial velocities):
=====================================================================
 Subroutine PRICEL returns:
 Original cell was already a primitive cell.
 

 Routine SETGRP: Setting up the symmetry group for a 
 face centered cubic supercell.


 Subroutine GETGRP returns: Found 48 space group operations
 (whereof 48 operations were pure point group operations)
 out of a pool of 48 trial point group operations.


The dynamic configuration has the point symmetry O_h .


 Subroutine INISYM returns: Found 48 space group operations
 (whereof 48 operations are pure point group operations),
 and found     1 'primitive' translations


----------------------------------------------------------------------------------------

                                     Primitive cell                                     

  volume of cell :      14.8297

  direct lattice vectors                    reciprocal lattice vectors
     1.950000000  1.950000000  0.000000000     0.256410256  0.256410256 -0.256410256
     0.000000000  1.950000000  1.950000000    -0.256410256  0.256410256  0.256410256
     1.950000000  0.000000000  1.950000000     0.256410256 -0.256410256  0.256410256

  length of vectors
     2.757716447  2.757716447  2.757716447     0.444115592  0.444115592  0.444115592

  position of ions in fractional coordinates (direct lattice)
     0.000000000  0.000000000  0.000000000

  ion indices of the primitive-cell ions
   primitive index   ion index
                 1           1

----------------------------------------------------------------------------------------

 
 
 KPOINTS: k-points                                

Automatic generation of k-mesh.
 Grid dimensions read from file:
 generate k-points for:   11   11   11

 Generating k-lattice:

  Cartesian coordinates                     Fractional coordinates (reciprocal lattice)
     0.023310023  0.023310023 -0.023310023     0.090909091 -0.000000000 -0.000000000
    -0.023310023  0.023310023  0.023310023    -0.000000000  0.090909091  0.000000000
     0.023310023 -0.023310023  0.023310023     0.000000000  0.000000000  0.090909091

  Length of vectors
     0.040374145  0.040374145  0.040374145

  Shift w.r.t. Gamma in fractional coordinates (k-lattice)
     0.000000000  0.000000000  0.000000000

 
 Subroutine IBZKPT returns following result:
 ===========================================
 
 Found     56 irreducible k-points:
 
 Following reciprocal coordinates:
            Coordinates               Weight
  0.000000  0.000000  0.000000      1.000000
  0.090909  0.000000  0.000000      8.000000
  0.181818 -0.000000  0.000000      8.000000
  0.272727 -0.000000  0.000000      8.000000
  0.363636 -0.000000 -0.000000      8.000000
  0.454545  0.000000 -0.000000      8.000000
  0.090909  0.090909  0.000000      6.000000
  0.181818  0.090909 -0.000000     24.000000
  0.272727  0.090909  0.000000     24.000000
  0.363636  0.090909  0.000000     24.000000
  0.454545  0.090909  0.000000     24.000000
 -0.454545  0.090909 -0.000000     24.000000
 -0.363636  0.090909 -0.000000     24.000000
 -0.272727  0.090909  0.000000     24.000000
 -0.181818  0.090909 -0.000000     24.000000
 -0.090909  0.090909 -0.000000     12.000000
  0.181818  0.181818 -0.000000      6.000000
  0.272727  0.181818 -0.000000     24.000000
  0.363636  0.181818  0.000000     24.000000
  0.454545  0.181818  0.000000     24.000000
 -0.454545  0.181818 -0.000000     24.000000
 -0.363636  0.181818 -0.000000     24.000000
 -0.272727  0.181818  0.000000     24.000000
 -0.181818  0.181818  0.000000     12.000000
  0.272727  0.272727 -0.000000      6.000000
  0.363636  0.272727  0.000000     24.000000
  0.454545  0.272727  0.000000     24.000000
 -0.454545  0.272727 -0.000000     24.000000
 -0.363636  0.272727 -0.000000     24.000000
 -0.272727  0.272727  0.000000     12.000000
  0.363636  0.363636  0.000000      6.000000
  0.454545  0.363636  0.000000     24.000000
 -0.454545  0.363636 -0.000000     24.000000
 -0.363636  0.363636  0.000000     12.000000
  0.454545  0.454545  0.000000      6.000000
 -0.454545  0.454545  0.000000     12.000000
  0.272727  0.181818  0.090909     24.000000
  0.363636  0.181818  0.090909     48.000000
  0.454545  0.181818  0.090909     48.000000
 -0.454545  0.181818  0.090909     48.000000
  0.363636  0.272727  0.090909     24.000000
  0.454545  0.272727  0.090909     48.000000
 -0.454545  0.272727  0.090909     48.000000
 -0.363636  0.272727  0.090909     48.000000
 -0.272727  0.272727  0.090909     48.000000
 -0.181818  0.272727  0.090909     24.000000
  0.454545  0.363636  0.090909     24.000000
 -0.454545  0.363636  0.090909     48.000000
 -0.363636  0.363636  0.090909     48.000000
 -0.272727  0.363636  0.090909     24.000000
 -0.454545  0.454545  0.090909     24.000000
 -0.363636  0.454545  0.090909     24.000000
 -0.454545  0.363636  0.181818     24.000000
 -0.363636  0.363636  0.181818     48.000000
 -0.363636  0.454545  0.181818     24.000000
 -0.272727  0.454545  0.181818     24.000000
 
 Following cartesian coordinates:
            Coordinates               Weight
  0.000000  0.000000  0.000000      1.000000
  0.090909  0.090909 -0.090909      8.000000
  0.181818  0.181818 -0.181818      8.000000
  0.272727  0.272727 -0.272727      8.000000
  0.363636  0.363636 -0.363636      8.000000
  0.454545  0.454545 -0.454545      8.000000
  0.000000  0.181818  0.000000      6.000000
  0.090909  0.272727 -0.090909     24.000000
  0.181818  0.363636 -0.181818     24.000000
  0.272727  0.454545 -0.272727     24.000000
  0.363636  0.545455 -0.363636     24.000000
 -0.545455 -0.363636  0.545455     24.000000
 -0.454545 -0.272727  0.454545     24.000000
 -0.363636 -0.181818  0.363636     24.000000
 -0.272727 -0.090909  0.272727     24.000000
 -0.181818  0.000000  0.181818     12.000000
  0.000000  0.363636 -0.000000      6.000000
  0.090909  0.454545 -0.090909     24.000000
  0.181818  0.545455 -0.181818     24.000000
  0.272727  0.636364 -0.272727     24.000000
 -0.636364 -0.272727  0.636364     24.000000
 -0.545455 -0.181818  0.545455     24.000000
 -0.454545 -0.090909  0.454545     24.000000
 -0.363636 -0.000000  0.363636     12.000000
  0.000000  0.545455 -0.000000      6.000000
  0.090909  0.636364 -0.090909     24.000000
  0.181818  0.727273 -0.181818     24.000000
 -0.727273 -0.181818  0.727273     24.000000
 -0.636364 -0.090909  0.636364     24.000000
 -0.545455 -0.000000  0.545455     12.000000
  0.000000  0.727273  0.000000      6.000000
  0.090909  0.818182 -0.090909     24.000000
 -0.818182 -0.090909  0.818182     24.000000
 -0.727273  0.000000  0.727273     12.000000
  0.000000  0.909091  0.000000      6.000000
 -0.909091 -0.000000  0.909091     12.000000
  0.181818  0.363636 -0.000000     24.000000
  0.272727  0.454545 -0.090909     48.000000
  0.363636  0.545455 -0.181818     48.000000
 -0.545455 -0.363636  0.727273     48.000000
  0.181818  0.545455  0.000000     24.000000
  0.272727  0.636364 -0.090909     48.000000
 -0.636364 -0.272727  0.818182     48.000000
 -0.545455 -0.181818  0.727273     48.000000
 -0.454545 -0.090909  0.636364     48.000000
 -0.363636 -0.000000  0.545455     24.000000
  0.181818  0.727273  0.000000     24.000000
 -0.727273 -0.181818  0.909091     48.000000
 -0.636364 -0.090909  0.818182     48.000000
 -0.545455  0.000000  0.727273     24.000000
 -0.818182 -0.090909  1.000000     24.000000
 -0.727273 -0.000000  0.909091     24.000000
 -0.636364 -0.272727  1.000000     24.000000
 -0.545455 -0.181818  0.909091     48.000000
 -0.636364 -0.090909  1.000000     24.000000
 -0.545455 -0.000000  0.909091     24.000000
 


--------------------------------------------------------------------------------------------------------




 Dimension of arrays:
   k-points           NKPTS =     56   k-points in BZ     NKDIM =     56   number of bands    NBANDS=      8
   number of dos      NEDOS =    301   number of ions     NIONS =      1
   non local maximal  LDIM  =      4   non local SUM 2l+1 LMDIM =      8
   total plane-waves  NPLWV =   1000
   max r-space proj   IRMAX =      1   max aug-charges    IRDMAX=   2454
   dimension x,y,z NGX =    10 NGY =   10 NGZ =   10
   dimension x,y,z NGXF=    20 NGYF=   20 NGZF=   20
   support grid    NGXF=    20 NGYF=   20 NGZF=   20
   ions per type =               1
   NGX,Y,Z   is equivalent  to a cutoff of   6.03,  6.03,  6.03 a.u.
   NGXF,Y,Z  is equivalent  to a cutoff of  12.06, 12.06, 12.06 a.u.

 SYSTEM =  fcc Si                                  
 POSCAR =  fcc Si                                  

 Startparameter for this run:
   NWRITE =      2    write-flag & timer
   PREC   = normal    normal or accurate (medium, high low for compatibility)
   ISTART =      0    job   : 0-new  1-cont  2-samecut
   ICHARG =      2    charge: 1-file 2-atom 10-const
   ISPIN  =      1    spin polarized calculation?
   LNONCOLLINEAR =      F non collinear calculations
   LSORBIT =      F    spin-orbit coupling
   INIWAV =      1    electr: 0-lowe 1-rand  2-diag
   LASPH  =      F    aspherical Exc in radial PAW
 Electronic Relaxation 1
   ENCUT  =  240.0 eV  17.64 Ry    4.20 a.u.   3.48  3.48  3.48*2*pi/ulx,y,z
   ENINI  =  240.0     initial cutoff
   ENAUG  =  322.1 eV  augmentation charge cutoff
   NELM   =     60;   NELMIN=  2; NELMDL= -5     # of ELM steps 
   EDIFF  = 0.1E-03   stopping-criterion for ELM
   LREAL  =      F    real-space projection
   NLSPLINE    = F    spline interpolate recip. space projectors
   LCOMPAT=      F    compatible to vasp.4.4
   GGA_COMPAT  = T    GGA compatible to vasp.4.4-vasp.4.6
   LMAXPAW     = -100 max onsite density
   LMAXMIX     =    2 max onsite mixed and CHGCAR
   VOSKOWN=      0    Vosko Wilk Nusair interpolation
   ROPT   =    0.00000
 Ionic relaxation
   EDIFFG = 0.1E-02   stopping-criterion for IOM
   NSW    =      0    number of steps for IOM
   NBLOCK =      1;   KBLOCK =      1    inner block; outer block 
   IBRION =     -1    ionic relax: 0-MD 1-quasi-New 2-CG
   NFREE  =      0    steps in history (QN), initial steepest desc. (CG)
   ISIF   =      2    stress and relaxation
   IWAVPR =     10    prediction:  0-non 1-charg 2-wave 3-comb
   ISYM   =      2    0-nonsym 1-usesym 2-fastsym
   LCORR  =      T    Harris-Foulkes like correction to forces

   POTIM  = 0.5000    time-step for ionic-motion
   TEIN   =    0.0    initial temperature
   TEBEG  =    0.0;   TEEND  =   0.0 temperature during run
   SMASS  =  -3.00    Nose mass-parameter (am)
   estimated Nose-frequenzy (Omega)   =  0.10E-29 period in steps = 0.13E+47 mass=  -0.174E-27a.u.
   SCALEE = 1.0000    scale energy and forces
   NPACO  =    256;   APACO  = 10.0  distance and # of slots for P.C.
   PSTRESS=    0.0 pullay stress

  Mass of Ions in am
   POMASS =  28.09
  Ionic Valenz
   ZVAL   =   4.00
  Atomic Wigner-Seitz radii
   RWIGS  =  -1.00
  virtual crystal weights 
   VCA    =   1.00
   NELECT =       4.0000    total number of electrons
   NUPDOWN=      -1.0000    fix difference up-down

 DOS related values:
   EMIN   =  10.00;   EMAX   =-10.00  energy-range for DOS
   EFERMI =   0.00
   ISMEAR =     0;   SIGMA  =   0.10  broadening in eV -4-tet -1-fermi 0-gaus

 Electronic relaxation 2 (details)
   IALGO  =     38    algorithm
   LDIAG  =      T    sub-space diagonalisation (order eigenvalues)
   LSUBROT=      F    optimize rotation matrix (better conditioning)
   TURBO    =      0    0=normal 1=particle mesh
   IRESTART =      0    0=no restart 2=restart with 2 vectors
   NREBOOT  =      0    no. of reboots
   NMIN     =      0    reboot dimension
   EREF     =   0.00    reference energy to select bands
   IMIX   =      4    mixing-type and parameters
     AMIX     =   0.40;   BMIX     =  1.00
     AMIX_MAG =   1.60;   BMIX_MAG =  1.00
     AMIN     =   0.10
     WC   =   100.;   INIMIX=   1;  MIXPRE=   1;  MAXMIX= -45

 Intra band minimization:
   WEIMIN = 0.0000     energy-eigenvalue tresh-hold
   EBREAK =  0.31E-05  absolut break condition
   DEPER  =   0.30     relativ break condition  

   TIME   =   0.40     timestep for ELM

  volume/ion in A,a.u.               =      14.83       100.08
  Fermi-wavevector in a.u.,A,eV,Ry     =   1.057751  1.998860 15.222711  1.118838
  Thomas-Fermi vector in A             =   2.193036
 
 Write flags
   LWAVE        =      T    write WAVECAR
   LDOWNSAMPLE  =      F    k-point downsampling of WAVECAR
   LCHARG       =      T    write CHGCAR
   LVTOT        =      F    write LOCPOT, total local potential
   LVHAR        =      F    write LOCPOT, Hartree potential only
   LELF         =      F    write electronic localiz. function (ELF)
   LORBIT       =      0    0 simple, 1 ext, 2 COOP (PROOUT), +10 PAW based schemes


 Dipole corrections
   LMONO  =      F    monopole corrections only (constant potential shift)
   LDIPOL =      F    correct potential (dipole corrections)
   IDIPOL =      0    1-x, 2-y, 3-z, 4-all directions 
   EPSILON=  1.0000000 bulk dielectric constant

 Exchange correlation treatment:
   GGA     =    --    GGA type
   LEXCH   =     8    internal setting for exchange type
   LIBXC   =     F    Libxc                    
   VOSKOWN =     0    Vosko Wilk Nusair interpolation
   LHFCALC =     F    Hartree Fock is set to
   LHFONE  =     F    Hartree Fock one center treatment
   AEXX    =    0.0000 exact exchange contribution

 Linear response parameters
   LEPSILON=     F    determine dielectric tensor
   LRPA    =     F    only Hartree local field effects (RPA)
   LNABLA  =     F    use nabla operator in PAW spheres
   LVEL    =     F    velocity operator in full k-point grid
   CSHIFT  =0.1000    complex shift for real part using Kramers Kronig
   OMEGAMAX=  -1.0    maximum frequency
   DEG_THRESHOLD= 0.2000000E-02 threshold for treating states as degnerate
   RTIME   =   -0.100 relaxation time in fs
  (WPLASMAI=    0.000 imaginary part of plasma frequency in eV, 0.658/RTIME)
   DFIELD  = 0.0000000 0.0000000 0.0000000 field for delta impulse in time
 
  Optional k-point grid parameters
   LKPOINTS_OPT  =     F    use optional k-point grid
   KPOINTS_OPT_MODE=     1    mode for optional k-point grid
 
 Orbital magnetization related:
   ORBITALMAG=     F  switch on orbital magnetization
   LCHIMAG   =     F  perturbation theory with respect to B field
   DQ        =  0.001000  dq finite difference perturbation B field
   LLRAUG    =     F  two centre corrections for induced B field



--------------------------------------------------------------------------------------------------------


 Static calculation
 charge density and potential will be updated during run
 non-spin polarized calculation
 Variant of blocked Davidson
 Davidson routine will perform the subspace rotation
 perform sub-space diagonalisation
    after iterative eigenvector-optimisation
 modified Broyden-mixing scheme, WC =      100.0
 initial mixing is a Kerker type mixing with AMIX =  0.4000 and BMIX =      1.0000
 Hartree-type preconditioning will be used
 using additional bands            6
 reciprocal scheme for non local part
 use partial core corrections
 calculate Harris-corrections to forces 
   (improved forces if not selfconsistent)
 use gradient corrections 
 use of overlap-Matrix (Vanderbilt PP)
 Gauss-broadening in eV      SIGMA  =   0.10


--------------------------------------------------------------------------------------------------------


  energy-cutoff  :      240.00
  volume of cell :       14.83
      direct lattice vectors                 reciprocal lattice vectors
     1.950000000  1.950000000  0.000000000     0.256410256  0.256410256 -0.256410256
     0.000000000  1.950000000  1.950000000    -0.256410256  0.256410256  0.256410256
     1.950000000  0.000000000  1.950000000     0.256410256 -0.256410256  0.256410256

  length of vectors
     2.757716447  2.757716447  2.757716447     0.444115592  0.444115592  0.444115592


 
 k-points in units of 2pi/SCALE and weight: k-points                                
   0.00000000  0.00000000  0.00000000       0.001
   0.09090909  0.09090909 -0.09090909       0.006
   0.18181818  0.18181818 -0.18181818       0.006
   0.27272727  0.27272727 -0.27272727       0.006
   0.36363636  0.36363636 -0.36363636       0.006
   0.45454545  0.45454545 -0.45454545       0.006
   0.00000000  0.18181818  0.00000000       0.005
   0.09090909  0.27272727 -0.09090909       0.018
   0.18181818  0.36363636 -0.18181818       0.018
   0.27272727  0.45454545 -0.27272727       0.018
   0.36363636  0.54545455 -0.36363636       0.018
  -0.54545455 -0.36363636  0.54545455       0.018
  -0.45454545 -0.27272727  0.45454545       0.018
  -0.36363636 -0.18181818  0.36363636       0.018
  -0.27272727 -0.09090909  0.27272727       0.018
  -0.18181818  0.00000000  0.18181818       0.009
   0.00000000  0.36363636 -0.00000000       0.005
   0.09090909  0.45454545 -0.09090909       0.018
   0.18181818  0.54545455 -0.18181818       0.018
   0.27272727  0.63636364 -0.27272727       0.018
  -0.63636364 -0.27272727  0.63636364       0.018
  -0.54545455 -0.18181818  0.54545455       0.018
  -0.45454545 -0.09090909  0.45454545       0.018
  -0.36363636 -0.00000000  0.36363636       0.009
   0.00000000  0.54545455 -0.00000000       0.005
   0.09090909  0.63636364 -0.09090909       0.018
   0.18181818  0.72727273 -0.18181818       0.018
  -0.72727273 -0.18181818  0.72727273       0.018
  -0.63636364 -0.09090909  0.63636364       0.018
  -0.54545455 -0.00000000  0.54545455       0.009
   0.00000000  0.72727273  0.00000000       0.005
   0.09090909  0.81818182 -0.09090909       0.018
  -0.81818182 -0.09090909  0.81818182       0.018
  -0.72727273  0.00000000  0.72727273       0.009
   0.00000000  0.90909091  0.00000000       0.005
  -0.90909091 -0.00000000  0.90909091       0.009
   0.18181818  0.36363636 -0.00000000       0.018
   0.27272727  0.45454545 -0.09090909       0.036
   0.36363636  0.54545455 -0.18181818       0.036
  -0.54545455 -0.36363636  0.72727273       0.036
   0.18181818  0.54545455  0.00000000       0.018
   0.27272727  0.63636364 -0.09090909       0.036
  -0.63636364 -0.27272727  0.81818182       0.036
  -0.54545455 -0.18181818  0.72727273       0.036
  -0.45454545 -0.09090909  0.63636364       0.036
  -0.36363636 -0.00000000  0.54545455       0.018
   0.18181818  0.72727273  0.00000000       0.018
  -0.72727273 -0.18181818  0.90909091       0.036
  -0.63636364 -0.09090909  0.81818182       0.036
  -0.54545455  0.00000000  0.72727273       0.018
  -0.81818182 -0.09090909  1.00000000       0.018
  -0.72727273 -0.00000000  0.90909091       0.018
  -0.63636364 -0.27272727  1.00000000       0.018
  -0.54545455 -0.18181818  0.90909091       0.036
  -0.63636364 -0.09090909  1.00000000       0.018
  -0.54545455 -0.00000000  0.90909091       0.018
 
 k-points in reciprocal lattice and weights: k-points                                
   0.00000000  0.00000000  0.00000000       0.001
   0.09090909  0.00000000  0.00000000       0.006
   0.18181818 -0.00000000  0.00000000       0.006
   0.27272727 -0.00000000  0.00000000       0.006
   0.36363636 -0.00000000 -0.00000000       0.006
   0.45454545  0.00000000 -0.00000000       0.006
   0.09090909  0.09090909  0.00000000       0.005
   0.18181818  0.09090909 -0.00000000       0.018
   0.27272727  0.09090909  0.00000000       0.018
   0.36363636  0.09090909  0.00000000       0.018
   0.45454545  0.09090909  0.00000000       0.018
  -0.45454545  0.09090909 -0.00000000       0.018
  -0.36363636  0.09090909 -0.00000000       0.018
  -0.27272727  0.09090909  0.00000000       0.018
  -0.18181818  0.09090909 -0.00000000       0.018
  -0.09090909  0.09090909 -0.00000000       0.009
   0.18181818  0.18181818 -0.00000000       0.005
   0.27272727  0.18181818 -0.00000000       0.018
   0.36363636  0.18181818  0.00000000       0.018
   0.45454545  0.18181818  0.00000000       0.018
  -0.45454545  0.18181818 -0.00000000       0.018
  -0.36363636  0.18181818 -0.00000000       0.018
  -0.27272727  0.18181818  0.00000000       0.018
  -0.18181818  0.18181818  0.00000000       0.009
   0.27272727  0.27272727 -0.00000000       0.005
   0.36363636  0.27272727  0.00000000       0.018
   0.45454545  0.27272727  0.00000000       0.018
  -0.45454545  0.27272727 -0.00000000       0.018
  -0.36363636  0.27272727 -0.00000000       0.018
  -0.27272727  0.27272727  0.00000000       0.009
   0.36363636  0.36363636  0.00000000       0.005
   0.45454545  0.36363636  0.00000000       0.018
  -0.45454545  0.36363636 -0.00000000       0.018
  -0.36363636  0.36363636  0.00000000       0.009
   0.45454545  0.45454545  0.00000000       0.005
  -0.45454545  0.45454545  0.00000000       0.009
   0.27272727  0.18181818  0.09090909       0.018
   0.36363636  0.18181818  0.09090909       0.036
   0.45454545  0.18181818  0.09090909       0.036
  -0.45454545  0.18181818  0.09090909       0.036
   0.36363636  0.27272727  0.09090909       0.018
   0.45454545  0.27272727  0.09090909       0.036
  -0.45454545  0.27272727  0.09090909       0.036
  -0.36363636  0.27272727  0.09090909       0.036
  -0.27272727  0.27272727  0.09090909       0.036
  -0.18181818  0.27272727  0.09090909       0.018
   0.45454545  0.36363636  0.09090909       0.018
  -0.45454545  0.36363636  0.09090909       0.036
  -0.36363636  0.36363636  0.09090909       0.036
  -0.27272727  0.36363636  0.09090909       0.018
  -0.45454545  0.45454545  0.09090909       0.018
  -0.36363636  0.45454545  0.09090909       0.018
  -0.45454545  0.36363636  0.18181818       0.018
  -0.36363636  0.36363636  0.18181818       0.036
  -0.36363636  0.45454545  0.18181818       0.018
  -0.27272727  0.45454545  0.18181818       0.018
 
 position of ions in fractional coordinates (direct lattice) 
   0.00000000  0.00000000  0.00000000
 
 position of ions in cartesian coordinates  (Angst):
   0.00000000  0.00000000  0.00000000
 


--------------------------------------------------------------------------------------------------------


 k-point   1 :   0.0000 0.0000 0.0000  plane waves:     137
 k-point   2 :   0.0909 0.0000 0.0000  plane waves:     128
 k-point   3 :   0.1818-0.0000 0.0000  plane waves:     129
 k-point   4 :   0.2727-0.0000 0.0000  plane waves:     132
 k-point   5 :   0.3636-0.0000-0.0000  plane waves:     123
 k-point   6 :   0.4545 0.0000-0.0000  plane waves:     123
 k-point   7 :   0.0909 0.0909 0.0000  plane waves:     125
 k-point   8 :   0.1818 0.0909-0.0000  plane waves:     128
 k-point   9 :   0.2727 0.0909 0.0000  plane waves:     129
 k-point  10 :   0.3636 0.0909 0.0000  plane waves:     130
 k-point  11 :   0.4545 0.0909 0.0000  plane waves:     123
 k-point  12 :  -0.4545 0.0909-0.0000  plane waves:     129
 k-point  13 :  -0.3636 0.0909-0.0000  plane waves:     124
 k-point  14 :  -0.2727 0.0909 0.0000  plane waves:     132
 k-point  15 :  -0.1818 0.0909-0.0000  plane waves:     130
 k-point  16 :  -0.0909 0.0909-0.0000  plane waves:     127
 k-point  17 :   0.1818 0.1818-0.0000  plane waves:     129
 k-point  18 :   0.2727 0.1818-0.0000  plane waves:     130
 k-point  19 :   0.3636 0.1818 0.0000  plane waves:     130
 k-point  20 :   0.4545 0.1818 0.0000  plane waves:     126
 k-point  21 :  -0.4545 0.1818-0.0000  plane waves:     125
 k-point  22 :  -0.3636 0.1818-0.0000  plane waves:     129
 k-point  23 :  -0.2727 0.1818 0.0000  plane waves:     129
 k-point  24 :  -0.1818 0.1818 0.0000  plane waves:     131
 k-point  25 :   0.2727 0.2727-0.0000  plane waves:     129
 k-point  26 :   0.3636 0.2727 0.0000  plane waves:     128
 k-point  27 :   0.4545 0.2727 0.0000  plane waves:     124
 k-point  28 :  -0.4545 0.2727-0.0000  plane waves:     125
 k-point  29 :  -0.3636 0.2727-0.0000  plane waves:     124
 k-point  30 :  -0.2727 0.2727 0.0000  plane waves:     126
 k-point  31 :   0.3636 0.3636 0.0000  plane waves:     129
 k-point  32 :   0.4545 0.3636 0.0000  plane waves:     123
 k-point  33 :  -0.4545 0.3636-0.0000  plane waves:     124
 k-point  34 :  -0.3636 0.3636 0.0000  plane waves:     122
 k-point  35 :   0.4545 0.4545 0.0000  plane waves:     117
 k-point  36 :  -0.4545 0.4545 0.0000  plane waves:     116
 k-point  37 :   0.2727 0.1818 0.0909  plane waves:     133
 k-point  38 :   0.3636 0.1818 0.0909  plane waves:     128
 k-point  39 :   0.4545 0.1818 0.0909  plane waves:     127
 k-point  40 :  -0.4545 0.1818 0.0909  plane waves:     124
 k-point  41 :   0.3636 0.2727 0.0909  plane waves:     128
 k-point  42 :   0.4545 0.2727 0.0909  plane waves:     124
 k-point  43 :  -0.4545 0.2727 0.0909  plane waves:     122
 k-point  44 :  -0.3636 0.2727 0.0909  plane waves:     124
 k-point  45 :  -0.2727 0.2727 0.0909  plane waves:     126
 k-point  46 :  -0.1818 0.2727 0.0909  plane waves:     127
 k-point  47 :   0.4545 0.3636 0.0909  plane waves:     122
 k-point  48 :  -0.4545 0.3636 0.0909  plane waves:     124
 k-point  49 :  -0.3636 0.3636 0.0909  plane waves:     123
 k-point  50 :  -0.2727 0.3636 0.0909  plane waves:     123
 k-point  51 :  -0.4545 0.4545 0.0909  plane waves:     123
 k-point  52 :  -0.3636 0.4545 0.0909  plane waves:     122
 k-point  53 :  -0.4545 0.3636 0.1818  plane waves:     123
 k-point  54 :  -0.3636 0.3636 0.1818  plane waves:     120
 k-point  55 :  -0.3636 0.4545 0.1818  plane waves:     121
 k-point  56 :  -0.2727 0.4545 0.1818  plane waves:     116

 maximum and minimum number of plane-waves per node :       137      116

 maximum number of plane-waves:       137
 maximum index in each direction: 
   IXMAX=    3   IYMAX=    3   IZMAX=    3
   IXMIN=   -3   IYMIN=   -3   IZMIN=   -3


 serial   3D FFT for wavefunctions
 parallel 3D FFT for charge:
    minimum data exchange during FFTs selected (reduces bandwidth)


 total amount of memory used by VASP MPI-rank0    30987. kBytes
=======================================================================

   base      :      30000. kBytes
   nonl-proj :        504. kBytes
   fftplans  :         71. kBytes
   grid      :        144. kBytes
   one-center:          3. kBytes
   wavefun   :        265. kBytes
 
     INWAV:  cpu time      0.0000: real time      0.0000
 Broyden mixing: mesh for mixing (old mesh)
   NGX =  7   NGY =  7   NGZ =  7
  (NGX  = 20   NGY  = 20   NGZ  = 20)
  gives a total of    343 points

 initial charge density was supplied:
 charge density of overlapping atoms calculated
 number of electron       4.0000000 magnetization 
 keeping initial charge density in first step


--------------------------------------------------------------------------------------------------------


 Maximum index for augmentation-charges          535 (set IRDMAX)


--------------------------------------------------------------------------------------------------------


 First call to EWALD:  gamma=   0.721
 Maximum number of real-space cells 3x 3x 3
 Maximum number of reciprocal cells 3x 3x 3

    FEWALD:  cpu time      0.0010: real time      0.0010


--------------------------------------- Iteration      1(   1)  ---------------------------------------


    POTLOK:  cpu time      0.0011: real time      0.0013
    SETDIJ:  cpu time      0.0009: real time      0.0010
     EDDAV:  cpu time      0.0375: real time      0.0376
       DOS:  cpu time      0.0004: real time      0.0004
    --------------------------------------------
      LOOP:  cpu time      0.0399: real time      0.0403

 eigenvalue-minimisations  :  1040
 total energy-change (2. order) :-0.4164499E+01  (-0.1152791E+03)
 number of electron       4.0000000 magnetization 
 augmentation part        4.0000000 magnetization 

 Free energy of the ion-electron system (eV)
  ---------------------------------------------------
  alpha Z        PSCENC =         2.26997291
  Ewald energy   TEWEN  =      -135.42777035
  -Hartree energ DENC   =        -0.65300112
  -exchange      EXHF   =         0.00000000
  -V(xc)+E(xc)   XCENC  =        -8.87078640
  PAW double counting   =        88.12379961      -70.53051779
  entropy T*S    EENTRO =        -0.00280669
  eigenvalues    EBANDS =        17.86583424
  atomic energy  EATOM  =       103.06077658
  Solvation  Ediel_sol  =         0.00000000
  ---------------------------------------------------
  free energy    TOTEN  =        -4.16449900 eV

  energy without entropy =       -4.16169231  energy(sigma->0) =       -4.16309566


--------------------------------------------------------------------------------------------------------




--------------------------------------- Iteration      1(   2)  ---------------------------------------


     EDDAV:  cpu time      0.0517: real time      0.0519
       DOS:  cpu time      0.0003: real time      0.0003
    --------------------------------------------
      LOOP:  cpu time      0.0520: real time      0.0522

 eigenvalue-minimisations  :  1416
 total energy-change (2. order) :-0.7303123E+00  (-0.6970732E+00)
 number of electron       4.0000000 magnetization 
 augmentation part        4.0000000 magnetization 

 Free energy of the ion-electron system (eV)
  ---------------------------------------------------
  alpha Z        PSCENC =         2.26997291
  Ewald energy   TEWEN  =      -135.42777035
  -Hartree energ DENC   =        -0.65300112
  -exchange      EXHF   =         0.00000000
  -V(xc)+E(xc)   XCENC  =        -8.87078640
  PAW double counting   =        88.12379961      -70.53051779
  entropy T*S    EENTRO =        -0.00299113
  eigenvalues    EBANDS =        17.13570641
  atomic energy  EATOM  =       103.06077658
  Solvation  Ediel_sol  =         0.00000000
  ---------------------------------------------------
  free energy    TOTEN  =        -4.89481127 eV

  energy without entropy =       -4.89182014  energy(sigma->0) =       -4.89331571


--------------------------------------------------------------------------------------------------------




--------------------------------------- Iteration      1(   3)  ---------------------------------------


     EDDAV:  cpu time      0.0311: real time      0.0312
       DOS:  cpu time      0.0003: real time      0.0003
    --------------------------------------------
      LOOP:  cpu time      0.0314: real time      0.0315

 eigenvalue-minimisations  :   968
 total energy-change (2. order) :-0.2730250E-02  (-0.2726608E-02)
 number of electron       4.0000000 magnetization 
 augmentation part        4.0000000 magnetization 

 Free energy of the ion-electron system (eV)
  ---------------------------------------------------
  alpha Z        PSCENC =         2.26997291
  Ewald energy   TEWEN  =      -135.42777035
  -Hartree energ DENC   =        -0.65300112
  -exchange      EXHF   =         0.00000000
  -V(xc)+E(xc)   XCENC  =        -8.87078640
  PAW double counting   =        88.12379961      -70.53051779
  entropy T*S    EENTRO =        -0.00296617
  eigenvalues    EBANDS =        17.13295120
  atomic energy  EATOM  =       103.06077658
  Solvation  Ediel_sol  =         0.00000000
  ---------------------------------------------------
  free energy    TOTEN  =        -4.89754152 eV

  energy without entropy =       -4.89457535  energy(sigma->0) =       -4.89605844


--------------------------------------------------------------------------------------------------------




--------------------------------------- Iteration      1(   4)  ---------------------------------------


     EDDAV:  cpu time      0.0528: real time      0.0529
       DOS:  cpu time      0.0003: real time      0.0003
    --------------------------------------------
      LOOP:  cpu time      0.0530: real time      0.0532

 eigenvalue-minimisations  :  1488
 total energy-change (2. order) :-0.1093736E-05  (-0.1093210E-05)
 number of electron       4.0000000 magnetization 
 augmentation part        4.0000000 magnetization 

 Free energy of the ion-electron system (eV)
  ---------------------------------------------------
  alpha Z        PSCENC =         2.26997291
  Ewald energy   TEWEN  =      -135.42777035
  -Hartree energ DENC   =        -0.65300112
  -exchange      EXHF   =         0.00000000
  -V(xc)+E(xc)   XCENC  =        -8.87078640
  PAW double counting   =        88.12379961      -70.53051779
  entropy T*S    EENTRO =        -0.00296616
  eigenvalues    EBANDS =        17.13295009
  atomic energy  EATOM  =       103.06077658
  Solvation  Ediel_sol  =         0.00000000
  ---------------------------------------------------
  free energy    TOTEN  =        -4.89754262 eV

  energy without entropy =       -4.89457646  energy(sigma->0) =       -4.89605954


--------------------------------------------------------------------------------------------------------




--------------------------------------- Iteration      1(   5)  ---------------------------------------


     EDDAV:  cpu time      0.0275: real time      0.0276
       DOS:  cpu time      0.0003: real time      0.0003
    CHARGE:  cpu time      0.0008: real time      0.0008
    MIXING:  cpu time      0.0002: real time      0.0002
    --------------------------------------------
      LOOP:  cpu time      0.0287: real time      0.0288

 eigenvalue-minimisations  :   864
 total energy-change (2. order) : 0.8072618E-09  (-0.1296234E-09)
 number of electron       4.0000010 magnetization 
 augmentation part       -0.2422207 magnetization 

 Broyden mixing:
  rms(total) = 0.29456E+00    rms(broyden)= 0.29455E+00
  rms(prec ) = 0.41583E+00
  weight for this iteration     100.00

 Free energy of the ion-electron system (eV)
  ---------------------------------------------------
  alpha Z        PSCENC =         2.26997291
  Ewald energy   TEWEN  =      -135.42777035
  -Hartree energ DENC   =        -0.65300112
  -exchange      EXHF   =         0.00000000
  -V(xc)+E(xc)   XCENC  =        -8.87078640
  PAW double counting   =        88.12379961      -70.53051779
  entropy T*S    EENTRO =        -0.00296616
  eigenvalues    EBANDS =        17.13295009
  atomic energy  EATOM  =       103.06077658
  Solvation  Ediel_sol  =         0.00000000
  ---------------------------------------------------
  free energy    TOTEN  =        -4.89754262 eV

  energy without entropy =       -4.89457646  energy(sigma->0) =       -4.89605954


--------------------------------------------------------------------------------------------------------




--------------------------------------- Iteration      1(   6)  ---------------------------------------


    POTLOK:  cpu time      0.0010: real time      0.0010
    SETDIJ:  cpu time      0.0007: real time      0.0007
     EDDAV:  cpu time      0.0324: real time      0.0325
       DOS:  cpu time      0.0003: real time      0.0003
    CHARGE:  cpu time      0.0005: real time      0.0006
    MIXING:  cpu time      0.0002: real time      0.0002
    --------------------------------------------
      LOOP:  cpu time      0.0351: real time      0.0352

 eigenvalue-minimisations  :  1024
 total energy-change (2. order) : 0.1283139E-01  (-0.4080373E-03)
 number of electron       4.0000010 magnetization 
 augmentation part       -0.2444803 magnetization 

 Broyden mixing:
  rms(total) = 0.16287E+00    rms(broyden)= 0.16287E+00
  rms(prec ) = 0.23894E+00
  weight for this iteration     100.00

 eigenvalues of (default mixing * dielectric matrix)
  average eigenvalue GAMMA=   2.2262
  2.2262

 Free energy of the ion-electron system (eV)
  ---------------------------------------------------
  alpha Z        PSCENC =         2.26997291
  Ewald energy   TEWEN  =      -135.42777035
  -Hartree energ DENC   =        -0.57109310
  -exchange      EXHF   =         0.00000000
  -V(xc)+E(xc)   XCENC  =        -8.85222927
  PAW double counting   =       179.81167967     -162.21687009
  entropy T*S    EENTRO =        -0.00301583
  eigenvalues    EBANDS =        17.04383825
  atomic energy  EATOM  =       103.06077658
  Solvation  Ediel_sol  =         0.00000000
  ---------------------------------------------------
  free energy    TOTEN  =        -4.88471122 eV

  energy without entropy =       -4.88169540  energy(sigma->0) =       -4.88320331


--------------------------------------------------------------------------------------------------------




--------------------------------------- Iteration      1(   7)  ---------------------------------------


    POTLOK:  cpu time      0.0009: real time      0.0010
    SETDIJ:  cpu time      0.0006: real time      0.0006
     EDDAV:  cpu time      0.0332: real time      0.0333
       DOS:  cpu time      0.0003: real time      0.0003
    CHARGE:  cpu time      0.0006: real time      0.0006
    MIXING:  cpu time      0.0001: real time      0.0001
    --------------------------------------------
      LOOP:  cpu time      0.0357: real time      0.0358

 eigenvalue-minimisations  :  1056
 total energy-change (2. order) : 0.7259138E-02  (-0.7976324E-03)
 number of electron       4.0000011 magnetization 
 augmentation part       -0.2477185 magnetization 

 Broyden mixing:
  rms(total) = 0.13123E-01    rms(broyden)= 0.13123E-01
  rms(prec ) = 0.17664E-01
  weight for this iteration     100.00

 eigenvalues of (default mixing * dielectric matrix)
  average eigenvalue GAMMA=   2.4041
  2.4041  2.4041

 Free energy of the ion-electron system (eV)
  ---------------------------------------------------
  alpha Z        PSCENC =         2.26997291
  Ewald energy   TEWEN  =      -135.42777035
  -Hartree energ DENC   =        -0.48342700
  -exchange      EXHF   =         0.00000000
  -V(xc)+E(xc)   XCENC  =        -8.82250340
  PAW double counting   =       358.31389417     -340.72132055
  entropy T*S    EENTRO =        -0.00306045
  eigenvalues    EBANDS =        16.93598602
  atomic energy  EATOM  =       103.06077658
  Solvation  Ediel_sol  =         0.00000000
  ---------------------------------------------------
  free energy    TOTEN  =        -4.87745208 eV

  energy without entropy =       -4.87439163  energy(sigma->0) =       -4.87592186


--------------------------------------------------------------------------------------------------------




--------------------------------------- Iteration      1(   8)  ---------------------------------------


    POTLOK:  cpu time      0.0009: real time      0.0010
    SETDIJ:  cpu time      0.0006: real time      0.0006
     EDDAV:  cpu time      0.0357: real time      0.0358
       DOS:  cpu time      0.0003: real time      0.0003
    --------------------------------------------
      LOOP:  cpu time      0.0375: real time      0.0376

 eigenvalue-minimisations  :  1040
 total energy-change (2. order) : 0.3768758E-04  (-0.2257935E-05)
 number of electron       4.0000011 magnetization 
 augmentation part       -0.2477185 magnetization 

 Free energy of the ion-electron system (eV)
  ---------------------------------------------------
  alpha Z        PSCENC =         2.26997291
  Ewald energy   TEWEN  =      -135.42777035
  -Hartree energ DENC   =        -0.48461589
  -exchange      EXHF   =         0.00000000
  -V(xc)+E(xc)   XCENC  =        -8.81864924
  PAW double counting   =       345.30214245     -327.71629437
  entropy T*S    EENTRO =        -0.00306173
  eigenvalues    EBANDS =        16.94008526
  atomic energy  EATOM  =       103.06077658
  Solvation  Ediel_sol  =         0.00000000
  ---------------------------------------------------
  free energy    TOTEN  =        -4.87741440 eV

  energy without entropy =       -4.87435267  energy(sigma->0) =       -4.87588353


--------------------------------------------------------------------------------------------------------




 average (electrostatic) potential at core
  the test charge radii are     0.9892
  (the norm of the test charge is              1.0000)
       1 -80.2423
 
 
 
 E-fermi :   9.6718     XC(G=0): -11.0971     alpha+bet :-16.1732

 Fermi energy:         9.6717957949

 k-point     1 :       0.0000    0.0000    0.0000
  band No.  band energies     occupation 
      1      -4.3794      2.00000
      2      20.6935      0.00000
      3      20.6937      0.00000
      4      20.6937      0.00000
      5      21.7695      0.00000
      6      21.7697      0.00000
      7      21.7697      0.00000
      8      26.9751      0.00000

 k-point     2 :       0.0909    0.0000    0.0000
  band No.  band energies     occupation 
      1      -4.1425      2.00000
      2      17.7223      0.00000
      3      19.8419      0.00000
      4      19.8420      0.00000
      5      22.8565      0.00000
      6      22.9267      0.00000
      7      22.9269      0.00000
      8      27.6153      0.00000

 k-point     3 :       0.1818   -0.0000    0.0000
  band No.  band energies     occupation 
      1      -3.4343      2.00000
      2      13.9048      0.00000
      3      18.9570      0.00000
      4      18.9571      0.00000
      5      22.8958      0.00000
      6      23.9067      0.00000
      7      23.9074      0.00000
      8      26.7555      0.00000

 k-point     4 :       0.2727   -0.0000    0.0000
  band No.  band energies     occupation 
      1      -2.2602      2.00000
      2      10.2617      0.00000
      3      18.4121      0.00000
      4      18.4122      0.00000
      5      22.7573      0.00000
      6      22.8839      0.00000
      7      22.8846      0.00000
      8      28.0300      0.00000

 k-point     5 :       0.3636   -0.0000   -0.0000
  band No.  band energies     occupation 
      1      -0.6285      2.00000
      2       6.9520      2.00000
      3      18.1941      0.00000
      4      18.1943      0.00000
      5      21.6164      0.00000
      6      21.6169      0.00000
      7      22.8079      0.00000
      8      26.5663      0.00000

 k-point     6 :       0.4545    0.0000   -0.0000
  band No.  band energies     occupation 
      1       1.4223      2.00000
      2       4.0514      2.00000
      3      18.1807      0.00000
      4      18.1808      0.00000
      5      20.8406      0.00000
      6      20.8412      0.00000
      7      22.9428      0.00000
      8      25.6544      0.00000

 k-point     7 :       0.0909    0.0909    0.0000
  band No.  band energies     occupation 
      1      -4.0636      2.00000
      2      18.5168      0.00000
      3      18.5169      0.00000
      4      19.9691      0.00000
      5      20.3093      0.00000
      6      24.3895      0.00000
      7      24.3895      0.00000
      8      25.7288      0.00000

 k-point     8 :       0.1818    0.0909   -0.0000
  band No.  band energies     occupation 
      1      -3.5127      2.00000
      2      15.3233      0.00000
      3      17.5015      0.00000
      4      19.1796      0.00000
      5      21.0332      0.00000
      6      23.8149      0.00000
      7      25.1690      0.00000
      8      25.7637      0.00000

 k-point     9 :       0.2727    0.0909    0.0000
  band No.  band energies     occupation 
      1      -2.4940      2.00000
      2      11.6282      0.00000
      3      16.8718      0.00000
      4      18.3733      0.00000
      5      20.7530      0.00000
      6      24.0093      0.00000
      7      25.2957      0.00000
      8      25.6495      0.00000

 k-point    10 :       0.3636    0.0909    0.0000
  band No.  band energies     occupation 
      1      -1.0151      2.00000
      2       8.2069      2.00000
      3      16.6408      0.00000
      4      17.5776      0.00000
      5      19.8177      0.00000
      6      23.9165      0.00000
      7      24.4260      0.00000
      8      27.5334      0.00000

 k-point    11 :       0.4545    0.0909    0.0000
  band No.  band energies     occupation 
      1       0.9050      2.00000
      2       5.1628      2.00000
      3      16.6956      0.00000
      4      16.7999      0.00000
      5      19.6439      0.00000
      6      22.7542      0.00000
      7      24.4795      0.00000
      8      27.6754      0.00000

 k-point    12 :      -0.4545    0.0909   -0.0000
  band No.  band energies     occupation 
      1       2.3341      2.00000
      2       3.4501      2.00000
      3      15.9526      0.00000
      4      17.3199      0.00000
      5      20.1236      0.00000
      6      21.9594      0.00000
      7      24.3225      0.00000
      8      27.5831      0.00000

 k-point    13 :      -0.3636    0.0909   -0.0000
  band No.  band energies     occupation 
      1       0.2189      2.00000
      2       6.1308      2.00000
      3      15.5311      0.00000
      4      18.1501      0.00000
      5      21.1307      0.00000
      6      21.6984      0.00000
      7      24.0857      0.00000
      8      28.2304      0.00000

 k-point    14 :      -0.2727    0.0909    0.0000
  band No.  band energies     occupation 
      1      -1.5586      2.00000
      2       9.3075      2.00000
      3      15.4910      0.00000
      4      19.1326      0.00000
      5      22.0235      0.00000
      6      22.5177      0.00000
      7      23.9148      0.00000
      8      27.4915      0.00000

 k-point    15 :      -0.1818    0.0909   -0.0000
  band No.  band energies     occupation 
      1      -2.8852      2.00000
      2      12.8322      0.00000
      3      15.8633      0.00000
      4      20.0919      0.00000
      5      22.8321      0.00000
      6      23.8293      0.00000
      7      24.1421      0.00000
      8      25.2585      0.00000

 k-point    16 :      -0.0909    0.0909   -0.0000
  band No.  band energies     occupation 
      1      -3.7487      2.00000
      2      16.4386      0.00000
      3      16.7658      0.00000
      4      20.7630      0.00000
      5      22.4062      0.00000
      6      23.4486      0.00000
      7      24.6389      0.00000
      8      25.6784      0.00000

 k-point    17 :       0.1818    0.1818   -0.0000
  band No.  band energies     occupation 
      1      -3.1199      2.00000
      2      16.3534      0.00000
      3      16.3535      0.00000
      4      18.0564      0.00000
      5      18.0975      0.00000
      6      21.3014      0.00000
      7      27.6356      0.00000
      8      27.6356      0.00000

 k-point    18 :       0.2727    0.1818   -0.0000
  band No.  band energies     occupation 
      1      -2.2589      2.00000
      2      13.3402      0.00000
      3      15.5959      0.00000
      4      16.7339      0.00000
      5      18.3814      0.00000
      6      20.7674      0.00000
      7      28.0506      0.00000
      8      28.4618      0.00000

 k-point    19 :       0.3636    0.1818    0.0000
  band No.  band energies     occupation 
      1      -0.9359      2.00000
      2       9.8752      0.00403
      3      15.2408      0.00000
      4      15.2408      0.00000
      5      18.0241      0.00000
      6      22.8811      0.00000
      7      26.8218      0.00000
      8      28.5545      0.00000

 k-point    20 :       0.4545    0.1818    0.0000
  band No.  band energies     occupation 
      1       0.8365      2.00000
      2       6.7202      2.00000
      3      13.8860      0.00000
      4      15.2968      0.00000
      5      18.0238      0.00000
      6      25.3825      0.00000
      7      25.5681      0.00000
      8      28.6493      0.00000

 k-point    21 :      -0.4545    0.1818   -0.0000
  band No.  band energies     occupation 
      1       2.9512      2.00000
      2       4.0452      2.00000
      3      12.8633      0.00000
      4      15.7548      0.00000
      5      18.5101      0.00000
      6      24.6352      0.00000
      7      26.5852      0.00000
      8      29.9521      0.00000

 k-point    22 :      -0.3636    0.1818   -0.0000
  band No.  band energies     occupation 
      1       1.5198      2.00000
      2       5.7540      2.00000
      3      12.2401      0.00000
      4      16.5991      0.00000
      5      19.4450      0.00000
      6      24.0733      0.00000
      7      26.3889      0.00000
      8      30.0931      0.00000

 k-point    23 :      -0.2727    0.1818    0.0000
  band No.  band energies     occupation 
      1      -0.3943      2.00000
      2       8.7693      2.00000
      3      12.0499      0.00000
      4      17.7938      0.00000
      5      20.7989      0.00000
      6      23.9660      0.00000
      7      25.9491      0.00000
      8      26.9966      0.00000

 k-point    24 :      -0.1818    0.1818    0.0000
  band No.  band energies     occupation 
      1      -1.8692      2.00000
      2      11.8626      0.00000
      3      12.5706      0.00000
      4      19.2195      0.00000
      5      22.5005      0.00000
      6      24.2245      0.00000
      7      24.4238      0.00000
      8      25.1828      0.00000

 k-point    25 :       0.2727    0.2727   -0.0000
  band No.  band energies     occupation 
      1      -1.5558      2.00000
      2      14.6243      0.00000
      3      14.7010      0.00000
      4      14.7011      0.00000
      5      16.2720      0.00000
      6      18.5619      0.00000
      7      30.7961      0.00000
      8      30.7974      0.00000

 k-point    26 :       0.3636    0.2727    0.0000
  band No.  band energies     occupation 
      1      -0.3916      2.00000
      2      11.8356      0.00000
      3      12.8434      0.00000
      4      14.2157      0.00000
      5      16.6234      0.00000
      6      19.2311      0.00000
      7      30.0065      0.00000
      8      31.5295      0.00000

 k-point    27 :       0.4545    0.2727    0.0000
  band No.  band energies     occupation 
      1       1.2250      2.00000
      2       8.6767      2.00000
      3      11.1886      0.00000
      4      14.1417      0.00000
      5      16.7130      0.00000
      6      21.8769      0.00000
      7      28.7858      0.00000
      8      31.2442      0.00000

 k-point    28 :      -0.4545    0.2727   -0.0000
  band No.  band energies     occupation 
      1       3.2593      2.00000
      2       5.8283      2.00000
      3       9.9585      0.00005
      4      14.4782      0.00000
      5      17.1121      0.00000
      6      25.0212      0.00000
      7      27.7593      0.00000
      8      30.4684      0.00000

 k-point    29 :      -0.3636    0.2727   -0.0000
  band No.  band energies     occupation 
      1       3.2578      2.00000
      2       5.8168      2.00000
      3       9.1760      2.00000
      4      15.2191      0.00000
      5      17.9423      0.00000
      6      27.0663      0.00000
      7      27.9679      0.00000
      8      29.5899      0.00000

 k-point    30 :      -0.2727    0.2727    0.0000
  band No.  band energies     occupation 
      1       1.2211      2.00000
      2       8.3293      2.00000
      3       9.1673      2.00000
      4      16.3456      0.00000
      5      19.1894      0.00000
      6      26.4937      0.00000
      7      27.2536      0.00000
      8      27.8481      0.00000

 k-point    31 :       0.3636    0.3636    0.0000
  band No.  band energies     occupation 
      1       0.6123      2.00000
      2      10.5329      0.00000
      3      13.5944      0.00000
      4      13.5945      0.00000
      5      15.0373      0.00000
      6      17.2335      0.00000
      7      32.7806      0.00000
      8      33.5895      0.00000

 k-point    32 :       0.4545    0.3636    0.0000
  band No.  band energies     occupation 
      1       2.0672      2.00000
      2       8.7079      2.00000
      3      11.1002      0.00000
      4      13.3852      0.00000
      5      15.6821      0.00000
      6      18.3677      0.00000
      7      32.1150      0.00000
      8      34.0361      0.00000

 k-point    33 :      -0.4545    0.3636   -0.0000
  band No.  band energies     occupation 
      1       3.9449      2.00000
      2       7.2308      2.00000
      3       8.2725      2.00000
      4      13.5892      0.00000
      5      16.0941      0.00000
      6      21.3601      0.00000
      7      31.0849      0.00000
      8      33.1064      0.00000

 k-point    34 :      -0.3636    0.3636    0.0000
  band No.  band energies     occupation 
      1       5.3511      2.00000
      2       5.9539      2.00000
      3       6.9175      2.00000
      4      14.2040      0.00000
      5      16.8126      0.00000
      6      24.8593      0.00000
      7      29.8760      0.00000
      8      31.1985      0.00000

 k-point    35 :       0.4545    0.4545    0.0000
  band No.  band energies     occupation 
      1       3.3486      2.00000
      2       6.7485      2.00000
      3      13.0395      0.00000
      4      13.0396      0.00000
      5      14.4161      0.00000
      6      16.6245      0.00000
      7      34.3347      0.00000
      8      35.8484      0.00000

 k-point    36 :      -0.4545    0.4545    0.0000
  band No.  band energies     occupation 
      1       4.7624      2.00000
      2       5.4959      2.00000
      3      10.7941      0.00000
      4      13.1078      0.00000
      5      15.3751      0.00000
      6      18.0864      0.00000
      7      33.7178      0.00000
      8      35.3305      0.00000

 k-point    37 :       0.2727    0.1818    0.0909
  band No.  band energies     occupation 
      1      -2.8067      2.00000
      2      14.1696      0.00000
      3      14.6712      0.00000
      4      19.0796      0.00000
      5      20.7871      0.00000
      6      22.3759      0.00000
      7      25.9527      0.00000
      8      26.5861      0.00000

 k-point    38 :       0.3636    0.1818    0.0909
  band No.  band energies     occupation 
      1      -1.6353      2.00000
      2      10.8131      0.00000
      3      13.9581      0.00000
      4      17.6397      0.00000
      5      20.8622      0.00000
      6      23.4219      0.00000
      7      24.9203      0.00000
      8      27.1737      0.00000

 k-point    39 :       0.4545    0.1818    0.0909
  band No.  band energies     occupation 
      1      -0.0091      2.00000
      2       7.5350      2.00000
      3      13.8527      0.00000
      4      16.2187      0.00000
      5      20.6844      0.00000
      6      23.0796      0.00000
      7      25.9560      0.00000
      8      27.9406      0.00000

 k-point    40 :      -0.4545    0.1818    0.0909
  band No.  band energies     occupation 
      1       2.0379      2.00000
      2       4.6490      2.00000
      3      14.1019      0.00000
      4      15.1766      0.00000
      5      20.8199      0.00000
      6      22.1781      0.00000
      7      26.6556      0.00000
      8      30.0349      0.00000

 k-point    41 :       0.3636    0.2727    0.0909
  band No.  band energies     occupation 
      1      -1.2454      2.00000
      2      12.4343      0.00000
      3      12.9653      0.00000
      4      15.2082      0.00000
      5      19.1089      0.00000
      6      20.3777      0.00000
      7      27.5724      0.00000
      8      30.2288      0.00000

 k-point    42 :       0.4545    0.2727    0.0909
  band No.  band energies     occupation 
      1       0.2254      2.00000
      2       9.3412      2.00000
      3      12.4382      0.00000
      4      13.5895      0.00000
      5      19.4241      0.00000
      6      22.4258      0.00000
      7      26.3221      0.00000
      8      30.7374      0.00000

 k-point    43 :      -0.4545    0.2727    0.0909
  band No.  band energies     occupation 
      1       2.1336      2.00000
      2       6.3438      2.00000
      3      11.9054      0.00000
      4      12.9738      0.00000
      5      19.6632      0.00000
      6      24.5362      0.00000
      7      26.0227      0.00000
      8      30.3986      0.00000

 k-point    44 :      -0.3636    0.2727    0.0909
  band No.  band energies     occupation 
      1       3.5642      2.00000
      2       4.6350      2.00000
      3      11.0750      0.00000
      4      13.5068      0.00000
      5      20.2679      0.00000
      6      24.0541      0.00000
      7      28.5081      0.00000
      8      29.0742      0.00000

 k-point    45 :      -0.2727    0.2727    0.0909
  band No.  band energies     occupation 
      1       1.4499      2.00000
      2       7.2894      2.00000
      3      10.6085      0.00000
      4      14.5370      0.00000
      5      21.2359      0.00000
      6      23.6405      0.00000
      7      26.4260      0.00000
      8      29.6624      0.00000

 k-point    46 :      -0.1818    0.2727    0.0909
  band No.  band energies     occupation 
      1      -0.3160      2.00000
      2      10.1018      0.00000
      3      10.8734      0.00000
      4      15.9682      0.00000
      5      22.3406      0.00000
      6      23.0905      0.00000
      7      24.3398      0.00000
      8      28.9180      0.00000

 k-point    47 :       0.4545    0.3636    0.0909
  band No.  band energies     occupation 
      1       0.9198      2.00000
      2      10.7054      0.00000
      3      11.2676      0.00000
      4      12.1463      0.00000
      5      17.9484      0.00000
      6      19.2546      0.00000
      7      29.5502      0.00000
      8      33.4722      0.00000

 k-point    48 :      -0.4545    0.3636    0.0909
  band No.  band energies     occupation 
      1       2.6725      2.00000
      2       8.3767      2.00000
      3       9.4155      1.99971
      4      11.8161      0.00000
      5      18.5637      0.00000
      6      21.6936      0.00000
      7      28.4260      0.00000
      8      32.7572      0.00000

 k-point    49 :      -0.3636    0.3636    0.0909
  band No.  band energies     occupation 
      1       4.7754      2.00000
      2       5.7793      2.00000
      3       8.3035      2.00000
      4      12.2803      0.00000
      5      19.1157      0.00000
      6      24.9138      0.00000
      7      27.5752      0.00000
      8      30.0795      0.00000

 k-point    50 :      -0.2727    0.3636    0.0909
  band No.  band energies     occupation 
      1       3.3442      2.00000
      2       7.1435      2.00000
      3       7.9940      2.00000
      4      13.2001      0.00000
      5      20.0293      0.00000
      6      26.5361      0.00000
      7      26.6342      0.00000
      8      28.9390      0.00000

 k-point    51 :      -0.4545    0.4545    0.0909
  band No.  band energies     occupation 
      1       3.6485      2.00000
      2       7.0311      2.00000
      3      10.6796      0.00000
      4      11.4506      0.00000
      5      17.3496      0.00000
      6      18.6970      0.00000
      7      31.8042      0.00000
      8      33.9680      0.00000

 k-point    52 :      -0.3636    0.4545    0.0909
  band No.  band energies     occupation 
      1       5.3580      2.00000
      2       6.0417      2.00000
      3       8.2593      2.00000
      4      11.5013      0.00000
      5      18.2771      0.00000
      6      21.4393      0.00000
      7      30.8892      0.00000
      8      30.9304      0.00000

 k-point    53 :      -0.4545    0.3636    0.1818
  band No.  band energies     occupation 
      1       1.8353      2.00000
      2       8.9215      2.00000
      3       9.6522      1.21826
      4      11.9072      0.00000
      5      21.9980      0.00000
      6      22.4470      0.00000
      7      25.2252      0.00000
      8      32.2420      0.00000

 k-point    54 :      -0.3636    0.3636    0.1818
  band No.  band energies     occupation 
      1       3.8640      2.00000
      2       6.4006      2.00000
      3       9.6038      1.66360
      4      10.7612      0.00000
      5      22.3732      0.00000
      6      23.7310      0.00000
      7      25.9545      0.00000
      8      29.4944      0.00000

 k-point    55 :      -0.3636    0.4545    0.1818
  band No.  band energies     occupation 
      1       4.5415      2.00000
      2       7.7834      2.00000
      3       8.3290      2.00000
      4       9.4255      1.99950
      5      21.4234      0.00000
      6      22.1496      0.00000
      7      27.3928      0.00000
      8      30.1590      0.00000

 k-point    56 :      -0.2727    0.4545    0.1818
  band No.  band energies     occupation 
      1       5.9498      2.00000
      2       6.5491      2.00000
      3       7.3951      2.00000
      4       9.6201      1.53488
      5      22.3478      0.00000
      6      24.9296      0.00000
      7      26.0256      0.00000
      8      27.6433      0.00000


--------------------------------------------------------------------------------------------------------


 soft charge-density along one line, spin component           1
         0         1         2         3         4         5         6         7         8         9
 total charge-density along one line
 
 pseudopotential strength for first ion, spin component:           1
 18.006  25.120   0.000   0.000  -0.000   0.000   0.000  -0.000
 25.120  35.049   0.000   0.000  -0.000   0.000   0.000  -0.000
  0.000   0.000   4.102  -0.000  -0.000   7.641  -0.000  -0.000
  0.000   0.000  -0.000   4.102  -0.000  -0.000   7.641  -0.000
 -0.000  -0.000  -0.000  -0.000   4.102  -0.000  -0.000   7.641
  0.000   0.000   7.641  -0.000  -0.000  14.246  -0.000  -0.000
  0.000   0.000  -0.000   7.641  -0.000  -0.000  14.246  -0.000
 -0.000  -0.000  -0.000  -0.000   7.641  -0.000  -0.000  14.246
 total augmentation occupancy for first ion, spin component:           1
  5.184  -2.133   0.000   0.000   0.000   0.000   0.000   0.000
 -2.133   1.301   0.000   0.000   0.000   0.000   0.000   0.000
  0.000   0.000   2.588   0.000  -0.000  -0.662   0.000  -0.000
  0.000   0.000   0.000   2.588  -0.000   0.000  -0.662  -0.000
  0.000   0.000  -0.000  -0.000   2.588   0.000  -0.000  -0.662
  0.000   0.000  -0.662   0.000   0.000   0.182   0.000  -0.000
  0.000   0.000   0.000  -0.662  -0.000   0.000   0.182  -0.000
  0.000   0.000  -0.000  -0.000  -0.662   0.000  -0.000   0.182


------------------------ aborting loop because EDIFF is reached ----------------------------------------


    CHARGE:  cpu time      0.0006: real time      0.0006
    FORLOC:  cpu time      0.0000: real time      0.0000
    FORNL :  cpu time      0.0007: real time      0.0007
    STRESS:  cpu time      0.0170: real time      0.0170
    FORCOR:  cpu time      0.0007: real time      0.0007
    FORHAR:  cpu time      0.0002: real time      0.0002
    MIXING:  cpu time      0.0001: real time      0.0001
    OFIELD:  cpu time      0.0000: real time      0.0000

  FORCE on cell =-STRESS in cart. coord.  units (eV):
  Direction    XX          YY          ZZ          XY          YZ          ZX
  --------------------------------------------------------------------------------------
  Alpha Z     2.26997     2.26997     2.26997
  Ewald     -45.14259   -45.14259   -45.14259    -0.00000     0.00000    -0.00000
  Hartree     0.16152     0.16152     0.16152    -0.00000    -0.00000    -0.00000
  E(xc)     -12.63280   -12.63280   -12.63280    -0.00000    -0.00000    -0.00000
  Local      -5.27113    -5.27114    -5.27113     0.00003     0.00003     0.00004
  n-local    39.20559    37.28747    39.18805    -0.58854     0.60326     0.87012
  augment    -6.31506    -6.31506    -6.31506    -0.00005    -0.00005    -0.00005
  Kinetic    20.70012    38.29782    25.54956    10.26183    -8.38360   -15.06628
  Fock        0.00000     0.00000     0.00000     0.00000     0.00000     0.00000
  -------------------------------------------------------------------------------------
  Total      -0.18722    -0.18722    -0.18722     0.00000    -0.00000     0.00000
  in kB     -20.22710   -20.22710   -20.22710     0.00000    -0.00000     0.00000
  external pressure =      -20.23 kB  Pullay stress =        0.00 kB


 VOLUME and BASIS-vectors are now :
 -----------------------------------------------------------------------------
  energy-cutoff  :      240.00
  volume of cell :       14.83
      direct lattice vectors                 reciprocal lattice vectors
     1.950000000  1.950000000  0.000000000     0.256410256  0.256410256 -0.256410256
     0.000000000  1.950000000  1.950000000    -0.256410256  0.256410256  0.256410256
     1.950000000  0.000000000  1.950000000     0.256410256 -0.256410256  0.256410256

  length of vectors
     2.757716447  2.757716447  2.757716447     0.444115592  0.444115592  0.444115592


 FORCES acting on ions
    electron-ion (+dipol)            ewald-force                    non-local-force                 convergence-correction
 -----------------------------------------------------------------------------------------------
   -.456E-15 0.214E-14 0.113E-14   -.162E-15 0.162E-15 0.172E-15   0.488E-23 0.351E-23 -.868E-25   0.398E-16 0.142E-15 -.238E-16
 -----------------------------------------------------------------------------------------------
   -.456E-15 0.214E-14 0.113E-14   -.162E-15 0.162E-15 0.172E-15   0.488E-23 0.351E-23 -.868E-25   0.398E-16 0.142E-15 -.238E-16
 
 
 POSITION                                       TOTAL-FORCE (eV/Angst)
 -----------------------------------------------------------------------------------
      0.00000      0.00000      0.00000        -0.000000     -0.000000      0.000000
 -----------------------------------------------------------------------------------
    total drift:                               -0.000000      0.000000      0.000000


--------------------------------------------------------------------------------------------------------



  FREE ENERGIE OF THE ION-ELECTRON SYSTEM (eV)
  ---------------------------------------------------
  free  energy   TOTEN  =        -4.87741440 eV

  energy  without entropy=       -4.87435267  energy(sigma->0) =       -4.87588353
 


--------------------------------------------------------------------------------------------------------


    POTLOK:  cpu time      0.0017: real time      0.0017


--------------------------------------------------------------------------------------------------------


 writing wavefunctions
     LOOP+:  cpu time      0.3493: real time      0.3539
    4ORBIT:  cpu time      0.0000: real time      0.0000

 total amount of memory used by VASP MPI-rank0    30987. kBytes
=======================================================================

   base      :      30000. kBytes
   nonl-proj :        504. kBytes
   fftplans  :         71. kBytes
   grid      :        144. kBytes
   one-center:          3. kBytes
   wavefun   :        265. kBytes
 
  
  
 General timing and accounting informations for this job:
 ========================================================
  
                  Total CPU time used (sec):        0.495
                            User time (sec):        0.429
                          System time (sec):        0.066
                         Elapsed time (sec):        0.523
  
                   Maximum memory used (kb):       52996.
                   Average memory used (kb):          N/A
  
                          Minor page faults:         9239
                          Major page faults:            0
                 Voluntary context switches:          187
