<?xml version="1.0" encoding="ISO-8859-1"?>
<modeling>
 <generator>
  <i name="program" type="string">vasp </i>
  <i name="version" type="string">6.3.0  </i>
  <i name="subversion" type="string">20Jan22 (build Feb 01 2022 16:52:37) complex                          parallel </i>
  <i name="platform" type="string">TETRA_NSC1 </i>
  <i name="date" type="string">2022 02 22 </i>
  <i name="time" type="string">16:05:27 </i>
 </generator>
 <incar>
  <i type="string" name="SYSTEM">fcc Si</i>
  <i type="int" name="ISTART">     0</i>
  <i type="int" name="ICHARG">     2</i>
  <i name="ENCUT">    240.00000000</i>
  <i type="int" name="ISMEAR">     0</i>
  <i name="SIGMA">      0.10000000</i>
 </incar>
 <primitive_cell>
  <structure name="primitive_cell" >
   <crystal>
    <varray name="basis" >
     <v>       1.95000000       1.95000000       0.00000000 </v>
     <v>       0.00000000       1.95000000       1.95000000 </v>
     <v>       1.95000000       0.00000000       1.95000000 </v>
    </varray>
    <i name="volume">     14.82975000 </i>
    <varray name="rec_basis" >
     <v>       0.25641026       0.25641026      -0.25641026 </v>
     <v>      -0.25641026       0.25641026       0.25641026 </v>
     <v>       0.25641026      -0.25641026       0.25641026 </v>
    </varray>
   </crystal>
   <varray name="positions" >
    <v>       0.00000000       0.00000000       0.00000000 </v>
   </varray>
  </structure>
  <varray name="primitive_index" >
   <v type="int" >        1 </v>
  </varray>
 </primitive_cell>
 <kpoints>
  <generation param="Monkhorst-Pack">
   <v type="int" name="divisions">      11       11       11 </v>
   <v name="usershift">      0.00000000       0.00000000       0.00000000 </v>
   <v name="genvec1">      0.09090909      -0.00000000      -0.00000000 </v>
   <v name="genvec2">     -0.00000000       0.09090909       0.00000000 </v>
   <v name="genvec3">      0.00000000       0.00000000       0.09090909 </v>
   <v name="shift">      0.00000000       0.00000000       0.00000000 </v>
  </generation>
  <varray name="kpointlist" >
   <v>       0.00000000       0.00000000       0.00000000 </v>
   <v>       0.09090909       0.00000000       0.00000000 </v>
   <v>       0.18181818      -0.00000000       0.00000000 </v>
   <v>       0.27272727      -0.00000000       0.00000000 </v>
   <v>       0.36363636      -0.00000000      -0.00000000 </v>
   <v>       0.45454545       0.00000000      -0.00000000 </v>
   <v>       0.09090909       0.09090909       0.00000000 </v>
   <v>       0.18181818       0.09090909      -0.00000000 </v>
   <v>       0.27272727       0.09090909       0.00000000 </v>
   <v>       0.36363636       0.09090909       0.00000000 </v>
   <v>       0.45454545       0.09090909       0.00000000 </v>
   <v>      -0.45454545       0.09090909      -0.00000000 </v>
   <v>      -0.36363636       0.09090909      -0.00000000 </v>
   <v>      -0.27272727       0.09090909       0.00000000 </v>
   <v>      -0.18181818       0.09090909      -0.00000000 </v>
   <v>      -0.09090909       0.09090909      -0.00000000 </v>
   <v>       0.18181818       0.18181818      -0.00000000 </v>
   <v>       0.27272727       0.18181818      -0.00000000 </v>
   <v>       0.36363636       0.18181818       0.00000000 </v>
   <v>       0.45454545       0.18181818       0.00000000 </v>
   <v>      -0.45454545       0.18181818      -0.00000000 </v>
   <v>      -0.36363636       0.18181818      -0.00000000 </v>
   <v>      -0.27272727       0.18181818       0.00000000 </v>
   <v>      -0.18181818       0.18181818       0.00000000 </v>
   <v>       0.27272727       0.27272727      -0.00000000 </v>
   <v>       0.36363636       0.27272727       0.00000000 </v>
   <v>       0.45454545       0.27272727       0.00000000 </v>
   <v>      -0.45454545       0.27272727      -0.00000000 </v>
   <v>      -0.36363636       0.27272727      -0.00000000 </v>
   <v>      -0.27272727       0.27272727       0.00000000 </v>
   <v>       0.36363636       0.36363636       0.00000000 </v>
   <v>       0.45454545       0.36363636       0.00000000 </v>
   <v>      -0.45454545       0.36363636      -0.00000000 </v>
   <v>      -0.36363636       0.36363636       0.00000000 </v>
   <v>       0.45454545       0.45454545       0.00000000 </v>
   <v>      -0.45454545       0.45454545       0.00000000 </v>
   <v>       0.27272727       0.18181818       0.09090909 </v>
   <v>       0.36363636       0.18181818       0.09090909 </v>
   <v>       0.45454545       0.18181818       0.09090909 </v>
   <v>      -0.45454545       0.18181818       0.09090909 </v>
   <v>       0.36363636       0.27272727       0.09090909 </v>
   <v>       0.45454545       0.27272727       0.09090909 </v>
   <v>      -0.45454545       0.27272727       0.09090909 </v>
   <v>      -0.36363636       0.27272727       0.09090909 </v>
   <v>      -0.27272727       0.27272727       0.09090909 </v>
   <v>      -0.18181818       0.27272727       0.09090909 </v>
   <v>       0.45454545       0.36363636       0.09090909 </v>
   <v>      -0.45454545       0.36363636       0.09090909 </v>
   <v>      -0.36363636       0.36363636       0.09090909 </v>
   <v>      -0.27272727       0.36363636       0.09090909 </v>
   <v>      -0.45454545       0.45454545       0.09090909 </v>
   <v>      -0.36363636       0.45454545       0.09090909 </v>
   <v>      -0.45454545       0.36363636       0.18181818 </v>
   <v>      -0.36363636       0.36363636       0.18181818 </v>
   <v>      -0.36363636       0.45454545       0.18181818 </v>
   <v>      -0.27272727       0.45454545       0.18181818 </v>
  </varray>
  <varray name="weights" >
   <v>       0.00075131 </v>
   <v>       0.00601052 </v>
   <v>       0.00601052 </v>
   <v>       0.00601052 </v>
   <v>       0.00601052 </v>
   <v>       0.00601052 </v>
   <v>       0.00450789 </v>
   <v>       0.01803156 </v>
   <v>       0.01803156 </v>
   <v>       0.01803156 </v>
   <v>       0.01803156 </v>
   <v>       0.01803156 </v>
   <v>       0.01803156 </v>
   <v>       0.01803156 </v>
   <v>       0.01803156 </v>
   <v>       0.00901578 </v>
   <v>       0.00450789 </v>
   <v>       0.01803156 </v>
   <v>       0.01803156 </v>
   <v>       0.01803156 </v>
   <v>       0.01803156 </v>
   <v>       0.01803156 </v>
   <v>       0.01803156 </v>
   <v>       0.00901578 </v>
   <v>       0.00450789 </v>
   <v>       0.01803156 </v>
   <v>       0.01803156 </v>
   <v>       0.01803156 </v>
   <v>       0.01803156 </v>
   <v>       0.00901578 </v>
   <v>       0.00450789 </v>
   <v>       0.01803156 </v>
   <v>       0.01803156 </v>
   <v>       0.00901578 </v>
   <v>       0.00450789 </v>
   <v>       0.00901578 </v>
   <v>       0.01803156 </v>
   <v>       0.03606311 </v>
   <v>       0.03606311 </v>
   <v>       0.03606311 </v>
   <v>       0.01803156 </v>
   <v>       0.03606311 </v>
   <v>       0.03606311 </v>
   <v>       0.03606311 </v>
   <v>       0.03606311 </v>
   <v>       0.01803156 </v>
   <v>       0.01803156 </v>
   <v>       0.03606311 </v>
   <v>       0.03606311 </v>
   <v>       0.01803156 </v>
   <v>       0.01803156 </v>
   <v>       0.01803156 </v>
   <v>       0.01803156 </v>
   <v>       0.03606311 </v>
   <v>       0.01803156 </v>
   <v>       0.01803156 </v>
  </varray>
 </kpoints>
 <parameters>
  <separator name="general" >
   <i type="string" name="SYSTEM">fcc Si</i>
   <i type="logical" name="LCOMPAT"> F  </i>
  </separator>
  <separator name="electronic" >
   <i type="string" name="PREC">normal</i>
   <i name="ENMAX">    240.00000000</i>
   <i name="ENAUG">    322.06900000</i>
   <i name="EDIFF">      0.00010000</i>
   <i type="int" name="IALGO">    38</i>
   <i type="int" name="IWAVPR">    10</i>
   <i type="int" name="NBANDS">     8</i>
   <i type="int" name="NBANDSLOW">    -1</i>
   <i type="int" name="NBANDSHIGH">    -1</i>
   <i name="NELECT">      4.00000000</i>
   <i type="int" name="TURBO">     0</i>
   <i type="int" name="IRESTART">     0</i>
   <i type="int" name="NREBOOT">     0</i>
   <i type="int" name="NMIN">     0</i>
   <i name="EREF">      0.00000000</i>
   <separator name="electronic smearing" >
    <i type="int" name="ISMEAR">     0</i>
    <i name="SIGMA">      0.10000000</i>
    <i name="KSPACING">      0.50000000</i>
    <i type="logical" name="KGAMMA"> T  </i>
    <i type="logical" name="KBLOWUP"> T  </i>
   </separator>
   <separator name="electronic projectors" >
    <i type="logical" name="LREAL"> F  </i>
    <v name="ROPT">      0.00000000</v>
    <i type="int" name="LMAXPAW">  -100</i>
    <i type="int" name="LMAXMIX">     2</i>
    <i type="logical" name="NLSPLINE"> F  </i>
   </separator>
   <separator name="electronic startup" >
    <i type="int" name="ISTART">     0</i>
    <i type="int" name="ICHARG">     2</i>
    <i type="int" name="INIWAV">     1</i>
   </separator>
   <separator name="electronic spin" >
    <i type="int" name="ISPIN">     1</i>
    <i type="logical" name="LNONCOLLINEAR"> F  </i>
    <v name="MAGMOM">      1.00000000</v>
    <i name="NUPDOWN">     -1.00000000</i>
    <i type="logical" name="LSORBIT"> F  </i>
    <v name="SAXIS">      0.00000000      0.00000000      1.00000000</v>
    <i type="logical" name="LSPIRAL"> F  </i>
    <v name="QSPIRAL">      0.00000000      0.00000000      0.00000000</v>
    <i type="logical" name="LZEROZ"> F  </i>
   </separator>
   <separator name="electronic exchange-correlation" >
    <i type="logical" name="LASPH"> F  </i>
    <i type="logical" name="LMETAGGA"> F  </i>
   </separator>
   <separator name="electronic convergence" >
    <i type="int" name="NELM">    60</i>
    <i type="int" name="NELMDL">    -5</i>
    <i type="int" name="NELMIN">     2</i>
    <i name="ENINI">    240.00000000</i>
    <separator name="electronic convergence detail" >
     <i type="logical" name="LDIAG"> T  </i>
     <i type="logical" name="LSUBROT"> F  </i>
     <i name="WEIMIN">      0.00000000</i>
     <i name="EBREAK">      0.00000313</i>
     <i name="DEPER">      0.30000000</i>
     <i type="int" name="NRMM">     4</i>
     <i name="TIME">      0.40000000</i>
    </separator>
   </separator>
   <separator name="electronic mixer" >
    <i name="AMIX">      0.40000000</i>
    <i name="BMIX">      1.00000000</i>
    <i name="AMIN">      0.10000000</i>
    <i name="AMIX_MAG">      1.60000000</i>
    <i name="BMIX_MAG">      1.00000000</i>
    <separator name="electronic mixer details" >
     <i type="int" name="IMIX">     4</i>
     <i type="logical" name="MIXFIRST"> F  </i>
     <i type="int" name="MAXMIX">   -45</i>
     <i name="WC">    100.00000000</i>
     <i type="int" name="INIMIX">     1</i>
     <i type="int" name="MIXPRE">     1</i>
     <i type="int" name="MREMOVE">     5</i>
    </separator>
   </separator>
   <separator name="electronic dipolcorrection" >
    <i type="logical" name="LDIPOL"> F  </i>
    <i type="logical" name="LMONO"> F  </i>
    <i type="int" name="IDIPOL">     0</i>
    <i name="EPSILON">      1.00000000</i>
    <v name="DIPOL">   -100.00000000   -100.00000000   -100.00000000</v>
    <i name="EFIELD">      0.00000000</i>
   </separator>
  </separator>
  <separator name="grids" >
   <i type="int" name="NGX">    10</i>
   <i type="int" name="NGY">    10</i>
   <i type="int" name="NGZ">    10</i>
   <i type="int" name="NGXF">    20</i>
   <i type="int" name="NGYF">    20</i>
   <i type="int" name="NGZF">    20</i>
   <i type="logical" name="ADDGRID"> F  </i>
  </separator>
  <separator name="ionic" >
   <i type="int" name="NSW">     0</i>
   <i type="int" name="IBRION">    -1</i>
   <i type="int" name="MDALGO">     0</i>
   <i type="int" name="ISIF">     2</i>
   <i name="PSTRESS">      0.00000000</i>
   <i name="EDIFFG">      0.00100000</i>
   <i type="int" name="NFREE">     0</i>
   <i name="POTIM">      0.50000000</i>
   <i name="SMASS">     -3.00000000</i>
   <i name="SCALEE">      1.00000000</i>
  </separator>
  <separator name="ionic md" >
   <i name="TEBEG">      0.00010000</i>
   <i name="TEEND">      0.00010000</i>
   <i type="int" name="NBLOCK">     1</i>
   <i type="int" name="KBLOCK">     1</i>
   <i type="int" name="NPACO">   256</i>
   <i name="APACO">     10.00000000</i>
  </separator>
  <separator name="symmetry" >
   <i type="int" name="ISYM">     2</i>
   <i name="SYMPREC">      0.00001000</i>
  </separator>
  <separator name="dos" >
   <i type="int" name="LORBIT">     0</i>
   <v name="RWIGS">     -1.00000000</v>
   <i type="int" name="NEDOS">   301</i>
   <i name="EMIN">     10.00000000</i>
   <i name="EMAX">    -10.00000000</i>
   <i name="EFERMI">      0.00000000</i>
  </separator>
  <separator name="writing" >
   <i type="int" name="NWRITE">     2</i>
   <i type="logical" name="LWAVE"> T  </i>
   <i type="logical" name="LDOWNSAMPLE"> F  </i>
   <i type="logical" name="LCHARG"> T  </i>
   <i type="logical" name="LPARD"> F  </i>
   <i type="logical" name="LVTOT"> F  </i>
   <i type="logical" name="LVHAR"> F  </i>
   <i type="logical" name="LELF"> F  </i>
   <i type="logical" name="LOPTICS"> F  </i>
   <v name="STM">      0.00000000      0.00000000      0.00000000      0.00000000      0.00000000      0.00000000      0.00000000</v>
  </separator>
  <separator name="performance" >
   <i type="int" name="NPAR">     4</i>
   <i type="int" name="NSIM">     4</i>
   <i type="int" name="NBLK">    -1</i>
   <i type="logical" name="LPLANE"> T  </i>
   <i type="logical" name="LSCALAPACK"> T  </i>
   <i type="logical" name="LSCAAWARE"> F  </i>
   <i type="logical" name="LSCALU"> F  </i>
   <i type="logical" name="LASYNC"> F  </i>
   <i type="logical" name="LORBITALREAL"> F  </i>
  </separator>
  <separator name="miscellaneous" >
   <i type="int" name="IDIOT">     3</i>
   <i type="int" name="PHON_NSTRUCT">    -1</i>
   <i type="logical" name="LMUSIC"> F  </i>
   <v name="POMASS">     28.08500000</v>
   <v name="DARWINR">      0.00000000</v>
   <v name="DARWINV">      1.00000000</v>
   <i type="logical" name="LCORR"> T  </i>
  </separator>
  <i type="logical" name="GGA_COMPAT"> T  </i>
  <i type="logical" name="LBERRY"> F  </i>
  <i type="int" name="ICORELEVEL">     0</i>
  <i type="logical" name="LDAU"> F  </i>
  <i type="int" name="I_CONSTRAINED_M">     0</i>
  <separator name="electronic exchange-correlation" >
   <i type="string" name="GGA">--</i>
   <i type="int" name="VOSKOWN">     0</i>
   <i type="logical" name="LHFCALC"> F  </i>
   <i type="string" name="PRECFOCK"></i>
   <i type="logical" name="LSYMGRAD"> F  </i>
   <i type="logical" name="LHFONE"> F  </i>
   <i type="logical" name="LRHFCALC"> F  </i>
   <i type="logical" name="LTHOMAS"> F  </i>
   <i type="logical" name="LMODELHF"> F  </i>
   <i type="logical" name="LFOCKACE"> F  </i>
   <i name="ENCUT4O">     -1.00000000</i>
   <i type="int" name="EXXOEP">     0</i>
   <i type="int" name="FOURORBIT">     0</i>
   <i name="AEXX">      0.00000000</i>
   <i name="HFALPHA">      0.00000000</i>
   <i name="MCALPHA">      0.00000000</i>
   <i name="ALDAX">      1.00000000</i>
   <i name="AGGAX">      1.00000000</i>
   <i name="ALDAC">      1.00000000</i>
   <i name="AGGAC">      1.00000000</i>
   <i type="int" name="NKREDX">     1</i>
   <i type="int" name="NKREDY">     1</i>
   <i type="int" name="NKREDZ">     1</i>
   <i type="logical" name="SHIFTRED"> F  </i>
   <i type="logical" name="ODDONLY"> F  </i>
   <i type="logical" name="EVENONLY"> F  </i>
   <i type="int" name="LMAXFOCK">     0</i>
   <i type="int" name="NMAXFOCKAE">     0</i>
   <i type="logical" name="LFOCKAEDFT"> F  </i>
   <i name="HFSCREEN">      0.00000000</i>
   <i name="HFSCREENC">      0.00000000</i>
   <i type="int" name="NBANDSGWLOW">     0</i>
  </separator>
  <separator name="vdW DFT" >
   <i type="logical" name="LUSE_VDW"> F  </i>
   <i name="Zab_VDW">     -0.84910000</i>
   <i name="PARAM1">      0.12340000</i>
   <i name="PARAM2">      1.00000000</i>
   <i name="PARAM3">      0.00000000</i>
  </separator>
  <separator name="model GW" >
   <i type="int" name="MODEL_GW">     0</i>
   <i name="MODEL_EPS0">      8.89785000</i>
   <i name="MODEL_ALPHA">      1.00000000</i>
  </separator>
  <separator name="linear response parameters" >
   <i type="logical" name="LEPSILON"> F  </i>
   <i type="logical" name="LRPA"> F  </i>
   <i type="logical" name="LNABLA"> F  </i>
   <i type="logical" name="LVEL"> F  </i>
   <i name="CSHIFT">      0.10000000</i>
   <i name="OMEGAMAX">     -1.00000000</i>
   <i name="DEG_THRESHOLD">      0.00200000</i>
   <i name="RTIME">     -0.10000000</i>
   <i name="WPLASMAI">      0.00000000</i>
   <v name="DFIELD">      0.00000000      0.00000000      0.00000000</v>
   <v name="WPLASMA">      0.00000000      0.00000000      0.00000000      0.00000000      0.00000000      0.00000000      0.00000000      0.00000000      0.00000000</v>
  </separator>
  <separator name="orbital magnetization" >
   <i type="logical" name="NUCIND"> F  </i>
   <v name="MAGPOS">      0.00000000      0.00000000      0.00000000</v>
   <i type="logical" name="LNICSALL"> T  </i>
   <i type="logical" name="ORBITALMAG"> F  </i>
   <i type="logical" name="LMAGBLOCH"> F  </i>
   <i type="logical" name="LCHIMAG"> F  </i>
   <i type="logical" name="LGAUGE"> T  </i>
   <i type="int" name="MAGATOM">     0</i>
   <v name="MAGDIPOL">      0.00000000      0.00000000      0.00000000</v>
   <v name="AVECCONST">      0.00000000      0.00000000      0.00000000</v>
  </separator>
  <separator name="response functions" >
   <i type="logical" name="LFINITE_TEMPERATURE"> F  </i>
   <i type="logical" name="LADDER"> F  </i>
   <i type="logical" name="LRPAFORCE"> F  </i>
   <i type="logical" name="LFXC"> F  </i>
   <i type="logical" name="LHARTREE"> T  </i>
   <i type="int" name="IBSE">     0</i>
   <v type="int" name="KPOINT">    -1     0     0     0</v>
   <i type="logical" name="LTCTC"> F  </i>
   <i type="logical" name="LTCTE"> F  </i>
   <i type="logical" name="LTETE"> F  </i>
   <i type="logical" name="LTRIPLET"> F  </i>
   <i type="logical" name="LFXCEPS"> F  </i>
   <i type="logical" name="LFXHEG"> F  </i>
   <i type="int" name="NATURALO">     2</i>
   <i type="logical" name="LHOLEGF"> F  </i>
   <i type="logical" name="L2ORDER"> F  </i>
   <i type="logical" name="LDMP1"> F  </i>
   <i type="logical" name="LMP2LT"> F  </i>
   <i type="logical" name="LSMP2LT"> F  </i>
   <i type="logical" name="LGWLF"> F  </i>
   <i name="ENCUTGW">     -2.00000000</i>
   <i name="ENCUTGWSOFT">     -2.00000000</i>
   <i name="ENCUTLF">     -1.00000000</i>
   <i type="logical" name="LESF_SPLINES"> F  </i>
   <i type="int" name="LMAXMP2">    -1</i>
   <i name="SCISSOR">      0.00000000</i>
   <i type="int" name="NOMEGA">     0</i>
   <i type="int" name="NOMEGAR">     0</i>
   <i type="int" name="NBANDSGW">    -1</i>
   <i type="int" name="NBANDSO">    -1</i>
   <i type="int" name="NBANDSV">    -1</i>
   <i type="int" name="NELMGW">     1</i>
   <i type="int" name="NELMHF">     1</i>
   <i type="int" name="DIM">     3</i>
   <i type="int" name="IESPILON">     4</i>
   <i type="int" name="ANTIRES">     0</i>
   <i name="OMEGAMAX">    -30.00000000</i>
   <i name="OMEGAMIN">    -30.00000000</i>
   <i name="OMEGATL">   -200.00000000</i>
   <i type="int" name="OMEGAGRID">     0</i>
   <i name="CSHIFT">     -0.10000000</i>
   <i type="logical" name="LSELFENERGY"> F  </i>
   <i type="logical" name="LSPECTRAL"> F  </i>
   <i type="logical" name="LSPECTRALGW"> F  </i>
   <i type="logical" name="LSINGLES"> F  </i>
   <i type="logical" name="LFERMIGW"> F  </i>
   <i type="logical" name="ODDONLYGW"> F  </i>
   <i type="logical" name="EVENONLYGW"> F  </i>
   <i type="int" name="NKREDLFX">     1</i>
   <i type="int" name="NKREDLFY">     1</i>
   <i type="int" name="NKREDLFZ">     1</i>
   <i type="int" name="MAXMEM">  2800</i>
   <i type="int" name="TELESCOPE">     0</i>
   <i type="int" name="NTAUPAR">    -1</i>
   <i type="int" name="NOMEGAPAR">    -1</i>
   <i name="DAMP_NEWTON">      0.80000001</i>
   <i name="LAMBDA">      1.00000000</i>
  </separator>
  <separator name="External order field" >
   <i name="OFIELD_KAPPA">      0.00000000</i>
   <v name="OFIELD_K">      0.00000000      0.00000000      0.00000000</v>
   <i name="OFIELD_Q6_NEAR">      0.00000000</i>
   <i name="OFIELD_Q6_FAR">      0.00000000</i>
   <i name="OFIELD_A">      0.00000000</i>
  </separator>
  <separator name="optional k-points parameters" >
   <i type="int" name="KPOINTS_OPT_MODE">     1</i>
   <i type="logical" name="LKPOINTS_OPT"> F  </i>
  </separator>
 </parameters>
 <atominfo>
  <atoms>       1 </atoms>
  <types>       1 </types>
  <array name="atoms" >
   <dimension dim="1">ion</dimension>
   <field type="string">element</field>
   <field type="int">atomtype</field>
   <set>
    <rc><c>Si</c><c>   1</c></rc>
   </set>
  </array>
  <array name="atomtypes" >
   <dimension dim="1">type</dimension>
   <field type="int">atomspertype</field>
   <field type="string">element</field>
   <field>mass</field>
   <field>valence</field>
   <field type="string">pseudopotential</field>
   <set>
    <rc><c>   1</c><c>Si</c><c>     28.08500000</c><c>      4.00000000</c><c>  PAW_PBE Si 05Jan2001                  </c></rc>
   </set>
  </array>
 </atominfo>
 <structure name="initialpos" >
  <crystal>
   <varray name="basis" >
    <v>       1.95000000       1.95000000       0.00000000 </v>
    <v>       0.00000000       1.95000000       1.95000000 </v>
    <v>       1.95000000       0.00000000       1.95000000 </v>
   </varray>
   <i name="volume">     14.82975000 </i>
   <varray name="rec_basis" >
    <v>       0.25641026       0.25641026      -0.25641026 </v>
    <v>      -0.25641026       0.25641026       0.25641026 </v>
    <v>       0.25641026      -0.25641026       0.25641026 </v>
   </varray>
  </crystal>
  <varray name="positions" >
   <v>       0.00000000       0.00000000       0.00000000 </v>
  </varray>
 </structure>
 <calculation>
  <scstep>
   <time name="dav">    0.04    0.04</time>
   <time name="total">    0.04    0.04</time>
   <energy>
    <i name="alphaZ">      2.26997291 </i>
    <i name="ewald">   -135.42777035 </i>
    <i name="hartreedc">     -0.65300112 </i>
    <i name="XCdc">     -8.87078640 </i>
    <i name="pawpsdc">     88.12379961 </i>
    <i name="pawaedc">    -70.53051779 </i>
    <i name="eentropy">     -0.00280669 </i>
    <i name="bandstr">     17.86583424 </i>
    <i name="atom">    103.06077658 </i>
    <i name="e_fr_energy">     -4.16449900 </i>
    <i name="e_wo_entrp">     -4.16169231 </i>
    <i name="e_0_energy">     -4.16309566 </i>
   </energy>
  </scstep>
  <scstep>
   <time name="dav">    0.05    0.05</time>
   <time name="total">    0.05    0.05</time>
   <energy>
    <i name="e_fr_energy">     -4.89481127 </i>
    <i name="e_wo_entrp">     -4.89182014 </i>
    <i name="e_0_energy">     -4.89331571 </i>
   </energy>
  </scstep>
  <scstep>
   <time name="dav">    0.03    0.03</time>
   <time name="total">    0.03    0.03</time>
   <energy>
    <i name="e_fr_energy">     -4.89754152 </i>
    <i name="e_wo_entrp">     -4.89457535 </i>
    <i name="e_0_energy">     -4.89605844 </i>
   </energy>
  </scstep>
  <scstep>
   <time name="dav">    0.05    0.05</time>
   <time name="total">    0.05    0.05</time>
   <energy>
    <i name="e_fr_energy">     -4.89754262 </i>
    <i name="e_wo_entrp">     -4.89457646 </i>
    <i name="e_0_energy">     -4.89605954 </i>
   </energy>
  </scstep>
  <scstep>
   <time name="dav">    0.03    0.03</time>
   <time name="total">    0.03    0.03</time>
   <energy>
    <i name="e_fr_energy">     -4.89754262 </i>
    <i name="e_wo_entrp">     -4.89457646 </i>
    <i name="e_0_energy">     -4.89605954 </i>
   </energy>
  </scstep>
  <scstep>
   <time name="dav">    0.03    0.03</time>
   <time name="total">    0.04    0.04</time>
   <energy>
    <i name="e_fr_energy">     -4.88471122 </i>
    <i name="e_wo_entrp">     -4.88169540 </i>
    <i name="e_0_energy">     -4.88320331 </i>
   </energy>
  </scstep>
  <scstep>
   <time name="dav">    0.03    0.03</time>
   <time name="total">    0.04    0.04</time>
   <energy>
    <i name="e_fr_energy">     -4.87745208 </i>
    <i name="e_wo_entrp">     -4.87439163 </i>
    <i name="e_0_energy">     -4.87592186 </i>
   </energy>
  </scstep>
  <scstep>
   <time name="dav">    0.04    0.04</time>
   <time name="total">    0.04    0.04</time>
   <energy>
    <i name="alphaZ">      2.26997291 </i>
    <i name="ewald">   -135.42777035 </i>
    <i name="hartreedc">     -0.48461589 </i>
    <i name="XCdc">     -8.81864924 </i>
    <i name="pawpsdc">    345.30214245 </i>
    <i name="pawaedc">   -327.71629437 </i>
    <i name="eentropy">     -0.00306173 </i>
    <i name="bandstr">     16.94008526 </i>
    <i name="atom">    103.06077658 </i>
    <i name="e_fr_energy">     -4.87741440 </i>
    <i name="e_wo_entrp">     -4.87435267 </i>
    <i name="e_0_energy">     -4.87588353 </i>
   </energy>
  </scstep>
  <structure>
   <crystal>
    <varray name="basis" >
     <v>       1.95000000       1.95000000       0.00000000 </v>
     <v>       0.00000000       1.95000000       1.95000000 </v>
     <v>       1.95000000       0.00000000       1.95000000 </v>
    </varray>
    <i name="volume">     14.82975000 </i>
    <varray name="rec_basis" >
     <v>       0.25641026       0.25641026      -0.25641026 </v>
     <v>      -0.25641026       0.25641026       0.25641026 </v>
     <v>       0.25641026      -0.25641026       0.25641026 </v>
    </varray>
   </crystal>
   <varray name="positions" >
    <v>       0.00000000       0.00000000       0.00000000 </v>
   </varray>
  </structure>
  <varray name="forces" >
   <v>      -0.00000000      -0.00000000       0.00000000 </v>
  </varray>
  <varray name="stress" >
   <v>     -20.22710120       0.00000000       0.00000000 </v>
   <v>       0.00000000     -20.22710120       0.00000000 </v>
   <v>       0.00000000      -0.00000000     -20.22710120 </v>
  </varray>
  <energy>
   <i name="e_fr_energy">     -4.87741440 </i>
   <i name="e_wo_entrp">     -4.87435267 </i>
   <i name="e_0_energy">     -4.87588353 </i>
  </energy>
  <time name="totalsc">    0.35    0.35</time>
  <eigenvalues>
   <array>
    <dimension dim="1">band</dimension>
    <dimension dim="2">kpoint</dimension>
    <dimension dim="3">spin</dimension>
    <field>eigene</field>
    <field>occ</field>
    <set>
     <set comment="spin 1">
      <set comment="kpoint 1">
       <r>   -4.3794    1.0000 </r>
       <r>   20.6935    0.0000 </r>
       <r>   20.6937    0.0000 </r>
       <r>   20.6937    0.0000 </r>
       <r>   21.7695    0.0000 </r>
       <r>   21.7697    0.0000 </r>
       <r>   21.7697    0.0000 </r>
       <r>   26.9751    0.0000 </r>
      </set>
      <set comment="kpoint 2">
       <r>   -4.1425    1.0000 </r>
       <r>   17.7223    0.0000 </r>
       <r>   19.8419    0.0000 </r>
       <r>   19.8420    0.0000 </r>
       <r>   22.8565    0.0000 </r>
       <r>   22.9267    0.0000 </r>
       <r>   22.9269    0.0000 </r>
       <r>   27.6153    0.0000 </r>
      </set>
      <set comment="kpoint 3">
       <r>   -3.4343    1.0000 </r>
       <r>   13.9048    0.0000 </r>
       <r>   18.9570    0.0000 </r>
       <r>   18.9571    0.0000 </r>
       <r>   22.8958    0.0000 </r>
       <r>   23.9067    0.0000 </r>
       <r>   23.9074    0.0000 </r>
       <r>   26.7555    0.0000 </r>
      </set>
      <set comment="kpoint 4">
       <r>   -2.2602    1.0000 </r>
       <r>   10.2617    0.0000 </r>
       <r>   18.4121    0.0000 </r>
       <r>   18.4122    0.0000 </r>
       <r>   22.7573    0.0000 </r>
       <r>   22.8839    0.0000 </r>
       <r>   22.8846    0.0000 </r>
       <r>   28.0300    0.0000 </r>
      </set>
      <set comment="kpoint 5">
       <r>   -0.6285    1.0000 </r>
       <r>    6.9520    1.0000 </r>
       <r>   18.1941    0.0000 </r>
       <r>   18.1943    0.0000 </r>
       <r>   21.6164    0.0000 </r>
       <r>   21.6169    0.0000 </r>
       <r>   22.8079    0.0000 </r>
       <r>   26.5663    0.0000 </r>
      </set>
      <set comment="kpoint 6">
       <r>    1.4223    1.0000 </r>
       <r>    4.0514    1.0000 </r>
       <r>   18.1807    0.0000 </r>
       <r>   18.1808    0.0000 </r>
       <r>   20.8406    0.0000 </r>
       <r>   20.8412    0.0000 </r>
       <r>   22.9428    0.0000 </r>
       <r>   25.6544    0.0000 </r>
      </set>
      <set comment="kpoint 7">
       <r>   -4.0636    1.0000 </r>
       <r>   18.5168    0.0000 </r>
       <r>   18.5169    0.0000 </r>
       <r>   19.9691    0.0000 </r>
       <r>   20.3093    0.0000 </r>
       <r>   24.3895    0.0000 </r>
       <r>   24.3895    0.0000 </r>
       <r>   25.7288    0.0000 </r>
      </set>
      <set comment="kpoint 8">
       <r>   -3.5127    1.0000 </r>
       <r>   15.3233    0.0000 </r>
       <r>   17.5015    0.0000 </r>
       <r>   19.1796    0.0000 </r>
       <r>   21.0332    0.0000 </r>
       <r>   23.8149    0.0000 </r>
       <r>   25.1690    0.0000 </r>
       <r>   25.7637    0.0000 </r>
      </set>
      <set comment="kpoint 9">
       <r>   -2.4940    1.0000 </r>
       <r>   11.6282    0.0000 </r>
       <r>   16.8718    0.0000 </r>
       <r>   18.3733    0.0000 </r>
       <r>   20.7530    0.0000 </r>
       <r>   24.0093    0.0000 </r>
       <r>   25.2957    0.0000 </r>
       <r>   25.6495    0.0000 </r>
      </set>
      <set comment="kpoint 10">
       <r>   -1.0151    1.0000 </r>
       <r>    8.2069    1.0000 </r>
       <r>   16.6408    0.0000 </r>
       <r>   17.5776    0.0000 </r>
       <r>   19.8177    0.0000 </r>
       <r>   23.9165    0.0000 </r>
       <r>   24.4260    0.0000 </r>
       <r>   27.5334    0.0000 </r>
      </set>
      <set comment="kpoint 11">
       <r>    0.9050    1.0000 </r>
       <r>    5.1628    1.0000 </r>
       <r>   16.6956    0.0000 </r>
       <r>   16.7999    0.0000 </r>
       <r>   19.6439    0.0000 </r>
       <r>   22.7542    0.0000 </r>
       <r>   24.4795    0.0000 </r>
       <r>   27.6754    0.0000 </r>
      </set>
      <set comment="kpoint 12">
       <r>    2.3341    1.0000 </r>
       <r>    3.4501    1.0000 </r>
       <r>   15.9526    0.0000 </r>
       <r>   17.3199    0.0000 </r>
       <r>   20.1236    0.0000 </r>
       <r>   21.9594    0.0000 </r>
       <r>   24.3225    0.0000 </r>
       <r>   27.5831    0.0000 </r>
      </set>
      <set comment="kpoint 13">
       <r>    0.2189    1.0000 </r>
       <r>    6.1308    1.0000 </r>
       <r>   15.5311    0.0000 </r>
       <r>   18.1501    0.0000 </r>
       <r>   21.1307    0.0000 </r>
       <r>   21.6984    0.0000 </r>
       <r>   24.0857    0.0000 </r>
       <r>   28.2304    0.0000 </r>
      </set>
      <set comment="kpoint 14">
       <r>   -1.5586    1.0000 </r>
       <r>    9.3075    1.0000 </r>
       <r>   15.4910    0.0000 </r>
       <r>   19.1326    0.0000 </r>
       <r>   22.0235    0.0000 </r>
       <r>   22.5177    0.0000 </r>
       <r>   23.9148    0.0000 </r>
       <r>   27.4915    0.0000 </r>
      </set>
      <set comment="kpoint 15">
       <r>   -2.8852    1.0000 </r>
       <r>   12.8322    0.0000 </r>
       <r>   15.8633    0.0000 </r>
       <r>   20.0919    0.0000 </r>
       <r>   22.8321    0.0000 </r>
       <r>   23.8293    0.0000 </r>
       <r>   24.1421    0.0000 </r>
       <r>   25.2585    0.0000 </r>
      </set>
      <set comment="kpoint 16">
       <r>   -3.7487    1.0000 </r>
       <r>   16.4386    0.0000 </r>
       <r>   16.7658    0.0000 </r>
       <r>   20.7630    0.0000 </r>
       <r>   22.4062    0.0000 </r>
       <r>   23.4486    0.0000 </r>
       <r>   24.6389    0.0000 </r>
       <r>   25.6784    0.0000 </r>
      </set>
      <set comment="kpoint 17">
       <r>   -3.1199    1.0000 </r>
       <r>   16.3534    0.0000 </r>
       <r>   16.3535    0.0000 </r>
       <r>   18.0564    0.0000 </r>
       <r>   18.0975    0.0000 </r>
       <r>   21.3014    0.0000 </r>
       <r>   27.6356    0.0000 </r>
       <r>   27.6356    0.0000 </r>
      </set>
      <set comment="kpoint 18">
       <r>   -2.2589    1.0000 </r>
       <r>   13.3402    0.0000 </r>
       <r>   15.5959    0.0000 </r>
       <r>   16.7339    0.0000 </r>
       <r>   18.3814    0.0000 </r>
       <r>   20.7674    0.0000 </r>
       <r>   28.0506    0.0000 </r>
       <r>   28.4618    0.0000 </r>
      </set>
      <set comment="kpoint 19">
       <r>   -0.9359    1.0000 </r>
       <r>    9.8752    0.0020 </r>
       <r>   15.2408    0.0000 </r>
       <r>   15.2408    0.0000 </r>
       <r>   18.0241    0.0000 </r>
       <r>   22.8811    0.0000 </r>
       <r>   26.8218    0.0000 </r>
       <r>   28.5545    0.0000 </r>
      </set>
      <set comment="kpoint 20">
       <r>    0.8365    1.0000 </r>
       <r>    6.7202    1.0000 </r>
       <r>   13.8860    0.0000 </r>
       <r>   15.2968    0.0000 </r>
       <r>   18.0238    0.0000 </r>
       <r>   25.3825    0.0000 </r>
       <r>   25.5681    0.0000 </r>
       <r>   28.6493    0.0000 </r>
      </set>
      <set comment="kpoint 21">
       <r>    2.9512    1.0000 </r>
       <r>    4.0452    1.0000 </r>
       <r>   12.8633    0.0000 </r>
       <r>   15.7548    0.0000 </r>
       <r>   18.5101    0.0000 </r>
       <r>   24.6352    0.0000 </r>
       <r>   26.5852    0.0000 </r>
       <r>   29.9521    0.0000 </r>
      </set>
      <set comment="kpoint 22">
       <r>    1.5198    1.0000 </r>
       <r>    5.7540    1.0000 </r>
       <r>   12.2401    0.0000 </r>
       <r>   16.5991    0.0000 </r>
       <r>   19.4450    0.0000 </r>
       <r>   24.0733    0.0000 </r>
       <r>   26.3889    0.0000 </r>
       <r>   30.0931    0.0000 </r>
      </set>
      <set comment="kpoint 23">
       <r>   -0.3943    1.0000 </r>
       <r>    8.7693    1.0000 </r>
       <r>   12.0499    0.0000 </r>
       <r>   17.7938    0.0000 </r>
       <r>   20.7989    0.0000 </r>
       <r>   23.9660    0.0000 </r>
       <r>   25.9491    0.0000 </r>
       <r>   26.9966    0.0000 </r>
      </set>
      <set comment="kpoint 24">
       <r>   -1.8692    1.0000 </r>
       <r>   11.8626    0.0000 </r>
       <r>   12.5706    0.0000 </r>
       <r>   19.2195    0.0000 </r>
       <r>   22.5005    0.0000 </r>
       <r>   24.2245    0.0000 </r>
       <r>   24.4238    0.0000 </r>
       <r>   25.1828    0.0000 </r>
      </set>
      <set comment="kpoint 25">
       <r>   -1.5558    1.0000 </r>
       <r>   14.6243    0.0000 </r>
       <r>   14.7010    0.0000 </r>
       <r>   14.7011    0.0000 </r>
       <r>   16.2720    0.0000 </r>
       <r>   18.5619    0.0000 </r>
       <r>   30.7961    0.0000 </r>
       <r>   30.7974    0.0000 </r>
      </set>
      <set comment="kpoint 26">
       <r>   -0.3916    1.0000 </r>
       <r>   11.8356    0.0000 </r>
       <r>   12.8434    0.0000 </r>
       <r>   14.2157    0.0000 </r>
       <r>   16.6234    0.0000 </r>
       <r>   19.2311    0.0000 </r>
       <r>   30.0065    0.0000 </r>
       <r>   31.5295    0.0000 </r>
      </set>
      <set comment="kpoint 27">
       <r>    1.2250    1.0000 </r>
       <r>    8.6767    1.0000 </r>
       <r>   11.1886    0.0000 </r>
       <r>   14.1417    0.0000 </r>
       <r>   16.7130    0.0000 </r>
       <r>   21.8769    0.0000 </r>
       <r>   28.7858    0.0000 </r>
       <r>   31.2442    0.0000 </r>
      </set>
      <set comment="kpoint 28">
       <r>    3.2593    1.0000 </r>
       <r>    5.8283    1.0000 </r>
       <r>    9.9585    0.0000 </r>
       <r>   14.4782    0.0000 </r>
       <r>   17.1121    0.0000 </r>
       <r>   25.0212    0.0000 </r>
       <r>   27.7593    0.0000 </r>
       <r>   30.4684    0.0000 </r>
      </set>
      <set comment="kpoint 29">
       <r>    3.2578    1.0000 </r>
       <r>    5.8168    1.0000 </r>
       <r>    9.1760    1.0000 </r>
       <r>   15.2191    0.0000 </r>
       <r>   17.9423    0.0000 </r>
       <r>   27.0663    0.0000 </r>
       <r>   27.9679    0.0000 </r>
       <r>   29.5899    0.0000 </r>
      </set>
      <set comment="kpoint 30">
       <r>    1.2211    1.0000 </r>
       <r>    8.3293    1.0000 </r>
       <r>    9.1673    1.0000 </r>
       <r>   16.3456    0.0000 </r>
       <r>   19.1894    0.0000 </r>
       <r>   26.4937    0.0000 </r>
       <r>   27.2536    0.0000 </r>
       <r>   27.8481    0.0000 </r>
      </set>
      <set comment="kpoint 31">
       <r>    0.6123    1.0000 </r>
       <r>   10.5329    0.0000 </r>
       <r>   13.5944    0.0000 </r>
       <r>   13.5945    0.0000 </r>
       <r>   15.0373    0.0000 </r>
       <r>   17.2335    0.0000 </r>
       <r>   32.7806    0.0000 </r>
       <r>   33.5895    0.0000 </r>
      </set>
      <set comment="kpoint 32">
       <r>    2.0672    1.0000 </r>
       <r>    8.7079    1.0000 </r>
       <r>   11.1002    0.0000 </r>
       <r>   13.3852    0.0000 </r>
       <r>   15.6821    0.0000 </r>
       <r>   18.3677    0.0000 </r>
       <r>   32.1150    0.0000 </r>
       <r>   34.0361    0.0000 </r>
      </set>
      <set comment="kpoint 33">
       <r>    3.9449    1.0000 </r>
       <r>    7.2308    1.0000 </r>
       <r>    8.2725    1.0000 </r>
       <r>   13.5892    0.0000 </r>
       <r>   16.0941    0.0000 </r>
       <r>   21.3601    0.0000 </r>
       <r>   31.0849    0.0000 </r>
       <r>   33.1064    0.0000 </r>
      </set>
      <set comment="kpoint 34">
       <r>    5.3511    1.0000 </r>
       <r>    5.9539    1.0000 </r>
       <r>    6.9175    1.0000 </r>
       <r>   14.2040    0.0000 </r>
       <r>   16.8126    0.0000 </r>
       <r>   24.8593    0.0000 </r>
       <r>   29.8760    0.0000 </r>
       <r>   31.1985    0.0000 </r>
      </set>
      <set comment="kpoint 35">
       <r>    3.3486    1.0000 </r>
       <r>    6.7485    1.0000 </r>
       <r>   13.0395    0.0000 </r>
       <r>   13.0396    0.0000 </r>
       <r>   14.4161    0.0000 </r>
       <r>   16.6245    0.0000 </r>
       <r>   34.3347    0.0000 </r>
       <r>   35.8484    0.0000 </r>
      </set>
      <set comment="kpoint 36">
       <r>    4.7624    1.0000 </r>
       <r>    5.4959    1.0000 </r>
       <r>   10.7941    0.0000 </r>
       <r>   13.1078    0.0000 </r>
       <r>   15.3751    0.0000 </r>
       <r>   18.0864    0.0000 </r>
       <r>   33.7178    0.0000 </r>
       <r>   35.3305    0.0000 </r>
      </set>
      <set comment="kpoint 37">
       <r>   -2.8067    1.0000 </r>
       <r>   14.1696    0.0000 </r>
       <r>   14.6712    0.0000 </r>
       <r>   19.0796    0.0000 </r>
       <r>   20.7871    0.0000 </r>
       <r>   22.3759    0.0000 </r>
       <r>   25.9527    0.0000 </r>
       <r>   26.5861    0.0000 </r>
      </set>
      <set comment="kpoint 38">
       <r>   -1.6353    1.0000 </r>
       <r>   10.8131    0.0000 </r>
       <r>   13.9581    0.0000 </r>
       <r>   17.6397    0.0000 </r>
       <r>   20.8622    0.0000 </r>
       <r>   23.4219    0.0000 </r>
       <r>   24.9203    0.0000 </r>
       <r>   27.1737    0.0000 </r>
      </set>
      <set comment="kpoint 39">
       <r>   -0.0091    1.0000 </r>
       <r>    7.5350    1.0000 </r>
       <r>   13.8527    0.0000 </r>
       <r>   16.2187    0.0000 </r>
       <r>   20.6844    0.0000 </r>
       <r>   23.0796    0.0000 </r>
       <r>   25.9560    0.0000 </r>
       <r>   27.9406    0.0000 </r>
      </set>
      <set comment="kpoint 40">
       <r>    2.0379    1.0000 </r>
       <r>    4.6490    1.0000 </r>
       <r>   14.1019    0.0000 </r>
       <r>   15.1766    0.0000 </r>
       <r>   20.8199    0.0000 </r>
       <r>   22.1781    0.0000 </r>
       <r>   26.6556    0.0000 </r>
       <r>   30.0349    0.0000 </r>
      </set>
      <set comment="kpoint 41">
       <r>   -1.2454    1.0000 </r>
       <r>   12.4343    0.0000 </r>
       <r>   12.9653    0.0000 </r>
       <r>   15.2082    0.0000 </r>
       <r>   19.1089    0.0000 </r>
       <r>   20.3777    0.0000 </r>
       <r>   27.5724    0.0000 </r>
       <r>   30.2288    0.0000 </r>
      </set>
      <set comment="kpoint 42">
       <r>    0.2254    1.0000 </r>
       <r>    9.3412    1.0000 </r>
       <r>   12.4382    0.0000 </r>
       <r>   13.5895    0.0000 </r>
       <r>   19.4241    0.0000 </r>
       <r>   22.4258    0.0000 </r>
       <r>   26.3221    0.0000 </r>
       <r>   30.7374    0.0000 </r>
      </set>
      <set comment="kpoint 43">
       <r>    2.1336    1.0000 </r>
       <r>    6.3438    1.0000 </r>
       <r>   11.9054    0.0000 </r>
       <r>   12.9738    0.0000 </r>
       <r>   19.6632    0.0000 </r>
       <r>   24.5362    0.0000 </r>
       <r>   26.0227    0.0000 </r>
       <r>   30.3986    0.0000 </r>
      </set>
      <set comment="kpoint 44">
       <r>    3.5642    1.0000 </r>
       <r>    4.6350    1.0000 </r>
       <r>   11.0750    0.0000 </r>
       <r>   13.5068    0.0000 </r>
       <r>   20.2679    0.0000 </r>
       <r>   24.0541    0.0000 </r>
       <r>   28.5081    0.0000 </r>
       <r>   29.0742    0.0000 </r>
      </set>
      <set comment="kpoint 45">
       <r>    1.4499    1.0000 </r>
       <r>    7.2894    1.0000 </r>
       <r>   10.6085    0.0000 </r>
       <r>   14.5370    0.0000 </r>
       <r>   21.2359    0.0000 </r>
       <r>   23.6405    0.0000 </r>
       <r>   26.4260    0.0000 </r>
       <r>   29.6624    0.0000 </r>
      </set>
      <set comment="kpoint 46">
       <r>   -0.3160    1.0000 </r>
       <r>   10.1018    0.0000 </r>
       <r>   10.8734    0.0000 </r>
       <r>   15.9682    0.0000 </r>
       <r>   22.3406    0.0000 </r>
       <r>   23.0905    0.0000 </r>
       <r>   24.3398    0.0000 </r>
       <r>   28.9180    0.0000 </r>
      </set>
      <set comment="kpoint 47">
       <r>    0.9198    1.0000 </r>
       <r>   10.7054    0.0000 </r>
       <r>   11.2676    0.0000 </r>
       <r>   12.1463    0.0000 </r>
       <r>   17.9484    0.0000 </r>
       <r>   19.2546    0.0000 </r>
       <r>   29.5502    0.0000 </r>
       <r>   33.4722    0.0000 </r>
      </set>
      <set comment="kpoint 48">
       <r>    2.6725    1.0000 </r>
       <r>    8.3767    1.0000 </r>
       <r>    9.4155    0.9999 </r>
       <r>   11.8161    0.0000 </r>
       <r>   18.5637    0.0000 </r>
       <r>   21.6936    0.0000 </r>
       <r>   28.4260    0.0000 </r>
       <r>   32.7572    0.0000 </r>
      </set>
      <set comment="kpoint 49">
       <r>    4.7754    1.0000 </r>
       <r>    5.7793    1.0000 </r>
       <r>    8.3035    1.0000 </r>
       <r>   12.2803    0.0000 </r>
       <r>   19.1157    0.0000 </r>
       <r>   24.9138    0.0000 </r>
       <r>   27.5752    0.0000 </r>
       <r>   30.0795    0.0000 </r>
      </set>
      <set comment="kpoint 50">
       <r>    3.3442    1.0000 </r>
       <r>    7.1435    1.0000 </r>
       <r>    7.9940    1.0000 </r>
       <r>   13.2001    0.0000 </r>
       <r>   20.0293    0.0000 </r>
       <r>   26.5361    0.0000 </r>
       <r>   26.6342    0.0000 </r>
       <r>   28.9390    0.0000 </r>
      </set>
      <set comment="kpoint 51">
       <r>    3.6485    1.0000 </r>
       <r>    7.0311    1.0000 </r>
       <r>   10.6796    0.0000 </r>
       <r>   11.4506    0.0000 </r>
       <r>   17.3496    0.0000 </r>
       <r>   18.6970    0.0000 </r>
       <r>   31.8042    0.0000 </r>
       <r>   33.9680    0.0000 </r>
      </set>
      <set comment="kpoint 52">
       <r>    5.3580    1.0000 </r>
       <r>    6.0417    1.0000 </r>
       <r>    8.2593    1.0000 </r>
       <r>   11.5013    0.0000 </r>
       <r>   18.2771    0.0000 </r>
       <r>   21.4393    0.0000 </r>
       <r>   30.8892    0.0000 </r>
       <r>   30.9304    0.0000 </r>
      </set>
      <set comment="kpoint 53">
       <r>    1.8353    1.0000 </r>
       <r>    8.9215    1.0000 </r>
       <r>    9.6522    0.6091 </r>
       <r>   11.9072    0.0000 </r>
       <r>   21.9980    0.0000 </r>
       <r>   22.4470    0.0000 </r>
       <r>   25.2252    0.0000 </r>
       <r>   32.2420    0.0000 </r>
      </set>
      <set comment="kpoint 54">
       <r>    3.8640    1.0000 </r>
       <r>    6.4006    1.0000 </r>
       <r>    9.6038    0.8318 </r>
       <r>   10.7612    0.0000 </r>
       <r>   22.3732    0.0000 </r>
       <r>   23.7310    0.0000 </r>
       <r>   25.9545    0.0000 </r>
       <r>   29.4944    0.0000 </r>
      </set>
      <set comment="kpoint 55">
       <r>    4.5415    1.0000 </r>
       <r>    7.7834    1.0000 </r>
       <r>    8.3290    1.0000 </r>
       <r>    9.4255    0.9998 </r>
       <r>   21.4234    0.0000 </r>
       <r>   22.1496    0.0000 </r>
       <r>   27.3928    0.0000 </r>
       <r>   30.1590    0.0000 </r>
      </set>
      <set comment="kpoint 56">
       <r>    5.9498    1.0000 </r>
       <r>    6.5491    1.0000 </r>
       <r>    7.3951    1.0000 </r>
       <r>    9.6201    0.7674 </r>
       <r>   22.3478    0.0000 </r>
       <r>   24.9296    0.0000 </r>
       <r>   26.0256    0.0000 </r>
       <r>   27.6433    0.0000 </r>
      </set>
     </set>
    </set>
   </array>
  </eigenvalues>
  <separator name="orbital magnetization" >
   <v name="MAGDIPOLOUT">      0.00000000      0.00000000      0.00000000</v>
  </separator>
  <dos>
   <i name="efermi">      9.67179579 </i>
   <total>
    <array>
     <dimension dim="1">gridpoints</dimension>
     <dimension dim="2">spin</dimension>
     <field>energy</field>
     <field>total</field>
     <field>integrated</field>
     <set>
      <set comment="spin 1">
       <r>    -6.3908     0.0000     0.0000 </r>
       <r>    -6.2433     0.0000     0.0000 </r>
       <r>    -6.0958     0.0000     0.0000 </r>
       <r>    -5.9483     0.0000     0.0000 </r>
       <r>    -5.8008     0.0000     0.0000 </r>
       <r>    -5.6533     0.0000     0.0000 </r>
       <r>    -5.5058     0.0000     0.0000 </r>
       <r>    -5.3583     0.0000     0.0000 </r>
       <r>    -5.2108     0.0000     0.0000 </r>
       <r>    -5.0633     0.0000     0.0000 </r>
       <r>    -4.9158     0.0000     0.0000 </r>
       <r>    -4.7683     0.0000     0.0000 </r>
       <r>    -4.6208     0.0000     0.0000 </r>
       <r>    -4.4733     0.0009     0.0001 </r>
       <r>    -4.3258     0.0074     0.0012 </r>
       <r>    -4.1783     0.0300     0.0057 </r>
       <r>    -4.0308     0.0902     0.0190 </r>
       <r>    -3.8833     0.0274     0.0230 </r>
       <r>    -3.7358     0.0670     0.0329 </r>
       <r>    -3.5883     0.0868     0.0457 </r>
       <r>    -3.4408     0.2099     0.0766 </r>
       <r>    -3.2933     0.0798     0.0884 </r>
       <r>    -3.1458     0.0235     0.0919 </r>
       <r>    -2.9983     0.0509     0.0994 </r>
       <r>    -2.8508     0.2215     0.1321 </r>
       <r>    -2.7033     0.2374     0.1671 </r>
       <r>    -2.5558     0.0651     0.1767 </r>
       <r>    -2.4082     0.1760     0.2026 </r>
       <r>    -2.2607     0.1819     0.2295 </r>
       <r>    -2.1132     0.1596     0.2530 </r>
       <r>    -1.9657     0.0168     0.2555 </r>
       <r>    -1.8182     0.0853     0.2681 </r>
       <r>    -1.6707     0.1937     0.2967 </r>
       <r>    -1.5232     0.5045     0.3711 </r>
       <r>    -1.3757     0.1292     0.3901 </r>
       <r>    -1.2282     0.1396     0.4107 </r>
       <r>    -1.0807     0.1442     0.4320 </r>
       <r>    -0.9332     0.2945     0.4754 </r>
       <r>    -0.7857     0.1456     0.4969 </r>
       <r>    -0.6382     0.0396     0.5027 </r>
       <r>    -0.4907     0.0854     0.5153 </r>
       <r>    -0.3432     0.4164     0.5768 </r>
       <r>    -0.1957     0.2666     0.6161 </r>
       <r>    -0.0482     0.1520     0.6385 </r>
       <r>     0.0993     0.3458     0.6895 </r>
       <r>     0.2468     0.4637     0.7579 </r>
       <r>     0.3943     0.2655     0.7971 </r>
       <r>     0.5418     0.0154     0.7993 </r>
       <r>     0.6893     0.0479     0.8064 </r>
       <r>     0.8368     0.1964     0.8354 </r>
       <r>     0.9843     0.4600     0.9032 </r>
       <r>     1.1318     0.1157     0.9203 </r>
       <r>     1.2793     0.2582     0.9584 </r>
       <r>     1.4268     0.3204     1.0056 </r>
       <r>     1.5743     0.4937     1.0784 </r>
       <r>     1.7218     0.0870     1.0913 </r>
       <r>     1.8693     0.1595     1.1148 </r>
       <r>     2.0168     0.3405     1.1650 </r>
       <r>     2.1643     0.7550     1.2764 </r>
       <r>     2.3118     0.2883     1.3189 </r>
       <r>     2.4593     0.1467     1.3406 </r>
       <r>     2.6068     0.0951     1.3546 </r>
       <r>     2.7543     0.3429     1.4052 </r>
       <r>     2.9018     0.1188     1.4227 </r>
       <r>     3.0493     0.1660     1.4472 </r>
       <r>     3.1968     0.1185     1.4647 </r>
       <r>     3.3443     0.5034     1.5389 </r>
       <r>     3.4918     0.4409     1.6039 </r>
       <r>     3.6393     0.5234     1.6811 </r>
       <r>     3.7868     0.2696     1.7209 </r>
       <r>     3.9343     0.4729     1.7907 </r>
       <r>     4.0818     0.4148     1.8518 </r>
       <r>     4.2293     0.1064     1.8675 </r>
       <r>     4.3768     0.0041     1.8681 </r>
       <r>     4.5243     0.1442     1.8894 </r>
       <r>     4.6718     0.7850     2.0052 </r>
       <r>     4.8193     0.7395     2.1143 </r>
       <r>     4.9668     0.1613     2.1381 </r>
       <r>     5.1143     0.0616     2.1472 </r>
       <r>     5.2619     0.1983     2.1764 </r>
       <r>     5.4094     0.2837     2.2183 </r>
       <r>     5.5569     0.1675     2.2430 </r>
       <r>     5.7044     0.1764     2.2690 </r>
       <r>     5.8519     0.8387     2.3927 </r>
       <r>     5.9994     0.5779     2.4779 </r>
       <r>     6.1469     0.3919     2.5358 </r>
       <r>     6.2944     0.2650     2.5748 </r>
       <r>     6.4419     0.6681     2.6734 </r>
       <r>     6.5894     0.3432     2.7240 </r>
       <r>     6.7369     0.2343     2.7586 </r>
       <r>     6.8844     0.1876     2.7862 </r>
       <r>     7.0319     0.2713     2.8263 </r>
       <r>     7.1794     0.3755     2.8816 </r>
       <r>     7.3269     0.5996     2.9701 </r>
       <r>     7.4744     0.4323     3.0339 </r>
       <r>     7.6219     0.3766     3.0894 </r>
       <r>     7.7694     0.1540     3.1121 </r>
       <r>     7.9169     0.1679     3.1369 </r>
       <r>     8.0644     0.1856     3.1643 </r>
       <r>     8.2119     0.3409     3.2146 </r>
       <r>     8.3594     1.2005     3.3916 </r>
       <r>     8.5069     0.5523     3.4731 </r>
       <r>     8.6544     0.1764     3.4991 </r>
       <r>     8.8019     0.4743     3.5691 </r>
       <r>     8.9494     0.2583     3.6072 </r>
       <r>     9.0969     0.1364     3.6273 </r>
       <r>     9.2444     0.3509     3.6791 </r>
       <r>     9.3919     0.8131     3.7990 </r>
       <r>     9.5394     0.7182     3.9049 </r>
       <r>     9.6869     0.7026     4.0086 </r>
       <r>     9.8344     0.2531     4.0459 </r>
       <r>     9.9819     0.3165     4.0926 </r>
       <r>    10.1294     0.2555     4.1303 </r>
       <r>    10.2769     0.1306     4.1495 </r>
       <r>    10.4244     0.0407     4.1555 </r>
       <r>    10.5719     0.2109     4.1867 </r>
       <r>    10.7194     0.8234     4.3081 </r>
       <r>    10.8669     1.0496     4.4629 </r>
       <r>    11.0144     0.4127     4.5238 </r>
       <r>    11.1619     0.6179     4.6149 </r>
       <r>    11.3094     0.4139     4.6760 </r>
       <r>    11.4569     0.2693     4.7157 </r>
       <r>    11.6044     0.3618     4.7691 </r>
       <r>    11.7519     0.3010     4.8135 </r>
       <r>    11.8994     0.9335     4.9512 </r>
       <r>    12.0469     0.6504     5.0471 </r>
       <r>    12.1944     0.4212     5.1092 </r>
       <r>    12.3419     0.6337     5.2027 </r>
       <r>    12.4894     0.6270     5.2952 </r>
       <r>    12.6369     0.2538     5.3326 </r>
       <r>    12.7845     0.1676     5.3574 </r>
       <r>    12.9320     0.7240     5.4642 </r>
       <r>    13.0795     0.6907     5.5660 </r>
       <r>    13.2270     0.3195     5.6132 </r>
       <r>    13.3745     0.3653     5.6670 </r>
       <r>    13.5220     0.6213     5.7587 </r>
       <r>    13.6695     0.8083     5.8779 </r>
       <r>    13.8170     0.3243     5.9257 </r>
       <r>    13.9645     0.8054     6.0445 </r>
       <r>    14.1120     0.7159     6.1501 </r>
       <r>    14.2595     0.7839     6.2658 </r>
       <r>    14.4070     0.2146     6.2974 </r>
       <r>    14.5545     0.5054     6.3720 </r>
       <r>    14.7020     0.4813     6.4430 </r>
       <r>    14.8495     0.1515     6.4653 </r>
       <r>    14.9970     0.0242     6.4689 </r>
       <r>    15.1445     0.3235     6.5166 </r>
       <r>    15.2920     1.1896     6.6921 </r>
       <r>    15.4395     0.6482     6.7877 </r>
       <r>    15.5870     0.5060     6.8623 </r>
       <r>    15.7345     0.4697     6.9316 </r>
       <r>    15.8820     0.4087     6.9919 </r>
       <r>    16.0295     0.4913     7.0644 </r>
       <r>    16.1770     0.3948     7.1226 </r>
       <r>    16.3245     0.4851     7.1942 </r>
       <r>    16.4720     0.2855     7.2363 </r>
       <r>    16.6195     0.4959     7.3094 </r>
       <r>    16.7670     1.0661     7.4667 </r>
       <r>    16.9145     0.6406     7.5611 </r>
       <r>    17.0620     0.1504     7.5833 </r>
       <r>    17.2095     0.2086     7.6141 </r>
       <r>    17.3570     0.3453     7.6650 </r>
       <r>    17.5045     0.3551     7.7174 </r>
       <r>    17.6520     0.5736     7.8020 </r>
       <r>    17.7995     0.4363     7.8663 </r>
       <r>    17.9470     0.4429     7.9317 </r>
       <r>    18.0945     0.7948     8.0489 </r>
       <r>    18.2420     0.6775     8.1488 </r>
       <r>    18.3895     0.7393     8.2579 </r>
       <r>    18.5370     0.8179     8.3785 </r>
       <r>    18.6845     0.5786     8.4639 </r>
       <r>    18.8320     0.1655     8.4883 </r>
       <r>    18.9795     0.1476     8.5100 </r>
       <r>    19.1270     0.8514     8.6356 </r>
       <r>    19.2745     1.1372     8.8034 </r>
       <r>    19.4220     0.5546     8.8852 </r>
       <r>    19.5695     0.4687     8.9543 </r>
       <r>    19.7170     0.5509     9.0356 </r>
       <r>    19.8645     0.4106     9.0961 </r>
       <r>    20.0120     0.3044     9.1410 </r>
       <r>    20.1595     0.5153     9.2170 </r>
       <r>    20.3071     0.5068     9.2918 </r>
       <r>    20.4546     0.3434     9.3424 </r>
       <r>    20.6021     0.1094     9.3586 </r>
       <r>    20.7496     0.8740     9.4875 </r>
       <r>    20.8971     1.5144     9.7109 </r>
       <r>    21.0446     0.4632     9.7792 </r>
       <r>    21.1921     0.4123     9.8400 </r>
       <r>    21.3396     0.5525     9.9215 </r>
       <r>    21.4871     0.5356    10.0005 </r>
       <r>    21.6346     0.3498    10.0521 </r>
       <r>    21.7821     0.6144    10.1427 </r>
       <r>    21.9296     0.4054    10.2025 </r>
       <r>    22.0771     0.6195    10.2939 </r>
       <r>    22.2246     0.6338    10.3874 </r>
       <r>    22.3721     0.9926    10.5338 </r>
       <r>    22.5196     1.3021    10.7259 </r>
       <r>    22.6671     0.3087    10.7714 </r>
       <r>    22.8146     0.4825    10.8426 </r>
       <r>    22.9621     0.8175    10.9631 </r>
       <r>    23.1096     0.6040    11.0522 </r>
       <r>    23.2571     0.2623    11.0909 </r>
       <r>    23.4046     0.2301    11.1249 </r>
       <r>    23.5521     0.4108    11.1854 </r>
       <r>    23.6996     0.5429    11.2655 </r>
       <r>    23.8471     0.8204    11.3865 </r>
       <r>    23.9946     1.0619    11.5432 </r>
       <r>    24.1421     1.1163    11.7078 </r>
       <r>    24.2896     0.5117    11.7833 </r>
       <r>    24.4371     0.7318    11.8912 </r>
       <r>    24.5846     0.7921    12.0081 </r>
       <r>    24.7321     0.3998    12.0670 </r>
       <r>    24.8796     0.4552    12.1342 </r>
       <r>    25.0271     0.9719    12.2776 </r>
       <r>    25.1746     0.4657    12.3462 </r>
       <r>    25.3221     0.7098    12.4509 </r>
       <r>    25.4696     0.3487    12.5024 </r>
       <r>    25.6171     0.3268    12.5506 </r>
       <r>    25.7646     0.5125    12.6262 </r>
       <r>    25.9121     0.6108    12.7163 </r>
       <r>    26.0596     1.4325    12.9276 </r>
       <r>    26.2071     0.3465    12.9787 </r>
       <r>    26.3546     0.4658    13.0474 </r>
       <r>    26.5021     0.8803    13.1772 </r>
       <r>    26.6496     1.0546    13.3328 </r>
       <r>    26.7971     0.6031    13.4217 </r>
       <r>    26.9446     0.2524    13.4589 </r>
       <r>    27.0921     0.3916    13.5167 </r>
       <r>    27.2396     0.5039    13.5910 </r>
       <r>    27.3871     0.2905    13.6339 </r>
       <r>    27.5346     0.7175    13.7397 </r>
       <r>    27.6821     1.2846    13.9292 </r>
       <r>    27.8297     0.5500    14.0103 </r>
       <r>    27.9772     0.6097    14.1002 </r>
       <r>    28.1247     0.5003    14.1740 </r>
       <r>    28.2722     0.2172    14.2061 </r>
       <r>    28.4197     0.4118    14.2668 </r>
       <r>    28.5672     0.9137    14.4016 </r>
       <r>    28.7147     0.4376    14.4661 </r>
       <r>    28.8622     0.3050    14.5111 </r>
       <r>    29.0097     0.4620    14.5793 </r>
       <r>    29.1572     0.4044    14.6389 </r>
       <r>    29.3047     0.0608    14.6479 </r>
       <r>    29.4522     0.1603    14.6715 </r>
       <r>    29.5997     0.7063    14.7757 </r>
       <r>    29.7472     0.5431    14.8558 </r>
       <r>    29.8947     0.2086    14.8866 </r>
       <r>    30.0422     0.8388    15.0103 </r>
       <r>    30.1897     1.0185    15.1605 </r>
       <r>    30.3372     0.3974    15.2192 </r>
       <r>    30.4847     0.4939    15.2920 </r>
       <r>    30.6322     0.1866    15.3195 </r>
       <r>    30.7797     0.3910    15.3772 </r>
       <r>    30.9272     0.4756    15.4473 </r>
       <r>    31.0747     0.3106    15.4932 </r>
       <r>    31.2222     0.2986    15.5372 </r>
       <r>    31.3697     0.1962    15.5662 </r>
       <r>    31.5172     0.1127    15.5828 </r>
       <r>    31.6647     0.1382    15.6032 </r>
       <r>    31.8122     0.1341    15.6230 </r>
       <r>    31.9597     0.1113    15.6394 </r>
       <r>    32.1072     0.1185    15.6568 </r>
       <r>    32.2547     0.2599    15.6952 </r>
       <r>    32.4022     0.1078    15.7111 </r>
       <r>    32.5497     0.0037    15.7116 </r>
       <r>    32.6972     0.1032    15.7268 </r>
       <r>    32.8447     0.3821    15.7832 </r>
       <r>    32.9922     0.0767    15.7945 </r>
       <r>    33.1397     0.1539    15.8172 </r>
       <r>    33.2872     0.0777    15.8287 </r>
       <r>    33.4347     0.0739    15.8396 </r>
       <r>    33.5822     0.1876    15.8672 </r>
       <r>    33.7297     0.1122    15.8838 </r>
       <r>    33.8772     0.0802    15.8956 </r>
       <r>    34.0247     0.2736    15.9360 </r>
       <r>    34.1722     0.1831    15.9630 </r>
       <r>    34.3197     0.0319    15.9677 </r>
       <r>    34.4672     0.0338    15.9727 </r>
       <r>    34.6147     0.0019    15.9730 </r>
       <r>    34.7622     0.0000    15.9730 </r>
       <r>    34.9097     0.0000    15.9730 </r>
       <r>    35.0572     0.0000    15.9730 </r>
       <r>    35.2047     0.0046    15.9736 </r>
       <r>    35.3522     0.0713    15.9841 </r>
       <r>    35.4998     0.0453    15.9908 </r>
       <r>    35.6473     0.0012    15.9910 </r>
       <r>    35.7948     0.0136    15.9930 </r>
       <r>    35.9423     0.0418    15.9992 </r>
       <r>    36.0898     0.0056    16.0000 </r>
       <r>    36.2373     0.0000    16.0000 </r>
       <r>    36.3848     0.0000    16.0000 </r>
       <r>    36.5323     0.0000    16.0000 </r>
       <r>    36.6798     0.0000    16.0000 </r>
       <r>    36.8273     0.0000    16.0000 </r>
       <r>    36.9748     0.0000    16.0000 </r>
       <r>    37.1223     0.0000    16.0000 </r>
       <r>    37.2698     0.0000    16.0000 </r>
       <r>    37.4173     0.0000    16.0000 </r>
       <r>    37.5648     0.0000    16.0000 </r>
       <r>    37.7123     0.0000    16.0000 </r>
       <r>    37.8598     0.0000    16.0000 </r>
      </set>
     </set>
    </array>
   </total>
  </dos>
 </calculation>
 <structure name="finalpos" >
  <crystal>
   <varray name="basis" >
    <v>       1.95000000       1.95000000       0.00000000 </v>
    <v>       0.00000000       1.95000000       1.95000000 </v>
    <v>       1.95000000       0.00000000       1.95000000 </v>
   </varray>
   <i name="volume">     14.82975000 </i>
   <varray name="rec_basis" >
    <v>       0.25641026       0.25641026      -0.25641026 </v>
    <v>      -0.25641026       0.25641026       0.25641026 </v>
    <v>       0.25641026      -0.25641026       0.25641026 </v>
   </varray>
  </crystal>
  <varray name="positions" >
   <v>       0.00000000       0.00000000       0.00000000 </v>
  </varray>
 </structure>
</modeling>
