fcc Ni                                  
   3.90000000000000     
     0.500000    0.500000    0.000000
     0.000000    0.500000    0.500000
     0.500000    0.000000    0.500000
   Ni
     1
Direct
  0.000000  0.000000  0.000000
 
   24   24   24
  207.15      195.80      165.10      123.57      81.272      46.257      22.638      10.299      5.8336      4.3949    
  3.4913      3.0087      2.8605      3.0087      3.4913      4.3949      5.8336      10.299      22.638      46.257    
  81.272      123.57      165.10      195.80      195.80      174.80      138.88      97.457      59.619      31.361    
  14.524      7.1684      4.9463      3.8399      3.1736      2.8758      2.8757      3.1735      3.8398      4.9463    
  7.1684      14.524      31.361      59.620      97.457      138.88      174.80      195.80      165.10      138.88    
  103.47      67.548      38.111      18.644      8.8393      5.4510      4.1763      3.3499      2.9156      2.7833    
  2.9156      3.3499      4.1763      5.4510      8.8393      18.644      38.111      67.548      103.47      138.88    
  165.10      174.80      123.57      97.457      67.548      40.654      21.196      10.269      5.9273      4.4551    
  3.5121      2.9660      2.7269      2.7270      2.9661      3.5121      4.4550      5.9273      10.270      21.196    
  40.654      67.548      97.457      123.57      138.88      138.88      81.272      59.619      38.111      21.196    
  10.834      6.2410      4.6381      3.6356      3.0122      2.6957      2.6009      2.6957      3.0121      3.6356    
  4.6381      6.2410      10.834      21.196      38.111      59.619      81.272      97.457      103.47      97.457    
  46.257      31.361      18.644      10.269      6.2410      4.7017      3.7021      3.0431      2.6791      2.5235    
  2.5234      2.6789      3.0431      3.7021      4.7018      6.2410      10.270      18.644      31.361      46.257    
  59.619      67.548      67.548      59.620      22.638      14.524      8.8393      5.9273      4.6381      3.7021    
  3.0538      2.6713      2.4819      2.4259      2.4818      2.6712      3.0538      3.7021      4.6381      5.9273    
  8.8393      14.524      22.638      31.361      38.111      40.654      38.111      31.361      10.299      7.1684    
  5.4510      4.4551      3.6356      3.0431      2.6713      2.4686      2.3825      2.3825      2.4687      2.6713    
  3.0431      3.6355      4.4550      5.4510      7.1684      10.299      14.524      18.644      21.196      21.196    
  18.644      14.524      5.8336      4.9463      4.1763      3.5121      3.0122      2.6791      2.4819      2.3825    
  2.3527      2.3824      2.4819      2.6791      3.0122      3.5121      4.1763      4.9462      5.8335      7.1684    
  8.8393      10.270      10.834      10.270      8.8393      7.1684      4.3949      3.8399      3.3499      2.9660    
  2.6957      2.5235      2.4259      2.3825      2.3824      2.4257      2.5235      2.6958      2.9661      3.3500    
  3.8398      4.3948      4.9462      5.4510      5.9273      6.2410      6.2410      5.9273      5.4510      4.9463    
  3.4913      3.1736      2.9156      2.7269      2.6009      2.5234      2.4818      2.4687      2.4819      2.5235    
  2.6009      2.7269      2.9156      3.1736      3.4913      3.8398      4.1763      4.4550      4.6381      4.7018    
  4.6381      4.4550      4.1763      3.8398      3.0087      2.8758      2.7833      2.7270      2.6957      2.6789    
  2.6712      2.6713      2.6791      2.6958      2.7269      2.7831      2.8757      3.0087      3.1736      3.3500    
  3.5121      3.6355      3.7021      3.7021      3.6356      3.5121      3.3499      3.1735      2.8605      2.8757    
  2.9156      2.9661      3.0121      3.0431      3.0538      3.0431      3.0122      2.9661      2.9156      2.8757    
  2.8605      2.8757      2.9156      2.9661      3.0122      3.0431      3.0538      3.0431      3.0121      2.9661    
  2.9156      2.8757      3.0087      3.1735      3.3499      3.5121      3.6356      3.7021      3.7021      3.6355    
  3.5121      3.3500      3.1736      3.0087      2.8757      2.7831      2.7269      2.6958      2.6791      2.6713    
  2.6712      2.6789      2.6957      2.7270      2.7833      2.8758      3.4913      3.8398      4.1763      4.4550    
  4.6381      4.7018      4.6381      4.4550      4.1763      3.8398      3.4913      3.1736      2.9156      2.7269    
  2.6009      2.5235      2.4819      2.4687      2.4818      2.5234      2.6009      2.7269      2.9156      3.1736    
  4.3949      4.9463      5.4510      5.9273      6.2410      6.2410      5.9273      5.4510      4.9462      4.3948    
  3.8398      3.3500      2.9661      2.6958      2.5235      2.4257      2.3824      2.3825      2.4259      2.5235    
  2.6957      2.9660      3.3499      3.8399      5.8336      7.1684      8.8393      10.270      10.834      10.270    
  8.8393      7.1684      5.8335      4.9462      4.1763      3.5121      3.0122      2.6791      2.4819      2.3824    
  2.3527      2.3825      2.4819      2.6791      3.0122      3.5121      4.1763      4.9463      10.299      14.524    
  18.644      21.196      21.196      18.644      14.524      10.299      7.1684      5.4510      4.4550      3.6355    
  3.0431      2.6713      2.4687      2.3825      2.3825      2.4686      2.6713      3.0431      3.6356      4.4551    
  5.4510      7.1684      22.638      31.361      38.111      40.654      38.111      31.361      22.638      14.524    
  8.8393      5.9273      4.6381      3.7021      3.0538      2.6712      2.4818      2.4259      2.4819      2.6713    
  3.0538      3.7021      4.6381      5.9273      8.8393      14.524      46.257      59.620      67.548      67.548    
  59.619      46.257      31.361      18.644      10.270      6.2410      4.7018      3.7021      3.0431      2.6789    
  2.5234      2.5235      2.6791      3.0431      3.7021      4.7017      6.2410      10.269      18.644      31.361    
  81.272      97.457      103.47      97.457      81.272      59.619      38.111      21.196      10.834      6.2410    
  4.6381      3.6356      3.0121      2.6957      2.6009      2.6957      3.0122      3.6356      4.6381      6.2410    
  10.834      21.196      38.111      59.619      123.57      138.88      138.88      123.57      97.457      67.548    
  40.654      21.196      10.270      5.9273      4.4550      3.5121      2.9661      2.7270      2.7269      2.9660    
  3.5121      4.4551      5.9273      10.269      21.196      40.654      67.548      97.457      165.10      174.80    
  165.10      138.88      103.47      67.548      38.111      18.644      8.8393      5.4510      4.1763      3.3499    
  2.9156      2.7833      2.9156      3.3499      4.1763      5.4510      8.8393      18.644      38.111      67.548    
  103.47      138.88      195.80      195.80      174.80      138.88      97.457      59.620      31.361      14.524    
  7.1684      4.9463      3.8398      3.1735      2.8757      2.8758      3.1736      3.8399      4.9463      7.1684    
  14.524      31.361      59.619      97.457      138.88      174.80      195.80      174.80      138.88      97.457    
  59.619      31.361      14.524      7.1685      4.9463      3.8398      3.1736      2.8758      2.8757      3.1735    
  3.8398      4.9463      7.1684      14.524      31.361      59.620      97.457      138.88      174.80      195.80    
  174.80      146.97      109.47      71.521      40.420      19.770      9.2519      5.5628      4.2480      3.3993    
  2.9507      2.8136      2.9507      3.3993      4.2479      5.5626      9.2518      19.770      40.420      71.521    
  109.47      146.97      174.80      185.11      138.88      109.47      75.927      45.800      23.890      11.375    
  6.2460      4.6086      3.6196      3.0390      2.7829      2.7830      3.0391      3.6196      4.6085      6.2458    
  11.375      23.890      45.800      75.927      109.47      138.88      156.17      156.17      97.457      71.521    
  45.800      25.451      12.720      6.8390      4.8742      3.8033      3.1230      2.7739      2.6687      2.7739    
  3.1231      3.8033      4.8742      6.8389      12.720      25.450      45.800      71.521      97.457      116.92    
  124.16      116.92      59.619      40.420      23.890      12.720      7.0775      5.0148      3.9245      3.1870    
  2.7743      2.5967      2.5967      2.7742      3.1871      3.9246      5.0148      7.0774      12.720      23.890    
  40.420      59.619      76.843      87.086      87.086      76.843      31.361      19.770      11.375      6.8390    
  5.0148      3.9669      3.2213      2.7761      2.5548      2.4891      2.5548      2.7761      3.2212      3.9669    
  5.0148      6.8390      11.375      19.770      31.361      43.651      53.124      56.692      53.124      43.651    
  14.524      9.2519      6.2460      4.8742      3.9245      3.2213      2.7769      2.5352      2.4328      2.4328    
  2.5353      2.7769      3.2213      3.9245      4.8742      6.2459      9.2518      14.524      21.341      27.842    
  31.830      31.830      27.842      21.341      7.1685      5.5628      4.6086      3.8033      3.1870      2.7761    
  2.5352      2.4153      2.3798      2.4154      2.5353      2.7762      3.1871      3.8032      4.6085      5.5626    
  7.1684      9.8071      12.993      15.638      16.668      15.638      12.992      9.8070      4.9463      4.2480    
  3.6196      3.1230      2.7743      2.5548      2.4328      2.3798      2.3797      2.4327      2.5548      2.7743    
  3.1231      3.6196      4.2480      4.9462      5.7015      6.6990      7.7773      8.4950      8.4949      7.7772    
  6.6990      5.7015      3.8398      3.3993      3.0390      2.7739      2.5967      2.4891      2.4328      2.4154    
  2.4327      2.4890      2.5966      2.7739      3.0391      3.3994      3.8398      4.3186      4.7757      5.1523    
  5.4236      5.5286      5.4236      5.1523      4.7758      4.3187      3.1736      2.9507      2.7829      2.6687    
  2.5967      2.5548      2.5353      2.5353      2.5548      2.5966      2.6686      2.7829      2.9507      3.1736    
  3.4382      3.7161      3.9706      4.1650      4.2701      4.2701      4.1650      3.9707      3.7162      3.4382    
  2.8758      2.8136      2.7830      2.7739      2.7742      2.7761      2.7769      2.7762      2.7743      2.7739    
  2.7829      2.8135      2.8757      2.9709      3.0885      3.2097      3.3138      3.3837      3.4082      3.3837    
  3.3139      3.2096      3.0884      2.9709      2.8757      2.9507      3.0391      3.1231      3.1871      3.2212    
  3.2213      3.1871      3.1231      3.0391      2.9507      2.8757      2.8279      2.8104      2.8160      2.8319    
  2.8470      2.8554      2.8554      2.8469      2.8318      2.8160      2.8104      2.8279      3.1735      3.3993    
  3.6196      3.8033      3.9246      3.9669      3.9245      3.8032      3.6196      3.3994      3.1736      2.9709    
  2.8104      2.6969      2.6233      2.5784      2.5536      2.5455      2.5535      2.5783      2.6233      2.6970    
  2.8105      2.9709      3.8398      4.2479      4.6085      4.8742      5.0148      5.0148      4.8742      4.6085    
  4.2480      3.8398      3.4382      3.0885      2.8160      2.6233      2.4984      2.4254      2.3920      2.3920    
  2.4254      2.4984      2.6233      2.8160      3.0885      3.4382      4.9463      5.5626      6.2458      6.8389    
  7.0774      6.8390      6.2459      5.5626      4.9462      4.3186      3.7161      3.2097      2.8319      2.5784    
  2.4254      2.3464      2.3224      2.3465      2.4255      2.5784      2.8318      3.2096      3.7161      4.3187    
  7.1684      9.2518      11.375      12.720      12.720      11.375      9.2518      7.1684      5.7015      4.7757    
  3.9706      3.3138      2.8470      2.5536      2.3920      2.3224      2.3224      2.3919      2.5536      2.8470    
  3.3139      3.9706      4.7756      5.7015      14.524      19.770      23.890      25.450      23.890      19.770    
  14.524      9.8071      6.6990      5.1523      4.1650      3.3837      2.8554      2.5455      2.3920      2.3465    
  2.3919      2.5455      2.8554      3.3838      4.1651      5.1522      6.6989      9.8070      31.361      40.420    
  45.800      45.800      40.420      31.361      21.341      12.993      7.7773      5.4236      4.2701      3.4082    
  2.8554      2.5535      2.4254      2.4255      2.5536      2.8554      3.4082      4.2701      5.4236      7.7772    
  12.992      21.341      59.620      71.521      75.927      71.521      59.619      43.651      27.842      15.638    
  8.4950      5.5286      4.2701      3.3837      2.8469      2.5783      2.4984      2.5784      2.8470      3.3838    
  4.2701      5.5285      8.4948      15.638      27.842      43.651      97.457      109.47      109.47      97.457    
  76.843      53.124      31.830      16.668      8.4949      5.4236      4.1650      3.3139      2.8318      2.6233    
  2.6233      2.8318      3.3139      4.1651      5.4236      8.4948      16.668      31.830      53.124      76.843    
  138.88      146.97      138.88      116.92      87.086      56.692      31.830      15.638      7.7772      5.1523    
  3.9707      3.2096      2.8160      2.6970      2.8160      3.2096      3.9706      5.1522      7.7772      15.638    
  31.830      56.692      87.086      116.92      174.80      174.80      156.17      124.16      87.086      53.124    
  27.842      12.992      6.6990      4.7758      3.7162      3.0884      2.8104      2.8105      3.0885      3.7161    
  4.7756      6.6989      12.992      27.842      53.124      87.086      124.16      156.17      195.80      185.11    
  156.17      116.92      76.843      43.651      21.341      9.8070      5.7015      4.3187      3.4382      2.9709    
  2.8279      2.9709      3.4382      4.3187      5.7015      9.8070      21.341      43.651      76.843      116.92    
  156.17      185.11      165.10      138.88      103.47      67.548      38.111      18.644      8.8393      5.4510    
  4.1763      3.3499      2.9156      2.7833      2.9156      3.3499      4.1763      5.4510      8.8393      18.644    
  38.111      67.548      103.47      138.88      165.10      174.80      138.88      109.47      75.927      45.800    
  23.890      11.375      6.2460      4.6087      3.6196      3.0390      2.7829      2.7830      3.0391      3.6196    
  4.6085      6.2459      11.375      23.890      45.800      75.927      109.47      138.88      156.17      156.17    
  103.47      75.927      48.647      27.038      13.440      7.0748      4.9551      3.8621      3.1622      2.8014    
  2.6924      2.8013      3.1622      3.8621      4.9551      7.0747      13.439      27.038      48.647      75.927    
  103.47      124.16      131.88      124.16      67.548      45.800      27.038      14.234      7.6180      5.1835    
  4.0439      3.2653      2.8259      2.6360      2.6359      2.8258      3.2654      4.0441      5.1835      7.6178    
  14.233      27.038      45.800      67.548      87.086      98.727      98.727      87.086      38.111      23.890    
  13.440      7.6180      5.2676      4.1412      3.3333      2.8460      2.6025      2.5301      2.6025      2.8460    
  3.3333      4.1412      5.2676      7.6180      13.440      23.890      38.111      53.124      64.697      69.059    
  64.697      53.124      18.644      11.375      7.0748      5.1835      4.1412      3.3571      2.8569      2.5843    
  2.4686      2.4687      2.5844      2.8569      3.3569      4.1411      5.1835      7.0749      11.375      18.644    
  27.842      36.533      41.849      41.849      36.534      27.842      8.8393      6.2460      4.9551      4.0439    
  3.3333      2.8569      2.5784      2.4406      2.3999      2.4406      2.5785      2.8569      3.3333      4.0439    
  4.9550      6.2460      8.8393      12.992      17.858      21.833      23.371      21.833      17.858      12.992    
  5.4510      4.6087      3.8621      3.2653      2.8460      2.5843      2.4406      2.3790      2.3790      2.4406    
  2.5843      2.8461      3.2654      3.8620      4.6085      5.4509      6.6989      8.5311      10.482      11.757    
  11.757      10.482      8.5310      6.6989      4.1763      3.6196      3.1622      2.8259      2.6025      2.4686    
  2.3999      2.3790      2.3999      2.4686      2.6025      2.8259      3.1622      3.6196      4.1763      4.7756    
  5.3567      5.9672      6.5013      6.7190      6.5013      5.9672      5.3567      4.7756      3.3499      3.0390    
  2.8014      2.6360      2.5301      2.4687      2.4406      2.4406      2.4686      2.5300      2.6359      2.8014    
  3.0391      3.3500      3.7161      4.0996      4.4503      4.7178      4.8622      4.8622      4.7179      4.4505    
  4.0997      3.7161      2.9156      2.7829      2.6924      2.6359      2.6025      2.5844      2.5785      2.5843    
  2.6025      2.6359      2.6924      2.7829      2.9156      3.0885      3.2873      3.4872      3.6590      3.7754    
  3.8166      3.7754      3.6591      3.4872      3.2873      3.0885      2.7833      2.7830      2.8013      2.8258    
  2.8460      2.8569      2.8569      2.8461      2.8259      2.8014      2.7829      2.7832      2.8104      2.8636    
  2.9321      3.0007      3.0550      3.0847      3.0847      3.0550      3.0007      2.9321      2.8636      2.8105    
  2.9156      3.0391      3.1622      3.2654      3.3333      3.3569      3.3333      3.2654      3.1622      3.0391    
  2.9156      2.8104      2.7350      2.6898      2.6670      2.6565      2.6516      2.6500      2.6516      2.6565    
  2.6670      2.6898      2.7350      2.8104      3.3499      3.6196      3.8621      4.0441      4.1412      4.1411    
  4.0439      3.8620      3.6196      3.3500      3.0885      2.8636      2.6898      2.5671      2.4863      2.4371    
  2.4136      2.4136      2.4371      2.4863      2.5672      2.6899      2.8636      3.0884      4.1763      4.6085    
  4.9551      5.1835      5.2676      5.1835      4.9550      4.6085      4.1763      3.7161      3.2873      2.9321    
  2.6670      2.4863      2.3737      2.3131      2.2941      2.3131      2.3736      2.4862      2.6670      2.9321    
  3.2873      3.7162      5.4510      6.2459      7.0747      7.6178      7.6180      7.0749      6.2460      5.4509    
  4.7756      4.0996      3.4872      3.0007      2.6565      2.4371      2.3131      2.2584      2.2584      2.3131    
  2.4371      2.6565      3.0007      3.4872      4.0997      4.7758      8.8393      11.375      13.439      14.233    
  13.440      11.375      8.8393      6.6989      5.3567      4.4503      3.6590      3.0550      2.6516      2.4136    
  2.2941      2.2584      2.2941      2.4136      2.6516      3.0550      3.6591      4.4504      5.3567      6.6989    
  18.644      23.890      27.038      27.038      23.890      18.644      12.992      8.5311      5.9672      4.7178    
  3.7754      3.0847      2.6500      2.4136      2.3131      2.3131      2.4136      2.6500      3.0847      3.7755    
  4.7178      5.9671      8.5309      12.992      38.111      45.800      48.647      45.800      38.111      27.842    
  17.858      10.482      6.5013      4.8622      3.8166      3.0847      2.6516      2.4371      2.3736      2.4371    
  2.6516      3.0847      3.8166      4.8621      6.5013      10.482      17.858      27.842      67.548      75.927    
  75.927      67.548      53.124      36.533      21.833      11.757      6.7190      4.8622      3.7754      3.0550    
  2.6565      2.4863      2.4862      2.6565      3.0550      3.7755      4.8621      6.7188      11.757      21.833    
  36.534      53.124      103.47      109.47      103.47      87.086      64.697      41.849      23.371      11.757    
  6.5013      4.7179      3.6591      3.0007      2.6670      2.5672      2.6670      3.0007      3.6591      4.7178    
  6.5013      11.757      23.371      41.849      64.697      87.086      138.88      138.88      124.16      98.727    
  69.059      41.849      21.833      10.482      5.9672      4.4505      3.4872      2.9321      2.6898      2.6899    
  2.9321      3.4872      4.4504      5.9671      10.482      21.833      41.849      69.059      98.727      124.16    
  165.10      156.17      131.88      98.727      64.697      36.534      17.858      8.5310      5.3567      4.0997    
  3.2873      2.8636      2.7350      2.8636      3.2873      4.0997      5.3567      8.5309      17.858      36.534    
  64.697      98.727      131.88      156.17      174.80      156.17      124.16      87.086      53.124      27.842    
  12.992      6.6989      4.7756      3.7161      3.0885      2.8105      2.8104      3.0884      3.7162      4.7758    
  6.6989      12.992      27.842      53.124      87.086      124.16      156.17      174.80      123.57      97.457    
  67.548      40.654      21.196      10.269      5.9273      4.4551      3.5121      2.9660      2.7270      2.7270    
  2.9661      3.5121      4.4551      5.9273      10.270      21.196      40.654      67.548      97.457      123.57    
  138.88      138.88      97.457      71.521      45.800      25.451      12.720      6.8390      4.8742      3.8033    
  3.1230      2.7739      2.6687      2.7739      3.1231      3.8033      4.8743      6.8389      12.720      25.450    
  45.800      71.521      97.457      116.92      124.16      116.92      67.548      45.800      27.038      14.234    
  7.6180      5.1835      4.0439      3.2653      2.8259      2.6360      2.6359      2.8258      3.2654      4.0441    
  5.1835      7.6178      14.233      27.038      45.800      67.548      87.086      98.727      98.727      87.086    
  40.654      25.451      14.234      7.9260      5.3614      4.2017      3.3727      2.8706      2.6192      2.5443    
  2.6191      2.8706      3.3728      4.2019      5.3614      7.9259      14.233      25.450      40.654      56.692    
  69.059      73.723      69.059      56.692      21.196      12.720      7.6180      5.3614      4.2566      3.4304    
  2.9000      2.6103      2.4873      2.4873      2.6104      2.9000      3.4303      4.2566      5.3614      7.6180    
  12.720      21.196      31.830      41.849      47.974      47.973      41.849      31.830      10.269      6.8390    
  5.1835      4.2017      3.4304      2.9101      2.6062      2.4560      2.4117      2.4561      2.6062      2.9101    
  3.4303      4.2017      5.1835      6.8391      10.270      15.638      21.833      26.860      28.800      26.860    
  21.833      15.638      5.9273      4.8742      4.0439      3.3727      2.9000      2.6062      2.4461      2.3778    
  2.3778      2.4461      2.6062      2.9000      3.3728      4.0439      4.8742      5.9274      7.7773      10.482    
  13.307      15.130      15.130      13.307      10.482      7.7772      4.4551      3.8033      3.2653      2.8706    
  2.6103      2.4560      2.3778      2.3542      2.3778      2.4561      2.6103      2.8707      3.2654      3.8033    
  4.4550      5.1522      5.9672      6.9814      7.8897      8.2586      7.8896      6.9813      5.9672      5.1523    
  3.5121      3.1230      2.8259      2.6192      2.4873      2.4117      2.3778      2.3778      2.4117      2.4873    
  2.6191      2.8259      3.1231      3.5122      3.9706      4.4503      4.8873      5.2271      5.4301      5.4302    
  5.2272      4.8874      4.4504      3.9706      2.9660      2.7739      2.6360      2.5443      2.4873      2.4561    
  2.4461      2.4561      2.4873      2.5442      2.6359      2.7739      2.9661      3.2098      3.4872      3.7668    
  4.0085      4.1730      4.2314      4.1732      4.0087      3.7669      3.4872      3.2096      2.7270      2.6687    
  2.6359      2.6191      2.6104      2.6062      2.6062      2.6103      2.6191      2.6359      2.6686      2.7269    
  2.8160      2.9322      3.0624      3.1874      3.2862      3.3409      3.3409      3.2863      3.1874      3.0624    
  2.9321      2.8160      2.7270      2.7739      2.8258      2.8706      2.9000      2.9101      2.9000      2.8707    
  2.8259      2.7739      2.7269      2.6969      2.6898      2.7033      2.7282      2.7541      2.7725      2.7791    
  2.7725      2.7540      2.7281      2.7033      2.6899      2.6970      2.9661      3.1231      3.2654      3.3728    
  3.4303      3.4303      3.3728      3.2654      3.1231      2.9661      2.8160      2.6898      2.5955      2.5310    
  2.4891      2.4632      2.4504      2.4504      2.4632      2.4891      2.5310      2.5955      2.6898      2.8160    
  3.5121      3.8033      4.0441      4.2019      4.2566      4.2017      4.0439      3.8033      3.5122      3.2098    
  2.9322      2.7033      2.5310      2.4106      2.3321      2.2875      2.2730      2.2875      2.3321      2.4106    
  2.5310      2.7032      2.9320      3.2096      4.4551      4.8743      5.1835      5.3614      5.3614      5.1835    
  4.8742      4.4550      3.9706      3.4872      3.0624      2.7282      2.4891      2.3321      2.2393      2.1966    
  2.1966      2.2393      2.3321      2.4891      2.7282      3.0624      3.4872      3.9707      5.9273      6.8389    
  7.6178      7.9259      7.6180      6.8391      5.9274      5.1522      4.4503      3.7668      3.1874      2.7541    
  2.4632      2.2875      2.1966      2.1689      2.1966      2.2875      2.4632      2.7540      3.1874      3.7669    
  4.4505      5.1523      10.270      12.720      14.233      14.233      12.720      10.270      7.7773      5.9672    
  4.8873      4.0085      3.2862      2.7725      2.4504      2.2730      2.1966      2.1966      2.2730      2.4504    
  2.7725      3.2862      4.0085      4.8874      5.9672      7.7772      21.196      25.450      27.038      25.450    
  21.196      15.638      10.482      6.9814      5.2271      4.1730      3.3409      2.7791      2.4504      2.2875    
  2.2393      2.2875      2.4504      2.7792      3.3410      4.1730      5.2271      6.9813      10.482      15.638    
  40.654      45.800      45.800      40.654      31.830      21.833      13.307      7.8897      5.4301      4.2314    
  3.3409      2.7725      2.4632      2.3321      2.3321      2.4632      2.7725      3.3410      4.2314      5.4300    
  7.8896      13.307      21.833      31.830      67.548      71.521      67.548      56.692      41.849      26.860    
  15.130      8.2586      5.4302      4.1732      3.2863      2.7540      2.4891      2.4106      2.4891      2.7540    
  3.2862      4.1730      5.4300      8.2587      15.131      26.860      41.849      56.692      97.457      97.457    
  87.086      69.059      47.974      28.800      15.130      7.8896      5.2272      4.0087      3.1874      2.7281    
  2.5310      2.5310      2.7282      3.1874      4.0085      5.2271      7.8896      15.131      28.800      47.973    
  69.059      87.086      123.57      116.92      98.727      73.723      47.973      26.860      13.307      6.9813    
  4.8874      3.7669      3.0624      2.7033      2.5955      2.7032      3.0624      3.7669      4.8874      6.9813    
  13.307      26.860      47.973      73.723      98.727      116.92      138.88      124.16      98.727      69.059    
  41.849      21.833      10.482      5.9672      4.4504      3.4872      2.9321      2.6899      2.6898      2.9320    
  3.4872      4.4505      5.9672      10.482      21.833      41.849      69.059      98.727      124.16      138.88    
  138.88      116.92      87.086      56.692      31.830      15.638      7.7772      5.1523      3.9706      3.2096    
  2.8160      2.6970      2.8160      3.2096      3.9707      5.1523      7.7772      15.638      31.830      56.692    
  87.086      116.92      138.88      146.97      81.272      59.619      38.111      21.196      10.834      6.2410    
  4.6381      3.6356      3.0121      2.6957      2.6009      2.6957      3.0121      3.6356      4.6381      6.2410    
  10.834      21.196      38.111      59.619      81.272      97.457      103.47      97.457      59.619      40.420    
  23.890      12.720      7.0775      5.0148      3.9245      3.1870      2.7743      2.5967      2.5967      2.7742    
  3.1871      3.9246      5.0148      7.0774      12.720      23.890      40.420      59.619      76.843      87.086    
  87.086      76.843      38.111      23.890      13.440      7.6180      5.2676      4.1412      3.3333      2.8460    
  2.6025      2.5301      2.6025      2.8460      3.3333      4.1412      5.2676      7.6179      13.439      23.890    
  38.111      53.124      64.697      69.059      64.697      53.124      21.196      12.720      7.6180      5.3614    
  4.2566      3.4304      2.9000      2.6103      2.4873      2.4873      2.6104      2.9000      3.4303      4.2566    
  5.3614      7.6180      12.720      21.196      31.830      41.849      47.974      47.974      41.849      31.830    
  10.834      7.0775      5.2676      4.2566      3.4643      2.9286      2.6157      2.4612      2.4156      2.4612    
  2.6157      2.9286      3.4643      4.2566      5.2676      7.0775      10.834      16.668      23.371      28.800    
  30.894      28.800      23.371      16.668      6.2410      5.0148      4.1412      3.4304      2.9286      2.6174    
  2.4484      2.3766      2.3766      2.4485      2.6174      2.9286      3.4303      4.1411      5.0149      6.2411    
  8.4950      11.757      15.131      17.298      17.298      15.131      11.757      8.4948      4.6381      3.9245    