fcc Ni                                  
   3.90000000000000     
     0.500000    0.500000    0.000000
     0.000000    0.500000    0.500000
     0.500000    0.000000    0.500000
   Ni
     1
Direct
  0.000000  0.000000  0.000000
 
   24   24   24
 0.20715070673E+03 0.19579715723E+03 0.16509822593E+03 0.12357344776E+03 0.81272459331E+02
 0.46256709502E+02 0.22638167055E+02 0.10299287111E+02 0.58335556951E+01 0.43948593935E+01
 0.34912991076E+01 0.30086919439E+01 0.28605351352E+01 0.30086919439E+01 0.34912991076E+01
 0.43948593935E+01 0.58335556951E+01 0.10299287111E+02 0.22638167055E+02 0.46256709502E+02
 0.81272459331E+02 0.12357344776E+03 0.16509822593E+03 0.19579715723E+03 0.19579715723E+03
 0.17479932366E+03 0.13887799152E+03 0.97456880314E+02 0.59619392026E+02 0.31361002365E+02
 0.14524210883E+02 0.71684347872E+01 0.49462527567E+01 0.38398541623E+01 0.31735815861E+01
 0.28758078088E+01 0.28757332794E+01 0.31734606754E+01 0.38398339801E+01 0.49463054547E+01
 0.71684366307E+01 0.14524182408E+02 0.31361096250E+02 0.59619614116E+02 0.97456982416E+02
 0.13887775804E+03 0.17479889766E+03 0.19579694242E+03 0.16509822593E+03 0.13887799152E+03
 0.10346545263E+03 0.67548247491E+02 0.38110761183E+02 0.18644259891E+02 0.88393198889E+01
 0.54509620964E+01 0.41763188785E+01 0.33499228954E+01 0.29156055003E+01 0.27832819542E+01
 0.29155778715E+01 0.33499057628E+01 0.41763270187E+01 0.54509784641E+01 0.88393449209E+01
 0.18644309502E+02 0.38110813345E+02 0.67548249540E+02 0.10346539379E+03 0.13887791865E+03
 0.16509818391E+03 0.17479889766E+03 0.12357344776E+03 0.97456880314E+02 0.67548247491E+02
 0.40653983071E+02 0.21195741486E+02 0.10269452383E+02 0.59272965651E+01 0.44550695021E+01
 0.35121173045E+01 0.29660035792E+01 0.27269427759E+01 0.27269876561E+01 0.29660836845E+01
 0.35121425684E+01 0.44550395950E+01 0.59272989415E+01 0.10269511535E+02 0.21195746591E+02
 0.40653857564E+02 0.67548131921E+02 0.97456989784E+02 0.12357373962E+03 0.13887791865E+03
 0.13887775804E+03 0.81272459331E+02 0.59619392026E+02 0.38110761183E+02 0.21195741486E+02
 0.10834216056E+02 0.62409772629E+01 0.46381107334E+01 0.36356305414E+01 0.30121528290E+01
 0.26957298578E+01 0.26009035236E+01 0.26956960906E+01 0.30121322115E+01 0.36356365387E+01
 0.46381156650E+01 0.62409811604E+01 0.10834246293E+02 0.21195783368E+02 0.38110767558E+02
 0.59619363865E+02 0.81272443348E+02 0.97456989784E+02 0.10346539379E+03 0.97456982416E+02
 0.46256709502E+02 0.31361002365E+02 0.18644259891E+02 0.10269452383E+02 0.62409772629E+01
 0.47017452062E+01 0.37020787880E+01 0.30431143870E+01 0.26790730405E+01 0.25235345929E+01
 0.25234465295E+01 0.26789186374E+01 0.30430613434E+01 0.37021282889E+01 0.47017883794E+01
 0.62409966042E+01 0.10269521867E+02 0.18644366511E+02 0.31361009185E+02 0.46256534182E+02
 0.59619363865E+02 0.67548131921E+02 0.67548249540E+02 0.59619614116E+02 0.22638167055E+02
 0.14524210883E+02 0.88393198889E+01 0.59272965651E+01 0.46381107334E+01 0.37020787880E+01
 0.30537998344E+01 0.26712643224E+01 0.24818751274E+01 0.24258553611E+01 0.24818498765E+01
 0.26712486378E+01 0.30538023606E+01 0.37020790213E+01 0.46381136066E+01 0.59273237006E+01
 0.88393484504E+01 0.14524186086E+02 0.22638083159E+02 0.31361009185E+02 0.38110767558E+02
 0.40653857564E+02 0.38110813345E+02 0.31361096250E+02 0.10299287111E+02 0.71684347872E+01
 0.54509620964E+01 0.44550695021E+01 0.36356305414E+01 0.30431143870E+01 0.26712643224E+01
 0.24686119159E+01 0.23824533589E+01 0.23825109938E+01 0.24687279635E+01 0.26713250054E+01
 0.30430684437E+01 0.36355403737E+01 0.44550264555E+01 0.54509697836E+01 0.71684286081E+01
 0.10299255599E+02 0.14524186086E+02 0.18644366511E+02 0.21195783368E+02 0.21195746591E+02
 0.18644309502E+02 0.14524182408E+02 0.58335556951E+01 0.49462527567E+01 0.41763188785E+01
 0.35121173045E+01 0.30121528290E+01 0.26790730405E+01 0.24818751274E+01 0.23824533589E+01
 0.23526840347E+01 0.23824317217E+01 0.24818599045E+01 0.26790745260E+01 0.30121525113E+01
 0.35121043404E+01 0.41763041845E+01 0.49462441287E+01 0.58335465029E+01 0.71684286081E+01
 0.88393484504E+01 0.10269521867E+02 0.10834246293E+02 0.10269511535E+02 0.88393449209E+01
 0.71684366307E+01 0.43948593935E+01 0.38398541623E+01 0.33499228954E+01 0.29660035792E+01
 0.26957298578E+01 0.25235345929E+01 0.24258553611E+01 0.23825109938E+01 0.23824317217E+01
 0.24256998310E+01 0.25234552438E+01 0.26957841961E+01 0.29661133743E+01 0.33499778013E+01
 0.38398172146E+01 0.43947765752E+01 0.49462441287E+01 0.54509697836E+01 0.59273237006E+01
 0.62409966042E+01 0.62409811604E+01 0.59272989415E+01 0.54509784641E+01 0.49463054547E+01
 0.34912991076E+01 0.31735815861E+01 0.29156055003E+01 0.27269427759E+01 0.26009035236E+01
 0.25234465295E+01 0.24818498765E+01 0.24687279635E+01 0.24818599045E+01 0.25234552438E+01
 0.26009007126E+01 0.27269317014E+01 0.29155986614E+01 0.31735830446E+01 0.34912967079E+01
 0.38398172146E+01 0.41763041845E+01 0.44550264555E+01 0.46381136066E+01 0.47017883794E+01
 0.46381156650E+01 0.44550395950E+01 0.41763270187E+01 0.38398339801E+01 0.30086919439E+01
 0.28758078088E+01 0.27832819542E+01 0.27269876561E+01 0.26956960906E+01 0.26789186374E+01
 0.26712486378E+01 0.26713250054E+01 0.26790745260E+01 0.26957841961E+01 0.27269317014E+01
 0.27831479915E+01 0.28757322025E+01 0.30087447613E+01 0.31735830446E+01 0.33499778013E+01
 0.35121043404E+01 0.36355403737E+01 0.37020790213E+01 0.37021282889E+01 0.36356365387E+01
 0.35121425684E+01 0.33499057628E+01 0.31734606754E+01 0.28605351352E+01 0.28757332794E+01
 0.29155778715E+01 0.29660836845E+01 0.30121322115E+01 0.30430613434E+01 0.30538023606E+01
 0.30430684437E+01 0.30121525113E+01 0.29661133743E+01 0.29155986614E+01 0.28757322025E+01
 0.28605222877E+01 0.28757322025E+01 0.29155986614E+01 0.29661133743E+01 0.30121525113E+01
 0.30430684437E+01 0.30538023606E+01 0.30430613434E+01 0.30121322115E+01 0.29660836845E+01
 0.29155778715E+01 0.28757332794E+01 0.30086919439E+01 0.31734606754E+01 0.33499057628E+01
 0.35121425684E+01 0.36356365387E+01 0.37021282889E+01 0.37020790213E+01 0.36355403737E+01
 0.35121043404E+01 0.33499778013E+01 0.31735830446E+01 0.30087447613E+01 0.28757322025E+01
 0.27831479915E+01 0.27269317014E+01 0.26957841961E+01 0.26790745260E+01 0.26713250054E+01
 0.26712486378E+01 0.26789186374E+01 0.26956960906E+01 0.27269876561E+01 0.27832819542E+01
 0.28758078088E+01 0.34912991076E+01 0.38398339801E+01 0.41763270187E+01 0.44550395950E+01
 0.46381156650E+01 0.47017883794E+01 0.46381136066E+01 0.44550264555E+01 0.41763041845E+01
 0.38398172146E+01 0.34912967079E+01 0.31735830446E+01 0.29155986614E+01 0.27269317014E+01
 0.26009007126E+01 0.25234552438E+01 0.24818599045E+01 0.24687279635E+01 0.24818498765E+01
 0.25234465295E+01 0.26009035236E+01 0.27269427759E+01 0.29156055003E+01 0.31735815861E+01
 0.43948593935E+01 0.49463054547E+01 0.54509784641E+01 0.59272989415E+01 0.62409811604E+01
 0.62409966042E+01 0.59273237006E+01 0.54509697836E+01 0.49462441287E+01 0.43947765752E+01
 0.38398172146E+01 0.33499778013E+01 0.29661133743E+01 0.26957841961E+01 0.25234552438E+01
 0.24256998310E+01 0.23824317217E+01 0.23825109938E+01 0.24258553611E+01 0.25235345929E+01
 0.26957298578E+01 0.29660035792E+01 0.33499228954E+01 0.38398541623E+01 0.58335556951E+01
 0.71684366307E+01 0.88393449209E+01 0.10269511535E+02 0.10834246293E+02 0.10269521867E+02
 0.88393484504E+01 0.71684286081E+01 0.58335465029E+01 0.49462441287E+01 0.41763041845E+01
 0.35121043404E+01 0.30121525113E+01 0.26790745260E+01 0.24818599045E+01 0.23824317217E+01
 0.23526840347E+01 0.23824533589E+01 0.24818751274E+01 0.26790730405E+01 0.30121528290E+01
 0.35121173045E+01 0.41763188785E+01 0.49462527567E+01 0.10299287111E+02 0.14524182408E+02
 0.18644309502E+02 0.21195746591E+02 0.21195783368E+02 0.18644366511E+02 0.14524186086E+02
 0.10299255599E+02 0.71684286081E+01 0.54509697836E+01 0.44550264555E+01 0.36355403737E+01
 0.30430684437E+01 0.26713250054E+01 0.24687279635E+01 0.23825109938E+01 0.23824533589E+01
 0.24686119159E+01 0.26712643224E+01 0.30431143870E+01 0.36356305414E+01 0.44550695021E+01
 0.54509620964E+01 0.71684347872E+01 0.22638167055E+02 0.31361096250E+02 0.38110813345E+02
 0.40653857564E+02 0.38110767558E+02 0.31361009185E+02 0.22638083159E+02 0.14524186086E+02
 0.88393484504E+01 0.59273237006E+01 0.46381136066E+01 0.37020790213E+01 0.30538023606E+01
 0.26712486378E+01 0.24818498765E+01 0.24258553611E+01 0.24818751274E+01 0.26712643224E+01
 0.30537998344E+01 0.37020787880E+01 0.46381107334E+01 0.59272965651E+01 0.88393198889E+01
 0.14524210883E+02 0.46256709502E+02 0.59619614116E+02 0.67548249540E+02 0.67548131921E+02
 0.59619363865E+02 0.46256534182E+02 0.31361009185E+02 0.18644366511E+02 0.10269521867E+02
 0.62409966042E+01 0.47017883794E+01 0.37021282889E+01 0.30430613434E+01 0.26789186374E+01
 0.25234465295E+01 0.25235345929E+01 0.26790730405E+01 0.30431143870E+01 0.37020787880E+01
 0.47017452062E+01 0.62409772629E+01 0.10269452383E+02 0.18644259891E+02 0.31361002365E+02
 0.81272459331E+02 0.97456982416E+02 0.10346539379E+03 0.97456989784E+02 0.81272443348E+02
 0.59619363865E+02 0.38110767558E+02 0.21195783368E+02 0.10834246293E+02 0.62409811604E+01
 0.46381156650E+01 0.36356365387E+01 0.30121322115E+01 0.26956960906E+01 0.26009035236E+01
 0.26957298578E+01 0.30121528290E+01 0.36356305414E+01 0.46381107334E+01 0.62409772629E+01
 0.10834216056E+02 0.21195741486E+02 0.38110761183E+02 0.59619392026E+02 0.12357344776E+03
 0.13887775804E+03 0.13887791865E+03 0.12357373962E+03 0.97456989784E+02 0.67548131921E+02
 0.40653857564E+02 0.21195746591E+02 0.10269511535E+02 0.59272989415E+01 0.44550395950E+01
 0.35121425684E+01 0.29660836845E+01 0.27269876561E+01 0.27269427759E+01 0.29660035792E+01
 0.35121173045E+01 0.44550695021E+01 0.59272965651E+01 0.10269452383E+02 0.21195741486E+02
 0.40653983071E+02 0.67548247491E+02 0.97456880314E+02 0.16509822593E+03 0.17479889766E+03
 0.16509818391E+03 0.13887791865E+03 0.10346539379E+03 0.67548249540E+02 0.38110813345E+02
 0.18644309502E+02 0.88393449209E+01 0.54509784641E+01 0.41763270187E+01 0.33499057628E+01
 0.29155778715E+01 0.27832819542E+01 0.29156055003E+01 0.33499228954E+01 0.41763188785E+01
 0.54509620964E+01 0.88393198889E+01 0.18644259891E+02 0.38110761183E+02 0.67548247491E+02
 0.10346545263E+03 0.13887799152E+03 0.19579715723E+03 0.19579694242E+03 0.17479889766E+03
 0.13887775804E+03 0.97456982416E+02 0.59619614116E+02 0.31361096250E+02 0.14524182408E+02
 0.71684366307E+01 0.49463054547E+01 0.38398339801E+01 0.31734606754E+01 0.28757332794E+01
 0.28758078088E+01 0.31735815861E+01 0.38398541623E+01 0.49462527567E+01 0.71684347872E+01
 0.14524210883E+02 0.31361002365E+02 0.59619392026E+02 0.97456880314E+02 0.13887799152E+03
 0.17479932366E+03 0.19579714045E+03 0.17479929679E+03 0.13887797517E+03 0.97456875303E+02
 0.59619386190E+02 0.31360999029E+02 0.14524221076E+02 0.71684501693E+01 0.49462562062E+01
 0.38398494947E+01 0.31735842203E+01 0.28758145762E+01 0.28757302582E+01 0.31734520236E+01
 0.38398337811E+01 0.49463096881E+01 0.71684325042E+01 0.14524176867E+02 0.31361105759E+02
 0.59619634120E+02 0.97456995479E+02 0.13887776359E+03 0.17479890512E+03 0.19579694457E+03
 0.17479929679E+03 0.14697208198E+03 0.10947462944E+03 0.71521297856E+02 0.40420067945E+02
 0.19769957907E+02 0.92518749434E+01 0.55627957881E+01 0.42480331282E+01 0.33993289122E+01
 0.29506535148E+01 0.28135966178E+01 0.29506644408E+01 0.33993161346E+01 0.42479359288E+01
 0.55626346728E+01 0.92518280406E+01 0.19770189405E+02 0.40420459693E+02 0.71521486358E+02
 0.10947437510E+03 0.14697153276E+03 0.17479886022E+03 0.18510875829E+03 0.13887797517E+03
 0.10947462944E+03 0.75927082874E+02 0.45800252384E+02 0.23890126804E+02 0.11374732084E+02
 0.62459628323E+01 0.46086497601E+01 0.36196211013E+01 0.30389719650E+01 0.27829387382E+01
 0.27830036037E+01 0.30390777374E+01 0.36196068899E+01 0.46084942903E+01 0.62458498675E+01
 0.11374832326E+02 0.23890347648E+02 0.45800329549E+02 0.75926921303E+02 0.10947440378E+03
 0.13887786036E+03 0.15616541429E+03 0.15616543419E+03 0.97456875303E+02 0.71521297856E+02
 0.45800252384E+02 0.25450606004E+02 0.12719747735E+02 0.68389798783E+01 0.48742095210E+01
 0.38032744876E+01 0.31230464166E+01 0.27738921787E+01 0.26686667106E+01 0.27738684064E+01
 0.31230677884E+01 0.38033454693E+01 0.48742452809E+01 0.68389271770E+01 0.12719639370E+02
 0.25450494768E+02 0.45800181921E+02 0.71521324942E+02 0.97457013862E+02 0.11691826468E+03
 0.12416313347E+03 0.11691812336E+03 0.59619386190E+02 0.40420067945E+02 0.23890126804E+02
 0.12719747735E+02 0.70775416999E+01 0.50148361403E+01 0.39245293944E+01 0.31870342664E+01
 0.27742754302E+01 0.25967240348E+01 0.25966573217E+01 0.27741866363E+01 0.31870705687E+01
 0.39246265014E+01 0.50148178645E+01 0.70773962158E+01 0.12719641091E+02 0.23890159072E+02
 0.40420156326E+02 0.59619407310E+02 0.76842772194E+02 0.87085828895E+02 0.87085863193E+02
 0.76842823323E+02 0.31360999029E+02 0.19769957907E+02 0.11374732084E+02 0.68389798783E+01
 0.50148361403E+01 0.39669353258E+01 0.32212689757E+01 0.27761348464E+01 0.25547788813E+01
 0.24891487644E+01 0.25547650235E+01 0.27761182798E+01 0.32212378633E+01 0.39668805729E+01
 0.50148029059E+01 0.68390210442E+01 0.11374812605E+02 0.19769976414E+02 0.31360915077E+02
 0.43651076180E+02 0.53124105222E+02 0.56691793017E+02 0.53124185546E+02 0.43651199728E+02
 0.14524221076E+02 0.92518749434E+01 0.62459628323E+01 0.48742095210E+01 0.39245293944E+01
 0.32212689757E+01 0.27768983063E+01 0.25352297624E+01 0.24327616873E+01 0.24327961873E+01
 0.25352958437E+01 0.27769299883E+01 0.32212542057E+01 0.39245170161E+01 0.48742201189E+01
 0.62459366821E+01 0.92517690600E+01 0.14524121463E+02 0.21341301165E+02 0.27842173338E+02
 0.31829896037E+02 0.31829805099E+02 0.27842014564E+02 0.21341261314E+02 0.71684501693E+01
 0.55627957881E+01 0.46086497601E+01 0.38032744876E+01 0.31870342664E+01 0.27761348464E+01
 0.25352297624E+01 0.24153467201E+01 0.23797801350E+01 0.24153711576E+01 0.25353064402E+01
 0.27762494577E+01 0.31871065919E+01 0.38032274731E+01 0.46084907068E+01 0.55626215325E+01
 0.71683846326E+01 0.98070799944E+01 0.12992579962E+02 0.15637974796E+02 0.16668038237E+02
 0.15637789989E+02 0.12992353119E+02 0.98069709326E+01 0.49462562062E+01 0.42480331282E+01
 0.36196211013E+01 0.31230464166E+01 0.27742754302E+01 0.25547788813E+01 0.24327616873E+01
 0.23797801350E+01 0.23797388418E+01 0.24326935903E+01 0.25547759795E+01 0.27743430894E+01
 0.31230998296E+01 0.36195940154E+01 0.42479528126E+01 0.49462019143E+01 0.57015196845E+01
 0.66990162410E+01 0.77772912026E+01 0.84949677492E+01 0.84949423979E+01 0.77772276776E+01
 0.66989522027E+01 0.57015045377E+01 0.38398494947E+01 0.33993289122E+01 0.30389719650E+01
 0.27738921787E+01 0.25967240348E+01 0.24891487644E+01 0.24327961873E+01 0.24153711576E+01
 0.24326935903E+01 0.24890073776E+01 0.25966399938E+01 0.27739277947E+01 0.30390953188E+01
 0.33994290675E+01 0.38398365687E+01 0.43186337934E+01 0.47756717108E+01 0.51522738174E+01
 0.54236207967E+01 0.55286311728E+01 0.54235946396E+01 0.51522905321E+01 0.47757657437E+01
 0.43187387479E+01 0.31735842203E+01 0.29506535148E+01 0.27829387382E+01 0.26686667106E+01
 0.25966573217E+01 0.25547650235E+01 0.25352958437E+01 0.25353064402E+01 0.25547759795E+01
 0.25966399938E+01 0.26686338061E+01 0.27829291272E+01 0.29506736149E+01 0.31735941925E+01
 0.34381602012E+01 0.37160993857E+01 0.39706298151E+01 0.41649789535E+01 0.42700938684E+01
 0.42700828814E+01 0.41649694195E+01 0.39706563650E+01 0.37161521255E+01 0.34381923661E+01
 0.28758145762E+01 0.28135966178E+01 0.27830036037E+01 0.27738684064E+01 0.27741866363E+01
 0.27761182798E+01 0.27769299883E+01 0.27762494577E+01 0.27743430894E+01 0.27739277947E+01
 0.27829291272E+01 0.28134635041E+01 0.28757387547E+01 0.29709276220E+01 0.30885098509E+01
 0.32096977632E+01 0.33138244736E+01 0.33836696739E+01 0.34082295388E+01 0.33837217783E+01
 0.33138540775E+01 0.32096489201E+01 0.30884199342E+01 0.29708938327E+01 0.28757302582E+01
 0.29506644408E+01 0.30390777374E+01 0.31230677884E+01 0.31870705687E+01 0.32212378633E+01
 0.32212542057E+01 0.31871065919E+01 0.31230998296E+01 0.30390953188E+01 0.29506736149E+01
 0.28757387547E+01 0.28278671959E+01 0.28104146354E+01 0.28159871503E+01 0.28318539874E+01
 0.28469505651E+01 0.28553845469E+01 0.28553800464E+01 0.28469397254E+01 0.28318423305E+01
 0.28159781941E+01 0.28104069621E+01 0.28278586175E+01 0.31734520236E+01 0.33993161346E+01
 0.36196068899E+01 0.38033454693E+01 0.39246265014E+01 0.39668805729E+01 0.39245170161E+01
 0.38032274731E+01 0.36195940154E+01 0.33994290675E+01 0.31735941925E+01 0.29709276220E+01
 0.28104146354E+01 0.26968729635E+01 0.26232964278E+01 0.25783753516E+01 0.25536279397E+01
 0.25455481871E+01 0.25535394476E+01 0.25782941879E+01 0.26233128695E+01 0.26969718081E+01
 0.28104852924E+01 0.29708784136E+01 0.38398337811E+01 0.42479359288E+01 0.46084942903E+01
 0.48742452809E+01 0.50148178645E+01 0.50148029059E+01 0.48742201189E+01 0.46084907068E+01
 0.42479528126E+01 0.38398365687E+01 0.34381602012E+01 0.30885098509E+01 0.28159871503E+01
 0.26232964278E+01 0.24984176719E+01 0.24254055332E+01 0.23919613419E+01 0.23919749464E+01
 0.24254197666E+01 0.24983971922E+01 0.26232579275E+01 0.28159787412E+01 0.30885406887E+01
 0.34381895328E+01 0.49463096881E+01 0.55626346728E+01 0.62458498675E+01 0.68389271770E+01
 0.70773962158E+01 0.68390210442E+01 0.62459366821E+01 0.55626215325E+01 0.49462019143E+01
 0.43186337934E+01 0.37160993857E+01 0.32096977632E+01 0.28318539874E+01 0.25783753516E+01
 0.24254055332E+01 0.23464133167E+01 0.23223901450E+01 0.23465000616E+01 0.24254808872E+01
 0.25783575632E+01 0.28317654815E+01 0.32096332947E+01 0.37161310446E+01 0.43187476489E+01
 0.71684325042E+01 0.92518280406E+01 0.11374832326E+02 0.12719639370E+02 0.12719641091E+02
 0.11374812605E+02 0.92517690600E+01 0.71683846326E+01 0.57015196845E+01 0.47756717108E+01
 0.39706298151E+01 0.33138244736E+01 0.28469505651E+01 0.25536279397E+01 0.23919613419E+01
 0.23223901450E+01 0.23223646870E+01 0.23919228227E+01 0.25536431799E+01 0.28470268084E+01
 0.33138880791E+01 0.39706145751E+01 0.47756077519E+01 0.57014969618E+01 0.14524176867E+02
 0.19770189405E+02 0.23890347648E+02 0.25450494768E+02 0.23890159072E+02 0.19769976414E+02
 0.14524121463E+02 0.98070799944E+01 0.66990162410E+01 0.51522738174E+01 0.41649789535E+01
 0.33836696739E+01 0.28553845469E+01 0.25455481871E+01 0.23919749464E+01 0.23465000616E+01
 0.23919228227E+01 0.25454969456E+01 0.28554097169E+01 0.33837855372E+01 0.41650840461E+01
 0.51522400063E+01 0.66988520496E+01 0.98069500097E+01 0.31361105759E+02 0.40420459693E+02
 0.45800329549E+02 0.45800181921E+02 0.40420156326E+02 0.31360915077E+02 0.21341301165E+02
 0.12992579962E+02 0.77772912026E+01 0.54236207967E+01 0.42700938684E+01 0.34082295388E+01
 0.28553800464E+01 0.25535394476E+01 0.24254197666E+01 0.24254808872E+01 0.25536431799E+01
 0.28554097169E+01 0.34081971596E+01 0.42700816985E+01 0.54236153677E+01 0.77772032834E+01
 0.12992429262E+02 0.21341260630E+02 0.59619634120E+02 0.71521486358E+02 0.75926921303E+02
 0.71521324942E+02 0.59619407310E+02 0.43651076180E+02 0.27842173338E+02 0.15637974796E+02
 0.84949677492E+01 0.55286311728E+01 0.42700828814E+01 0.33837217783E+01 0.28469397254E+01
 0.25782941879E+01 0.24983971922E+01 0.25783575632E+01 0.28470268084E+01 0.33837855372E+01
 0.42700816985E+01 0.55285318376E+01 0.84947851971E+01 0.15637807393E+02 0.27842145901E+02
 0.43651223068E+02 0.97456995479E+02 0.10947437510E+03 0.10947440378E+03 0.97457013862E+02
 0.76842772194E+02 0.53124105222E+02 0.31829896037E+02 0.16668038237E+02 0.84949423979E+01
 0.54235946396E+01 0.41649694195E+01 0.33138540775E+01 0.28318423305E+01 0.26233128695E+01
 0.26232579275E+01 0.28317654815E+01 0.33138880791E+01 0.41650840461E+01 0.54236153677E+01
 0.84947851971E+01 0.16667836964E+02 0.31829834619E+02 0.53124185596E+02 0.76842842221E+02
 0.13887776359E+03 0.14697153276E+03 0.13887786036E+03 0.11691826468E+03 0.87085828895E+02
 0.56691793017E+02 0.31829805099E+02 0.15637789989E+02 0.77772276776E+01 0.51522905321E+01
 0.39706563650E+01 0.32096489201E+01 0.28159781941E+01 0.26969718081E+01 0.28159787412E+01
 0.32096332947E+01 0.39706145751E+01 0.51522400063E+01 0.77772032834E+01 0.15637807393E+02
 0.31829834619E+02 0.56691778597E+02 0.87085740557E+02 0.11691813392E+03 0.17479890512E+03
 0.17479886022E+03 0.15616541429E+03 0.12416313347E+03 0.87085863193E+02 0.53124185546E+02
 0.27842014564E+02 0.12992353119E+02 0.66989522027E+01 0.47757657437E+01 0.37161521255E+01
 0.30884199342E+01 0.28104069621E+01 0.28104852924E+01 0.30885406887E+01 0.37161310446E+01
 0.47756077519E+01 0.66988520496E+01 0.12992429262E+02 0.27842145901E+02 0.53124185596E+02
 0.87085740557E+02 0.12416305913E+03 0.15616545800E+03 0.19579694457E+03 0.18510875829E+03
 0.15616543419E+03 0.11691812336E+03 0.76842823323E+02 0.43651199728E+02 0.21341261314E+02
 0.98069709326E+01 0.57015045377E+01 0.43187387479E+01 0.34381923661E+01 0.29708938327E+01
 0.28278586175E+01 0.29708784136E+01 0.34381895328E+01 0.43187476489E+01 0.57014969618E+01
 0.98069500097E+01 0.21341260630E+02 0.43651223068E+02 0.76842842221E+02 0.11691813392E+03
 0.15616545800E+03 0.18510878731E+03 0.16509818887E+03 0.13887795489E+03 0.10346544724E+03
 0.67548259929E+02 0.38110764908E+02 0.18644264654E+02 0.88393430921E+01 0.54509838431E+01
 0.41763146996E+01 0.33499105557E+01 0.29156114375E+01 0.27832919753E+01 0.29155683272E+01
 0.33498919728E+01 0.41763329558E+01 0.54509899355E+01 0.88393407420E+01 0.18644307438E+02
 0.38110836548E+02 0.67548278114E+02 0.10346539752E+03 0.13887790728E+03 0.16509817852E+03
 0.17479888484E+03 0.13887795489E+03 0.10947461968E+03 0.75927093838E+02 0.45800269833E+02
 0.23890136364E+02 0.11374740183E+02 0.62459758431E+01 0.46086561248E+01 0.36196134729E+01
 0.30389642929E+01 0.27829420411E+01 0.27830068575E+01 0.30390712142E+01 0.36196017517E+01
 0.46085004266E+01 0.62458571055E+01 0.11374832274E+02 0.23890351125E+02 0.45800343244E+02
 0.75926929873E+02 0.10947439444E+03 0.13887784344E+03 0.15616540144E+03 0.15616541922E+03
 0.10346544724E+03 0.75927093838E+02 0.48646785972E+02 0.27038389389E+02 0.13439544441E+02
 0.70747612830E+01 0.49550633588E+01 0.38620661131E+01 0.31621867525E+01 0.28013516013E+01
 0.26923751540E+01 0.28013375129E+01 0.31622015574E+01 0.38621007471E+01 0.49550584761E+01
 0.70747074133E+01 0.13439488189E+02 0.27038341224E+02 0.48646716444E+02 0.75927018166E+02
 0.10346541852E+03 0.12416305918E+03 0.13187650210E+03 0.12416304628E+03 0.67548259929E+02
 0.45800269833E+02 0.27038389389E+02 0.14233646804E+02 0.76180169587E+01 0.51834718018E+01
 0.40438874822E+01 0.32653309106E+01 0.28258936863E+01 0.26359807782E+01 0.26358955876E+01
 0.28257782522E+01 0.32653891860E+01 0.40440708058E+01 0.51835325559E+01 0.76178342315E+01
 0.14233360597E+02 0.27038218300E+02 0.45800301129E+02 0.67548426032E+02 0.87085919895E+02
 0.98727441365E+02 0.98727370169E+02 0.87085747451E+02 0.38110764908E+02 0.23890136364E+02
 0.13439544441E+02 0.76180169587E+01 0.52676220758E+01 0.41412172637E+01 0.33333206576E+01
 0.28459995524E+01 0.26024890227E+01 0.25301055671E+01 0.26024892061E+01 0.28460105109E+01
 0.33333264396E+01 0.41411855518E+01 0.52675549111E+01 0.76179510531E+01 0.13439502631E+02
 0.23890119049E+02 0.38110781690E+02 0.53124232051E+02 0.64696916189E+02 0.69059039175E+02
 0.64696860413E+02 0.53124176258E+02 0.18644264654E+02 0.11374740183E+02 0.70747612830E+01
 0.51834718018E+01 0.41412172637E+01 0.33571083773E+01 0.28568829022E+01 0.25842605349E+01
 0.24686248780E+01 0.24686875431E+01 0.25843554409E+01 0.28568543184E+01 0.33569495656E+01
 0.41410960686E+01 0.51835280691E+01 0.70749341687E+01 0.11374846463E+02 0.18644213571E+02
 0.27841996781E+02 0.36533426313E+02 0.41849190163E+02 0.41849223720E+02 0.36533529796E+02
 0.27842130660E+02 0.88393430921E+01 0.62459758431E+01 0.49550633588E+01 0.40438874822E+01
 0.33333206576E+01 0.28568829022E+01 0.25784394207E+01 0.24406246090E+01 0.23998637429E+01
 0.24406408331E+01 0.25784683086E+01 0.28569127678E+01 0.33333359188E+01 0.40438818550E+01
 0.49550470919E+01 0.62459646801E+01 0.88393455108E+01 0.12992455279E+02 0.17857629869E+02
 0.21833088537E+02 0.23371110502E+02 0.21833080403E+02 0.17857616368E+02 0.12992442956E+02
 0.54509838431E+01 0.46086561248E+01 0.38620661131E+01 0.32653309106E+01 0.28459995524E+01
 0.25842605349E+01 0.24406246090E+01 0.23790049195E+01 0.23789840406E+01 0.24406168667E+01
 0.25843461037E+01 0.28461465560E+01 0.32654021481E+01 0.38619763838E+01 0.46084844668E+01
 0.54508919142E+01 0.66989418046E+01 0.85311098198E+01 0.10482425932E+02 0.11757310450E+02
 0.11757262679E+02 0.10482295526E+02 0.85309580515E+01 0.66988793372E+01 0.41763146996E+01
 0.36196134729E+01 0.31621867525E+01 0.28258936863E+01 0.26024890227E+01 0.24686248780E+01
 0.23998637429E+01 0.23789840406E+01 0.23998535012E+01 0.24686038728E+01 0.26024716076E+01
 0.28259007970E+01 0.31622172712E+01 0.36196406125E+01 0.41763185002E+01 0.47755957278E+01
 0.53566888171E+01 0.59671886949E+01 0.65013366749E+01 0.67189501085E+01 0.65013362292E+01
 0.59671917588E+01 0.53566993592E+01 0.47756076994E+01 0.33499105557E+01 0.30389642929E+01
 0.28013516013E+01 0.26359807782E+01 0.25301055671E+01 0.24686875431E+01 0.24406408331E+01
 0.24406168667E+01 0.24686038728E+01 0.25299711407E+01 0.26358745389E+01 0.28013652140E+01
 0.30390943155E+01 0.33500464395E+01 0.37161451555E+01 0.40996227901E+01 0.44503484084E+01
 0.47177575413E+01 0.48621843408E+01 0.48622228879E+01 0.47178646218E+01 0.44504851130E+01
 0.40997112681E+01 0.37161144715E+01 0.29156114375E+01 0.27829420411E+01 0.26923751540E+01
 0.26358955876E+01 0.26024892061E+01 0.25843554409E+01 0.25784683086E+01 0.25843461037E+01
 0.26024716076E+01 0.26358745389E+01 0.26923558699E+01 0.27829248791E+01 0.29155965082E+01
 0.30885378825E+01 0.32872801107E+01 0.34871875495E+01 0.36590471454E+01 0.37754129456E+01
 0.38166092410E+01 0.37754424415E+01 0.36590794778E+01 0.34872034318E+01 0.32872856003E+01
 0.30885468250E+01 0.27832919753E+01 0.27830068575E+01 0.28013375129E+01 0.28257782522E+01
 0.28460105109E+01 0.28568543184E+01 0.28569127678E+01 0.28461465560E+01 0.28259007970E+01
 0.28013652140E+01 0.27829248791E+01 0.27831635431E+01 0.28104224701E+01 0.28635971765E+01
 0.29321354940E+01 0.30007498099E+01 0.30550040464E+01 0.30846738637E+01 0.30846709622E+01
 0.30549773955E+01 0.30006812310E+01 0.29320591087E+01 0.28635834139E+01 0.28105039652E+01
 0.29155683272E+01 0.30390712142E+01 0.31622015574E+01 0.32653891860E+01 0.33333264396E+01
 0.33569495656E+01 0.33333359188E+01 0.32654021481E+01 0.31622172712E+01 0.30390943155E+01
 0.29155965082E+01 0.28104224701E+01 0.27349767612E+01 0.26898333035E+01 0.26670279610E+01
 0.26565012724E+01 0.26515987306E+01 0.26500409203E+01 0.26515801134E+01 0.26564768106E+01
 0.26670115815E+01 0.26898260579E+01 0.27349665331E+01 0.28104004390E+01 0.33498919728E+01
 0.36196017517E+01 0.38621007471E+01 0.40440708058E+01 0.41411855518E+01 0.41410960686E+01
 0.40438818550E+01 0.38619763838E+01 0.36196406125E+01 0.33500464395E+01 0.30885378825E+01
 0.28635971765E+01 0.26898333035E+01 0.25671163087E+01 0.24862651902E+01 0.24371264903E+01
 0.24135814984E+01 0.24135662332E+01 0.24370996193E+01 0.24862661139E+01 0.25671596392E+01
 0.26898743261E+01 0.28635596029E+01 0.30883993769E+01 0.41763329558E+01 0.46085004266E+01
 0.49550584761E+01 0.51835325559E+01 0.52675549111E+01 0.51835280691E+01 0.49550470919E+01
 0.46084844668E+01 0.41763185002E+01 0.37161451555E+01 0.32872801107E+01 0.29321354940E+01
 0.26670279610E+01 0.24862651902E+01 0.23736607098E+01 0.23131096073E+01 0.22940985710E+01
 0.23131061113E+01 0.23736460777E+01 0.24862413742E+01 0.26670092397E+01 0.29321309332E+01
 0.32872856003E+01 0.37161554284E+01 0.54509899355E+01 0.62458571055E+01 0.70747074133E+01
 0.76178342315E+01 0.76179510531E+01 0.70749341687E+01 0.62459646801E+01 0.54508919142E+01
 0.47755957278E+01 0.40996227901E+01 0.34871875495E+01 0.30007498099E+01 0.26565012724E+01
 0.24371264903E+01 0.23131096073E+01 0.22584166172E+01 0.22584248196E+01 0.23131256023E+01
 0.24371255948E+01 0.26564608002E+01 0.30006878430E+01 0.34871791629E+01 0.40997350791E+01
 0.47757818827E+01 0.88393407420E+01 0.11374832274E+02 0.13439488189E+02 0.14233360597E+02
 0.13439502631E+02 0.11374846463E+02 0.88393455108E+01 0.66989418046E+01 0.53566888171E+01
 0.44503484084E+01 0.36590471454E+01 0.30550040464E+01 0.26515987306E+01 0.24135814984E+01
 0.22940985710E+01 0.22584248196E+01 0.22941069414E+01 0.24135933378E+01 0.26516157456E+01
 0.30550313004E+01 0.36590793929E+01 0.44503721077E+01 0.53566993592E+01 0.66989445744E+01
 0.18644307438E+02 0.23890351125E+02 0.27038341224E+02 0.27038218300E+02 0.23890119049E+02
 0.18644213571E+02 0.12992455279E+02 0.85311098198E+01 0.59671886949E+01 0.47177575413E+01
 0.37754129456E+01 0.30846738637E+01 0.26500409203E+01 0.24135662332E+01 0.23131061113E+01
 0.23131256023E+01 0.24135933378E+01 0.26500439031E+01 0.30846910688E+01 0.37754876720E+01
 0.47178273418E+01 0.59671343461E+01 0.85309342404E+01 0.12992335673E+02 0.38110836548E+02
 0.45800343244E+02 0.48646716444E+02 0.45800301129E+02 0.38110781690E+02 0.27841996781E+02
 0.17857629869E+02 0.10482425932E+02 0.65013366749E+01 0.48621843408E+01 0.38166092410E+01
 0.30846709622E+01 0.26515801134E+01 0.24370996193E+01 0.23736460777E+01 0.24371255948E+01
 0.26516157456E+01 0.30846910688E+01 0.38165942353E+01 0.48621332873E+01 0.65012699007E+01
 0.10482373408E+02 0.17857616368E+02 0.27842027575E+02 0.67548278114E+02 0.75926929873E+02
 0.75927018166E+02 0.67548426032E+02 0.53124232051E+02 0.36533426313E+02 0.21833088537E+02
 0.11757310450E+02 0.67189501085E+01 0.48622228879E+01 0.37754424415E+01 0.30549773955E+01
 0.26564768106E+01 0.24862661139E+01 0.24862413742E+01 0.26564608002E+01 0.30550313004E+01
 0.37754876720E+01 0.48621332873E+01 0.67187602450E+01 0.11757207468E+02 0.21833168027E+02