   1   1   1   0
  0.1482975E+02  0.2757716E-09  0.2757716E-09  0.2757716E-09  0.5000000E-15
  1.000000000000000E-004
  CAR 
 fcc Ni                                  
     45.85884218     -3.72684145  301      5.65412857      1.00000000
     -3.727  0.0000E+00  0.0000E+00  0.0000E+00  0.0000E+00
     -3.562  0.0000E+00  0.0000E+00  0.0000E+00  0.0000E+00
     -3.396  0.0000E+00  0.0000E+00  0.0000E+00  0.0000E+00
     -3.231  0.0000E+00 -0.3127E-35  0.0000E+00 -0.5169E-36
     -3.066 -0.1918E-31 -0.2921E-29 -0.3171E-32 -0.4828E-30
     -2.900 -0.7605E-26 -0.6885E-24 -0.1257E-26 -0.1138E-24
     -2.735 -0.7596E-21 -0.4085E-19 -0.1256E-21 -0.6752E-20
     -2.570 -0.1855E-16 -0.5878E-15 -0.3067E-17 -0.9717E-16
     -2.405 -0.1147E-12 -0.2153E-11 -0.1897E-13 -0.3559E-12
     -2.239 -0.1753E-09 -0.1929E-08 -0.2899E-10 -0.3191E-09
     -2.074 -0.6452E-07 -0.4109E-06 -0.1069E-07 -0.6823E-07
     -1.909 -0.5448E-05 -0.1935E-04 -0.9112E-06 -0.3267E-05
     -1.743 -0.9074E-04 -0.1556E-03 -0.1591E-04 -0.2899E-04
     -1.578 -0.1154E-03  0.1041E-03 -0.3498E-04 -0.1179E-04
     -1.413  0.7015E-03  0.1726E-02  0.8097E-04  0.2735E-03
     -1.248  0.8993E-02  0.1851E-01  0.1567E-02  0.3333E-02
     -1.082  0.3462E-01  0.3615E-01  0.7289E-02  0.9308E-02
     -0.917  0.2339E-01  0.1618E-01  0.1115E-01  0.1198E-01
     -0.752  0.2010E-01  0.2840E-01  0.1448E-01  0.1668E-01
     -0.586  0.4659E-01  0.6127E-01  0.2218E-01  0.2680E-01
     -0.421  0.8743E-01  0.8586E-01  0.3663E-01  0.4099E-01
     -0.256  0.4837E-01  0.2455E-01  0.4462E-01  0.4505E-01
     -0.091  0.5977E-02  0.9340E-02  0.4561E-01  0.4660E-01
      0.075  0.4280E-01  0.6922E-01  0.5269E-01  0.5804E-01
      0.240  0.1239E+00  0.1257E+00  0.7316E-01  0.7882E-01
      0.405  0.8248E-01  0.6127E-01  0.8680E-01  0.8895E-01
      0.571  0.6788E-01  0.7459E-01  0.9802E-01  0.1013E+00
      0.736  0.1010E+00  0.1021E+00  0.1147E+00  0.1182E+00
      0.901  0.6866E-01  0.5326E-01  0.1261E+00  0.1270E+00
      1.066  0.1617E-01  0.1447E-01  0.1287E+00  0.1293E+00
      1.232  0.1254E+00  0.1211E+00  0.1495E+00  0.1494E+00
      1.397  0.2204E+00  0.2189E+00  0.1859E+00  0.1855E+00
      1.562  0.1173E+00  0.9485E-01  0.2053E+00  0.2012E+00
      1.728  0.1625E+00  0.1187E+00  0.2321E+00  0.2208E+00
      1.893  0.1070E+00  0.1423E+00  0.2498E+00  0.2443E+00
      2.058  0.1230E+00  0.6166E-01  0.2701E+00  0.2545E+00
      2.223  0.4220E+00  0.1083E+00  0.3399E+00  0.2724E+00
      2.389  0.4809E+00  0.2738E+00  0.4194E+00  0.3177E+00
      2.554  0.6148E+00  0.3373E+00  0.5210E+00  0.3734E+00
      2.719  0.7397E+00  0.3247E+00  0.6433E+00  0.4271E+00
      2.885  0.1184E+01  0.3596E+00  0.8390E+00  0.4865E+00
      3.050  0.1435E+01  0.4886E+00  0.1076E+01  0.5673E+00
      3.215  0.1317E+01  0.6699E+00  0.1294E+01  0.6780E+00
      3.380  0.1316E+01  0.7247E+00  0.1511E+01  0.7978E+00
      3.546  0.1655E+01  0.8747E+00  0.1785E+01  0.9424E+00
      3.711  0.2013E+01  0.1195E+01  0.2118E+01  0.1140E+01
      3.876  0.2384E+01  0.1247E+01  0.2512E+01  0.1346E+01
      4.042  0.2562E+01  0.1208E+01  0.2935E+01  0.1546E+01
      4.207  0.1906E+01  0.1442E+01  0.3250E+01  0.1784E+01
      4.372  0.1648E+01  0.1795E+01  0.3522E+01  0.2080E+01
      4.537  0.2191E+01  0.2035E+01  0.3885E+01  0.2417E+01
      4.703  0.2244E+01  0.2366E+01  0.4256E+01  0.2808E+01
      4.868  0.2837E+01  0.2120E+01  0.4724E+01  0.3158E+01
      5.033  0.2732E+01  0.1673E+01  0.5176E+01  0.3435E+01
      5.199  0.7127E+00  0.1908E+01  0.5294E+01  0.3750E+01
      5.364 -0.8404E-01  0.2012E+01  0.5280E+01  0.4083E+01
      5.529  0.1303E+00  0.1698E+01  0.5302E+01  0.4363E+01
      5.694  0.3904E+00  0.2417E+01  0.5366E+01  0.4763E+01
      5.860  0.3296E+00  0.2466E+01  0.5421E+01  0.5170E+01
      6.025  0.1372E+00  0.7684E+00  0.5443E+01  0.5297E+01
      6.190  0.9065E-01  0.1150E+00  0.5458E+01  0.5316E+01
      6.356  0.6902E-01  0.4294E+00  0.5470E+01  0.5387E+01
      6.521  0.9258E-01  0.3275E+00  0.5485E+01  0.5442E+01
      6.686  0.1585E+00  0.1289E+00  0.5511E+01  0.5463E+01
      6.851  0.2717E+00  0.1752E+00  0.5556E+01  0.5492E+01
      7.017  0.2817E+00  0.1279E+00  0.5603E+01  0.5513E+01
      7.182  0.1652E+00  0.1104E+00  0.5630E+01  0.5531E+01
      7.347  0.1261E+00  0.3430E+00  0.5651E+01  0.5588E+01
      7.513  0.1303E+00  0.2476E+00  0.5672E+01  0.5629E+01
      7.678  0.1299E+00  0.1234E+00  0.5694E+01  0.5649E+01
      7.843  0.1838E+00  0.1540E+00  0.5724E+01  0.5675E+01
      8.008  0.5428E-01  0.2041E+00  0.5733E+01  0.5708E+01
      8.174  0.5429E-01  0.1612E+00  0.5742E+01  0.5735E+01
      8.339  0.6325E-01  0.8175E-01  0.5752E+01  0.5749E+01
      8.504  0.1410E+00  0.3965E-01  0.5776E+01  0.5755E+01
      8.670  0.2995E+00  0.5768E-01  0.5825E+01  0.5765E+01
      8.835  0.2314E+00  0.2510E+00  0.5864E+01  0.5806E+01
      9.000  0.2419E-01  0.3031E+00  0.5868E+01  0.5856E+01
      9.165  0.1087E+00  0.5919E-01  0.5885E+01  0.5866E+01
      9.331  0.8489E-01  0.6072E-01  0.5900E+01  0.5876E+01
      9.496  0.6477E-01  0.1243E+00  0.5910E+01  0.5897E+01
      9.661  0.1949E+00  0.7957E-01  0.5942E+01  0.5910E+01
      9.827  0.1440E+00  0.1341E+00  0.5966E+01  0.5932E+01
      9.992  0.1933E+00  0.1185E+00  0.5998E+01  0.5952E+01
     10.157  0.1748E+00  0.2059E+00  0.6027E+01  0.5986E+01
     10.322  0.2225E+00  0.1642E+00  0.6064E+01  0.6013E+01
     10.488  0.1403E+00  0.1500E+00  0.6087E+01  0.6038E+01
     10.653  0.3083E-01  0.2251E+00  0.6092E+01  0.6075E+01
     10.818  0.7264E-01  0.1183E+00  0.6104E+01  0.6094E+01
     10.984  0.1010E+00  0.4120E-01  0.6121E+01  0.6101E+01
     11.149  0.1673E+00  0.8355E-01  0.6149E+01  0.6115E+01
     11.314  0.2808E+00  0.1901E+00  0.6195E+01  0.6146E+01
     11.479  0.2432E+00  0.2836E+00  0.6235E+01  0.6193E+01
     11.645  0.8532E-01  0.2641E+00  0.6249E+01  0.6237E+01
     11.810  0.2025E+00  0.8103E-01  0.6283E+01  0.6250E+01
     11.975  0.3058E+00  0.1861E+00  0.6333E+01  0.6281E+01
     12.141  0.4556E-01  0.3035E+00  0.6341E+01  0.6331E+01
     12.306  0.5507E-01  0.5985E-01  0.6350E+01  0.6341E+01
     12.471  0.1547E+00  0.6388E-01  0.6375E+01  0.6352E+01
     12.636  0.6349E-01  0.1377E+00  0.6386E+01  0.6374E+01
     12.802  0.1046E+00  0.5478E-01  0.6403E+01  0.6383E+01
     12.967  0.1842E+00  0.1101E+00  0.6434E+01  0.6402E+01
     13.132  0.1143E+00  0.1996E+00  0.6453E+01  0.6435E+01
     13.298  0.1914E+00  0.1065E+00  0.6484E+01  0.6452E+01
     13.463  0.2344E+00  0.1982E+00  0.6523E+01  0.6485E+01
     13.628  0.2800E+00  0.2912E+00  0.6569E+01  0.6533E+01
     13.793  0.1649E+00  0.2882E+00  0.6596E+01  0.6581E+01
     13.959  0.2321E+00  0.1439E+00  0.6635E+01  0.6605E+01
     14.124  0.3624E+00  0.2845E+00  0.6695E+01  0.6652E+01
     14.289  0.2240E+00  0.3235E+00  0.6732E+01  0.6705E+01
     14.455  0.1594E+00  0.2161E+00  0.6758E+01  0.6741E+01
     14.620  0.1268E+00  0.1413E+00  0.6779E+01  0.6764E+01
     14.785  0.1026E+00  0.1296E+00  0.6796E+01  0.6786E+01
     14.950  0.1411E+00  0.1067E+00  0.6819E+01  0.6803E+01
     15.116  0.2828E+00  0.1787E+00  0.6866E+01  0.6833E+01
     15.281  0.2933E+00  0.3199E+00  0.6915E+01  0.6886E+01
     15.446  0.2612E+00  0.2670E+00  0.6958E+01  0.6930E+01
     15.612  0.2963E+00  0.3035E+00  0.7007E+01  0.6980E+01
     15.777  0.1377E+00  0.2408E+00  0.7029E+01  0.7020E+01
     15.942  0.7773E-01  0.8449E-01  0.7042E+01  0.7034E+01
     16.107  0.1498E+00  0.1136E+00  0.7067E+01  0.7052E+01
     16.273  0.1445E+00  0.1827E+00  0.7091E+01  0.7083E+01
     16.438  0.1577E+00  0.1199E+00  0.7117E+01  0.7102E+01
     16.603  0.3634E+00  0.2868E+00  0.7177E+01  0.7150E+01
     16.769  0.3318E+00  0.3813E+00  0.7232E+01  0.7213E+01
     16.934  0.2398E+00  0.2411E+00  0.7272E+01  0.7253E+01
     17.099  0.3039E+00  0.2742E+00  0.7322E+01  0.7298E+01
     17.264  0.2582E+00  0.3077E+00  0.7364E+01  0.7349E+01
     17.430  0.2272E+00  0.2405E+00  0.7402E+01  0.7389E+01
     17.595  0.1847E+00  0.2295E+00  0.7433E+01  0.7427E+01
     17.760  0.1130E+00  0.9196E-01  0.7451E+01  0.7442E+01
     17.926  0.1839E+00  0.1704E+00  0.7482E+01  0.7470E+01
     18.091  0.3408E+00  0.2901E+00  0.7538E+01  0.7518E+01
     18.256  0.3594E+00  0.3661E+00  0.7597E+01  0.7578E+01
     18.421  0.1861E+00  0.2386E+00  0.7628E+01  0.7618E+01
     18.587  0.2788E+00  0.2496E+00  0.7674E+01  0.7659E+01
     18.752  0.2805E+00  0.3017E+00  0.7721E+01  0.7709E+01
     18.917  0.2287E+00  0.2501E+00  0.7758E+01  0.7750E+01
     19.083  0.2795E+00  0.2452E+00  0.7805E+01  0.7791E+01
     19.248  0.2281E+00  0.2420E+00  0.7842E+01  0.7831E+01
     19.413  0.1055E+00  0.1448E+00  0.7860E+01  0.7855E+01
     19.578  0.1738E+00  0.1307E+00  0.7888E+01  0.7876E+01
     19.744  0.2531E+00  0.2489E+00  0.7930E+01  0.7918E+01
     19.909  0.2459E+00  0.2730E+00  0.7971E+01  0.7963E+01
     20.074  0.2111E+00  0.2052E+00  0.8006E+01  0.7997E+01
     20.240  0.3003E+00  0.2576E+00  0.8055E+01  0.8039E+01
     20.405  0.3184E+00  0.3451E+00  0.8108E+01  0.8096E+01
     20.570  0.2203E+00  0.2445E+00  0.8144E+01  0.8137E+01
     20.735  0.1550E+00  0.1590E+00  0.8170E+01  0.8163E+01
     20.901  0.1734E+00  0.1687E+00  0.8199E+01  0.8191E+01
     21.066  0.1189E+00  0.1449E+00  0.8218E+01  0.8215E+01
     21.231  0.2845E-01  0.4405E-01  0.8223E+01  0.8222E+01
     21.397  0.1564E+00  0.9717E-01  0.8249E+01  0.8238E+01
     21.562  0.3149E+00  0.3064E+00  0.8301E+01  0.8289E+01
     21.727  0.1635E+00  0.2089E+00  0.8328E+01  0.8323E+01
     21.892  0.1737E+00  0.1541E+00  0.8357E+01  0.8349E+01
     22.058  0.3151E+00  0.2899E+00  0.8409E+01  0.8397E+01
     22.223  0.2033E+00  0.2409E+00  0.8442E+01  0.8436E+01
     22.388  0.9689E-01  0.1055E+00  0.8458E+01  0.8454E+01
     22.554  0.2029E+00  0.1838E+00  0.8492E+01  0.8484E+01
     22.719  0.2190E+00  0.2108E+00  0.8528E+01  0.8519E+01
     22.884  0.2178E+00  0.2268E+00  0.8564E+01  0.8557E+01
     23.049  0.1698E+00  0.1786E+00  0.8592E+01  0.8586E+01
     23.215  0.1560E+00  0.1498E+00  0.8618E+01  0.8611E+01
     23.380  0.2366E+00  0.2136E+00  0.8657E+01  0.8646E+01
     23.545  0.4014E+00  0.3803E+00  0.8723E+01  0.8709E+01
     23.711  0.2639E+00  0.3193E+00  0.8767E+01  0.8762E+01
     23.876  0.1530E+00  0.1755E+00  0.8792E+01  0.8791E+01
     24.041  0.2503E+00  0.2383E+00  0.8834E+01  0.8830E+01
     24.206  0.2874E+00  0.2933E+00  0.8881E+01  0.8879E+01
     24.372  0.1969E+00  0.1957E+00  0.8914E+01  0.8911E+01
     24.537  0.1911E+00  0.2129E+00  0.8945E+01  0.8946E+01
     24.702  0.3891E+00  0.3635E+00  0.9010E+01  0.9006E+01
     24.868  0.2875E+00  0.3315E+00  0.9057E+01  0.9061E+01
     25.033  0.2566E+00  0.3058E+00  0.9100E+01  0.9112E+01
     25.198  0.3917E+00  0.2944E+00  0.9164E+01  0.9160E+01
     25.363  0.4118E+00  0.3430E+00  0.9232E+01  0.9217E+01
     25.529  0.2688E+00  0.3519E+00  0.9277E+01  0.9275E+01
     25.694  0.4297E+00  0.4619E+00  0.9348E+01  0.9351E+01
     25.859  0.4532E+00  0.4242E+00  0.9423E+01  0.9422E+01
     26.025  0.4926E+00  0.4549E+00  0.9504E+01  0.9497E+01
     26.190  0.3186E+00  0.3705E+00  0.9557E+01  0.9558E+01
     26.355  0.2454E+00  0.2972E+00  0.9597E+01  0.9607E+01
     26.520  0.3297E+00  0.2980E+00  0.9652E+01  0.9656E+01
     26.686  0.2459E+00  0.2588E+00  0.9693E+01  0.9699E+01
     26.851  0.1821E+00  0.2077E+00  0.9723E+01  0.9734E+01
     27.016  0.2444E+00  0.1899E+00  0.9763E+01  0.9765E+01
     27.182  0.4493E+00  0.3866E+00  0.9837E+01  0.9829E+01
     27.347  0.4066E+00  0.3838E+00  0.9905E+01  0.9892E+01
     27.512  0.1676E+00  0.2115E+00  0.9932E+01  0.9927E+01
     27.677  0.8962E-01  0.1112E+00  0.9947E+01  0.9946E+01
     27.843  0.3240E-01  0.3956E-01  0.9952E+01  0.9952E+01
     28.008  0.3188E-01  0.9148E-01  0.9958E+01  0.9967E+01
     28.173  0.1386E+00  0.1740E+00  0.9981E+01  0.9996E+01
     28.339  0.1558E+00  0.9628E-01  0.1001E+02  0.1001E+02
     28.504  0.2022E+00  0.1192E+00  0.1004E+02  0.1003E+02
     28.669  0.3357E+00  0.3184E+00  0.1010E+02  0.1008E+02
     28.834  0.3551E+00  0.3789E+00  0.1015E+02  0.1015E+02
     29.000  0.3457E+00  0.3101E+00  0.1021E+02  0.1020E+02
     29.165  0.2038E+00  0.2429E+00  0.1024E+02  0.1024E+02
     29.330  0.1450E+00  0.1545E+00  0.1027E+02  0.1026E+02
     29.496  0.3388E+00  0.3407E+00  0.1032E+02  0.1032E+02
     29.661  0.3688E+00  0.3693E+00  0.1039E+02  0.1038E+02
     29.826  0.1617E+00  0.1404E+00  0.1041E+02  0.1040E+02
     29.991  0.1655E+00  0.1919E+00  0.1044E+02  0.1044E+02
     30.157  0.2731E+00  0.3212E+00  0.1048E+02  0.1049E+02
     30.322  0.3125E+00  0.3529E+00  0.1054E+02  0.1055E+02
     30.487  0.3285E+00  0.3206E+00  0.1059E+02  0.1060E+02
     30.653  0.2337E+00  0.2282E+00  0.1063E+02  0.1064E+02
     30.818  0.3844E+00  0.4653E+00  0.1069E+02  0.1072E+02
     30.983  0.5633E+00  0.5284E+00  0.1079E+02  0.1080E+02
     31.148  0.2335E+00  0.1443E+00  0.1082E+02  0.1083E+02
     31.314  0.3407E-01  0.1735E-01  0.1083E+02  0.1083E+02
     31.479  0.5669E-01  0.7939E-01  0.1084E+02  0.1084E+02
     31.644  0.1226E+00  0.1308E+00  0.1086E+02  0.1086E+02
     31.810  0.1438E+00  0.1718E+00  0.1088E+02  0.1089E+02
     31.975  0.2982E+00  0.2707E+00  0.1093E+02  0.1094E+02
     32.140  0.2874E+00  0.3033E+00  0.1098E+02  0.1099E+02
     32.305  0.2613E+00  0.2460E+00  0.1102E+02  0.1103E+02
     32.471  0.1806E+00  0.1494E+00  0.1105E+02  0.1105E+02
     32.636  0.4383E+00  0.4282E+00  0.1113E+02  0.1112E+02
     32.801  0.4547E+00  0.4992E+00  0.1120E+02  0.1121E+02
     32.967  0.2264E+00  0.2165E+00  0.1124E+02  0.1124E+02
     33.132  0.1769E+00  0.1901E+00  0.1127E+02  0.1127E+02
     33.297  0.1798E+00  0.2257E+00  0.1130E+02  0.1131E+02
     33.462  0.2268E+00  0.2319E+00  0.1134E+02  0.1135E+02
     33.628  0.1862E+00  0.1191E+00  0.1137E+02  0.1137E+02
     33.793  0.2354E-02 -0.8857E-02  0.1137E+02  0.1137E+02
     33.958  0.2652E+00  0.2935E+00  0.1141E+02  0.1142E+02
     34.124  0.5460E+00  0.5744E+00  0.1150E+02  0.1151E+02
     34.289  0.2280E+00  0.1970E+00  0.1154E+02  0.1154E+02
     34.454  0.1778E-01  0.1746E-02  0.1154E+02  0.1154E+02
     34.619  0.8893E-01  0.8959E-01  0.1156E+02  0.1156E+02
     34.785  0.2418E+00  0.2405E+00  0.1160E+02  0.1160E+02
     34.950  0.2081E+00  0.2409E+00  0.1163E+02  0.1164E+02
     35.115  0.8332E-01  0.8695E-01  0.1164E+02  0.1165E+02
     35.281  0.7500E-01  0.6577E-01  0.1166E+02  0.1166E+02
     35.446  0.1415E+00  0.1551E+00  0.1168E+02  0.1169E+02
     35.611  0.1707E+00  0.1368E+00  0.1171E+02  0.1171E+02
     35.776  0.1160E+00  0.8322E-01  0.1173E+02  0.1172E+02
     35.942  0.2529E-01  0.9379E-01  0.1173E+02  0.1174E+02
     36.107  0.1602E+00  0.1909E+00  0.1176E+02  0.1177E+02
     36.272  0.2268E+00  0.1716E+00  0.1180E+02  0.1180E+02
     36.438  0.7429E-01  0.4318E-01  0.1181E+02  0.1181E+02
     36.603 -0.4458E-02 -0.5339E-02  0.1181E+02  0.1181E+02
     36.768 -0.3041E-02 -0.1874E-02  0.1181E+02  0.1181E+02
     36.933 -0.3463E-02 -0.3557E-02  0.1181E+02  0.1181E+02
     37.099 -0.1092E-02 -0.9286E-03  0.1181E+02  0.1181E+02
     37.264  0.8751E-01  0.8936E-01  0.1182E+02  0.1182E+02
     37.429  0.1440E+00  0.1609E+00  0.1184E+02  0.1185E+02
     37.595  0.1329E+00  0.1671E+00  0.1187E+02  0.1187E+02
     37.760  0.1273E+00  0.1180E+00  0.1189E+02  0.1189E+02
     37.925  0.6197E-01  0.3273E-01  0.1190E+02  0.1190E+02
     38.090  0.3143E-01  0.2959E-01  0.1190E+02  0.1190E+02
     38.256  0.2061E-01  0.8743E-02  0.1191E+02  0.1191E+02
     38.421 -0.2551E-03 -0.1633E-02  0.1191E+02  0.1191E+02
     38.586 -0.9888E-03 -0.6968E-03  0.1191E+02  0.1191E+02
     38.752 -0.2334E-02 -0.3144E-02  0.1190E+02  0.1190E+02
     38.917  0.3973E-02  0.1517E-01  0.1191E+02  0.1191E+02
     39.082  0.5683E-01  0.6775E-01  0.1191E+02  0.1192E+02
     39.247  0.5061E-01  0.3140E-01  0.1192E+02  0.1192E+02
     39.413 -0.2365E-02 -0.4521E-02  0.1192E+02  0.1192E+02
     39.578  0.1828E-01  0.4764E-01  0.1193E+02  0.1193E+02
     39.743  0.9217E-01  0.1209E+00  0.1194E+02  0.1195E+02
     39.909  0.1061E+00  0.7917E-01  0.1196E+02  0.1196E+02
     40.074  0.3578E-01  0.4123E-02  0.1196E+02  0.1196E+02
     40.239 -0.2973E-02 -0.3238E-02  0.1196E+02  0.1196E+02
     40.404 -0.1299E-02 -0.2443E-03  0.1196E+02  0.1196E+02
     40.570 -0.7309E-04 -0.6352E-04  0.1196E+02  0.1196E+02
     40.735 -0.6100E-03 -0.1384E-02  0.1196E+02  0.1196E+02
     40.900 -0.3207E-02 -0.1354E-02  0.1196E+02  0.1196E+02
     41.066  0.2137E-01  0.4113E-01  0.1197E+02  0.1197E+02
     41.231  0.6944E-01  0.6424E-01  0.1198E+02  0.1198E+02
     41.396  0.2597E-01  0.9658E-02  0.1198E+02  0.1198E+02
     41.561 -0.3079E-02 -0.2847E-02  0.1198E+02  0.1198E+02
     41.727 -0.7620E-03 -0.3000E-03  0.1198E+02  0.1198E+02
     41.892 -0.9282E-04 -0.3882E-03  0.1198E+02  0.1198E+02
     42.057 -0.1076E-02 -0.1536E-02  0.1198E+02  0.1198E+02
     42.223  0.1447E-02  0.1306E-01  0.1198E+02  0.1198E+02
     42.388  0.2726E-01  0.3443E-01  0.1199E+02  0.1199E+02
     42.553  0.2600E-01  0.1006E-01  0.1199E+02  0.1199E+02
     42.718  0.5105E-02  0.7355E-02  0.1199E+02  0.1199E+02
     42.884  0.1598E-01  0.1641E-01  0.1199E+02  0.1200E+02
     43.049  0.8080E-02  0.3253E-02  0.1200E+02  0.1200E+02
     43.214 -0.8945E-03 -0.1389E-02  0.1200E+02  0.1200E+02
     43.380 -0.9209E-03  0.1339E-02  0.1200E+02  0.1200E+02
     43.545  0.7948E-02  0.1493E-01  0.1200E+02  0.1200E+02
     43.710  0.1707E-01  0.1197E-01  0.1200E+02  0.1200E+02
     43.875  0.4074E-02  0.7459E-04  0.1200E+02  0.1200E+02
     44.041 -0.7925E-03 -0.4338E-03  0.1200E+02  0.1200E+02
     44.206 -0.1149E-03 -0.2289E-04  0.1200E+02  0.1200E+02
     44.371 -0.2463E-05 -0.2358E-06  0.1200E+02  0.1200E+02
     44.537 -0.1157E-07 -0.5595E-09  0.1200E+02  0.1200E+02
     44.702 -0.1292E-10 -0.3207E-12  0.1200E+02  0.1200E+02
     44.867 -0.3525E-14 -0.4845E-16  0.1200E+02  0.1200E+02
     45.032  0.0000E+00  0.0000E+00  0.1200E+02  0.1200E+02
     45.198  0.0000E+00  0.0000E+00  0.1200E+02  0.1200E+02
     45.363  0.0000E+00  0.0000E+00  0.1200E+02  0.1200E+02
     45.528  0.0000E+00  0.0000E+00  0.1200E+02  0.1200E+02
     45.694  0.0000E+00  0.0000E+00  0.1200E+02  0.1200E+02
     45.859  0.0000E+00  0.0000E+00  0.1200E+02  0.1200E+02
     45.85884218     -3.72684145  301      5.65412857      1.00000000
     -3.727  0.0000E+00  0.0000E+00  0.0000E+00  0.0000E+00  0.0000E+00  0.0000E+00  0.0000E+00  0.0000E+00  0.0000E+00  0.0000E+00  0.0000E+00  0.0000E+00  0.0000E+00  0.0000E+00  0.0000E+00  0.0000E+00  0.0000E+00  0.0000E+00
     -3.562  0.0000E+00  0.0000E+00  0.0000E+00  0.0000E+00  0.0000E+00  0.0000E+00  0.0000E+00  0.0000E+00  0.0000E+00  0.0000E+00  0.0000E+00  0.0000E+00  0.0000E+00  0.0000E+00  0.0000E+00  0.0000E+00  0.0000E+00  0.0000E+00
     -3.396  0.0000E+00  0.0000E+00  0.0000E+00  0.0000E+00  0.0000E+00  0.0000E+00  0.0000E+00  0.0000E+00  0.0000E+00  0.0000E+00  0.0000E+00  0.0000E+00  0.0000E+00  0.0000E+00  0.0000E+00  0.0000E+00  0.0000E+00  0.0000E+00
     -3.231  0.0000E+00 -0.1650E-35  0.0000E+00 -0.5702E-51  0.0000E+00 -0.5702E-51  0.0000E+00 -0.5702E-51  0.0000E+00 -0.9759E-46  0.0000E+00 -0.9759E-46  0.0000E+00 -0.1091E-51  0.0000E+00 -0.9759E-46  0.0000E+00 -0.1091E-51
     -3.066 -0.1019E-31 -0.1541E-29 -0.4066E-45 -0.5325E-45 -0.4066E-45 -0.5325E-45 -0.4066E-45 -0.5325E-45 -0.1525E-41 -0.9115E-40 -0.1525E-41 -0.9115E-40 -0.5211E-48 -0.1019E-45 -0.1525E-41 -0.9115E-40 -0.5211E-48 -0.1019E-45
     -2.900 -0.4038E-26 -0.3633E-24 -0.2729E-36 -0.5429E-34 -0.2729E-36 -0.5429E-34 -0.2729E-36 -0.5429E-34 -0.6138E-36 -0.2292E-34 -0.6138E-36 -0.2292E-34 -0.2066E-42 -0.2403E-40 -0.6138E-36 -0.2292E-34 -0.2066E-42 -0.2403E-40
     -2.735 -0.4034E-21 -0.2156E-19 -0.2328E-30 -0.2764E-28 -0.2328E-30 -0.2764E-28 -0.2328E-30 -0.2764E-28 -0.6825E-31 -0.2004E-29 -0.6825E-31 -0.2004E-29 -0.1199E-34 -0.1567E-32 -0.6825E-31 -0.2004E-29 -0.1199E-34 -0.1567E-32
     -2.570 -0.9851E-17 -0.3102E-15 -0.5015E-25 -0.3549E-23 -0.5015E-25 -0.3549E-23 -0.5015E-25 -0.3549E-23 -0.3166E-26 -0.1118E-24 -0.3166E-26 -0.1118E-24 -0.5251E-29 -0.4095E-27 -0.3166E-26 -0.1118E-24 -0.5251E-29 -0.4095E-27
     -2.405 -0.6093E-13 -0.1136E-11 -0.2721E-20 -0.1147E-18 -0.2721E-20 -0.1147E-18 -0.2721E-20 -0.1147E-18 -0.1007E-21 -0.3078E-20 -0.1007E-21 -0.3078E-20 -0.5806E-24 -0.2697E-22 -0.1007E-21 -0.3078E-20 -0.5806E-24 -0.2697E-22
     -2.239 -0.9307E-10 -0.1018E-08 -0.3586E-16 -0.8950E-15 -0.3586E-16 -0.8950E-15 -0.3586E-16 -0.8950E-15 -0.1215E-17 -0.2342E-16 -0.1215E-17 -0.2342E-16 -0.1570E-19 -0.4313E-18 -0.1215E-17 -0.2342E-16 -0.1570E-19 -0.4313E-18
     -2.074 -0.3426E-07 -0.2168E-06 -0.1208E-12 -0.1785E-11 -0.1208E-12 -0.1785E-11 -0.1208E-12 -0.1785E-11 -0.4015E-14 -0.4604E-13 -0.4015E-14 -0.4604E-13 -0.1077E-15 -0.1755E-14 -0.4015E-14 -0.4604E-13 -0.1077E-15 -0.1755E-14
     -1.909 -0.2893E-05 -0.1021E-04 -0.1004E-09 -0.8732E-09 -0.1004E-09 -0.8732E-09 -0.1004E-09 -0.8732E-09 -0.3271E-11 -0.2197E-10 -0.3271E-11 -0.2197E-10 -0.1825E-12 -0.1750E-11 -0.3271E-11 -0.2197E-10 -0.1825E-12 -0.1750E-11
     -1.743 -0.4812E-04 -0.8182E-04 -0.2017E-07 -0.1018E-06 -0.2017E-07 -0.1018E-06 -0.2017E-07 -0.1018E-06 -0.6317E-09 -0.2430E-08 -0.6317E-09 -0.2430E-08 -0.7467E-10 -0.4159E-09 -0.6317E-09 -0.2430E-08 -0.7467E-10 -0.4159E-09
     -1.578 -0.5847E-04  0.6268E-04 -0.9227E-06 -0.2554E-05 -0.9227E-06 -0.2554E-05 -0.9227E-06 -0.2554E-05 -0.2648E-07 -0.5390E-07 -0.2648E-07 -0.5390E-07 -0.7025E-08 -0.2188E-07 -0.2648E-07 -0.5390E-07 -0.7025E-08 -0.2188E-07
     -1.413  0.3939E-03  0.9287E-03 -0.7049E-05 -0.5816E-05 -0.7049E-05 -0.5816E-05 -0.7049E-05 -0.5816E-05 -0.1527E-06 -0.4161E-07 -0.1527E-06 -0.4161E-07 -0.1282E-06 -0.1831E-06 -0.1527E-06 -0.4161E-07 -0.1282E-06 -0.1831E-06
     -1.248  0.4690E-02  0.9538E-02  0.2814E-04  0.7591E-04  0.2814E-04  0.7591E-04  0.2814E-04  0.7591E-04  0.8995E-06  0.1479E-05  0.8995E-06  0.1479E-05  0.3642E-07  0.7255E-06  0.8995E-06  0.1479E-05  0.3642E-07  0.7255E-06
     -1.082  0.1791E-01  0.1857E-01  0.1566E-03  0.1661E-03  0.1566E-03  0.1661E-03  0.1566E-03  0.1661E-03  0.2590E-05  0.1410E-05  0.2590E-05  0.1410E-05  0.3233E-05  0.3596E-05  0.2590E-05  0.1410E-05  0.3233E-05  0.3596E-05
     -0.917  0.1207E-01  0.8218E-02  0.1144E-03  0.1038E-03  0.1144E-03  0.1038E-03  0.1144E-03  0.1038E-03  0.7597E-06  0.2475E-05  0.7597E-06  0.2475E-05  0.3545E-05  0.2141E-05  0.7597E-06  0.2475E-05  0.3545E-05  0.2141E-05
     -0.752  0.1004E-01  0.1403E-01  0.2039E-03  0.3080E-03  0.2039E-03  0.3080E-03  0.2039E-03  0.3080E-03  0.1359E-04  0.1635E-04  0.1359E-04  0.1635E-04  0.2783E-05  0.5638E-05  0.1359E-04  0.1635E-04  0.2783E-05  0.5638E-05
     -0.586  0.2289E-01  0.2966E-01  0.5792E-03  0.8391E-03  0.5792E-03  0.8391E-03  0.5792E-03  0.8391E-03  0.4246E-04  0.5037E-04  0.4246E-04  0.5037E-04  0.3072E-04  0.4591E-04  0.4246E-04  0.5037E-04  0.3072E-04  0.4591E-04
     -0.421  0.4223E-01  0.4116E-01  0.1288E-02  0.1291E-02  0.1288E-02  0.1291E-02  0.1288E-02  0.1291E-02  0.1216E-03  0.9814E-04  0.1216E-03  0.9814E-04  0.8818E-04  0.6732E-04  0.1216E-03  0.9814E-04  0.8818E-04  0.6732E-04
     -0.256  0.2330E-01  0.1174E-01  0.7270E-03  0.3778E-03  0.7270E-03  0.3778E-03  0.7270E-03  0.3778E-03  0.8262E-04  0.2751E-04  0.8262E-04  0.2751E-04  0.3978E-04  0.2376E-04  0.8262E-04  0.2751E-04  0.3978E-04  0.2376E-04
     -0.091  0.2790E-02  0.4247E-02  0.1174E-03  0.2044E-03  0.1174E-03  0.2044E-03  0.1174E-03  0.2044E-03 -0.2718E-04 -0.1471E-04 -0.2718E-04 -0.1471E-04  0.5914E-04  0.6639E-04 -0.2718E-04 -0.1471E-04  0.5914E-04  0.6639E-04
      0.075  0.1923E-01  0.3083E-01  0.9885E-03  0.1656E-02  0.9885E-03  0.1656E-02  0.9885E-03  0.1656E-02  0.1830E-03  0.2540E-03  0.1830E-03  0.2540E-03  0.1427E-03  0.1591E-03  0.1830E-03  0.2540E-03  0.1427E-03  0.1591E-03
      0.240  0.5512E-01  0.5568E-01  0.2988E-02  0.3097E-02  0.2988E-02  0.3097E-02  0.2988E-02  0.3097E-02  0.6427E-03  0.4596E-03  0.6427E-03  0.4596E-03  0.3771E-03  0.3336E-03  0.6427E-03  0.4596E-03  0.3771E-03  0.3336E-03
      0.405  0.3632E-01  0.2664E-01  0.2063E-02  0.1609E-02  0.2063E-02  0.1609E-02  0.2063E-02  0.1609E-02  0.4698E-03  0.3119E-03  0.4698E-03  0.3119E-03  0.3076E-03  0.1803E-03  0.4698E-03  0.3119E-03  0.3076E-03  0.1803E-03
      0.571  0.2848E-01  0.3120E-01  0.1893E-02  0.2183E-02  0.1893E-02  0.2183E-02  0.1893E-02  0.2183E-02  0.8322E-03  0.6232E-03  0.8322E-03  0.6232E-03  0.2640E-03  0.2904E-03  0.8322E-03  0.6232E-03  0.2640E-03  0.2904E-03
      0.736  0.4125E-01  0.4174E-01  0.2995E-02  0.3173E-02  0.2995E-02  0.3173E-02  0.2995E-02  0.3173E-02  0.1063E-02  0.6664E-03  0.1063E-02  0.6664E-03  0.1048E-02  0.9453E-03  0.1063E-02  0.6664E-03  0.1048E-02  0.9453E-03
      0.901  0.2777E-01  0.2163E-01  0.2117E-02  0.1692E-02  0.2117E-02  0.1692E-02  0.2117E-02  0.1692E-02  0.4544E-03  0.2465E-03  0.4544E-03  0.2465E-03  0.1097E-02  0.6420E-03  0.4544E-03  0.2465E-03  0.1097E-02  0.6420E-03
      1.066  0.6438E-02  0.5682E-02  0.5679E-03  0.5385E-03  0.5679E-03  0.5385E-03  0.5679E-03  0.5385E-03  0.1695E-03  0.1590E-03  0.1695E-03  0.1590E-03  0.8682E-04  0.1627E-04  0.1695E-03  0.1590E-03  0.8682E-04  0.1627E-04
      1.232  0.4527E-01  0.4470E-01  0.4394E-02  0.4534E-02  0.4394E-02  0.4534E-02  0.4394E-02  0.4534E-02  0.3479E-02  0.2119E-02  0.3479E-02  0.2119E-02  0.1329E-02  0.1102E-02  0.3479E-02  0.2119E-02  0.1329E-02  0.1102E-02
      1.397  0.7856E-01  0.7993E-01  0.7679E-02  0.8165E-02  0.7679E-02  0.8165E-02  0.7679E-02  0.8165E-02  0.6182E-02  0.4090E-02  0.6182E-02  0.4090E-02  0.3123E-02  0.2378E-02  0.6182E-02  0.4090E-02  0.3123E-02  0.2378E-02
      1.562  0.3891E-01  0.3341E-01  0.4078E-02  0.3653E-02  0.4078E-02  0.3653E-02  0.4078E-02  0.3653E-02  0.3661E-02  0.1436E-02  0.3661E-02  0.1436E-02  0.3403E-02  0.2135E-02  0.3661E-02  0.1436E-02  0.3403E-02  0.2135E-02
      1.728  0.4872E-01  0.3843E-01  0.5294E-02  0.4610E-02  0.5294E-02  0.4610E-02  0.5294E-02  0.4610E-02  0.8308E-02  0.3078E-02  0.8308E-02  0.3078E-02  0.5170E-02  0.3386E-02  0.8308E-02  0.3078E-02  0.5170E-02  0.3386E-02
      1.893  0.3221E-01  0.4521E-01  0.3565E-02  0.5324E-02  0.3565E-02  0.5324E-02  0.3565E-02  0.5324E-02  0.4972E-02  0.5360E-02  0.4972E-02  0.5360E-02  0.3797E-02  0.2947E-02  0.4972E-02  0.5360E-02  0.3797E-02  0.2947E-02
      2.058  0.2784E-01  0.1874E-01  0.3390E-02  0.2209E-02  0.3390E-02  0.2209E-02  0.3390E-02  0.2209E-02  0.9886E-02  0.2340E-02  0.9886E-02  0.2340E-02  0.7637E-02  0.2146E-02  0.9886E-02  0.2340E-02  0.7637E-02  0.2146E-02
      2.223  0.8694E-01  0.2858E-01  0.1007E-01  0.4504E-02  0.1007E-01  0.4504E-02  0.1007E-01  0.4504E-02  0.5216E-01  0.2577E-02  0.5216E-01  0.2577E-02  0.1163E-01  0.7684E-02  0.5216E-01  0.2577E-02  0.1163E-01  0.7684E-02
      2.389  0.8530E-01  0.7076E-01  0.1020E-01  0.1060E-01  0.1020E-01  0.1060E-01  0.1020E-01  0.1060E-01  0.5996E-01  0.1690E-01  0.5996E-01  0.1690E-01  0.2697E-01  0.8371E-02  0.5996E-01  0.1690E-01  0.2697E-01  0.8371E-02
      2.554  0.7169E-01  0.7876E-01  0.9208E-02  0.1101E-01  0.9208E-02  0.1101E-01  0.9208E-02  0.1101E-01  0.6187E-01  0.2903E-01  0.6187E-01  0.2903E-01  0.9565E-01  0.1071E-01  0.6187E-01  0.2903E-01  0.9565E-01  0.1071E-01
      2.719  0.5498E-01  0.6336E-01  0.7076E-02  0.8850E-02  0.7076E-02  0.8850E-02  0.7076E-02  0.8850E-02  0.9169E-01  0.2876E-01  0.9169E-01  0.2876E-01  0.1270E+00  0.2336E-01  0.9169E-01  0.2876E-01  0.1270E+00  0.2336E-01
      2.885  0.5189E-01  0.5065E-01  0.1051E-01  0.6507E-02  0.1051E-01  0.6507E-02  0.1051E-01  0.6507E-02  0.2105E+00  0.3076E-01  0.2105E+00  0.3076E-01  0.1461E+00  0.5140E-01  0.2105E+00  0.3076E-01  0.1461E+00  0.5140E-01
      3.050  0.3719E-01  0.5303E-01  0.1229E-01  0.6658E-02  0.1229E-01  0.6658E-02  0.1229E-01  0.6658E-02  0.2851E+00  0.4821E-01  0.2851E+00  0.4821E-01  0.1581E+00  0.7962E-01  0.2851E+00  0.4821E-01  0.1581E+00  0.7962E-01
      3.215  0.9704E-02  0.6376E-01  0.1236E-01  0.1180E-01  0.1236E-01  0.1180E-01  0.1236E-01  0.1180E-01  0.2560E+00  0.6351E-01  0.2560E+00  0.6351E-01  0.1734E+00  0.1143E+00  0.2560E+00  0.6351E-01  0.1734E+00  0.1143E+00
      3.380  0.3105E-02  0.5485E-01  0.1347E-01  0.1280E-01  0.1347E-01  0.1280E-01  0.1347E-01  0.1280E-01  0.2432E+00  0.6484E-01  0.2432E+00  0.6484E-01  0.1978E+00  0.1412E+00  0.2432E+00  0.6484E-01  0.1978E+00  0.1412E+00
      3.546  0.6897E-02  0.2729E-01  0.1756E-01  0.8531E-02  0.1756E-01  0.8531E-02  0.1756E-01  0.8531E-02  0.3313E+00  0.1378E+00  0.3313E+00  0.1378E+00  0.2154E+00  0.1365E+00  0.3313E+00  0.1378E+00  0.2154E+00  0.1365E+00
      3.711  0.1302E-01  0.1485E-01  0.1995E-01  0.1261E-01  0.1995E-01  0.1261E-01  0.1995E-01  0.1261E-01  0.4181E+00  0.2314E+00  0.4181E+00  0.2314E+00  0.2490E+00  0.1411E+00  0.4181E+00  0.2314E+00  0.2490E+00  0.1411E+00
      3.876  0.1118E-01  0.5841E-02  0.1734E-01  0.1487E-01  0.1734E-01  0.1487E-01  0.1734E-01  0.1487E-01  0.4875E+00  0.2507E+00  0.4875E+00  0.2507E+00  0.3401E+00  0.1408E+00  0.4875E+00  0.2507E+00  0.3401E+00  0.1408E+00
      4.042  0.1025E-01  0.2753E-02  0.1573E-01  0.1468E-01  0.1573E-01  0.1468E-01  0.1573E-01  0.1468E-01  0.5440E+00  0.2294E+00  0.5440E+00  0.2294E+00  0.3546E+00  0.1613E+00  0.5440E+00  0.2294E+00  0.3546E+00  0.1613E+00
      4.207  0.1333E-01  0.3959E-02  0.1422E-01  0.1867E-01  0.1422E-01  0.1867E-01  0.1422E-01  0.1867E-01  0.3872E+00  0.2971E+00  0.3872E+00  0.2971E+00  0.2821E+00  0.1616E+00  0.3872E+00  0.2971E+00  0.2821E+00  0.1616E+00
      4.372  0.8459E-02  0.8511E-02  0.9576E-02  0.2184E-01  0.9576E-02  0.2184E-01  0.9576E-02  0.2184E-01  0.2464E+00  0.3862E+00  0.2464E+00  0.3862E+00  0.3921E+00  0.1861E+00  0.2464E+00  0.3862E+00  0.3921E+00  0.1861E+00
      4.537  0.5785E-02  0.1204E-01  0.6790E-02  0.2282E-01  0.6790E-02  0.2282E-01  0.6790E-02  0.2282E-01  0.2486E+00  0.4033E+00  0.2486E+00  0.4033E+00  0.6674E+00  0.2772E+00  0.2486E+00  0.4033E+00  0.6674E+00  0.2772E+00