    1    1    1    2
  0.1482975E+02  0.2757716E-09  0.2757716E-09  0.2757716E-09  0.5000000E-15
  1.000000000000000E-004
  CAR 
 fcc Ni                                  
     10     56     12
 
  0.0000000E+00  0.0000000E+00  0.0000000E+00  0.7513148E-03
      1         -1.410581       -1.472947   1.000000   1.000000
      2          3.793116        4.612344   1.000000   1.000000
      3          3.793120        4.612348   1.000000   1.000000
      4          3.793120        4.612349   1.000000   1.000000
      5          4.557555        5.242793   1.000000   1.006628
      6          4.557555        5.242793   1.000000   1.006628
      7         26.737616       26.506935   0.000000   0.000000
      8         28.287645       28.306244   0.000000   0.000000
      9         28.287645       28.306244   0.000000   0.000000
     10         28.287652       28.306297   0.000000   0.000000
     11         30.810711       30.853945   0.000000   0.000000
     12         30.810766       30.854078   0.000000   0.000000
 
  0.9090909E-01  0.7448393E-18  0.7448393E-18  0.6010518E-02
      1         -1.153321       -1.215396   1.000000   1.000000
      2          3.748489        4.558154   1.000000   1.000000
      3          3.838358        4.659317   1.000000   1.000000
      4          3.838368        4.659332   1.000000   1.000000
      5          4.545924        5.229567   1.000000   1.005270
      6          4.545927        5.229574   1.000000   1.005271
      7         24.474588       24.458967   0.000000   0.000000
      8         27.151467       27.008265   0.000000   0.000000
      9         27.637899       27.679472   0.000000   0.000000
     10         27.637901       27.679482   0.000000   0.000000
     11         31.881426       31.889798   0.000000   0.000000
     12         31.881466       31.889830   0.000000   0.000000
 
  0.1818182E+00 -0.6836994E-17  0.7040794E-17  0.6010518E-02
      1         -0.406410       -0.463819   1.000000   1.000000
      2          3.650809        4.429582   1.000000   1.000000
      3          3.923592        4.732563   1.000000   1.000000
      4          3.923624        4.732609   1.000000   1.000000
      5          4.537505        5.236990   1.000000   1.006002
      6          4.537521        5.237021   1.000000   1.006005
      7         20.255338       20.310537   0.000000   0.000000
      8         26.709278       26.707026   0.000000   0.000000
      9         26.709292       26.774174   0.000000   0.000000
     10         26.872902       26.774176   0.000000   0.000000
     11         32.350113       32.249701   0.000000   0.000000
     12         32.916468       32.861405   0.000000   0.000000
 
  0.2727273E+00 -0.1337799E-16  0.1437758E-16  0.6010518E-02
      1          0.711685        0.691041   1.000000   1.000000
      2          3.650589        4.348285   1.000000   1.000000
      3          3.944197        4.705160   1.000000   1.000000
      4          3.944247        4.705223   1.000000   1.000000
      5          4.631294        5.385606   1.000000   1.033644
      6          4.631314        5.385641   1.000000   1.033649
      7         16.272183       16.379844   0.000000   0.000000
      8         26.012346       26.090738   0.000000   0.000000
      9         26.012416       26.090768   0.000000   0.000000
     10         26.366555       26.187482   0.000000   0.000000
     11         30.986177       30.982620   0.000000   0.000000
     12         30.986321       30.982756   0.000000   0.000000
 
  0.3636364E+00 -0.3240900E-16 -0.4653426E-17  0.6010518E-02
      1          1.759251        1.935471   1.000000   1.000000
      2          3.891623        4.601864   1.000000   1.000000
      3          3.891676        4.615405   1.000000   1.000000
      4          4.176652        4.615466   1.000000   1.000000
      5          4.804402        5.604095   1.000000   0.704542
      6          4.804413        5.604118   1.000000   0.704454
      7         12.719483       12.904031   0.000000   0.000000
      8         25.584537       25.597735   0.000000   0.000000
      9         25.584696       25.666476   0.000000   0.000000
     10         25.791876       25.666570   0.000000   0.000000
     11         29.482789       29.481302   0.000000   0.000000
     12         29.483049       29.481546   0.000000   0.000000
 
  0.4545455E+00  0.2141838E-16 -0.6337200E-17  0.6010518E-02
      1          2.155913        2.598337   1.000000   1.000000
      2          3.843091        4.551166   1.000000   1.000000
      3          3.843145        4.551227   1.000000   1.000000
      4          4.928946        5.530955   1.000002   0.927008
      5          4.928949        5.750552   1.000002   0.139882
      6          5.532058        5.750566   0.924607   0.139843
      7          9.963986       10.308131  -0.000000  -0.000000
      8         25.390634       25.230183   0.000000   0.000000
      9         25.390872       25.470451   0.000000   0.000000
     10         25.433372       25.470607   0.000000   0.000000
     11         28.675340       28.675032   0.000000   0.000000
     12         28.675697       28.675359   0.000000   0.000000
 
  0.9090909E-01  0.9090909E-01  0.3140096E-17  0.4507889E-02
      1         -1.067830       -1.129892   1.000000   1.000000
      2          3.705198        4.513197   1.000000   1.000000
      3          3.869889        4.692699   1.000000   1.000000
      4          3.869891        4.692701   1.000000   1.000000
      5          4.479233        5.155946   1.000000   1.001206
      6          4.597625        5.283995   1.000000   1.012561
      7         25.661507       25.521461   0.000000   0.000000
      8         25.980204       26.031145   0.000000   0.000000
      9         25.980208       26.031145   0.000000   0.000000
     10         27.208640       27.187846   0.000000   0.000000
     11         32.439255       32.517277   0.000000   0.000000
     12         32.637772       32.600777   0.000000   0.000000
 
  0.1818182E+00  0.9090909E-01 -0.6887944E-17  0.1803156E-01
      1         -0.484143       -0.543580   1.000000   1.000000
      2          3.600328        4.389671   1.000000   1.000000
      3          3.957539        4.771729   1.000000   1.000000
      4          3.961741        4.781674   1.000000   1.000000
      5          4.415341        5.096212   1.000000   1.000288
      6          4.626851        5.323215   1.000000   1.020566
      7         21.826517       21.864406   0.000000   0.000000
      8         24.697533       24.756630   0.000000   0.000000
      9         25.614450       25.536823   0.000000   0.000000
     10         28.337394       28.275434   0.000000   0.000000
     11         29.717188       29.828367   0.000000   0.000000
     12         32.725102       32.707656   0.000000   0.000000
 
  0.2727273E+00  0.9090909E-01  0.7387738E-17  0.1803156E-01
      1          0.520703        0.482021   1.000000   1.000000
      2          3.521676        4.266655   1.000000   1.000000
      3          3.966855        4.711577   1.000000   1.000000
      4          4.018043        4.802570   1.000000   1.000000
      5          4.516938        5.258550   1.000000   1.008581
      6          4.708803        5.448659   1.000000   1.027737
      7         17.745484       17.830718   0.000000   0.000000
      8         23.848449       23.910916   0.000000   0.000000
      9         25.108090       25.027061   0.000000   0.000000
     10         27.185340       27.248061   0.000000   0.000000
     11         30.389333       30.348305   0.000000   0.000000
     12         32.483553       32.467092   0.000000   0.000000
 
  0.3636364E+00  0.9090909E-01  0.1507147E-16  0.1803156E-01
      1          1.646857        1.736263   1.000000   1.000000
      2          3.689115        4.296158   1.000000   1.000000
      3          3.871117        4.582519   1.000000   1.000000
      4          3.989426        4.731487   1.000000   1.000000
      5          4.846862        5.623529   1.000000   0.627814
      6          4.888255        5.637349   1.000000   0.570723
      7         14.024183       14.169113   0.000000   0.000000
      8         23.471249       23.532456   0.000000   0.000000
      9         24.644712       24.527079   0.000000   0.000000
     10         25.313082       25.412252   0.000000   0.000000
     11         31.059669       30.983813   0.000000   0.000000
     12         32.208733       32.206553   0.000000   0.000000
 
  0.4545455E+00  0.9090909E-01  0.6959274E-16  0.1803156E-01
      1          2.228351        2.623485   1.000000   1.000000
      2          3.788823        4.445157   1.000000   1.000000
      3          3.933934        4.650927   1.000000   1.000000
      4          4.251931        4.774851   1.000000   1.000000
      5          4.945255        5.764764   1.000003   0.102104
      6          5.780293        6.245353   0.066634  -0.000119
      7         10.880569       11.139230  -0.000000   0.000000
      8         23.497202       23.483793   0.000000   0.000000
      9         23.613693       23.673306   0.000000   0.000000
     10         24.853589       24.828455   0.000000   0.000000
     11         30.860003       30.807237   0.000000   0.000000
     12         30.871597       30.867205   0.000000   0.000000
 
 -0.4545455E+00  0.9090909E-01 -0.2875516E-16  0.1803156E-01
      1          2.315669        2.804386   1.000000   1.000000
      2          3.771051        4.440815   1.000000   1.000000
      3          3.910331        4.617501   1.000000   1.000000
      4          4.478682        5.029938   1.000000   1.000047
      5          4.917469        5.743901   1.000001   0.159266
      6          6.563647        6.774313  -0.000000  -0.000000
      7          9.567402        9.952315  -0.000000  -0.000000
      8         22.496684       22.515092   0.000000   0.000000
      9         24.318283       24.382556   0.000000   0.000000
     10         25.112660       25.035443   0.000000   0.000000
     11         29.958876       29.969030   0.000000   0.000000
     12         30.799964       30.754343   0.000000   0.000000
 
 -0.3636364E+00  0.9090909E-01 -0.1989473E-17  0.1803156E-01
      1          2.117821        2.416347   1.000000   1.000000
      2          3.817931        4.500083   1.000000   1.000000
      3          3.939233        4.619451   1.000000   1.000000
      4          4.136113        4.651738   1.000000   1.000000
      5          4.762759        5.574364   1.000000   0.809591
      6          5.479457        6.110802   1.006508  -0.002884
      7         11.844343       12.055183   0.000000   0.000000
      8         22.002565       22.033716   0.000000   0.000000
      9         25.584548       25.664465   0.000000   0.000000
     10         25.817145       25.715009   0.000000   0.000000
     11         29.501810       29.506743   0.000000   0.000000
     12         30.805953       30.773217   0.000000   0.000000
 
 -0.2727273E+00  0.9090909E-01  0.6016458E-16  0.1803156E-01
      1          1.299823        1.321807   1.000000   1.000000
      2          3.610048        4.284994   1.000000   1.000000
      3          3.913130        4.632245   1.000000   1.000000
      4          4.001885        4.742031   1.000000   1.000000
      5          4.546368        5.319527   1.000000   1.019738
      6          4.948815        5.711111   1.000004   0.269397
      7         15.220614       15.343326   0.000000   0.000000
      8         22.003150       22.040856   0.000000   0.000000
      9         26.938724       26.824461   0.000000   0.000000
     10         27.316491       27.428474   0.000000   0.000000
     11         29.520661       29.501837   0.000000   0.000000
     12         30.620042       30.572884   0.000000   0.000000
 
 -0.1818182E+00  0.9090909E-01 -0.1437758E-16  0.1803156E-01
      1          0.149153        0.099200   1.000000   1.000000
      2          3.562653        4.327434   1.000000   1.000000
      3          3.958662        4.728297   1.000000   1.000000
      4          4.005522        4.814548   1.000000   1.000000
      5          4.419019        5.115622   1.000000   1.000469
      6          4.706696        5.442021   1.000000   1.030323
      7         19.079082       19.148703   0.000000   0.000000
      8         22.459521       22.495515   0.000000   0.000000
      9         28.190845       28.070985   0.000000   0.000000
     10         28.967837       29.090110   0.000000   0.000000
     11         30.243622       30.158500   0.000000   0.000000
     12         30.418947       30.388881   0.000000   0.000000
 
 -0.9090909E-01  0.9090909E-01 -0.1489679E-17  0.9015778E-02
      1         -0.732148       -0.792873   1.000000   1.000000
      2          3.666512        4.463220   1.000000   1.000000
      3          3.901032        4.723136   1.000000   1.000000
      4          3.911609        4.728809   1.000000   1.000000
      5          4.463433        5.138880   1.000000   1.000818
      6          4.594534        5.290838   1.000000   1.013807
      7         23.031647       23.041766   0.000000   0.000000
      8         23.560715       23.596985   0.000000   0.000000
      9         28.177150       28.061269   0.000000   0.000000
     10         29.224154       29.269694   0.000000   0.000000
     11         31.003639       30.901468   0.000000   0.000000
     12         31.201353       31.232277   0.000000   0.000000
 
  0.1818182E+00  0.1818182E+00 -0.5515928E-17  0.4507889E-02
      1         -0.078369       -0.135283   1.000000   1.000000
      2          3.468102        4.247786   1.000000   1.000000
      3          4.085175        4.920328   1.000000   1.000001
      4          4.085176        4.920329   1.000000   1.000001
      5          4.287927        4.936895   1.000000   1.000002
      6          4.688361        5.380125   1.000000   1.032810
      7         23.127488       23.183301   0.000000   0.000000
      8         23.127494       23.183314   0.000000   0.000000
      9         24.155172       24.103385   0.000000   0.000000
     10         25.370419       25.281043   0.000000   0.000000
     11         27.226904       27.403637   0.000000   0.000000
     12         36.274447       36.181503   0.000000   0.000000
 
  0.2727273E+00  0.1818182E+00 -0.6367527E-17  0.1803156E-01
      1          0.753031        0.714423   1.000000   1.000000
      2          3.336416        4.093700   1.000000   1.000000
      3          4.042913        4.736771   1.000000   1.000000
      4          4.199386        5.018167   1.000000   1.000033
      5          4.447893        5.214865   1.000000   1.004031
      6          4.763543        5.483499   1.000000   1.002423
      7         19.563354       19.623799   0.000000   0.000000
      8         22.047401       22.098900   0.000000   0.000000
      9         23.852332       23.787990   0.000000   0.000000
     10         24.534566       24.595562   0.000000   0.000000
     11         27.149907       27.228193   0.000000   0.000000
     12         36.054943       35.940152   0.000000   0.000000
 
  0.3636364E+00  0.1818182E+00  0.1836623E-17  0.1803156E-01
      1          1.795943        1.849329   1.000000   1.000000
      2          3.300777        4.003237   1.000000   1.000000
      3          3.867990        4.546177   1.000000   1.000000
      4          4.213404        4.983480   1.000000   1.000011
      5          4.883073        5.662132   1.000000   0.466164
      6          5.009036        5.719123   1.000025   0.240425
      7         15.749085       15.851161   0.000000   0.000000
      8         21.498967       21.545375   0.000000   0.000000
      9         21.988048       22.005762   0.000000   0.000000
     10         24.076614       24.103246   0.000000   0.000000
     11         29.947613       29.978158   0.000000   0.000000
     12         35.187854       35.073709   0.000000   0.000000
 
  0.4545455E+00  0.1818182E+00  0.1437758E-16  0.1803156E-01
      1          2.480219        2.827016   1.000000   1.000000
      2          3.497490        4.044158   1.000000   1.000000
      3          3.787843        4.482744   1.000000   1.000000
      4          4.165119        4.899228   1.000000   1.000001
      5          4.965703        5.784347   1.000006   0.058374
      6          6.143425        6.640853  -0.001466  -0.000000
      7         12.346651       12.516514   0.000000   0.000000
      8         20.304931       20.347957   0.000000   0.000000
      9         21.543252       21.587451   0.000000   0.000000
     10         24.020780       24.020975   0.000000   0.000000
     11         33.146580       33.155101   0.000000   0.000000
     12         33.999643       33.993162   0.000000   0.000000
 
 -0.4545455E+00  0.1818182E+00 -0.1397484E-17  0.1803156E-01
      1          2.641419        3.178464   1.000000   1.000000
      2          3.575630        4.112965   1.000000   1.000000
      3          3.948337        4.603096   1.000000   1.000000
      4          4.120889        4.833896   1.000000   1.000000
      5          4.918649        5.753089   1.000001   0.132770
      6          7.763950        7.976770  -0.000000  -0.000000
      7          9.845904       10.171210  -0.000000  -0.000000
      8         19.063940       19.118727   0.000000   0.000000
      9         22.205892       22.254724   0.000000   0.000000
     10         24.293146       24.267838   0.000000   0.000000
     11         32.910174       32.912229   0.000000   0.000000
     12         33.494939       33.423530   0.000000   0.000000
 
 -0.3636364E+00  0.1818182E+00 -0.3014294E-16  0.1803156E-01
      1          2.603729        3.044192   1.000000   1.000000
      2          3.637735        4.215548   1.000000   1.000000
      3          3.846528        4.464800   1.000000   1.000000
      4          4.119619        4.822514   1.000000   1.000000
      5          4.740996        5.572293   1.000000   0.816225
      6          6.778047        7.203919  -0.000000  -0.000000
      7         11.377090       11.591160   0.000000   0.000000
      8         18.324052       18.387167   0.000000   0.000000
      9         23.470824       23.530798   0.000000   0.000000
     10         24.961501       24.913088   0.000000   0.000000
     11         32.252298       32.260072   0.000000   0.000000
     12         32.850634       32.773500   0.000000   0.000000
 
 -0.2727273E+00  0.1818182E+00  0.5643310E-17  0.1803156E-01
      1          2.138868        2.259362   1.000000   1.000000
      2          3.493834        4.177835   1.000000   1.000000
      3          3.777190        4.435162   1.000000   1.000000
      4          4.171575        4.874888   1.000000   1.000000
      5          4.482950        5.299265   1.000000   1.015438
      6          5.597366        6.286279   0.729792  -0.000037
      7         14.597553       14.724858   0.000000   0.000000
      8         18.106908       18.176397   0.000000   0.000000
      9         25.270717       25.344087   0.000000   0.000000
     10         26.080664       26.015059   0.000000   0.000000
     11         31.878105       31.774360   0.000000   0.000000
     12         32.031352       32.043840   0.000000   0.000000
 
 -0.1818182E+00  0.1818182E+00  0.1367399E-16  0.9015778E-02
      1          1.101418        1.081001   1.000000   1.000000
      2          3.450371        4.197782   1.000000   1.000000
      3          3.907121        4.617851   1.000000   1.000000
      4          4.181039        4.970277   1.000000   1.000007
      5          4.310805        5.031096   1.000000   1.000048
      6          5.021376        5.779604   1.000036   0.068080
      7         18.104611       18.192279   0.000000   0.000000
      8         18.597422       18.659521   0.000000   0.000000
      9         27.499303       27.535822   0.000000   0.000000
     10         27.613925       27.586829   0.000000   0.000000
     11         30.438208       30.315123   0.000000   0.000000
     12         31.971818       32.007344   0.000000   0.000000
 
  0.2727273E+00  0.2727273E+00 -0.2375832E-17  0.4507889E-02
      1          1.342479        1.337942   1.000000   1.000000
      2          3.165286        3.910230   1.000000   1.000000
      3          4.247938        4.807364   1.000000   1.000000
      4          4.405130        5.262216   1.000000   1.009090
      5          4.405131        5.262218   1.000000   1.009091
      6          4.809570        5.508480   1.000000   0.969347
      7         20.717454       20.757051   0.000000   0.000000
      8         20.717463       20.757071   0.000000   0.000000
      9         21.453435       21.473966   0.000000   0.000000
     10         23.034836       23.047542   0.000000   0.000000
     11         24.733380       24.838975   0.000000   0.000000
     12         39.912595       39.778435   0.000000   0.000000
 
  0.3636364E+00  0.2727273E+00  0.7857206E-17  0.1803156E-01
      1          2.078539        2.190443   1.000000   1.000000
      2          3.053192        3.777475   1.000000   1.000000
      3          4.161904        4.768212   1.000000   1.000000
      4          4.504548        5.315599   1.000000   1.018869
      5          4.903294        5.662949   1.000001   0.462717
      6          5.034300        5.720536   1.000053   0.235443
      7         17.770932       17.829409   0.000000   0.000000
      8         19.217244       19.279205   0.000000   0.000000
      9         19.947971       19.976639   0.000000   0.000000
     10         23.308904       23.344028   0.000000   0.000000
     11         25.933644       25.993991   0.000000   0.000000
     12         39.073849       39.025809   0.000000   0.000000
 
  0.4545455E+00  0.2727273E+00  0.7387738E-17  0.1803156E-01
      1          2.622659        2.954998   1.000000   1.000000
      2          3.070330        3.737739   1.000000   1.000000
      3          4.010275        4.658944   1.000000   1.000000
      4          4.483621        5.240662   1.000000   1.006393
      5          4.983547        5.802871   1.000011   0.025786
      6          6.391443        6.836699  -0.000001  -0.000000
      7         14.310430       14.410055   0.000000   0.000000
      8         17.377536       17.459781   0.000000   0.000000
      9         19.810475       19.834815   0.000000   0.000000
     10         23.340352       23.376321   0.000000   0.000000
     11         29.031377       29.066743   0.000000   0.000000
     12         37.512196       37.482571   0.000000   0.000000
 
 -0.4545455E+00  0.2727273E+00 -0.8734272E-17  0.1803156E-01
      1          2.858079        3.412991   1.000000   1.000000
      2          3.224856        3.761156   1.000000   1.000000
      3          3.876934        4.563355   1.000000   1.000000
      4          4.426951        5.147905   1.000000   1.001007
      5          4.933820        5.782508   1.000002   0.062070
      6          8.419065        8.670657  -0.000000  -0.000000
      7         11.267787       11.442130   0.000000   0.000000
      8         15.984193       16.081192   0.000000   0.000000
      9         20.333685       20.364035   0.000000   0.000000
     10         23.546829       23.566557   0.000000   0.000000
     11         32.735884       32.758571   0.000000   0.000000
     12         36.260676       36.237143   0.000000   0.000000
 
 -0.3636364E+00  0.2727273E+00 -0.9160310E-16  0.1803156E-01
      1          2.976216        3.559803   1.000000   1.000000
      2          3.382124        3.871354   1.000000   1.000000
      3          3.699862        4.390958   1.000000   1.000000
      4          4.383443        5.071056   1.000000   1.000149
      5          4.752112        5.617110   1.000000   0.653704
      6          8.555226        8.820005  -0.000000  -0.000000
      7         11.229177       11.417279   0.000000   0.000000
      8         15.092004       15.198976   0.000000   0.000000
      9         21.486876       21.531102   0.000000   0.000000
     10         24.060251       24.055187   0.000000   0.000000
     11         35.411300       35.386018   0.000000   0.000000
     12         35.623002       35.529251   0.000000   0.000000
 
 -0.2727273E+00  0.2727273E+00  0.2675599E-16  0.9015778E-02
      1          2.844684        3.174427   1.000000   1.000000
      2          3.472155        4.152757   1.000000   1.000000
      3          3.572673        4.175778   1.000000   1.000000
      4          4.341735        4.998505   1.000000   1.000018
      5          4.530748        5.407593   1.000000   1.035448
      6          6.742658        7.236950  -0.000000  -0.000000
      7         13.959789       14.089274   0.000000   0.000000
      8         15.064398       15.168528   0.000000   0.000000
      9         23.173077       23.232584   0.000000   0.000000
     10         24.924447       24.891126   0.000000   0.000000
     11         34.015132       33.890875   0.000000   0.000000
     12         34.702612       34.660313   0.000000   0.000000
 
  0.3636364E+00  0.3636364E+00  0.2782595E-16  0.4507889E-02
      1          2.321679        2.579110   1.000000   1.000000
      2          2.895171        3.610115   1.000000   1.000000
      3          4.746578        5.500023   1.000000   0.982118
      4          4.746581        5.628593   1.000000   0.607081
      5          4.923035        5.632753   1.000002   0.589876
      6          5.257136        5.632758   1.008390   0.589857
      7         16.839574       16.935820   0.000000   0.000000
      8         18.938221       18.949366   0.000000   0.000000
      9         18.938231       18.949391   0.000000   0.000000
     10         22.351501       22.407993   0.000000   0.000000
     11         23.994145       24.085783   0.000000   0.000000
     12         42.825686       42.767969   0.000000   0.000000
 
  0.4545455E+00  0.3636364E+00  0.2763305E-16  0.1803156E-01
      1          2.524684        2.905739   1.000000   1.000000
      2          2.839731        3.541084   1.000000   1.000000
      3          4.616014        5.360452   1.000000   1.029036
      4          4.791707        5.562719   1.000000   0.845604
      5          4.989828        5.821578   1.000014   0.001028
      6          6.692665        6.931465  -0.000000  -0.000000
      7         14.928942       15.060452   0.000000   0.000000
      8         16.575662       16.615394   0.000000   0.000000
      9         18.575538       18.577660   0.000000   0.000000
     10         22.772332       22.830672   0.000000   0.000000
     11         25.290722       25.358861   0.000000   0.000000
     12         41.154833       41.101310   0.000000   0.000000
 
 -0.4545455E+00  0.3636364E+00 -0.1607106E-16  0.1803156E-01
      1          2.732212        3.199930   1.000000   1.000000
      2          2.918271        3.584637   1.000000   1.000000
      3          4.318145        5.039410   1.000000   1.000062
      4          4.745781        5.463831   1.000000   1.019333
      5          4.956659        5.834237   1.000005  -0.011491
      6          8.670928        8.832545  -0.000000  -0.000000
      7         13.518591       13.617169   0.000000   0.000000
      8         13.587145       13.739461   0.000000   0.000000
      9         18.916258       18.923955   0.000000   0.000000
     10         23.026279       23.078162   0.000000   0.000000
     11         28.584276       28.624475   0.000000   0.000000
     12         39.659824       39.596183   0.000000   0.000000
 
 -0.3636364E+00  0.3636364E+00  0.9306852E-17  0.9015778E-02
      1          2.933341        3.507459   1.000000   1.000000
      2          3.117030        3.679284   1.000000   1.000000
      3          3.955182        4.655457   1.000000   1.000000
      4          4.629411        5.305330   1.000000   1.016673
      5          4.823718        5.723466   1.000000   0.225242
      6         10.649128       10.778868  -0.000000  -0.000000
      7         10.817988       10.972427  -0.000000  -0.000000
      8         13.167949       13.344464   0.000000   0.000000
      9         19.922842       19.947772   0.000000   0.000000
     10         23.416588       23.445373   0.000000   0.000000
     11         32.568596       32.594339   0.000000   0.000000
     12         38.068173       37.993816   0.000000   0.000000
 
  0.4545455E+00  0.4545455E+00  0.1916993E-16  0.4507889E-02
      1          2.466025        2.887930   1.000000   1.000000
      2          2.736204        3.434565   1.000000   1.000000
      3          4.971660        5.699203   1.000008   0.314539
      4          4.971664        5.881910   1.000008  -0.034185
      5          4.989480        5.881916   1.000014  -0.034186
      6          7.421000        7.398212  -0.000000  -0.000000
      7         13.153442       13.348532   0.000000   0.000000
      8         17.974853       17.962165   0.000000   0.000000
      9         17.974866       17.962194   0.000000   0.000000
     10         22.010754       22.090716   0.000000   0.000000
     11         23.705309       23.805284   0.000000   0.000000
     12         43.604947       43.526996   0.000000   0.000000
 
 -0.4545455E+00  0.4545455E+00  0.1267440E-16  0.9015778E-02
      1          2.541729        2.984401   1.000000   1.000000
      2          2.760984        3.454475   1.000000   1.000000
      3          4.791588        5.616961   1.000000   0.654296
      4          4.945770        5.650643   1.000003   0.514746
      5          4.982935        5.895244   1.000011  -0.035400
      6          8.384753        8.388549  -0.000000  -0.000000
      7         12.476228       12.710757   0.000000   0.000000
      8         16.147916       16.177095   0.000000   0.000000
      9         18.093070       18.082800   0.000000   0.000000
     10         22.603794       22.671087   0.000000   0.000000