       N       E                     dE             d eps       ncg     rms          rms(c)
DAV:   1     0.204202481703E+02    0.20420E+02   -0.29782E+03  2856   0.571E+02
DAV:   2    -0.537682015651E+01   -0.25797E+02   -0.24248E+02  2864   0.118E+02
DAV:   3    -0.591013928628E+01   -0.53332E+00   -0.52894E+00  3180   0.195E+01
DAV:   4    -0.591314082176E+01   -0.30015E-02   -0.30013E-02  3052   0.133E+00
DAV:   5    -0.591319052425E+01   -0.49702E-04   -0.49702E-04  3192   0.168E-01    0.840E+00
DAV:   6    -0.570322050826E+01    0.20997E+00   -0.19564E+01  3200   0.485E+01    0.912E+00
DAV:   7    -0.499553769129E+01    0.70768E+00   -0.49748E+00  3140   0.216E+01    0.121E+00
DAV:   8    -0.499127325178E+01    0.42644E-02   -0.59499E-03  2964   0.562E-01    0.716E-01
DAV:   9    -0.498938565456E+01    0.18876E-02   -0.19312E-03  3280   0.307E-01    0.244E-01
DAV:  10    -0.498881709290E+01    0.56856E-03   -0.25089E-03  2684   0.375E-01    0.661E-02
DAV:  11    -0.498881677869E+01    0.31421E-06   -0.56358E-05  1688   0.804E-02
   1 F= -.49888168E+01 E0= -.49857312E+01  d E =-.925663E-02  mag=     0.6956
