 vasp.6.3.0 20Jan22 (build Feb 01 2022 16:52:37) complex                        
  
 executed on           TETRA_NSC1 date 2022.02.23  15:19:38
 running    4 mpi-ranks, with    1 threads/rank
 distrk:  each k-point on    4 cores,    1 groups
 distr:  one band on NCORE=   1 cores,    4 groups


--------------------------------------------------------------------------------------------------------


 INCAR:
   SYSTEM = fcc Ni
   ISTART = 0
   ICHARG = 2
   ENCUT = 270
   ISMEAR = 1
   SIGMA = 0.2
   LORBIT = 11
   ISPIN = 2
   MAGMOM = 1

 POTCAR:    PAW_PBE Ni 02Aug2007                  
 POTCAR:    PAW_PBE Ni 02Aug2007                  
   VRHFIN =Ni:                                                                                      
   LEXCH  = PE                                                                                      
   EATOM  =  1077.6739 eV,   79.2068 Ry                                                             
                                                                                                    
   TITEL  = PAW_PBE Ni 02Aug2007                                                                    
   LULTRA =        F    use ultrasoft PP ?                                                          
   IUNSCR =        1    unscreen: 0-lin 1-nonlin 2-no                                               
   RPACOR =    2.000    partial core radius                                                         
   POMASS =   58.690; ZVAL   =   10.000    mass and valenz                                          
   RCORE  =    2.300    outmost cutoff radius                                                       
   RWIGS  =    2.430; RWIGS  =    1.286    wigner-seitz radius (au A)                               
   ENMAX  =  269.532; ENMIN  =  202.149 eV                                                          
   RCLOC  =    1.201    cutoff for local pot                                                        
   LCOR   =        T    correct aug charges                                                         
   LPAW   =        T    paw PP                                                                      
   EAUG   =  544.565                                                                                
   DEXC   =    0.000                                                                                
   RMAX   =    2.357    core radius for proj-oper                                                   
   RAUG   =    1.300    factor for augmentation sphere                                              
   RDEP   =    2.390    radius for radial grids                                                     
   RDEPT  =    1.838    core radius for aug-charge                                                  
                                                                                                    
   Atomic configuration                                                                             
    9 entries                                                                                       
     n  l   j            E        occ.                                                              
     1  0  0.50     -8206.4253   2.0000                                                             
     2  0  0.50      -976.1748   2.0000                                                             
     2  1  1.50      -839.0571   6.0000                                                             
     3  0  0.50      -105.9991   2.0000                                                             
     3  1  1.50       -66.4603   6.0000                                                             
     3  2  2.50        -4.6458   9.0000                                                             
     4  0  0.50        -4.4926   1.0000                                                             
     4  1  1.50        -4.0817   0.0000                                                             
     4  3  2.50        -1.3606   0.0000                                                             
   Description                                                                                      
     l       E           TYP  RCUT    TYP  RCUT                                                     
     2     -4.6457903     23  2.300                                                                 
     2     -6.0063729     23  2.300                                                                 
     0     -4.4925590     23  2.300                                                                 
     0      5.0102601     23  2.300                                                                 
     1     -2.7211652     23  2.300                                                                 
     1     16.5183231     23  2.300                                                                 
  local pseudopotential read in
  partial core-charges read in
  partial kinetic energy density read in
  atomic valenz-charges read in
  non local Contribution for L=           2  read in
    real space projection operators read in
  non local Contribution for L=           2  read in
    real space projection operators read in
  non local Contribution for L=           0  read in
    real space projection operators read in
  non local Contribution for L=           0  read in
    real space projection operators read in
  non local Contribution for L=           1  read in
    real space projection operators read in
  non local Contribution for L=           1  read in
    real space projection operators read in
    PAW grid and wavefunctions read in
 
   number of l-projection  operators is LMAX  =           6
   number of lm-projection operators is LMMAX =          18
 
  PAW_PBE Ni 02Aug2007                  :
 energy of atom  1       EATOM=-1077.6739
 kinetic energy error for atom=    0.0378 (will be added to EATOM!!)
 
 
 POSCAR: fcc Ni
  positions in cartesian coordinates
  No initial velocities read in
 exchange correlation table for  LEXCH =        8
   RHO(1)=    0.500       N(1)  =     2000
   RHO(2)=  100.500       N(2)  =     4000
 


--------------------------------------------------------------------------------------------------------


 ion  position               nearest neighbor table
   1  0.000  0.000  0.000-
 
  LATTYP: Found a face centered cubic cell.
 ALAT       =     3.9000000000
  
  Lattice vectors:
  
 A1 = (   1.9500000000,   1.9500000000,   0.0000000000)
 A2 = (   0.0000000000,   1.9500000000,   1.9500000000)
 A3 = (   1.9500000000,   0.0000000000,   1.9500000000)


Analysis of symmetry for initial positions (statically):
=====================================================================
 Subroutine PRICEL returns:
 Original cell was already a primitive cell.
 

 Routine SETGRP: Setting up the symmetry group for a 
 face centered cubic supercell.


 Subroutine GETGRP returns: Found 48 space group operations
 (whereof 48 operations were pure point group operations)
 out of a pool of 48 trial point group operations.


The static configuration has the point symmetry O_h .


Analysis of symmetry for dynamics (positions and initial velocities):
=====================================================================
 Subroutine PRICEL returns:
 Original cell was already a primitive cell.
 

 Routine SETGRP: Setting up the symmetry group for a 
 face centered cubic supercell.


 Subroutine GETGRP returns: Found 48 space group operations
 (whereof 48 operations were pure point group operations)
 out of a pool of 48 trial point group operations.


The dynamic configuration has the point symmetry O_h .


Analysis of structural, dynamic, and magnetic symmetry:
=====================================================================
 Subroutine PRICEL returns:
 Original cell was already a primitive cell.
 

 Routine SETGRP: Setting up the symmetry group for a 
 face centered cubic supercell.


 Subroutine GETGRP returns: Found 48 space group operations
 (whereof 48 operations were pure point group operations)
 out of a pool of 48 trial point group operations.


The overall configuration has the point symmetry O_h .


 Subroutine INISYM returns: Found 48 space group operations
 (whereof 48 operations are pure point group operations),
 and found     1 'primitive' translations


----------------------------------------------------------------------------------------

                                     Primitive cell                                     

  volume of cell :      14.8297

  direct lattice vectors                    reciprocal lattice vectors
     1.950000000  1.950000000  0.000000000     0.256410256  0.256410256 -0.256410256
     0.000000000  1.950000000  1.950000000    -0.256410256  0.256410256  0.256410256
     1.950000000  0.000000000  1.950000000     0.256410256 -0.256410256  0.256410256

  length of vectors
     2.757716447  2.757716447  2.757716447     0.444115592  0.444115592  0.444115592

  position of ions in fractional coordinates (direct lattice)
     0.000000000  0.000000000  0.000000000

  ion indices of the primitive-cell ions
   primitive index   ion index
                 1           1

----------------------------------------------------------------------------------------

 
 
 KPOINTS: k-points                                

Automatic generation of k-mesh.
 Grid dimensions read from file:
 generate k-points for:   11   11   11

 Generating k-lattice:

  Cartesian coordinates                     Fractional coordinates (reciprocal lattice)
     0.023310023  0.023310023 -0.023310023     0.090909091 -0.000000000 -0.000000000
    -0.023310023  0.023310023  0.023310023    -0.000000000  0.090909091  0.000000000
     0.023310023 -0.023310023  0.023310023     0.000000000  0.000000000  0.090909091

  Length of vectors
     0.040374145  0.040374145  0.040374145

  Shift w.r.t. Gamma in fractional coordinates (k-lattice)
     0.000000000  0.000000000  0.000000000

 
 Subroutine IBZKPT returns following result:
 ===========================================
 
 Found     56 irreducible k-points:
 
 Following reciprocal coordinates:
            Coordinates               Weight
  0.000000  0.000000  0.000000      1.000000
  0.090909  0.000000  0.000000      8.000000
  0.181818 -0.000000  0.000000      8.000000
  0.272727 -0.000000  0.000000      8.000000
  0.363636 -0.000000 -0.000000      8.000000
  0.454545  0.000000 -0.000000      8.000000
  0.090909  0.090909  0.000000      6.000000
  0.181818  0.090909 -0.000000     24.000000
  0.272727  0.090909  0.000000     24.000000
  0.363636  0.090909  0.000000     24.000000
  0.454545  0.090909  0.000000     24.000000
 -0.454545  0.090909 -0.000000     24.000000
 -0.363636  0.090909 -0.000000     24.000000
 -0.272727  0.090909  0.000000     24.000000
 -0.181818  0.090909 -0.000000     24.000000
 -0.090909  0.090909 -0.000000     12.000000
  0.181818  0.181818 -0.000000      6.000000
  0.272727  0.181818 -0.000000     24.000000
  0.363636  0.181818  0.000000     24.000000
  0.454545  0.181818  0.000000     24.000000
 -0.454545  0.181818 -0.000000     24.000000
 -0.363636  0.181818 -0.000000     24.000000
 -0.272727  0.181818  0.000000     24.000000
 -0.181818  0.181818  0.000000     12.000000
  0.272727  0.272727 -0.000000      6.000000
  0.363636  0.272727  0.000000     24.000000
  0.454545  0.272727  0.000000     24.000000
 -0.454545  0.272727 -0.000000     24.000000
 -0.363636  0.272727 -0.000000     24.000000
 -0.272727  0.272727  0.000000     12.000000
  0.363636  0.363636  0.000000      6.000000
  0.454545  0.363636  0.000000     24.000000
 -0.454545  0.363636 -0.000000     24.000000
 -0.363636  0.363636  0.000000     12.000000
  0.454545  0.454545  0.000000      6.000000
 -0.454545  0.454545  0.000000     12.000000
  0.272727  0.181818  0.090909     24.000000
  0.363636  0.181818  0.090909     48.000000
  0.454545  0.181818  0.090909     48.000000
 -0.454545  0.181818  0.090909     48.000000
  0.363636  0.272727  0.090909     24.000000
  0.454545  0.272727  0.090909     48.000000
 -0.454545  0.272727  0.090909     48.000000
 -0.363636  0.272727  0.090909     48.000000
 -0.272727  0.272727  0.090909     48.000000
 -0.181818  0.272727  0.090909     24.000000
  0.454545  0.363636  0.090909     24.000000
 -0.454545  0.363636  0.090909     48.000000
 -0.363636  0.363636  0.090909     48.000000
 -0.272727  0.363636  0.090909     24.000000
 -0.454545  0.454545  0.090909     24.000000
 -0.363636  0.454545  0.090909     24.000000
 -0.454545  0.363636  0.181818     24.000000
 -0.363636  0.363636  0.181818     48.000000
 -0.363636  0.454545  0.181818     24.000000
 -0.272727  0.454545  0.181818     24.000000
 
 Following cartesian coordinates:
            Coordinates               Weight
  0.000000  0.000000  0.000000      1.000000
  0.090909  0.090909 -0.090909      8.000000
  0.181818  0.181818 -0.181818      8.000000
  0.272727  0.272727 -0.272727      8.000000
  0.363636  0.363636 -0.363636      8.000000
  0.454545  0.454545 -0.454545      8.000000
  0.000000  0.181818  0.000000      6.000000
  0.090909  0.272727 -0.090909     24.000000
  0.181818  0.363636 -0.181818     24.000000
  0.272727  0.454545 -0.272727     24.000000
  0.363636  0.545455 -0.363636     24.000000
 -0.545455 -0.363636  0.545455     24.000000
 -0.454545 -0.272727  0.454545     24.000000
 -0.363636 -0.181818  0.363636     24.000000
 -0.272727 -0.090909  0.272727     24.000000
 -0.181818  0.000000  0.181818     12.000000
  0.000000  0.363636 -0.000000      6.000000
  0.090909  0.454545 -0.090909     24.000000
  0.181818  0.545455 -0.181818     24.000000
  0.272727  0.636364 -0.272727     24.000000
 -0.636364 -0.272727  0.636364     24.000000
 -0.545455 -0.181818  0.545455     24.000000
 -0.454545 -0.090909  0.454545     24.000000
 -0.363636 -0.000000  0.363636     12.000000
  0.000000  0.545455 -0.000000      6.000000
  0.090909  0.636364 -0.090909     24.000000
  0.181818  0.727273 -0.181818     24.000000
 -0.727273 -0.181818  0.727273     24.000000
 -0.636364 -0.090909  0.636364     24.000000
 -0.545455 -0.000000  0.545455     12.000000
  0.000000  0.727273  0.000000      6.000000
  0.090909  0.818182 -0.090909     24.000000
 -0.818182 -0.090909  0.818182     24.000000
 -0.727273  0.000000  0.727273     12.000000
  0.000000  0.909091  0.000000      6.000000
 -0.909091 -0.000000  0.909091     12.000000
  0.181818  0.363636 -0.000000     24.000000
  0.272727  0.454545 -0.090909     48.000000
  0.363636  0.545455 -0.181818     48.000000
 -0.545455 -0.363636  0.727273     48.000000
  0.181818  0.545455  0.000000     24.000000
  0.272727  0.636364 -0.090909     48.000000
 -0.636364 -0.272727  0.818182     48.000000
 -0.545455 -0.181818  0.727273     48.000000
 -0.454545 -0.090909  0.636364     48.000000
 -0.363636 -0.000000  0.545455     24.000000
  0.181818  0.727273  0.000000     24.000000
 -0.727273 -0.181818  0.909091     48.000000
 -0.636364 -0.090909  0.818182     48.000000
 -0.545455  0.000000  0.727273     24.000000
 -0.818182 -0.090909  1.000000     24.000000
 -0.727273 -0.000000  0.909091     24.000000
 -0.636364 -0.272727  1.000000     24.000000
 -0.545455 -0.181818  0.909091     48.000000
 -0.636364 -0.090909  1.000000     24.000000
 -0.545455 -0.000000  0.909091     24.000000
 


--------------------------------------------------------------------------------------------------------




 Dimension of arrays:
   k-points           NKPTS =     56   k-points in BZ     NKDIM =     56   number of bands    NBANDS=     12
   number of dos      NEDOS =    301   number of ions     NIONS =      1
   non local maximal  LDIM  =      6   non local SUM 2l+1 LMDIM =     18
   total plane-waves  NPLWV =   1728
   max r-space proj   IRMAX =      1   max aug-charges    IRDMAX=   3976
   dimension x,y,z NGX =    12 NGY =   12 NGZ =   12
   dimension x,y,z NGXF=    24 NGYF=   24 NGZF=   24
   support grid    NGXF=    24 NGYF=   24 NGZF=   24
   ions per type =               1
   NGX,Y,Z   is equivalent  to a cutoff of   7.23,  7.23,  7.23 a.u.
   NGXF,Y,Z  is equivalent  to a cutoff of  14.47, 14.47, 14.47 a.u.

 SYSTEM =  fcc Ni                                  
 POSCAR =  fcc Ni                                  

 Startparameter for this run:
   NWRITE =      2    write-flag & timer
   PREC   = normal    normal or accurate (medium, high low for compatibility)
   ISTART =      0    job   : 0-new  1-cont  2-samecut
   ICHARG =      2    charge: 1-file 2-atom 10-const
   ISPIN  =      2    spin polarized calculation?
   LNONCOLLINEAR =      F non collinear calculations
   LSORBIT =      F    spin-orbit coupling
   INIWAV =      1    electr: 0-lowe 1-rand  2-diag
   LASPH  =      F    aspherical Exc in radial PAW
 Electronic Relaxation 1
   ENCUT  =  270.0 eV  19.84 Ry    4.45 a.u.   3.69  3.69  3.69*2*pi/ulx,y,z
   ENINI  =  270.0     initial cutoff
   ENAUG  =  544.6 eV  augmentation charge cutoff
   NELM   =     60;   NELMIN=  2; NELMDL= -5     # of ELM steps 
   EDIFF  = 0.1E-03   stopping-criterion for ELM
   LREAL  =      F    real-space projection
   NLSPLINE    = F    spline interpolate recip. space projectors
   LCOMPAT=      F    compatible to vasp.4.4
   GGA_COMPAT  = T    GGA compatible to vasp.4.4-vasp.4.6
   LMAXPAW     = -100 max onsite density
   LMAXMIX     =    2 max onsite mixed and CHGCAR
   VOSKOWN=      0    Vosko Wilk Nusair interpolation
   ROPT   =    0.00000
 Ionic relaxation
   EDIFFG = 0.1E-02   stopping-criterion for IOM
   NSW    =      0    number of steps for IOM
   NBLOCK =      1;   KBLOCK =      1    inner block; outer block 
   IBRION =     -1    ionic relax: 0-MD 1-quasi-New 2-CG
   NFREE  =      0    steps in history (QN), initial steepest desc. (CG)
   ISIF   =      2    stress and relaxation
   IWAVPR =     10    prediction:  0-non 1-charg 2-wave 3-comb
   ISYM   =      2    0-nonsym 1-usesym 2-fastsym
   LCORR  =      T    Harris-Foulkes like correction to forces

   POTIM  = 0.5000    time-step for ionic-motion
   TEIN   =    0.0    initial temperature
   TEBEG  =    0.0;   TEEND  =   0.0 temperature during run
   SMASS  =  -3.00    Nose mass-parameter (am)
   estimated Nose-frequenzy (Omega)   =  0.10E-29 period in steps = 0.13E+47 mass=  -0.174E-27a.u.
   SCALEE = 1.0000    scale energy and forces
   NPACO  =    256;   APACO  = 10.0  distance and # of slots for P.C.
   PSTRESS=    0.0 pullay stress

  Mass of Ions in am
   POMASS =  58.69
  Ionic Valenz
   ZVAL   =  10.00
  Atomic Wigner-Seitz radii
   RWIGS  =  -1.00
  virtual crystal weights 
   VCA    =   1.00
   NELECT =      10.0000    total number of electrons
   NUPDOWN=      -1.0000    fix difference up-down

 DOS related values:
   EMIN   =  10.00;   EMAX   =-10.00  energy-range for DOS
   EFERMI =   0.00
   ISMEAR =     1;   SIGMA  =   0.20  broadening in eV -4-tet -1-fermi 0-gaus

 Electronic relaxation 2 (details)
   IALGO  =     38    algorithm
   LDIAG  =      T    sub-space diagonalisation (order eigenvalues)
   LSUBROT=      F    optimize rotation matrix (better conditioning)
   TURBO    =      0    0=normal 1=particle mesh
   IRESTART =      0    0=no restart 2=restart with 2 vectors
   NREBOOT  =      0    no. of reboots
   NMIN     =      0    reboot dimension
   EREF     =   0.00    reference energy to select bands
   IMIX   =      4    mixing-type and parameters
     AMIX     =   0.40;   BMIX     =  1.00
     AMIX_MAG =   1.60;   BMIX_MAG =  1.00
     AMIN     =   0.10
     WC   =   100.;   INIMIX=   1;  MIXPRE=   1;  MAXMIX= -45

 Intra band minimization:
   WEIMIN = 0.0000     energy-eigenvalue tresh-hold
   EBREAK =  0.21E-05  absolut break condition
   DEPER  =   0.30     relativ break condition  

   TIME   =   0.40     timestep for ELM

  volume/ion in A,a.u.               =      14.83       100.08
  Fermi-wavevector in a.u.,A,eV,Ry     =   1.435589  2.712870 28.040474  2.060917
  Thomas-Fermi vector in A             =   2.554871
 
 Write flags
   LWAVE        =      T    write WAVECAR
   LDOWNSAMPLE  =      F    k-point downsampling of WAVECAR
   LCHARG       =      T    write CHGCAR
   LVTOT        =      F    write LOCPOT, total local potential
   LVHAR        =      F    write LOCPOT, Hartree potential only
   LELF         =      F    write electronic localiz. function (ELF)
   LORBIT       =     11    0 simple, 1 ext, 2 COOP (PROOUT), +10 PAW based schemes


 Dipole corrections
   LMONO  =      F    monopole corrections only (constant potential shift)
   LDIPOL =      F    correct potential (dipole corrections)
   IDIPOL =      0    1-x, 2-y, 3-z, 4-all directions 
   EPSILON=  1.0000000 bulk dielectric constant

 Exchange correlation treatment:
   GGA     =    --    GGA type
   LEXCH   =     8    internal setting for exchange type
   LIBXC   =     F    Libxc                    
   VOSKOWN =     0    Vosko Wilk Nusair interpolation
   LHFCALC =     F    Hartree Fock is set to
   LHFONE  =     F    Hartree Fock one center treatment
   AEXX    =    0.0000 exact exchange contribution

 Linear response parameters
   LEPSILON=     F    determine dielectric tensor
   LRPA    =     F    only Hartree local field effects (RPA)
   LNABLA  =     F    use nabla operator in PAW spheres
   LVEL    =     F    velocity operator in full k-point grid
   CSHIFT  =0.1000    complex shift for real part using Kramers Kronig
   OMEGAMAX=  -1.0    maximum frequency
   DEG_THRESHOLD= 0.2000000E-02 threshold for treating states as degnerate
   RTIME   =   -0.100 relaxation time in fs
  (WPLASMAI=    0.000 imaginary part of plasma frequency in eV, 0.658/RTIME)
   DFIELD  = 0.0000000 0.0000000 0.0000000 field for delta impulse in time
 
  Optional k-point grid parameters
   LKPOINTS_OPT  =     F    use optional k-point grid
   KPOINTS_OPT_MODE=     1    mode for optional k-point grid
 
 Orbital magnetization related:
   ORBITALMAG=     F  switch on orbital magnetization
   LCHIMAG   =     F  perturbation theory with respect to B field
   DQ        =  0.001000  dq finite difference perturbation B field
   LLRAUG    =     F  two centre corrections for induced B field



--------------------------------------------------------------------------------------------------------


 Static calculation
 charge density and potential will be updated during run
 spin polarized calculation
 Variant of blocked Davidson
 Davidson routine will perform the subspace rotation
 perform sub-space diagonalisation
    after iterative eigenvector-optimisation
 modified Broyden-mixing scheme, WC =      100.0
 initial mixing is a Kerker type mixing with AMIX =  0.4000 and BMIX =      1.0000
 Hartree-type preconditioning will be used
 using additional bands            7
 reciprocal scheme for non local part
 use partial core corrections
 calculate Harris-corrections to forces 
   (improved forces if not selfconsistent)
 use gradient corrections 
 use of overlap-Matrix (Vanderbilt PP)
 Methfessel and Paxton  Order N= 1 SIGMA  =   0.20


--------------------------------------------------------------------------------------------------------


  energy-cutoff  :      270.00
  volume of cell :       14.83
      direct lattice vectors                 reciprocal lattice vectors
     1.950000000  1.950000000  0.000000000     0.256410256  0.256410256 -0.256410256
     0.000000000  1.950000000  1.950000000    -0.256410256  0.256410256  0.256410256
     1.950000000  0.000000000  1.950000000     0.256410256 -0.256410256  0.256410256

  length of vectors
     2.757716447  2.757716447  2.757716447     0.444115592  0.444115592  0.444115592


 
 k-points in units of 2pi/SCALE and weight: k-points                                
   0.00000000  0.00000000  0.00000000       0.001
   0.09090909  0.09090909 -0.09090909       0.006
   0.18181818  0.18181818 -0.18181818       0.006
   0.27272727  0.27272727 -0.27272727       0.006
   0.36363636  0.36363636 -0.36363636       0.006
   0.45454545  0.45454545 -0.45454545       0.006
   0.00000000  0.18181818  0.00000000       0.005
   0.09090909  0.27272727 -0.09090909       0.018
   0.18181818  0.36363636 -0.18181818       0.018
   0.27272727  0.45454545 -0.27272727       0.018
   0.36363636  0.54545455 -0.36363636       0.018
  -0.54545455 -0.36363636  0.54545455       0.018
  -0.45454545 -0.27272727  0.45454545       0.018
  -0.36363636 -0.18181818  0.36363636       0.018
  -0.27272727 -0.09090909  0.27272727       0.018
  -0.18181818  0.00000000  0.18181818       0.009
   0.00000000  0.36363636 -0.00000000       0.005
   0.09090909  0.45454545 -0.09090909       0.018
   0.18181818  0.54545455 -0.18181818       0.018
   0.27272727  0.63636364 -0.27272727       0.018
  -0.63636364 -0.27272727  0.63636364       0.018
  -0.54545455 -0.18181818  0.54545455       0.018
  -0.45454545 -0.09090909  0.45454545       0.018
  -0.36363636 -0.00000000  0.36363636       0.009
   0.00000000  0.54545455 -0.00000000       0.005
   0.09090909  0.63636364 -0.09090909       0.018
   0.18181818  0.72727273 -0.18181818       0.018
  -0.72727273 -0.18181818  0.72727273       0.018
  -0.63636364 -0.09090909  0.63636364       0.018
  -0.54545455 -0.00000000  0.54545455       0.009
   0.00000000  0.72727273  0.00000000       0.005
   0.09090909  0.81818182 -0.09090909       0.018
  -0.81818182 -0.09090909  0.81818182       0.018
  -0.72727273  0.00000000  0.72727273       0.009
   0.00000000  0.90909091  0.00000000       0.005
  -0.90909091 -0.00000000  0.90909091       0.009
   0.18181818  0.36363636 -0.00000000       0.018
   0.27272727  0.45454545 -0.09090909       0.036
   0.36363636  0.54545455 -0.18181818       0.036
  -0.54545455 -0.36363636  0.72727273       0.036
   0.18181818  0.54545455  0.00000000       0.018
   0.27272727  0.63636364 -0.09090909       0.036
  -0.63636364 -0.27272727  0.81818182       0.036
  -0.54545455 -0.18181818  0.72727273       0.036
  -0.45454545 -0.09090909  0.63636364       0.036
  -0.36363636 -0.00000000  0.54545455       0.018
   0.18181818  0.72727273  0.00000000       0.018
  -0.72727273 -0.18181818  0.90909091       0.036
  -0.63636364 -0.09090909  0.81818182       0.036
  -0.54545455  0.00000000  0.72727273       0.018
  -0.81818182 -0.09090909  1.00000000       0.018
  -0.72727273 -0.00000000  0.90909091       0.018
  -0.63636364 -0.27272727  1.00000000       0.018
  -0.54545455 -0.18181818  0.90909091       0.036
  -0.63636364 -0.09090909  1.00000000       0.018
  -0.54545455 -0.00000000  0.90909091       0.018
 
 k-points in reciprocal lattice and weights: k-points                                
   0.00000000  0.00000000  0.00000000       0.001
   0.09090909  0.00000000  0.00000000       0.006
   0.18181818 -0.00000000  0.00000000       0.006
   0.27272727 -0.00000000  0.00000000       0.006
   0.36363636 -0.00000000 -0.00000000       0.006
   0.45454545  0.00000000 -0.00000000       0.006
   0.09090909  0.09090909  0.00000000       0.005
   0.18181818  0.09090909 -0.00000000       0.018
   0.27272727  0.09090909  0.00000000       0.018
   0.36363636  0.09090909  0.00000000       0.018
   0.45454545  0.09090909  0.00000000       0.018
  -0.45454545  0.09090909 -0.00000000       0.018
  -0.36363636  0.09090909 -0.00000000       0.018
  -0.27272727  0.09090909  0.00000000       0.018
  -0.18181818  0.09090909 -0.00000000       0.018
  -0.09090909  0.09090909 -0.00000000       0.009
   0.18181818  0.18181818 -0.00000000       0.005
   0.27272727  0.18181818 -0.00000000       0.018
   0.36363636  0.18181818  0.00000000       0.018
   0.45454545  0.18181818  0.00000000       0.018
  -0.45454545  0.18181818 -0.00000000       0.018
  -0.36363636  0.18181818 -0.00000000       0.018
  -0.27272727  0.18181818  0.00000000       0.018
  -0.18181818  0.18181818  0.00000000       0.009
   0.27272727  0.27272727 -0.00000000       0.005
   0.36363636  0.27272727  0.00000000       0.018
   0.45454545  0.27272727  0.00000000       0.018
  -0.45454545  0.27272727 -0.00000000       0.018
  -0.36363636  0.27272727 -0.00000000       0.018
  -0.27272727  0.27272727  0.00000000       0.009
   0.36363636  0.36363636  0.00000000       0.005
   0.45454545  0.36363636  0.00000000       0.018
  -0.45454545  0.36363636 -0.00000000       0.018
  -0.36363636  0.36363636  0.00000000       0.009
   0.45454545  0.45454545  0.00000000       0.005
  -0.45454545  0.45454545  0.00000000       0.009
   0.27272727  0.18181818  0.09090909       0.018
   0.36363636  0.18181818  0.09090909       0.036
   0.45454545  0.18181818  0.09090909       0.036
  -0.45454545  0.18181818  0.09090909       0.036
   0.36363636  0.27272727  0.09090909       0.018
   0.45454545  0.27272727  0.09090909       0.036
  -0.45454545  0.27272727  0.09090909       0.036
  -0.36363636  0.27272727  0.09090909       0.036
  -0.27272727  0.27272727  0.09090909       0.036
  -0.18181818  0.27272727  0.09090909       0.018
   0.45454545  0.36363636  0.09090909       0.018
  -0.45454545  0.36363636  0.09090909       0.036
  -0.36363636  0.36363636  0.09090909       0.036
  -0.27272727  0.36363636  0.09090909       0.018
  -0.45454545  0.45454545  0.09090909       0.018
  -0.36363636  0.45454545  0.09090909       0.018
  -0.45454545  0.36363636  0.18181818       0.018
  -0.36363636  0.36363636  0.18181818       0.036
  -0.36363636  0.45454545  0.18181818       0.018
  -0.27272727  0.45454545  0.18181818       0.018
 
 position of ions in fractional coordinates (direct lattice) 
   0.00000000  0.00000000  0.00000000
 
 position of ions in cartesian coordinates  (Angst):
   0.00000000  0.00000000  0.00000000
 


--------------------------------------------------------------------------------------------------------


 k-point   1 :   0.0000 0.0000 0.0000  plane waves:     169
 k-point   2 :   0.0909 0.0000 0.0000  plane waves:     153
 k-point   3 :   0.1818-0.0000 0.0000  plane waves:     153
 k-point   4 :   0.2727-0.0000 0.0000  plane waves:     150
 k-point   5 :   0.3636-0.0000-0.0000  plane waves:     147
 k-point   6 :   0.4545 0.0000-0.0000  plane waves:     147
 k-point   7 :   0.0909 0.0909 0.0000  plane waves:     153
 k-point   8 :   0.1818 0.0909-0.0000  plane waves:     155
 k-point   9 :   0.2727 0.0909 0.0000  plane waves:     151
 k-point  10 :   0.3636 0.0909 0.0000  plane waves:     150
 k-point  11 :   0.4545 0.0909 0.0000  plane waves:     151
 k-point  12 :  -0.4545 0.0909-0.0000  plane waves:     154
 k-point  13 :  -0.3636 0.0909-0.0000  plane waves:     149
 k-point  14 :  -0.2727 0.0909 0.0000  plane waves:     149
 k-point  15 :  -0.1818 0.0909-0.0000  plane waves:     151
 k-point  16 :  -0.0909 0.0909-0.0000  plane waves:     157
 k-point  17 :   0.1818 0.1818-0.0000  plane waves:     153
 k-point  18 :   0.2727 0.1818-0.0000  plane waves:     150
 k-point  19 :   0.3636 0.1818 0.0000  plane waves:     150
 k-point  20 :   0.4545 0.1818 0.0000  plane waves:     149
 k-point  21 :  -0.4545 0.1818-0.0000  plane waves:     153
 k-point  22 :  -0.3636 0.1818-0.0000  plane waves:     153
 k-point  23 :  -0.2727 0.1818 0.0000  plane waves:     148
 k-point  24 :  -0.1818 0.1818 0.0000  plane waves:     154
 k-point  25 :   0.2727 0.2727-0.0000  plane waves:     149
 k-point  26 :   0.3636 0.2727 0.0000  plane waves:     147
 k-point  27 :   0.4545 0.2727 0.0000  plane waves:     147
 k-point  28 :  -0.4545 0.2727-0.0000  plane waves:     152
 k-point  29 :  -0.3636 0.2727-0.0000  plane waves:     151
 k-point  30 :  -0.2727 0.2727 0.0000  plane waves:     148
 k-point  31 :   0.3636 0.3636 0.0000  plane waves:     145
 k-point  32 :   0.4545 0.3636 0.0000  plane waves:     150
 k-point  33 :  -0.4545 0.3636-0.0000  plane waves:     144
 k-point  34 :  -0.3636 0.3636 0.0000  plane waves:     146
 k-point  35 :   0.4545 0.4545 0.0000  plane waves:     150
 k-point  36 :  -0.4545 0.4545 0.0000  plane waves:     150
 k-point  37 :   0.2727 0.1818 0.0909  plane waves:     151
 k-point  38 :   0.3636 0.1818 0.0909  plane waves:     149
 k-point  39 :   0.4545 0.1818 0.0909  plane waves:     147
 k-point  40 :  -0.4545 0.1818 0.0909  plane waves:     153
 k-point  41 :   0.3636 0.2727 0.0909  plane waves:     148
 k-point  42 :   0.4545 0.2727 0.0909  plane waves:     146
 k-point  43 :  -0.4545 0.2727 0.0909  plane waves:     148
 k-point  44 :  -0.3636 0.2727 0.0909  plane waves:     149
 k-point  45 :  -0.2727 0.2727 0.0909  plane waves:     149
 k-point  46 :  -0.1818 0.2727 0.0909  plane waves:     146
 k-point  47 :   0.4545 0.3636 0.0909  plane waves:     150
 k-point  48 :  -0.4545 0.3636 0.0909  plane waves:     148
 k-point  49 :  -0.3636 0.3636 0.0909  plane waves:     152
 k-point  50 :  -0.2727 0.3636 0.0909  plane waves:     148
 k-point  51 :  -0.4545 0.4545 0.0909  plane waves:     148
 k-point  52 :  -0.3636 0.4545 0.0909  plane waves:     151
 k-point  53 :  -0.4545 0.3636 0.1818  plane waves:     149
 k-point  54 :  -0.3636 0.3636 0.1818  plane waves:     150
 k-point  55 :  -0.3636 0.4545 0.1818  plane waves:     151
 k-point  56 :  -0.2727 0.4545 0.1818  plane waves:     149

 maximum and minimum number of plane-waves per node :       169      144

 maximum number of plane-waves:       169
 maximum index in each direction: 
   IXMAX=    4   IYMAX=    3   IZMAX=    3
   IXMIN=   -4   IYMIN=   -4   IZMIN=   -3


 serial   3D FFT for wavefunctions
 parallel 3D FFT for charge:
    minimum data exchange during FFTs selected (reduces bandwidth)


 total amount of memory used by VASP MPI-rank0    32993. kBytes
=======================================================================

   base      :      30000. kBytes
   nonl-proj :       1389. kBytes
   fftplans  :        134. kBytes
   grid      :        407. kBytes
   one-center:         31. kBytes
   wavefun   :       1032. kBytes
 
     INWAV:  cpu time      0.0000: real time      0.0000
 Broyden mixing: mesh for mixing (old mesh)
   NGX =  7   NGY =  7   NGZ =  7
  (NGX  = 24   NGY  = 24   NGZ  = 24)
  gives a total of    343 points

 initial charge density was supplied:
 charge density of overlapping atoms calculated
 number of electron      10.0000000 magnetization       1.0000000
 keeping initial charge density in first step


--------------------------------------------------------------------------------------------------------


 Maximum index for augmentation-charges          907 (set IRDMAX)


--------------------------------------------------------------------------------------------------------


 First call to EWALD:  gamma=   0.721
 Maximum number of real-space cells 3x 3x 3
 Maximum number of reciprocal cells 3x 3x 3

    FEWALD:  cpu time      0.0012: real time      0.0012


--------------------------------------- Iteration      1(   1)  ---------------------------------------


    POTLOK:  cpu time      0.0040: real time      0.0042
    SETDIJ:  cpu time      0.0034: real time      0.0034
     EDDAV:  cpu time      0.1610: real time      0.1615
       DOS:  cpu time      0.0013: real time      0.0013
    --------------------------------------------
      LOOP:  cpu time      0.1697: real time      0.1704

 eigenvalue-minimisations  :  2856
 total energy-change (2. order) : 0.2042025E+02  (-0.2978197E+03)
 number of electron      10.0000000 magnetization       1.0000000
 augmentation part       10.0000000 magnetization       1.0000000

 Free energy of the ion-electron system (eV)
  ---------------------------------------------------
  alpha Z        PSCENC =        34.38992633
  Ewald energy   TEWEN  =      -846.42356471
  -Hartree energ DENC   =      -291.90772916
  -exchange      EXHF   =         0.00000000
  -V(xc)+E(xc)   XCENC  =        30.95345384
  PAW double counting   =       962.83317360    -1029.67071227
  entropy T*S    EENTRO =        -0.00181189
  eigenvalues    EBANDS =        82.61143776
  atomic energy  EATOM  =      1077.63607467
  Solvation  Ediel_sol  =         0.00000000
  ---------------------------------------------------
  free energy    TOTEN  =        20.42024817 eV

  energy without entropy =       20.42206006  energy(sigma->0) =       20.42085213


--------------------------------------------------------------------------------------------------------




--------------------------------------- Iteration      1(   2)  ---------------------------------------


     EDDAV:  cpu time      0.1546: real time      0.1550
       DOS:  cpu time      0.0011: real time      0.0011
    --------------------------------------------
      LOOP:  cpu time      0.1556: real time      0.1560

 eigenvalue-minimisations  :  2864
 total energy-change (2. order) :-0.2579707E+02  (-0.2424838E+02)
 number of electron      10.0000000 magnetization       1.0000000
 augmentation part       10.0000000 magnetization       1.0000000

 Free energy of the ion-electron system (eV)
  ---------------------------------------------------
  alpha Z        PSCENC =        34.38992633
  Ewald energy   TEWEN  =      -846.42356471
  -Hartree energ DENC   =      -291.90772916
  -exchange      EXHF   =         0.00000000
  -V(xc)+E(xc)   XCENC  =        30.95345384
  PAW double counting   =       962.83317360    -1029.67071227
  entropy T*S    EENTRO =        -0.00298639
  eigenvalues    EBANDS =        56.81554393
  atomic energy  EATOM  =      1077.63607467
  Solvation  Ediel_sol  =         0.00000000
  ---------------------------------------------------
  free energy    TOTEN  =        -5.37682016 eV

  energy without entropy =       -5.37383377  energy(sigma->0) =       -5.37582469


--------------------------------------------------------------------------------------------------------




--------------------------------------- Iteration      1(   3)  ---------------------------------------


     EDDAV:  cpu time      0.1803: real time      0.1808
       DOS:  cpu time      0.0014: real time      0.0014
    --------------------------------------------
      LOOP:  cpu time      0.1817: real time      0.1822

 eigenvalue-minimisations  :  3180
 total energy-change (2. order) :-0.5333191E+00  (-0.5289350E+00)
 number of electron      10.0000000 magnetization       1.0000000
 augmentation part       10.0000000 magnetization       1.0000000

 Free energy of the ion-electron system (eV)
  ---------------------------------------------------
  alpha Z        PSCENC =        34.38992633
  Ewald energy   TEWEN  =      -846.42356471
  -Hartree energ DENC   =      -291.90772916
  -exchange      EXHF   =         0.00000000
  -V(xc)+E(xc)   XCENC  =        30.95345384
  PAW double counting   =       962.83317360    -1029.67071227
  entropy T*S    EENTRO =        -0.00180831
  eigenvalues    EBANDS =        56.28104673
  atomic energy  EATOM  =      1077.63607467
  Solvation  Ediel_sol  =         0.00000000
  ---------------------------------------------------
  free energy    TOTEN  =        -5.91013929 eV

  energy without entropy =       -5.90833097  energy(sigma->0) =       -5.90953651


--------------------------------------------------------------------------------------------------------




--------------------------------------- Iteration      1(   4)  ---------------------------------------


     EDDAV:  cpu time      0.1729: real time      0.1734
       DOS:  cpu time      0.0012: real time      0.0013
    --------------------------------------------
      LOOP:  cpu time      0.1741: real time      0.1746

 eigenvalue-minimisations  :  3052
 total energy-change (2. order) :-0.3001535E-02  (-0.3001278E-02)
 number of electron      10.0000000 magnetization       1.0000000
 augmentation part       10.0000000 magnetization       1.0000000

 Free energy of the ion-electron system (eV)
  ---------------------------------------------------
  alpha Z        PSCENC =        34.38992633
  Ewald energy   TEWEN  =      -846.42356471
  -Hartree energ DENC   =      -291.90772916
  -exchange      EXHF   =         0.00000000
  -V(xc)+E(xc)   XCENC  =        30.95345384
  PAW double counting   =       962.83317360    -1029.67071227
  entropy T*S    EENTRO =        -0.00180405
  eigenvalues    EBANDS =        56.27804092
  atomic energy  EATOM  =      1077.63607467
  Solvation  Ediel_sol  =         0.00000000
  ---------------------------------------------------
  free energy    TOTEN  =        -5.91314082 eV

  energy without entropy =       -5.91133677  energy(sigma->0) =       -5.91253947


--------------------------------------------------------------------------------------------------------




--------------------------------------- Iteration      1(   5)  ---------------------------------------


     EDDAV:  cpu time      0.1722: real time      0.1726
       DOS:  cpu time      0.0012: real time      0.0012
    CHARGE:  cpu time      0.0036: real time      0.0036
    MIXING:  cpu time      0.0002: real time      0.0002
    --------------------------------------------
      LOOP:  cpu time      0.1772: real time      0.1776

 eigenvalue-minimisations  :  3192
 total energy-change (2. order) :-0.4970249E-04  (-0.4970200E-04)
 number of electron      10.0000081 magnetization       0.9951599
 augmentation part        5.6220840 magnetization       0.8153870

 Broyden mixing:
  rms(total) = 0.83993E+00    rms(broyden)= 0.83926E+00
  rms(prec ) = 0.29873E+01
  weight for this iteration     100.00

 Free energy of the ion-electron system (eV)
  ---------------------------------------------------
  alpha Z        PSCENC =        34.38992633
  Ewald energy   TEWEN  =      -846.42356471
  -Hartree energ DENC   =      -291.90772916
  -exchange      EXHF   =         0.00000000
  -V(xc)+E(xc)   XCENC  =        30.95345384
  PAW double counting   =       962.83317360    -1029.67071227
  entropy T*S    EENTRO =        -0.00180403
  eigenvalues    EBANDS =        56.27799120
  atomic energy  EATOM  =      1077.63607467
  Solvation  Ediel_sol  =         0.00000000
  ---------------------------------------------------
  free energy    TOTEN  =        -5.91319052 eV

  energy without entropy =       -5.91138649  energy(sigma->0) =       -5.91258918


--------------------------------------------------------------------------------------------------------




--------------------------------------- Iteration      1(   6)  ---------------------------------------


    POTLOK:  cpu time      0.0039: real time      0.0040
    SETDIJ:  cpu time      0.0032: real time      0.0032
     EDDAV:  cpu time      0.1708: real time      0.1712
       DOS:  cpu time      0.0012: real time      0.0012
    CHARGE:  cpu time      0.0036: real time      0.0037
    MIXING:  cpu time      0.0002: real time      0.0002
    --------------------------------------------
      LOOP:  cpu time      0.1831: real time      0.1836

 eigenvalue-minimisations  :  3200
 total energy-change (2. order) : 0.2099700E+00  (-0.1956356E+01)
 number of electron      10.0000098 magnetization       0.6379350
 augmentation part        6.7474956 magnetization       0.6499403

 Broyden mixing:
  rms(total) = 0.91160E+00    rms(broyden)= 0.91153E+00
  rms(prec ) = 0.23546E+01
  weight for this iteration     100.00

 eigenvalues of (default mixing * dielectric matrix)
  average eigenvalue GAMMA=   0.4390
  0.4390

 Free energy of the ion-electron system (eV)
  ---------------------------------------------------
  alpha Z        PSCENC =        34.38992633
  Ewald energy   TEWEN  =      -846.42356471
  -Hartree energ DENC   =      -264.88116904
  -exchange      EXHF   =         0.00000000
  -V(xc)+E(xc)   XCENC  =        29.69802638
  PAW double counting   =       962.49831795    -1023.99795546
  entropy T*S    EENTRO =        -0.00767728
  eigenvalues    EBANDS =        25.38480065
  atomic energy  EATOM  =      1077.63607467
  Solvation  Ediel_sol  =         0.00000000
  ---------------------------------------------------
  free energy    TOTEN  =        -5.70322051 eV

  energy without entropy =       -5.69554322  energy(sigma->0) =       -5.70066141


--------------------------------------------------------------------------------------------------------




--------------------------------------- Iteration      1(   7)  ---------------------------------------


    POTLOK:  cpu time      0.0035: real time      0.0036
    SETDIJ:  cpu time      0.0029: real time      0.0029
     EDDAV:  cpu time      0.1673: real time      0.1677
       DOS:  cpu time      0.0012: real time      0.0012
    CHARGE:  cpu time      0.0032: real time      0.0032
    MIXING:  cpu time      0.0002: real time      0.0002
    --------------------------------------------
      LOOP:  cpu time      0.1783: real time      0.1787

 eigenvalue-minimisations  :  3140
 total energy-change (2. order) : 0.7076828E+00  (-0.4974800E+00)
 number of electron      10.0000090 magnetization       0.6881069
 augmentation part        6.2003345 magnetization       0.6584310

 Broyden mixing:
  rms(total) = 0.12059E+00    rms(broyden)= 0.12038E+00
  rms(prec ) = 0.24595E+00
  weight for this iteration     100.00

 eigenvalues of (default mixing * dielectric matrix)
  average eigenvalue GAMMA=   0.7197
  0.8976  0.5419

 Free energy of the ion-electron system (eV)
  ---------------------------------------------------
  alpha Z        PSCENC =        34.38992633
  Ewald energy   TEWEN  =      -846.42356471
  -Hartree energ DENC   =      -276.18643127
  -exchange      EXHF   =         0.00000000
  -V(xc)+E(xc)   XCENC  =        30.17483311
  PAW double counting   =       990.12367283    -1055.72649619
  entropy T*S    EENTRO =        -0.00949561
  eigenvalues    EBANDS =        41.02594315
  atomic energy  EATOM  =      1077.63607467
  Solvation  Ediel_sol  =         0.00000000
  ---------------------------------------------------
  free energy    TOTEN  =        -4.99553769 eV

  energy without entropy =       -4.98604208  energy(sigma->0) =       -4.99237249


--------------------------------------------------------------------------------------------------------




--------------------------------------- Iteration      1(   8)  ---------------------------------------


    POTLOK:  cpu time      0.0036: real time      0.0036
    SETDIJ:  cpu time      0.0030: real time      0.0030
     EDDAV:  cpu time      0.1614: real time      0.1618
       DOS:  cpu time      0.0013: real time      0.0013
    CHARGE:  cpu time      0.0037: real time      0.0037
    MIXING:  cpu time      0.0002: real time      0.0002
    --------------------------------------------
      LOOP:  cpu time      0.1731: real time      0.1736

 eigenvalue-minimisations  :  2964
 total energy-change (2. order) : 0.4264440E-02  (-0.5949938E-03)
 number of electron      10.0000090 magnetization       0.6911165
 augmentation part        6.2056610 magnetization       0.6579374

 Broyden mixing:
  rms(total) = 0.71622E-01    rms(broyden)= 0.71587E-01
  rms(prec ) = 0.15704E+00
  weight for this iteration     100.00

 eigenvalues of (default mixing * dielectric matrix)
  average eigenvalue GAMMA=   0.8839
  1.5098  0.5710  0.5710

 Free energy of the ion-electron system (eV)
  ---------------------------------------------------
  alpha Z        PSCENC =        34.38992633
  Ewald energy   TEWEN  =      -846.42356471
  -Hartree energ DENC   =      -274.92309237
  -exchange      EXHF   =         0.00000000
  -V(xc)+E(xc)   XCENC  =        30.13694111
  PAW double counting   =      1005.04284289    -1071.52939425
  entropy T*S    EENTRO =        -0.00932344
  eigenvalues    EBANDS =        40.68831651
  atomic energy  EATOM  =      1077.63607467
  Solvation  Ediel_sol  =         0.00000000
  ---------------------------------------------------
  free energy    TOTEN  =        -4.99127325 eV

  energy without entropy =       -4.98194982  energy(sigma->0) =       -4.98816544


--------------------------------------------------------------------------------------------------------




--------------------------------------- Iteration      1(   9)  ---------------------------------------


    POTLOK:  cpu time      0.0038: real time      0.0039
    SETDIJ:  cpu time      0.0031: real time      0.0031
     EDDAV:  cpu time      0.1889: real time      0.1894
       DOS:  cpu time      0.0011: real time      0.0011
    CHARGE:  cpu time      0.0036: real time      0.0036
    MIXING:  cpu time      0.0002: real time      0.0002
    --------------------------------------------
      LOOP:  cpu time      0.2008: real time      0.2013

 eigenvalue-minimisations  :  3280
 total energy-change (2. order) : 0.1887597E-02  (-0.1931248E-03)
 number of electron      10.0000090 magnetization       0.7017933
 augmentation part        6.2150822 magnetization       0.6689705

 Broyden mixing:
  rms(total) = 0.24365E-01    rms(broyden)= 0.24351E-01
  rms(prec ) = 0.74888E-01
  weight for this iteration     100.00

 eigenvalues of (default mixing * dielectric matrix)
  average eigenvalue GAMMA=   1.1272
  2.3502  0.9938  0.5382  0.6266

 Free energy of the ion-electron system (eV)
  ---------------------------------------------------
  alpha Z        PSCENC =        34.38992633
  Ewald energy   TEWEN  =      -846.42356471
  -Hartree energ DENC   =      -274.07282611
  -exchange      EXHF   =         0.00000000
  -V(xc)+E(xc)   XCENC  =        30.10205595
  PAW double counting   =      1013.59065799    -1080.53103290
  entropy T*S    EENTRO =        -0.00923912
  eigenvalues    EBANDS =        40.32856223
  atomic energy  EATOM  =      1077.63607467
  Solvation  Ediel_sol  =         0.00000000
  ---------------------------------------------------
  free energy    TOTEN  =        -4.98938565 eV

  energy without entropy =       -4.98014654  energy(sigma->0) =       -4.98630595


--------------------------------------------------------------------------------------------------------




--------------------------------------- Iteration      1(  10)  ---------------------------------------


    POTLOK:  cpu time      0.0036: real time      0.0036
    SETDIJ:  cpu time      0.0030: real time      0.0031
     EDDAV:  cpu time      0.1581: real time      0.1585
       DOS:  cpu time      0.0013: real time      0.0013
    CHARGE:  cpu time      0.0033: real time      0.0033
    MIXING:  cpu time      0.0003: real time      0.0003
    --------------------------------------------
      LOOP:  cpu time      0.1695: real time      0.1700

 eigenvalue-minimisations  :  2684
 total energy-change (2. order) : 0.5685617E-03  (-0.2508877E-03)
 number of electron      10.0000090 magnetization       0.6977248
 augmentation part        6.2271566 magnetization       0.6664597

 Broyden mixing:
  rms(total) = 0.66117E-02    rms(broyden)= 0.65921E-02
  rms(prec ) = 0.10628E-01
  weight for this iteration     100.00

 eigenvalues of (default mixing * dielectric matrix)
  average eigenvalue GAMMA=   1.0084
  2.2685  0.9620  0.5337  0.6388  0.6388

 Free energy of the ion-electron system (eV)
  ---------------------------------------------------
  alpha Z        PSCENC =        34.38992633
  Ewald energy   TEWEN  =      -846.42356471
  -Hartree energ DENC   =      -273.22477228
  -exchange      EXHF   =         0.00000000
  -V(xc)+E(xc)   XCENC  =        30.07132952
  PAW double counting   =      1022.10837026    -1089.46266660
  entropy T*S    EENTRO =        -0.00925752
  eigenvalues    EBANDS =        39.92574323
  atomic energy  EATOM  =      1077.63607467
  Solvation  Ediel_sol  =         0.00000000
  ---------------------------------------------------
  free energy    TOTEN  =        -4.98881709 eV

  energy without entropy =       -4.97955957  energy(sigma->0) =       -4.98573125


--------------------------------------------------------------------------------------------------------




--------------------------------------- Iteration      1(  11)  ---------------------------------------


    POTLOK:  cpu time      0.0037: real time      0.0038
    SETDIJ:  cpu time      0.0031: real time      0.0031
     EDDAV:  cpu time      0.1186: real time      0.1189
       DOS:  cpu time      0.0012: real time      0.0012
    --------------------------------------------
      LOOP:  cpu time      0.1267: real time      0.1270

 eigenvalue-minimisations  :  1688
 total energy-change (2. order) : 0.3142111E-06  (-0.5635826E-05)
 number of electron      10.0000090 magnetization       0.6977248
 augmentation part        6.2271566 magnetization       0.6664597

 Free energy of the ion-electron system (eV)
  ---------------------------------------------------
  alpha Z        PSCENC =        34.38992633
  Ewald energy   TEWEN  =      -846.42356471
  -Hartree energ DENC   =      -273.28913916
  -exchange      EXHF   =         0.00000000
  -V(xc)+E(xc)   XCENC  =        30.07303818
  PAW double counting   =      1021.96719611    -1089.30006475
  entropy T*S    EENTRO =        -0.00925663
  eigenvalues    EBANDS =        39.96697317
  atomic energy  EATOM  =      1077.63607467
  Solvation  Ediel_sol  =         0.00000000
  ---------------------------------------------------
  free energy    TOTEN  =        -4.98881678 eV

  energy without entropy =       -4.97956015  energy(sigma->0) =       -4.98573124


--------------------------------------------------------------------------------------------------------




 average (electrostatic) potential at core
  the test charge radii are     0.9791
  (the norm of the test charge is              1.0000)
       1 -85.3541
 
 
 
 E-fermi :   5.6541     XC(G=0): -11.5270     alpha+bet :-12.0780

 Fermi energy:         5.6541285720

 spin component 1

 k-point     1 :       0.0000    0.0000    0.0000
  band No.  band energies     occupation 
      1      -1.4106      1.00000
      2       3.7931      1.00000
      3       3.7931      1.00000
      4       3.7931      1.00000
      5       4.5576      1.00000
      6       4.5576      1.00000
      7      26.7376      0.00000
      8      28.2876      0.00000
      9      28.2876      0.00000
     10      28.2877      0.00000
     11      30.8107      0.00000
     12      30.8108      0.00000

 k-point     2 :       0.0909    0.0000    0.0000
  band No.  band energies     occupation 
      1      -1.1533      1.00000
      2       3.7485      1.00000
      3       3.8384      1.00000
      4       3.8384      1.00000
      5       4.5459      1.00000
      6       4.5459      1.00000
      7      24.4746      0.00000
      8      27.1515      0.00000
      9      27.6379      0.00000
     10      27.6379      0.00000
     11      31.8814      0.00000
     12      31.8815      0.00000

 k-point     3 :       0.1818   -0.0000    0.0000
  band No.  band energies     occupation 
      1      -0.4064      1.00000
      2       3.6508      1.00000
      3       3.9236      1.00000
      4       3.9236      1.00000
      5       4.5375      1.00000
      6       4.5375      1.00000
      7      20.2553      0.00000
      8      26.7093      0.00000
      9      26.7093      0.00000
     10      26.8729      0.00000
     11      32.3501      0.00000
     12      32.9165      0.00000

 k-point     4 :       0.2727   -0.0000    0.0000
  band No.  band energies     occupation 
      1       0.7117      1.00000
      2       3.6506      1.00000
      3       3.9442      1.00000
      4       3.9442      1.00000
      5       4.6313      1.00000
      6       4.6313      1.00000
      7      16.2722      0.00000
      8      26.0123      0.00000
      9      26.0124      0.00000
     10      26.3666      0.00000
     11      30.9862      0.00000
     12      30.9863      0.00000

 k-point     5 :       0.3636   -0.0000   -0.0000
  band No.  band energies     occupation 
      1       1.7593      1.00000
      2       3.8916      1.00000
      3       3.8917      1.00000
      4       4.1767      1.00000
      5       4.8044      1.00000
      6       4.8044      1.00000
      7      12.7195      0.00000
      8      25.5845      0.00000
      9      25.5847      0.00000
     10      25.7919      0.00000
     11      29.4828      0.00000
     12      29.4830      0.00000

 k-point     6 :       0.4545    0.0000   -0.0000
  band No.  band energies     occupation 
      1       2.1559      1.00000
      2       3.8431      1.00000
      3       3.8431      1.00000
      4       4.9289      1.00000
      5       4.9289      1.00000
      6       5.5321      0.92461
      7       9.9640     -0.00000
      8      25.3906      0.00000
      9      25.3909      0.00000
     10      25.4334      0.00000
     11      28.6753      0.00000
     12      28.6757      0.00000

 k-point     7 :       0.0909    0.0909    0.0000
  band No.  band energies     occupation 
      1      -1.0678      1.00000
      2       3.7052      1.00000
      3       3.8699      1.00000
      4       3.8699      1.00000
      5       4.4792      1.00000
      6       4.5976      1.00000
      7      25.6615      0.00000
      8      25.9802      0.00000
      9      25.9802      0.00000
     10      27.2086      0.00000
     11      32.4393      0.00000
     12      32.6378      0.00000

 k-point     8 :       0.1818    0.0909   -0.0000
  band No.  band energies     occupation 
      1      -0.4841      1.00000
      2       3.6003      1.00000
      3       3.9575      1.00000
      4       3.9617      1.00000
      5       4.4153      1.00000
      6       4.6269      1.00000
      7      21.8265      0.00000
      8      24.6975      0.00000
      9      25.6144      0.00000
     10      28.3374      0.00000
     11      29.7172      0.00000
     12      32.7251      0.00000

 k-point     9 :       0.2727    0.0909    0.0000
  band No.  band energies     occupation 
      1       0.5207      1.00000
      2       3.5217      1.00000
      3       3.9669      1.00000
      4       4.0180      1.00000
      5       4.5169      1.00000
      6       4.7088      1.00000
      7      17.7455      0.00000
      8      23.8484      0.00000
      9      25.1081      0.00000
     10      27.1853      0.00000
     11      30.3893      0.00000
     12      32.4836      0.00000

 k-point    10 :       0.3636    0.0909    0.0000
  band No.  band energies     occupation 
      1       1.6469      1.00000
      2       3.6891      1.00000
      3       3.8711      1.00000
      4       3.9894      1.00000
      5       4.8469      1.00000
      6       4.8883      1.00000
      7      14.0242      0.00000
      8      23.4712      0.00000
      9      24.6447      0.00000
     10      25.3131      0.00000
     11      31.0597      0.00000
     12      32.2087      0.00000

 k-point    11 :       0.4545    0.0909    0.0000
  band No.  band energies     occupation 
      1       2.2284      1.00000
      2       3.7888      1.00000
      3       3.9339      1.00000
      4       4.2519      1.00000
      5       4.9453      1.00000
      6       5.7803      0.06663
      7      10.8806     -0.00000
      8      23.4972      0.00000
      9      23.6137      0.00000
     10      24.8536      0.00000
     11      30.8600      0.00000
     12      30.8716      0.00000

 k-point    12 :      -0.4545    0.0909   -0.0000
  band No.  band energies     occupation 
      1       2.3157      1.00000
      2       3.7711      1.00000
      3       3.9103      1.00000
      4       4.4787      1.00000
      5       4.9175      1.00000
      6       6.5636     -0.00000
      7       9.5674     -0.00000
      8      22.4967      0.00000
      9      24.3183      0.00000
     10      25.1127      0.00000
     11      29.9589      0.00000
     12      30.8000      0.00000

 k-point    13 :      -0.3636    0.0909   -0.0000
  band No.  band energies     occupation 
      1       2.1178      1.00000
      2       3.8179      1.00000
      3       3.9392      1.00000
      4       4.1361      1.00000
      5       4.7628      1.00000
      6       5.4795      1.00651
      7      11.8443      0.00000
      8      22.0026      0.00000
      9      25.5845      0.00000
     10      25.8171      0.00000
     11      29.5018      0.00000
     12      30.8060      0.00000

 k-point    14 :      -0.2727    0.0909    0.0000
  band No.  band energies     occupation 
      1       1.2998      1.00000
      2       3.6100      1.00000
      3       3.9131      1.00000
      4       4.0019      1.00000
      5       4.5464      1.00000
      6       4.9488      1.00000
      7      15.2206      0.00000
      8      22.0031      0.00000
      9      26.9387      0.00000
     10      27.3165      0.00000
     11      29.5207      0.00000
     12      30.6200      0.00000

 k-point    15 :      -0.1818    0.0909   -0.0000
  band No.  band energies     occupation 
      1       0.1492      1.00000
      2       3.5627      1.00000
      3       3.9587      1.00000
      4       4.0055      1.00000
      5       4.4190      1.00000
      6       4.7067      1.00000
      7      19.0791      0.00000
      8      22.4595      0.00000
      9      28.1908      0.00000
     10      28.9678      0.00000
     11      30.2436      0.00000
     12      30.4189      0.00000

 k-point    16 :      -0.0909    0.0909   -0.0000
  band No.  band energies     occupation 
      1      -0.7321      1.00000
      2       3.6665      1.00000
      3       3.9010      1.00000
      4       3.9116      1.00000
      5       4.4634      1.00000
      6       4.5945      1.00000
      7      23.0316      0.00000
      8      23.5607      0.00000
      9      28.1772      0.00000
     10      29.2242      0.00000
     11      31.0036      0.00000
     12      31.2014      0.00000

 k-point    17 :       0.1818    0.1818   -0.0000
  band No.  band energies     occupation 
      1      -0.0784      1.00000
      2       3.4681      1.00000
      3       4.0852      1.00000
      4       4.0852      1.00000
      5       4.2879      1.00000
      6       4.6884      1.00000
      7      23.1275      0.00000
      8      23.1275      0.00000
      9      24.1552      0.00000
     10      25.3704      0.00000
     11      27.2269      0.00000
     12      36.2744      0.00000

 k-point    18 :       0.2727    0.1818   -0.0000
  band No.  band energies     occupation 
      1       0.7530      1.00000
      2       3.3364      1.00000
      3       4.0429      1.00000
      4       4.1994      1.00000
      5       4.4479      1.00000
      6       4.7635      1.00000
      7      19.5634      0.00000
      8      22.0474      0.00000
      9      23.8523      0.00000
     10      24.5346      0.00000
     11      27.1499      0.00000
     12      36.0549      0.00000

 k-point    19 :       0.3636    0.1818    0.0000
  band No.  band energies     occupation 
      1       1.7959      1.00000
      2       3.3008      1.00000
      3       3.8680      1.00000
      4       4.2134      1.00000
      5       4.8831      1.00000
      6       5.0090      1.00003
      7      15.7491      0.00000
      8      21.4990      0.00000
      9      21.9880      0.00000
     10      24.0766      0.00000
     11      29.9476      0.00000
     12      35.1879      0.00000

 k-point    20 :       0.4545    0.1818    0.0000
  band No.  band energies     occupation 
      1       2.4802      1.00000
      2       3.4975      1.00000
      3       3.7878      1.00000
      4       4.1651      1.00000
      5       4.9657      1.00001
      6       6.1434     -0.00147
      7      12.3467      0.00000
      8      20.3049      0.00000
      9      21.5433      0.00000
     10      24.0208      0.00000
     11      33.1466      0.00000
     12      33.9996      0.00000

 k-point    21 :      -0.4545    0.1818   -0.0000
  band No.  band energies     occupation 
      1       2.6414      1.00000
      2       3.5756      1.00000
      3       3.9483      1.00000
      4       4.1209      1.00000
      5       4.9186      1.00000
      6       7.7639     -0.00000
      7       9.8459     -0.00000
      8      19.0639      0.00000
      9      22.2059      0.00000
     10      24.2931      0.00000
     11      32.9102      0.00000
     12      33.4949      0.00000

 k-point    22 :      -0.3636    0.1818   -0.0000
  band No.  band energies     occupation 
      1       2.6037      1.00000
      2       3.6377      1.00000
      3       3.8465      1.00000
      4       4.1196      1.00000
      5       4.7410      1.00000
      6       6.7780     -0.00000
      7      11.3771      0.00000
      8      18.3241      0.00000
      9      23.4708      0.00000
     10      24.9615      0.00000
     11      32.2523      0.00000
     12      32.8506      0.00000

 k-point    23 :      -0.2727    0.1818    0.0000
  band No.  band energies     occupation 
      1       2.1389      1.00000
      2       3.4938      1.00000
      3       3.7772      1.00000
      4       4.1716      1.00000
      5       4.4830      1.00000
      6       5.5974      0.72979
      7      14.5976      0.00000
      8      18.1069      0.00000
      9      25.2707      0.00000
     10      26.0807      0.00000
     11      31.8781      0.00000
     12      32.0314      0.00000

 k-point    24 :      -0.1818    0.1818    0.0000
  band No.  band energies     occupation 
      1       1.1014      1.00000
      2       3.4504      1.00000
      3       3.9071      1.00000
      4       4.1810      1.00000
      5       4.3108      1.00000
      6       5.0214      1.00004
      7      18.1046      0.00000
      8      18.5974      0.00000
      9      27.4993      0.00000
     10      27.6139      0.00000
     11      30.4382      0.00000
     12      31.9718      0.00000

 k-point    25 :       0.2727    0.2727   -0.0000
  band No.  band energies     occupation 
      1       1.3425      1.00000
      2       3.1653      1.00000
      3       4.2479      1.00000
      4       4.4051      1.00000
      5       4.4051      1.00000
      6       4.8096      1.00000
      7      20.7175      0.00000
      8      20.7175      0.00000
      9      21.4534      0.00000
     10      23.0348      0.00000
     11      24.7334      0.00000
     12      39.9126      0.00000

 k-point    26 :       0.3636    0.2727    0.0000
  band No.  band energies     occupation 
      1       2.0785      1.00000
      2       3.0532      1.00000
      3       4.1619      1.00000
      4       4.5045      1.00000
      5       4.9033      1.00000
      6       5.0343      1.00005
      7      17.7709      0.00000
      8      19.2172      0.00000
      9      19.9480      0.00000
     10      23.3089      0.00000
     11      25.9336      0.00000
     12      39.0738      0.00000

 k-point    27 :       0.4545    0.2727    0.0000
  band No.  band energies     occupation 
      1       2.6227      1.00000
      2       3.0703      1.00000
      3       4.0103      1.00000
      4       4.4836      1.00000
      5       4.9835      1.00001
      6       6.3914     -0.00000
      7      14.3104      0.00000
      8      17.3775      0.00000
      9      19.8105      0.00000
     10      23.3404      0.00000
     11      29.0314      0.00000
     12      37.5122      0.00000

 k-point    28 :      -0.4545    0.2727   -0.0000
  band No.  band energies     occupation 
      1       2.8581      1.00000
      2       3.2249      1.00000
      3       3.8769      1.00000
      4       4.4270      1.00000
      5       4.9338      1.00000
      6       8.4191     -0.00000
      7      11.2678      0.00000
      8      15.9842      0.00000
      9      20.3337      0.00000
     10      23.5468      0.00000
     11      32.7359      0.00000
     12      36.2607      0.00000

 k-point    29 :      -0.3636    0.2727   -0.0000
  band No.  band energies     occupation 
      1       2.9762      1.00000
      2       3.3821      1.00000
      3       3.6999      1.00000
      4       4.3834      1.00000
      5       4.7521      1.00000
      6       8.5552     -0.00000
      7      11.2292      0.00000
      8      15.0920      0.00000
      9      21.4869      0.00000
     10      24.0603      0.00000
     11      35.4113      0.00000
     12      35.6230      0.00000

 k-point    30 :      -0.2727    0.2727    0.0000
  band No.  band energies     occupation 
      1       2.8447      1.00000
      2       3.4722      1.00000
      3       3.5727      1.00000
      4       4.3417      1.00000
      5       4.5307      1.00000
      6       6.7427     -0.00000
      7      13.9598      0.00000
      8      15.0644      0.00000
      9      23.1731      0.00000
     10      24.9244      0.00000
     11      34.0151      0.00000
     12      34.7026      0.00000

 k-point    31 :       0.3636    0.3636    0.0000
  band No.  band energies     occupation 
      1       2.3217      1.00000
      2       2.8952      1.00000
      3       4.7466      1.00000
      4       4.7466      1.00000
      5       4.9230      1.00000
      6       5.2571      1.00839
      7      16.8396      0.00000
      8      18.9382      0.00000
      9      18.9382      0.00000
     10      22.3515      0.00000
     11      23.9941      0.00000
     12      42.8257      0.00000

 k-point    32 :       0.4545    0.3636    0.0000
  band No.  band energies     occupation 
      1       2.5247      1.00000
      2       2.8397      1.00000
      3       4.6160      1.00000
      4       4.7917      1.00000
      5       4.9898      1.00001
      6       6.6927     -0.00000
      7      14.9289      0.00000
      8      16.5757      0.00000
      9      18.5755      0.00000
     10      22.7723      0.00000
     11      25.2907      0.00000
     12      41.1548      0.00000

 k-point    33 :      -0.4545    0.3636   -0.0000
  band No.  band energies     occupation 
      1       2.7322      1.00000
      2       2.9183      1.00000
      3       4.3181      1.00000
      4       4.7458      1.00000
      5       4.9567      1.00000
      6       8.6709     -0.00000
      7      13.5186      0.00000
      8      13.5871      0.00000
      9      18.9163      0.00000
     10      23.0263      0.00000
     11      28.5843      0.00000
     12      39.6598      0.00000

 k-point    34 :      -0.3636    0.3636    0.0000
  band No.  band energies     occupation 
      1       2.9333      1.00000
      2       3.1170      1.00000
      3       3.9552      1.00000
      4       4.6294      1.00000
      5       4.8237      1.00000
      6      10.6491     -0.00000
      7      10.8180     -0.00000
      8      13.1679      0.00000
      9      19.9228      0.00000
     10      23.4166      0.00000
     11      32.5686      0.00000
     12      38.0682      0.00000

 k-point    35 :       0.4545    0.4545    0.0000
  band No.  band energies     occupation 
      1       2.4660      1.00000
      2       2.7362      1.00000
      3       4.9717      1.00001
      4       4.9717      1.00001
      5       4.9895      1.00001
      6       7.4210     -0.00000
      7      13.1534      0.00000
      8      17.9749      0.00000
      9      17.9749      0.00000
     10      22.0108      0.00000
     11      23.7053      0.00000
     12      43.6049      0.00000

 k-point    36 :      -0.4545    0.4545    0.0000
  band No.  band energies     occupation 
      1       2.5417      1.00000
      2       2.7610      1.00000
      3       4.7916      1.00000
      4       4.9458      1.00000
      5       4.9829      1.00001
      6       8.3848     -0.00000
      7      12.4762      0.00000
      8      16.1479      0.00000
      9      18.0931      0.00000
     10      22.6038      0.00000
     11      25.0997      0.00000
     12      42.3861      0.00000

 k-point    37 :       0.2727    0.1818    0.0909
  band No.  band energies     occupation 
      1       0.2323      1.00000
      2       3.4778      1.00000
      3       3.9908      1.00000
      4       4.0932      1.00000
      5       4.3718      1.00000
      6       4.7315      1.00000
      7      20.6066      0.00000
      8      21.0237      0.00000
      9      26.7632      0.00000
     10      27.1439      0.00000
     11      28.5102      0.00000
     12      33.3589      0.00000

 k-point    38 :       0.3636    0.1818    0.0909
  band No.  band energies     occupation 
      1       1.2887      1.00000
      2       3.4074      1.00000
      3       3.8862      1.00000
      4       4.1659      1.00000
      5       4.5058      1.00000
      6       4.9976      1.00002
      7      16.8297      0.00000
      8      20.2304      0.00000
      9      24.6363      0.00000
     10      27.0844      0.00000
     11      30.2354      0.00000
     12      32.1595      0.00000

 k-point    39 :       0.4545    0.1818    0.0909
  band No.  band energies     occupation 
      1       2.2285      1.00000
      2       3.5994      1.00000
      3       3.7485      1.00000
      4       4.1206      1.00000
      5       4.7585      1.00000
      6       5.6321      0.59255
      7      13.2604      0.00000
      8      20.0995      0.00000
      9      22.7989      0.00000
     10      26.6092      0.00000
     11      30.4993      0.00000
     12      33.4843      0.00000

 k-point    40 :      -0.4545    0.1818    0.0909
  band No.  band energies     occupation 
      1       2.5315      1.00000
      2       3.6486      1.00000
      3       3.9944      1.00000
      4       4.0755      1.00000
      5       4.8938      1.00000
      6       7.0000     -0.00000
      7      10.3395     -0.00000
      8      20.4797      0.00000
      9      21.3940      0.00000
     10      26.3131      0.00000
     11      30.0844      0.00000
     12      34.1980      0.00000

 k-point    41 :       0.3636    0.2727    0.0909
  band No.  band energies     occupation 
      1       1.5980      1.00000
      2       3.2118      1.00000
      3       3.9365      1.00000
      4       4.4049      1.00000
      5       4.5830      1.00000
      6       4.9940      1.00002
      7      18.5923      0.00000
      8      18.9716      0.00000
      9      21.7522      0.00000
     10      25.6565      0.00000
     11      26.9838      0.00000
     12      35.4243      0.00000

 k-point    42 :       0.4545    0.2727    0.0909
  band No.  band energies     occupation 
      1       2.4404      1.00000
      2       3.1987      1.00000
      3       3.7730      1.00000
      4       4.4299      1.00000
      5       4.7960      1.00000
      6       5.7802      0.06676
      7      15.1117      0.00000
      8      18.5114      0.00000
      9      19.7639      0.00000
     10      25.9017      0.00000
     11      29.4488      0.00000
     12      34.0172      0.00000

 k-point    43 :      -0.4545    0.2727    0.0909
  band No.  band energies     occupation 
      1       2.8173      1.00000
      2       3.3544      1.00000
      3       3.7086      1.00000
      4       4.3551      1.00000
      5       4.9060      1.00000
      6       7.3718     -0.00000
      7      11.8758      0.00000
      8      18.2022      0.00000
      9      18.7588      0.00000
     10      25.9917      0.00000
     11      31.8631      0.00000
     12      33.9844      0.00000

 k-point    44 :      -0.3636    0.2727    0.0909
  band No.  band energies     occupation 
      1       2.9077      1.00000
      2       3.4106      1.00000
      3       3.7368      1.00000
      4       4.3026      1.00000
      5       4.8596      1.00000
      6       8.6808     -0.00000
      7      10.2043     -0.00000
      8      17.1084      0.00000
      9      19.5519      0.00000
     10      26.4357      0.00000
     11      31.5415      0.00000
     12      37.2861      0.00000

 k-point    45 :      -0.2727    0.2727    0.0909
  band No.  band energies     occupation 
      1       2.8353      1.00000
      2       3.4845      1.00000
      3       3.5395      1.00000
      4       4.3398      1.00000
      5       4.6881      1.00000
      6       6.8693     -0.00000
      7      12.9115      0.00000
      8      16.5295      0.00000
      9      20.8399      0.00000
     10      27.3120      0.00000
     11      30.9024      0.00000
     12      34.7273      0.00000

 k-point    46 :      -0.1818    0.2727    0.0909
  band No.  band energies     occupation 
      1       2.2406      1.00000
      2       3.3344      1.00000
      3       3.7136      1.00000
      4       4.4212      1.00000
      5       4.4256      1.00000
      6       5.6408      0.55643
      7      16.0709      0.00000
      8      16.7328      0.00000
      9      22.5610      0.00000
     10      28.5133      0.00000
     11      29.6676      0.00000
     12      32.5923      0.00000

 k-point    47 :       0.4545    0.3636    0.0909
  band No.  band energies     occupation 
      1       2.5100      1.00000
      2       2.9689      1.00000
      3       4.1716      1.00000
      4       4.7419      1.00000
      5       4.8467      1.00000
      6       5.9862     -0.02029
      7      17.0854      0.00000
      8      17.0992      0.00000
      9      17.4890      0.00000
     10      24.6611      0.00000
     11      26.1067      0.00000
     12      37.6097      0.00000

 k-point    48 :      -0.4545    0.3636    0.0909
  band No.  band energies     occupation 
      1       2.7984      1.00000
      2       3.0151      1.00000
      3       4.0169      1.00000
      4       4.6835      1.00000
      5       4.9292      1.00000
      6       7.7035     -0.00000
      7      13.9918      0.00000
      8      15.4410      0.00000
      9      17.4016      0.00000
     10      25.2297      0.00000
     11      28.8750      0.00000
     12      36.1281      0.00000

 k-point    49 :      -0.3636    0.3636    0.0909
  band No.  band energies     occupation 
      1       2.9958      1.00000
      2       3.1570      1.00000
      3       3.8080      1.00000
      4       4.5610      1.00000
      5       4.8919      1.00000
      6       9.9560     -0.00000
      7      11.1278      0.00000
      8      14.2718      0.00000
      9      18.0613      0.00000
     10      25.6573      0.00000
     11      32.6070      0.00000
     12      34.8982      0.00000

 k-point    50 :      -0.2727    0.3636    0.0909
  band No.  band energies     occupation 
      1       3.1412      1.00000
      2       3.3009      1.00000
      3       3.5500      1.00000
      4       4.4820      1.00000
      5       4.7529      1.00000
      6       8.6798     -0.00000
      7      12.3738      0.00000
      8      14.0183      0.00000
      9      19.2386      0.00000
     10      26.4135      0.00000
     11      33.2131      0.00000
     12      35.6591      0.00000

 k-point    51 :      -0.4545    0.4545    0.0909
  band No.  band energies     occupation 
      1       2.6169      1.00000
      2       2.8263      1.00000
      3       4.5297      1.00000
      4       4.8987      1.00000
      5       4.9717      1.00001
      6       8.1121     -0.00000
      7      13.3536      0.00000
      8      16.2548      0.00000
      9      16.6875      0.00000
     10      24.1833      0.00000
     11      25.7313      0.00000
     12      39.8300      0.00000

 k-point    52 :      -0.3636    0.4545    0.0909
  band No.  band energies     occupation 
      1       2.7944      1.00000
      2       2.9436      1.00000
      3       4.2027      1.00000
      4       4.7581      1.00000
      5       4.9686      1.00001
      6       9.6151     -0.00000
      7      12.7907      0.00000
      8      13.5972      0.00000
      9      17.0144      0.00000
     10      25.0133      0.00000
     11      28.6866      0.00000
     12      37.7688      0.00000

 k-point    53 :      -0.4545    0.3636    0.1818
  band No.  band energies     occupation 
      1       2.9496      1.00000
      2       3.1926      1.00000
      3       3.5992      1.00000
      4       4.6186      1.00000
      5       4.7397      1.00000
      6       7.1373     -0.00000
      7      14.5701      0.00000
      8      15.4685      0.00000
      9      17.9219      0.00000
     10      28.6009      0.00000
     11      29.3023      0.00000
[...]
  band No.  band energies     occupation 
      1       3.4873      1.00000
      2       3.9118      1.00000
      3       4.4197      1.00000
      4       5.0022      1.00002
      5       5.7127      0.26373
      6       8.8845     -0.00000
      7      10.4752     -0.00000
      8      17.1844      0.00000
      9      19.6020      0.00000
     10      26.4199      0.00000
     11      31.5193      0.00000
     12      37.2824      0.00000

 k-point    45 :      -0.2727    0.2727    0.0909
  band No.  band energies     occupation 
      1       3.2117      1.00000
      2       4.0596      1.00000
      3       4.2331      1.00000
      4       5.0287      1.00005
      5       5.5341      0.91997
      6       7.3250     -0.00000
      7      13.0612      0.00000
      8      16.6111      0.00000
      9      20.8859      0.00000
     10      27.2942      0.00000
     11      30.8639      0.00000
     12      34.7628      0.00000

 k-point    46 :      -0.1818    0.2727    0.0909
  band No.  band energies     occupation 
      1       2.3398      1.00000
      2       4.0568      1.00000
      3       4.3740      1.00000
      4       5.0718      1.00015
      5       5.2910      1.01383
      6       6.3211     -0.00001
      7      16.1775      0.00000
      8      16.8081      0.00000
      9      22.5961      0.00000
     10      28.5156      0.00000
     11      29.6075      0.00000
     12      32.6297      0.00000

 k-point    47 :       0.4545    0.3636    0.0909
  band No.  band energies     occupation 
      1       2.7894      1.00000
      2       3.6801      1.00000
      3       4.8173      1.00000
      4       5.5237      0.94203
      5       5.6288      0.60616
      6       6.4707     -0.00000
      7      17.1477      0.00000
      8      17.1928      0.00000
      9      17.5244      0.00000
     10      24.6669      0.00000
     11      26.1801      0.00000
     12      37.5576      0.00000

 k-point    48 :      -0.4545    0.3636    0.0909
  band No.  band energies     occupation 
      1       3.2275      1.00000
      2       3.6912      1.00000
      3       4.6921      1.00000
      4       5.3982      1.03503
      5       5.7976      0.03426
      6       7.9878     -0.00000
      7      14.0864      0.00000
      8      15.5526      0.00000
      9      17.4467      0.00000
     10      25.2440      0.00000
     11      28.9159      0.00000
     12      36.0798      0.00000

 k-point    49 :      -0.3636    0.3636    0.0909
  band No.  band energies     occupation 
      1       3.5438      1.00000
      2       3.7444      1.00000
      3       4.5014      1.00000
      4       5.2450      1.00688
      5       5.7815      0.06409
      6      10.1250     -0.00000
      7      11.2929      0.00000
      8      14.4011      0.00000
      9      18.1110      0.00000
     10      25.6644      0.00000
     11      32.6293      0.00000
     12      34.8420      0.00000

 k-point    50 :      -0.2727    0.3636    0.0909
  band No.  band energies     occupation 
      1       3.6828      1.00000
      2       3.8435      1.00000
      3       4.2441      1.00000
      4       5.1461      1.00097
      5       5.6452      0.53783
      6       8.9509     -0.00000
      7      12.5056      0.00000
      8      14.1489      0.00000
      9      19.2907      0.00000
     10      26.4082      0.00000
     11      33.1380      0.00000
     12      35.7172      0.00000

 k-point    51 :      -0.4545    0.4545    0.0909
  band No.  band energies     occupation 
      1       3.0521      1.00000
      2       3.5218      1.00000
      3       5.2885      1.01337
      4       5.6011      0.71603
      5       5.8819     -0.03419
      6       8.2323     -0.00000
      7      13.5332      0.00000
      8      16.3015      0.00000
      9      16.7108      0.00000
     10      24.2033      0.00000
     11      25.8101      0.00000
     12      39.7531      0.00000

 k-point    52 :      -0.3636    0.4545    0.0909
  band No.  band energies     occupation 
      1       3.2665      1.00000
      2       3.6218      1.00000
      3       4.9277      1.00000
      4       5.4436      1.02976
      5       5.8794     -0.03376
      6       9.7148     -0.00000
      7      12.9933      0.00000
      8      13.6830      0.00000
      9      17.0542      0.00000
     10      25.0330      0.00000
     11      28.7324      0.00000
     12      37.6764      0.00000

 k-point    53 :      -0.4545    0.3636    0.1818
  band No.  band energies     occupation 
      1       3.2972      1.00000
      2       3.8945      1.00000
      3       4.2470      1.00000
      4       5.2838      1.01253
      5       5.6282      0.60887
      6       7.5396     -0.00000
      7      14.6765      0.00000
      8      15.5504      0.00000
      9      17.9930      0.00000
     10      28.5605      0.00000
     11      29.3361      0.00000
     12      33.0696      0.00000

 k-point    54 :      -0.3636    0.3636    0.1818
  band No.  band energies     occupation 
      1       3.6310      1.00000
      2       3.8950      1.00000
      3       4.2097      1.00000
      4       5.1843      1.00221
      5       5.7718      0.08528
      6       9.3761     -0.00000
      7      11.9650      0.00000
      8      15.6544      0.00000
      9      16.5961      0.00000
     10      28.8036      0.00000
     11      30.7919      0.00000
     12      34.0399      0.00000

 k-point    55 :      -0.3636    0.4545    0.1818
  band No.  band energies     occupation 
      1       3.4218      1.00000
      2       3.7915      1.00000
      3       4.5257      1.00000
      4       5.3222      1.02034
      5       5.8812     -0.03408
      6       9.7412     -0.00000
      7      13.8429      0.00000
      8      14.1429      0.00000
      9      14.9288      0.00000
     10      28.0227      0.00000
     11      29.6334      0.00000
     12      34.5370      0.00000

 k-point    56 :      -0.2727    0.4545    0.1818
  band No.  band energies     occupation 
      1       3.5708      1.00000
      2       3.9620      1.00000
      3       4.2623      1.00000
      4       5.2068      1.00346
      5       5.8800     -0.03387
      6      11.5406      0.00000
      7      11.6013      0.00000
      8      13.6704      0.00000
      9      15.3523      0.00000
     10      29.0778      0.00000
     11      32.5717      0.00000
     12      32.6750      0.00000


--------------------------------------------------------------------------------------------------------


 soft charge-density along one line, spin component           1
         0         1         2         3         4         5         6         7         8         9
 total charge-density along one line
 
 soft charge-density along one line, spin component           2
         0         1         2         3         4         5         6         7         8         9
 total charge-density along one line
 
 pseudopotential strength for first ion, spin component:           1
 -3.026   0.000   0.000   0.000   0.000  -3.601   0.000   0.000
  0.000  -3.026  -0.000   0.000   0.000   0.000  -3.601  -0.000
  0.000  -0.000  -2.915  -0.000  -0.000   0.000  -0.000  -3.495
  0.000   0.000  -0.000  -3.026  -0.000   0.000   0.000  -0.000
  0.000   0.000  -0.000  -0.000  -2.915   0.000   0.000  -0.000
 -3.601   0.000   0.000   0.000   0.000  -4.109   0.000   0.000
  0.000  -3.601  -0.000   0.000   0.000   0.000  -4.109  -0.000
  0.000  -0.000  -3.495  -0.000  -0.000   0.000  -0.000  -4.007
  0.000   0.000  -0.000  -3.601  -0.000   0.000   0.000  -0.000
  0.000   0.000  -0.000  -0.000  -3.495   0.000   0.000  -0.000
  0.000   0.000  -0.000   0.000  -0.000   0.000   0.000  -0.000
  0.000   0.000  -0.000   0.000  -0.000   0.000   0.000  -0.000
  0.000   0.000   0.000  -0.000   0.000   0.000   0.000   0.000
 -0.000  -0.000   0.000   0.000   0.000  -0.000  -0.000   0.000
 -0.000  -0.000  -0.000   0.000   0.000  -0.000  -0.000  -0.000
  0.000   0.000   0.000  -0.000   0.000   0.000   0.000   0.000
 -0.000  -0.000   0.000   0.000   0.000  -0.000  -0.000   0.000
 -0.000  -0.000  -0.000   0.000   0.000  -0.000  -0.000  -0.000
 pseudopotential strength for first ion, spin component:           2
 -2.326   0.000   0.000   0.000  -0.000  -2.933   0.000   0.000
  0.000  -2.326  -0.000   0.000   0.000   0.000  -2.933  -0.000
  0.000  -0.000  -2.362  -0.000  -0.000   0.000  -0.000  -2.969
  0.000   0.000  -0.000  -2.326  -0.000   0.000   0.000  -0.000
 -0.000   0.000  -0.000  -0.000  -2.362  -0.000   0.000  -0.000
 -2.933   0.000   0.000   0.000  -0.000  -3.472   0.000   0.000
  0.000  -2.933  -0.000   0.000   0.000   0.000  -3.472  -0.000
  0.000  -0.000  -2.969  -0.000  -0.000   0.000  -0.000  -3.506
  0.000   0.000  -0.000  -2.933  -0.000   0.000   0.000  -0.000
 -0.000   0.000  -0.000  -0.000  -2.969  -0.000   0.000  -0.000
  0.000   0.000  -0.000   0.000  -0.000   0.000   0.000  -0.000
  0.000   0.000  -0.000   0.000  -0.000   0.000   0.000  -0.000
  0.000   0.000   0.000  -0.000   0.000   0.000   0.000   0.000
 -0.000  -0.000   0.000   0.000   0.000  -0.000  -0.000   0.000
 -0.000  -0.000  -0.000   0.000   0.000  -0.000  -0.000  -0.000
  0.000   0.000   0.000  -0.000   0.000   0.000   0.000   0.000
 -0.000  -0.000   0.000   0.000   0.000  -0.000  -0.000   0.000
 -0.000  -0.000  -0.000   0.000   0.000  -0.000  -0.000  -0.000
 total augmentation occupancy for first ion, spin component:           1
  2.401   0.000  -0.000  -0.000  -0.000  -0.656   0.000  -0.000   0.000  -0.000  -0.000   0.000   0.000   0.000   0.000   0.000
  0.000   2.401  -0.000   0.000   0.000  -0.000  -0.656  -0.000  -0.000   0.000   0.000   0.000   0.000   0.000   0.000   0.000
  0.000  -0.000   2.973   0.000  -0.000  -0.000  -0.000  -0.891   0.000  -0.000   0.000  -0.000   0.000   0.000   0.000   0.000
 -0.000   0.000  -0.000   2.401   0.000  -0.000   0.000   0.000  -0.656   0.000   0.000  -0.000   0.000   0.000   0.000   0.000
  0.000   0.000   0.000  -0.000   2.973   0.000   0.000  -0.000   0.000  -0.891   0.000  -0.000   0.000   0.000   0.000   0.000
 -0.656   0.000  -0.000   0.000  -0.000   0.606   0.000   0.000   0.000   0.000  -0.000   0.000   0.000   0.000   0.000   0.000
  0.000  -0.656   0.000   0.000   0.000   0.000   0.606   0.000  -0.000   0.000  -0.000   0.000   0.000   0.000   0.000   0.000
 -0.000   0.000  -0.891   0.000  -0.000   0.000   0.000   0.637   0.000   0.000  -0.000   0.000   0.000   0.000   0.000   0.000
  0.000  -0.000   0.000  -0.656   0.000  -0.000   0.000  -0.000   0.606   0.000   0.000   0.000   0.000   0.000   0.000   0.000
  0.000   0.000  -0.000  -0.000  -0.891   0.000  -0.000  -0.000   0.000   0.637   0.000  -0.000   0.000   0.000   0.000   0.000
 -0.000   0.000   0.000   0.000   0.000  -0.000   0.000  -0.000   0.000   0.000   1.621  -0.178   0.000   0.000   0.000   0.000
  0.000   0.000  -0.000  -0.000  -0.000   0.000   0.000   0.000   0.000  -0.000  -0.178   0.025   0.000   0.000   0.000   0.000
  0.000   0.000   0.000   0.000   0.000   0.000   0.000   0.000   0.000   0.000   0.000   0.000   0.169   0.000  -0.000  -0.017
  0.000   0.000   0.000   0.000   0.000   0.000   0.000   0.000   0.000   0.000   0.000   0.000   0.000   0.169  -0.000   0.000
  0.000   0.000   0.000   0.000   0.000   0.000   0.000   0.000   0.000   0.000   0.000   0.000  -0.000  -0.000   0.169   0.000
  0.000   0.000   0.000   0.000   0.000   0.000   0.000   0.000   0.000   0.000   0.000   0.000  -0.017  -0.000   0.000   0.002
  0.000   0.000   0.000   0.000   0.000   0.000   0.000   0.000   0.000   0.000   0.000   0.000  -0.000  -0.017  -0.000   0.000
  0.000   0.000   0.000   0.000   0.000   0.000   0.000   0.000   0.000   0.000   0.000   0.000   0.000   0.000  -0.017   0.000
 total augmentation occupancy for first ion, spin component:           2
  0.918  -0.000  -0.000   0.000   0.000  -0.409   0.000   0.000  -0.000   0.000  -0.000   0.000   0.000   0.000   0.000   0.000
 -0.000   0.918   0.000  -0.000   0.000  -0.000  -0.409   0.000   0.000   0.000  -0.000   0.000   0.000   0.000   0.000   0.000
  0.000   0.000   0.554  -0.000  -0.000   0.000  -0.000  -0.258  -0.000  -0.000  -0.000   0.000   0.000   0.000   0.000   0.000
  0.000  -0.000   0.000   0.918  -0.000  -0.000  -0.000  -0.000  -0.409  -0.000  -0.000   0.000   0.000   0.000   0.000   0.000
  0.000  -0.000  -0.000  -0.000   0.554   0.000  -0.000   0.000   0.000  -0.258   0.000  -0.000   0.000   0.000   0.000   0.000
 -0.409   0.000   0.000   0.000   0.000   0.105  -0.000   0.000   0.000   0.000  -0.000   0.000   0.000   0.000   0.000   0.000
  0.000  -0.409  -0.000  -0.000   0.000   0.000   0.105  -0.000  -0.000   0.000   0.000   0.000   0.000   0.000   0.000   0.000
 -0.000  -0.000  -0.258  -0.000  -0.000   0.000  -0.000   0.063   0.000   0.000   0.000  -0.000   0.000   0.000   0.000   0.000
  0.000   0.000  -0.000  -0.409   0.000  -0.000  -0.000  -0.000   0.105   0.000   0.000   0.000   0.000   0.000   0.000   0.000
  0.000  -0.000   0.000  -0.000  -0.258   0.000   0.000   0.000   0.000   0.063  -0.000   0.000   0.000   0.000   0.000   0.000
 -0.000   0.000  -0.000   0.000   0.000  -0.000   0.000   0.000   0.000  -0.000  -0.110   0.033   0.000   0.000   0.000   0.000
  0.000   0.000   0.000   0.000  -0.000   0.000   0.000  -0.000   0.000   0.000   0.033  -0.005   0.000   0.000   0.000   0.000
  0.000   0.000   0.000   0.000   0.000   0.000   0.000   0.000   0.000   0.000   0.000   0.000  -0.014   0.000  -0.000   0.002
  0.000   0.000   0.000   0.000   0.000   0.000   0.000   0.000   0.000   0.000   0.000   0.000   0.000  -0.014   0.000   0.000
  0.000   0.000   0.000   0.000   0.000   0.000   0.000   0.000   0.000   0.000   0.000   0.000  -0.000   0.000  -0.014  -0.000
  0.000   0.000   0.000   0.000   0.000   0.000   0.000   0.000   0.000   0.000   0.000   0.000   0.002   0.000  -0.000  -0.000
  0.000   0.000   0.000   0.000   0.000   0.000   0.000   0.000   0.000   0.000   0.000   0.000   0.000   0.002  -0.000   0.000
  0.000   0.000   0.000   0.000   0.000   0.000   0.000   0.000   0.000   0.000   0.000   0.000  -0.000  -0.000   0.002   0.000


------------------------ aborting loop because EDIFF is reached ----------------------------------------





 total charge

# of ion       s       p       d       tot
------------------------------------------
    1        0.392   0.283   8.235   8.910



 magnetization (x)

# of ion       s       p       d       tot
------------------------------------------
    1       -0.006  -0.022   0.769   0.741
 
    CHARGE:  cpu time      0.0038: real time      0.0038
    FORLOC:  cpu time      0.0001: real time      0.0001
    FORNL :  cpu time      0.0053: real time      0.0053
    STRESS:  cpu time      0.0399: real time      0.0400
    FORCOR:  cpu time      0.0032: real time      0.0032
    FORHAR:  cpu time      0.0004: real time      0.0004
    MIXING:  cpu time      0.0003: real time      0.0003
    OFIELD:  cpu time      0.0000: real time      0.0000

  FORCE on cell =-STRESS in cart. coord.  units (eV):
  Direction    XX          YY          ZZ          XY          YZ          ZX
  --------------------------------------------------------------------------------------
  Alpha Z    34.38993    34.38993    34.38993
  Ewald    -282.14120  -282.14120  -282.14120    -0.00000     0.00000     0.00000
  Hartree    91.10314    91.10314    91.10314     0.00000     0.00000     0.00000
  E(xc)     -54.37114   -54.37114   -54.37114    -0.00002    -0.00002    -0.00002
  Local     -32.37898   -32.37898   -32.37898     0.00065     0.00065     0.00065
  n-local   -11.49927   -13.95076   -11.69788    -2.74981     1.42497     2.30095
  augment   177.13587   177.13587   177.13587    -0.00062    -0.00062    -0.00062
  Kinetic    75.49637    77.07686    74.77314     1.08912    -0.75166    -1.22958
  Fock        0.00000     0.00000     0.00000     0.00000     0.00000     0.00000
  -------------------------------------------------------------------------------------
  Total      -2.86289    -2.86289    -2.86289     0.00000     0.00000    -0.00000
  in kB    -309.30144  -309.30144  -309.30144     0.00000     0.00000    -0.00000
  external pressure =     -309.30 kB  Pullay stress =        0.00 kB


 VOLUME and BASIS-vectors are now :
 -----------------------------------------------------------------------------
  energy-cutoff  :      270.00
  volume of cell :       14.83
      direct lattice vectors                 reciprocal lattice vectors
     1.950000000  1.950000000  0.000000000     0.256410256  0.256410256 -0.256410256
     0.000000000  1.950000000  1.950000000    -0.256410256  0.256410256  0.256410256
     1.950000000  0.000000000  1.950000000     0.256410256 -0.256410256  0.256410256

  length of vectors
     2.757716447  2.757716447  2.757716447     0.444115592  0.444115592  0.444115592


 FORCES acting on ions
    electron-ion (+dipol)            ewald-force                    non-local-force                 convergence-correction
 -----------------------------------------------------------------------------------------------
   -.910E-13 -.105E-13 -.506E-13   0.175E-15 0.507E-15 -.727E-15   -.354E-22 0.390E-22 0.434E-23   -.141E-13 0.780E-14 0.108E-13
 -----------------------------------------------------------------------------------------------
   -.910E-13 -.105E-13 -.506E-13   0.175E-15 0.507E-15 -.727E-15   -.354E-22 0.390E-22 0.434E-23   -.141E-13 0.780E-14 0.108E-13
 
 
 POSITION                                       TOTAL-FORCE (eV/Angst)
 -----------------------------------------------------------------------------------
      0.00000      0.00000      0.00000        -0.000000      0.000000     -0.000000
 -----------------------------------------------------------------------------------
    total drift:                               -0.000000     -0.000000     -0.000000


--------------------------------------------------------------------------------------------------------



  FREE ENERGIE OF THE ION-ELECTRON SYSTEM (eV)
  ---------------------------------------------------
  free  energy   TOTEN  =        -4.98881678 eV

  energy  without entropy=       -4.97956015  energy(sigma->0) =       -4.98573124
 


--------------------------------------------------------------------------------------------------------


    POTLOK:  cpu time      0.0066: real time      0.0066


--------------------------------------------------------------------------------------------------------


 writing wavefunctions
     LOOP+:  cpu time      2.0046: real time      2.0141
    4ORBIT:  cpu time      0.0000: real time      0.0000



 total charge

# of ion       s       p       d       tot
------------------------------------------
    1        0.392   0.283   8.235   8.910



 magnetization (x)

# of ion       s       p       d       tot
------------------------------------------
    1       -0.006  -0.022   0.769   0.741
 

 total amount of memory used by VASP MPI-rank0    32993. kBytes
=======================================================================

   base      :      30000. kBytes
   nonl-proj :       1389. kBytes
   fftplans  :        134. kBytes
   grid      :        407. kBytes
   one-center:         31. kBytes
   wavefun   :       1032. kBytes
 
  
  
 General timing and accounting informations for this job:
 ========================================================
  
                  Total CPU time used (sec):        2.275
                            User time (sec):        2.067
                          System time (sec):        0.208
                         Elapsed time (sec):        2.272
  
                   Maximum memory used (kb):       57876.
                   Average memory used (kb):          N/A
  
                          Minor page faults:        19247
                          Major page faults:            0
                 Voluntary context switches:          187
