PROCAR lm decomposed
# of k-points:   56         # of bands:   12         # of ions:    1

 k-point     1 :    0.00000000 0.00000000 0.00000000     weight = 0.00075131

band     1 # energy   -1.41058112 # occ.  1.00000000
 
ion      s     py     pz     px    dxy    dyz    dz2    dxz  x2-y2    tot
    1  0.531  0.000  0.000  0.000  0.000  0.000  0.000  0.000  0.000  0.531
 
band     2 # energy    3.79311598 # occ.  1.00000000
 
ion      s     py     pz     px    dxy    dyz    dz2    dxz  x2-y2    tot
    1  0.000  0.000  0.000  0.000  0.318  0.317  0.000  0.323  0.000  0.957
 
band     3 # energy    3.79311974 # occ.  1.00000000
 
ion      s     py     pz     px    dxy    dyz    dz2    dxz  x2-y2    tot
    1  0.000  0.000  0.000  0.000  0.484  0.473  0.000  0.000  0.000  0.957
 
band     4 # energy    3.79311989 # occ.  1.00000000
 
ion      s     py     pz     px    dxy    dyz    dz2    dxz  x2-y2    tot
    1  0.000  0.000  0.000  0.000  0.156  0.167  0.000  0.634  0.000  0.957
 
band     5 # energy    4.55755517 # occ.  1.00000000
 
ion      s     py     pz     px    dxy    dyz    dz2    dxz  x2-y2    tot
    1  0.000  0.000  0.000  0.000  0.000  0.000  0.244  0.000  0.734  0.978
 
band     6 # energy    4.55755524 # occ.  1.00000000
 
ion      s     py     pz     px    dxy    dyz    dz2    dxz  x2-y2    tot
    1  0.000  0.000  0.000  0.000  0.000  0.000  0.734  0.000  0.244  0.978
 
band     7 # energy   26.73761609 # occ.  0.00000000
 
ion      s     py     pz     px    dxy    dyz    dz2    dxz  x2-y2    tot
    1  0.000  0.000  0.000  0.000  0.000  0.000  0.000  0.000  0.000  0.000
 
band     8 # energy   28.28764541 # occ.  0.00000000
 
ion      s     py     pz     px    dxy    dyz    dz2    dxz  x2-y2    tot
    1  0.000  0.331  0.061  0.101  0.000  0.000  0.000  0.000  0.000  0.492
 
band     9 # energy   28.28764548 # occ.  0.00000000
 
ion      s     py     pz     px    dxy    dyz    dz2    dxz  x2-y2    tot
    1  0.000  0.002  0.265  0.225  0.000  0.000  0.000  0.000  0.000  0.492
 
band    10 # energy   28.28765199 # occ.  0.00000000
 
ion      s     py     pz     px    dxy    dyz    dz2    dxz  x2-y2    tot
    1  0.000  0.160  0.166  0.166  0.000  0.000  0.000  0.000  0.000  0.492
 
band    11 # energy   30.81071057 # occ.  0.00000000
 
ion      s     py     pz     px    dxy    dyz    dz2    dxz  x2-y2    tot
    1  0.000  0.000  0.000  0.000  0.018  0.419  0.000  0.376  0.000  0.813
 
band    12 # energy   30.81076626 # occ.  0.00000000
 
ion      s     py     pz     px    dxy    dyz    dz2    dxz  x2-y2    tot
    1  0.000  0.000  0.000  0.000  0.004  0.391  0.000  0.418  0.000  0.813
 

 k-point     2 :    0.09090909 0.00000000 0.00000000     weight = 0.00601052

band     1 # energy   -1.15332089 # occ.  1.00000000
 
ion      s     py     pz     px    dxy    dyz    dz2    dxz  x2-y2    tot
    1  0.518  0.004  0.004  0.004  0.000  0.000  0.000  0.000  0.000  0.531
 
band     2 # energy    3.74848865 # occ.  1.00000000
 
ion      s     py     pz     px    dxy    dyz    dz2    dxz  x2-y2    tot
    1  0.000  0.000  0.000  0.000  0.317  0.317  0.000  0.317  0.000  0.953
 
band     3 # energy    3.83835789 # occ.  1.00000000
 
ion      s     py     pz     px    dxy    dyz    dz2    dxz  x2-y2    tot
    1  0.000  0.000  0.000  0.000  0.637  0.157  0.004  0.161  0.000  0.959
 
band     4 # energy    3.83836808 # occ.  1.00000000
 
ion      s     py     pz     px    dxy    dyz    dz2    dxz  x2-y2    tot
    1  0.000  0.000  0.000  0.000  0.000  0.479  0.000  0.475  0.004  0.959
 
band     5 # energy    4.54592352 # occ.  1.00000000
 
ion      s     py     pz     px    dxy    dyz    dz2    dxz  x2-y2    tot
    1  0.000  0.000  0.000  0.000  0.000  0.002  0.000  0.002  0.975  0.978
 
band     6 # energy    4.54592658 # occ.  1.00000000
 
ion      s     py     pz     px    dxy    dyz    dz2    dxz  x2-y2    tot
    1  0.000  0.000  0.000  0.000  0.002  0.001  0.975  0.001  0.000  0.978
 
band     7 # energy   24.47458767 # occ.  0.00000000
 
ion      s     py     pz     px    dxy    dyz    dz2    dxz  x2-y2    tot
    1  0.019  0.079  0.079  0.079  0.075  0.075  0.000  0.075  0.000  0.480
 
band     8 # energy   27.15146736 # occ.  0.00000000
 
ion      s     py     pz     px    dxy    dyz    dz2    dxz  x2-y2    tot
    1  0.021  0.046  0.046  0.046  0.001  0.001  0.000  0.001  0.000  0.164
 
band     9 # energy   27.63789926 # occ.  0.00000000
 
ion      s     py     pz     px    dxy    dyz    dz2    dxz  x2-y2    tot
    1  0.000  0.077  0.285  0.066  0.099  0.023  0.007  0.027  0.000  0.584
 
band    10 # energy   27.63790069 # occ.  0.00000000
 
ion      s     py     pz     px    dxy    dyz    dz2    dxz  x2-y2    tot
    1  0.000  0.208  0.000  0.220  0.000  0.077  0.000  0.073  0.007  0.584
 
band    11 # energy   31.88142617 # occ.  0.00000000
 
ion      s     py     pz     px    dxy    dyz    dz2    dxz  x2-y2    tot
    1  0.000  0.012  0.038  0.008  0.408  0.083  0.006  0.125  0.000  0.678
 
band    12 # energy   31.88146612 # occ.  0.00000000
 
ion      s     py     pz     px    dxy    dyz    dz2    dxz  x2-y2    tot
    1  0.000  0.026  0.000  0.030  0.002  0.329  0.000  0.284  0.006  0.678
 

 k-point     3 :    0.18181818-0.00000000 0.00000000     weight = 0.00601052

band     1 # energy   -0.40640990 # occ.  1.00000000
 
ion      s     py     pz     px    dxy    dyz    dz2    dxz  x2-y2    tot
    1  0.479  0.016  0.016  0.016  0.003  0.003  0.000  0.003  0.000  0.535
 
band     2 # energy    3.65080922 # occ.  1.00000000
 
ion      s     py     pz     px    dxy    dyz    dz2    dxz  x2-y2    tot
    1  0.002  0.003  0.003  0.003  0.309  0.309  0.000  0.309  0.000  0.938
 
band     3 # energy    3.92359240 # occ.  1.00000000
 
ion      s     py     pz     px    dxy    dyz    dz2    dxz  x2-y2    tot
    1  0.000  0.000  0.000  0.000  0.594  0.148  0.069  0.149  0.000  0.960
 
band     4 # energy    3.92362411 # occ.  1.00000000
 
ion      s     py     pz     px    dxy    dyz    dz2    dxz  x2-y2    tot
    1  0.000  0.000  0.000  0.000  0.000  0.446  0.000  0.445  0.069  0.960
 
band     5 # energy    4.53750548 # occ.  1.00000000
 
ion      s     py     pz     px    dxy    dyz    dz2    dxz  x2-y2    tot
    1  0.000  0.000  0.000  0.000  0.000  0.035  0.000  0.035  0.906  0.976
 
band     6 # energy    4.53752137 # occ.  1.00000000
 
ion      s     py     pz     px    dxy    dyz    dz2    dxz  x2-y2    tot
    1  0.000  0.000  0.000  0.000  0.047  0.012  0.906  0.012  0.000  0.976
 
band     7 # energy   20.25533803 # occ.  0.00000000
 
ion      s     py     pz     px    dxy    dyz    dz2    dxz  x2-y2    tot
    1  0.065  0.095  0.095  0.095  0.075  0.075  0.000  0.075  0.000  0.575
 
band     8 # energy   26.70927782 # occ.  0.00000000
 
ion      s     py     pz     px    dxy    dyz    dz2    dxz  x2-y2    tot
    1  0.000  0.211  0.000  0.211  0.000  0.105  0.000  0.105  0.017  0.647
 
band     9 # energy   26.70929221 # occ.  0.00000000
 
ion      s     py     pz     px    dxy    dyz    dz2    dxz  x2-y2    tot
    1  0.000  0.070  0.281  0.070  0.140  0.035  0.017  0.035  0.000  0.647
 
band    10 # energy   26.87290157 # occ.  0.00000000
 
ion      s     py     pz     px    dxy    dyz    dz2    dxz  x2-y2    tot
    1  0.037  0.010  0.010  0.010  0.021  0.021  0.000  0.021  0.000  0.129
 
band    11 # energy   32.35011319 # occ.  0.00000000
 
ion      s     py     pz     px    dxy    dyz    dz2    dxz  x2-y2    tot
    1  0.004  0.067  0.067  0.067  0.000  0.000  0.000  0.000  0.000  0.206
 
band    12 # energy   32.91646834 # occ.  0.00000000
 
ion      s     py     pz     px    dxy    dyz    dz2    dxz  x2-y2    tot
    1  0.000  0.010  0.025  0.033  0.009  0.012  0.191  0.004  0.155  0.438
 

 k-point     4 :    0.27272727-0.00000000 0.00000000     weight = 0.00601052

band     1 # energy    0.71168481 # occ.  1.00000000
 
ion      s     py     pz     px    dxy    dyz    dz2    dxz  x2-y2    tot
    1  0.404  0.028  0.028  0.028  0.024  0.024  0.000  0.024  0.000  0.559
 
band     2 # energy    3.65058866 # occ.  1.00000000
 
ion      s     py     pz     px    dxy    dyz    dz2    dxz  x2-y2    tot
    1  0.015  0.014  0.014  0.014  0.279  0.279  0.000  0.279  0.000  0.893
 
band     3 # energy    3.94419687 # occ.  1.00000000
 
ion      s     py     pz     px    dxy    dyz    dz2    dxz  x2-y2    tot
    1  0.000  0.000  0.000  0.000  0.454  0.113  0.277  0.114  0.000  0.959
 
band     4 # energy    3.94424725 # occ.  1.00000000
 
ion      s     py     pz     px    dxy    dyz    dz2    dxz  x2-y2    tot
    1  0.000  0.000  0.000  0.000  0.000  0.341  0.000  0.340  0.277  0.959
 
band     5 # energy    4.63129394 # occ.  1.00000000
 
ion      s     py     pz     px    dxy    dyz    dz2    dxz  x2-y2    tot
    1  0.000  0.000  0.000  0.000  0.000  0.142  0.000  0.142  0.693  0.978
 
band     6 # energy    4.63131391 # occ.  1.00000000
 
ion      s     py     pz     px    dxy    dyz    dz2    dxz  x2-y2    tot
    1  0.000  0.000  0.000  0.000  0.189  0.047  0.693  0.047  0.000  0.978
 
band     7 # energy   16.27218306 # occ.  0.00000000
 
ion      s     py     pz     px    dxy    dyz    dz2    dxz  x2-y2    tot
    1  0.128  0.092  0.092  0.092  0.069  0.069  0.000  0.069  0.000  0.611
 
band     8 # energy   26.01234598 # occ.  0.00000000
 
ion      s     py     pz     px    dxy    dyz    dz2    dxz  x2-y2    tot
    1  0.000  0.234  0.000  0.234  0.000  0.088  0.000  0.089  0.021  0.665
 
band     9 # energy   26.01241597 # occ.  0.00000000
 
ion      s     py     pz     px    dxy    dyz    dz2    dxz  x2-y2    tot
    1  0.000  0.078  0.312  0.078  0.118  0.030  0.021  0.029  0.000  0.665
 
band    10 # energy   26.36655480 # occ.  0.00000000
 
ion      s     py     pz     px    dxy    dyz    dz2    dxz  x2-y2    tot
    1  0.028  0.000  0.000  0.000  0.021  0.021  0.000  0.021  0.000  0.092
 
band    11 # energy   30.98617701 # occ.  0.00000000
 
ion      s     py     pz     px    dxy    dyz    dz2    dxz  x2-y2    tot
    1  0.000  0.021  0.084  0.021  0.030  0.008  0.413  0.008  0.000  0.585
 
band    12 # energy   30.98632085 # occ.  0.00000000
 
ion      s     py     pz     px    dxy    dyz    dz2    dxz  x2-y2    tot
    1  0.000  0.063  0.000  0.063  0.000  0.023  0.000  0.023  0.413  0.585
 

 k-point     5 :    0.36363636-0.00000000-0.00000000     weight = 0.00601052

band     1 # energy    1.75925101 # occ.  1.00000000
 
ion      s     py     pz     px    dxy    dyz    dz2    dxz  x2-y2    tot
    1  0.257  0.019  0.019  0.019  0.122  0.122  0.000  0.122  0.000  0.681
 
band     2 # energy    3.89162322 # occ.  1.00000000
 
ion      s     py     pz     px    dxy    dyz    dz2    dxz  x2-y2    tot
    1  0.000  0.000  0.000  0.000  0.341  0.085  0.443  0.086  0.000  0.955
 
band     3 # energy    3.89167581 # occ.  1.00000000
 
ion      s     py     pz     px    dxy    dyz    dz2    dxz  x2-y2    tot
    1  0.000  0.000  0.000  0.000  0.000  0.256  0.000  0.256  0.443  0.955
 
band     4 # energy    4.17665207 # occ.  1.00000000
 
ion      s     py     pz     px    dxy    dyz    dz2    dxz  x2-y2    tot
    1  0.073  0.056  0.056  0.056  0.164  0.164  0.000  0.164  0.000  0.734
 
band     5 # energy    4.80440184 # occ.  1.00000002
 
ion      s     py     pz     px    dxy    dyz    dz2    dxz  x2-y2    tot
    1  0.000  0.000  0.000  0.000  0.000  0.230  0.000  0.230  0.524  0.984
 
band     6 # energy    4.80441328 # occ.  1.00000002
 
ion      s     py     pz     px    dxy    dyz    dz2    dxz  x2-y2    tot
    1  0.000  0.000  0.000  0.000  0.307  0.077  0.524  0.076  0.000  0.984
 
band     7 # energy   12.71948272 # occ.  0.00000000
 
ion      s     py     pz     px    dxy    dyz    dz2    dxz  x2-y2    tot
    1  0.217  0.072  0.072  0.072  0.074  0.074  0.000  0.074  0.000  0.654
 
band     8 # energy   25.58453715 # occ.  0.00000000
 
ion      s     py     pz     px    dxy    dyz    dz2    dxz  x2-y2    tot
    1  0.000  0.273  0.000  0.273  0.000  0.047  0.000  0.047  0.014  0.653
 
band     9 # energy   25.58469611 # occ.  0.00000000
 
ion      s     py     pz     px    dxy    dyz    dz2    dxz  x2-y2    tot
    1  0.000  0.091  0.364  0.091  0.062  0.016  0.014  0.016  0.000  0.653
 
band    10 # energy   25.79187564 # occ.  0.00000000
 
ion      s     py     pz     px    dxy    dyz    dz2    dxz  x2-y2    tot
    1  0.011  0.004  0.004  0.004  0.009  0.009  0.000  0.009  0.000  0.051
 
band    11 # energy   29.48278897 # occ.  0.00000000
 
ion      s     py     pz     px    dxy    dyz    dz2    dxz  x2-y2    tot
    1  0.000  0.012  0.046  0.012  0.088  0.022  0.426  0.022  0.000  0.629
 
band    12 # energy   29.48304890 # occ.  0.00000000
 
ion      s     py     pz     px    dxy    dyz    dz2    dxz  x2-y2    tot
    1  0.000  0.035  0.000  0.035  0.000  0.066  0.000  0.066  0.426  0.628
 

 k-point     6 :    0.45454545 0.00000000-0.00000000     weight = 0.00601052

band     1 # energy    2.15591302 # occ.  1.00000000
 
ion      s     py     pz     px    dxy    dyz    dz2    dxz  x2-y2    tot
    1  0.141  0.002  0.002  0.002  0.219  0.219  0.000  0.219  0.000  0.805
 
band     2 # energy    3.84309132 # occ.  1.00000000
 
ion      s     py     pz     px    dxy    dyz    dz2    dxz  x2-y2    tot
    1  0.000  0.000  0.000  0.000  0.297  0.074  0.507  0.075  0.000  0.953
 
band     3 # energy    3.84314452 # occ.  1.00000000
 
ion      s     py     pz     px    dxy    dyz    dz2    dxz  x2-y2    tot
    1  0.000  0.000  0.000  0.000  0.000  0.223  0.000  0.223  0.507  0.953
 
band     4 # energy    4.92894601 # occ.  1.00000185
 
ion      s     py     pz     px    dxy    dyz    dz2    dxz  x2-y2    tot
    1  0.000  0.000  0.000  0.000  0.000  0.263  0.000  0.267  0.458  0.989
 
band     5 # energy    4.92894854 # occ.  1.00000185
 
ion      s     py     pz     px    dxy    dyz    dz2    dxz  x2-y2    tot
    1  0.000  0.000  0.000  0.000  0.353  0.090  0.458  0.086  0.000  0.989
 
band     6 # energy    5.53205776 # occ.  0.92460656
 
ion      s     py     pz     px    dxy    dyz    dz2    dxz  x2-y2    tot
    1  0.047  0.130  0.130  0.130  0.029  0.029  0.000  0.029  0.000  0.525
 
band     7 # energy    9.96398565 # occ. -0.00000000
 
ion      s     py     pz     px    dxy    dyz    dz2    dxz  x2-y2    tot
    1  0.359  0.023  0.023  0.023  0.105  0.105  0.000  0.105  0.000  0.742
 
band     8 # energy   25.39063394 # occ.  0.00000000
 
ion      s     py     pz     px    dxy    dyz    dz2    dxz  x2-y2    tot
    1  0.000  0.308  0.000  0.308  0.000  0.007  0.000  0.007  0.002  0.631
 
band     9 # energy   25.39087171 # occ.  0.00000000
 
ion      s     py     pz     px    dxy    dyz    dz2    dxz  x2-y2    tot
    1  0.000  0.102  0.410  0.103  0.009  0.002  0.002  0.002  0.000  0.631
 
band    10 # energy   25.43337194 # occ.  0.00000000
 
ion      s     py     pz     px    dxy    dyz    dz2    dxz  x2-y2    tot
    1  0.001  0.008  0.007  0.008  0.001  0.001  0.000  0.001  0.000  0.027
 
band    11 # energy   28.67534013 # occ.  0.00000000
 
ion      s     py     pz     px    dxy    dyz    dz2    dxz  x2-y2    tot
    1  0.000  0.002  0.007  0.002  0.141  0.035  0.439  0.035  0.000  0.661
 
band    12 # energy   28.67569705 # occ.  0.00000000
 
ion      s     py     pz     px    dxy    dyz    dz2    dxz  x2-y2    tot
    1  0.000  0.005  0.000  0.005  0.000  0.106  0.000  0.106  0.439  0.661
 

 k-point     7 :    0.09090909 0.09090909 0.00000000     weight = 0.00450789

band     1 # energy   -1.06782994 # occ.  1.00000000
 
ion      s     py     pz     px    dxy    dyz    dz2    dxz  x2-y2    tot
    1  0.514  0.017  0.000  0.000  0.000  0.000  0.000  0.000  0.000  0.531
 
band     2 # energy    3.70519809 # occ.  1.00000000
 
ion      s     py     pz     px    dxy    dyz    dz2    dxz  x2-y2    tot
    1  0.000  0.000  0.000  0.000  0.000  0.000  0.000  0.953  0.000  0.953
 
band     3 # energy    3.86988934 # occ.  1.00000000
 
ion      s     py     pz     px    dxy    dyz    dz2    dxz  x2-y2    tot
    1  0.000  0.000  0.001  0.001  0.479  0.479  0.000  0.000  0.000  0.959
 
band     4 # energy    3.86989073 # occ.  1.00000000
 
ion      s     py     pz     px    dxy    dyz    dz2    dxz  x2-y2    tot
    1  0.000  0.000  0.001  0.001  0.479  0.479  0.000  0.000  0.000  0.959
 
band     5 # energy    4.47923315 # occ.  1.00000000
 
ion      s     py     pz     px    dxy    dyz    dz2    dxz  x2-y2    tot
    1  0.000  0.000  0.000  0.000  0.000  0.000  0.244  0.000  0.731  0.975
 
band     6 # energy    4.59762464 # occ.  1.00000000
 
ion      s     py     pz     px    dxy    dyz    dz2    dxz  x2-y2    tot
    1  0.000  0.000  0.000  0.000  0.000  0.000  0.735  0.000  0.245  0.980
 
band     7 # energy   25.66150705 # occ.  0.00000000
 
ion      s     py     pz     px    dxy    dyz    dz2    dxz  x2-y2    tot
    1  0.000  0.000  0.000  0.000  0.000  0.000  0.000  0.233  0.000  0.233
 
band     8 # energy   25.98020425 # occ.  0.00000000
 
ion      s     py     pz     px    dxy    dyz    dz2    dxz  x2-y2    tot
    1  0.000  0.000  0.207  0.206  0.102  0.102  0.000  0.000  0.000  0.616
 
band     9 # energy   25.98020816 # occ.  0.00000000
 
ion      s     py     pz     px    dxy    dyz    dz2    dxz  x2-y2    tot
    1  0.000  0.000  0.206  0.207  0.102  0.102  0.000  0.000  0.000  0.616
 
band    10 # energy   27.20863993 # occ.  0.00000000
 
ion      s     py     pz     px    dxy    dyz    dz2    dxz  x2-y2    tot
    1  0.065  0.315  0.000  0.000  0.000  0.000  0.007  0.000  0.022  0.410
 
band    11 # energy   32.43925460 # occ.  0.00000000
 
ion      s     py     pz     px    dxy    dyz    dz2    dxz  x2-y2    tot
    1  0.005  0.420  0.000  0.000  0.000  0.000  0.044  0.000  0.131  0.600
 
band    12 # energy   32.63777232 # occ.  0.00000000
 
ion      s     py     pz     px    dxy    dyz    dz2    dxz  x2-y2    tot
    1  0.000  0.000  0.000  0.000  0.000  0.000  0.000  0.571  0.000  0.571
 

 k-point     8 :    0.18181818 0.09090909-0.00000000     weight = 0.01803156

band     1 # energy   -0.48414334 # occ.  1.00000000
 
ion      s     py     pz     px    dxy    dyz    dz2    dxz  x2-y2    tot
    1  0.483  0.036  0.004  0.004  0.001  0.001  0.001  0.000  0.002  0.533
 
band     2 # energy    3.60032755 # occ.  1.00000000
 
ion      s     py     pz     px    dxy    dyz    dz2    dxz  x2-y2    tot
    1  0.000  0.000  0.001  0.001  0.052  0.052  0.000  0.837  0.000  0.944
 
band     3 # energy    3.95753926 # occ.  1.00000000
 
ion      s     py     pz     px    dxy    dyz    dz2    dxz  x2-y2    tot
    1  0.000  0.000  0.001  0.001  0.408  0.403  0.010  0.105  0.031  0.959
 
band     4 # energy    3.96174145 # occ.  1.00000000
 
ion      s     py     pz     px    dxy    dyz    dz2    dxz  x2-y2    tot
    1  0.000  0.000  0.001  0.001  0.461  0.466  0.023  0.000  0.008  0.960
 
band     5 # energy    4.41534107 # occ.  1.00000000
 
ion      s     py     pz     px    dxy    dyz    dz2    dxz  x2-y2    tot
    1  0.002  0.001  0.000  0.000  0.019  0.018  0.231  0.004  0.694  0.969
 
band     6 # energy    4.62685099 # occ.  1.00000000
 
ion      s     py     pz     px    dxy    dyz    dz2    dxz  x2-y2    tot
    1  0.000  0.000  0.000  0.000  0.016  0.016  0.711  0.000  0.237  0.980
 
band     7 # energy   21.82651658 # occ.  0.00000000
 
ion      s     py     pz     px    dxy    dyz    dz2    dxz  x2-y2    tot
    1  0.040  0.048  0.120  0.120  0.068  0.068  0.001  0.096  0.002  0.562
 
band     8 # energy   24.69753323 # occ.  0.00000000
 
ion      s     py     pz     px    dxy    dyz    dz2    dxz  x2-y2    tot
    1  0.000  0.000  0.213  0.213  0.101  0.101  0.004  0.000  0.001  0.632
 
band     9 # energy   25.61444951 # occ.  0.00000000
 
ion      s     py     pz     px    dxy    dyz    dz2    dxz  x2-y2    tot
    1  0.045  0.084  0.002  0.002  0.002  0.002  0.005  0.183  0.016  0.341
 
band    10 # energy   28.33739428 # occ.  0.00000000
 
ion      s     py     pz     px    dxy    dyz    dz2    dxz  x2-y2    tot
    1  0.011  0.044  0.090  0.090  0.013  0.012  0.020  0.029  0.059  0.367
 
band    11 # energy   29.71718850 # occ.  0.00000000
 
ion      s     py     pz     px    dxy    dyz    dz2    dxz  x2-y2    tot
    1  0.031  0.457  0.018  0.018  0.002  0.002  0.034  0.005  0.101  0.667
 
band    12 # energy   32.72510205 # occ.  0.00000000
 
ion      s     py     pz     px    dxy    dyz    dz2    dxz  x2-y2    tot
    1  0.020  0.017  0.000  0.000  0.126  0.126  0.014  0.246  0.042  0.593
 

 k-point     9 :    0.27272727 0.09090909 0.00000000     weight = 0.01803156

band     1 # energy    0.52070274 # occ.  1.00000000
 
ion      s     py     pz     px    dxy    dyz    dz2    dxz  x2-y2    tot
    1  0.421  0.057  0.013  0.013  0.015  0.015  0.002  0.006  0.006  0.547
 
band     2 # energy    3.52167565 # occ.  1.00000000
 
ion      s     py     pz     px    dxy    dyz    dz2    dxz  x2-y2    tot
    1  0.004  0.004  0.006  0.006  0.088  0.088  0.001  0.723  0.002  0.922
 
band     3 # energy    3.96685477 # occ.  1.00000000
 
ion      s     py     pz     px    dxy    dyz    dz2    dxz  x2-y2    tot
    1  0.000  0.000  0.001  0.001  0.237  0.236  0.082  0.150  0.247  0.955
 
band     4 # energy    4.01804292 # occ.  1.00000000
 
ion      s     py     pz     px    dxy    dyz    dz2    dxz  x2-y2    tot
    1  0.000  0.000  0.001  0.001  0.384  0.385  0.141  0.000  0.047  0.960
 
band     5 # energy    4.51693789 # occ.  1.00000000
 
ion      s     py     pz     px    dxy    dyz    dz2    dxz  x2-y2    tot
    1  0.008  0.004  0.001  0.001  0.133  0.133  0.156  0.059  0.469  0.964
 
band     6 # energy    4.70880329 # occ.  1.00000000
 
ion      s     py     pz     px    dxy    dyz    dz2    dxz  x2-y2    tot
    1  0.000  0.000  0.000  0.000  0.097  0.097  0.591  0.000  0.197  0.981
 
band     7 # energy   17.74548436 # occ.  0.00000000
 
ion      s     py     pz     px    dxy    dyz    dz2    dxz  x2-y2    tot
    1  0.098  0.058  0.117  0.117  0.060  0.060  0.001  0.085  0.002  0.599
 
band     8 # energy   23.84844939 # occ.  0.00000000
 
ion      s     py     pz     px    dxy    dyz    dz2    dxz  x2-y2    tot
    1  0.000  0.000  0.224  0.224  0.084  0.084  0.014  0.000  0.005  0.636
 
band     9 # energy   25.10808983 # occ.  0.00000000
 
ion      s     py     pz     px    dxy    dyz    dz2    dxz  x2-y2    tot
    1  0.046  0.049  0.003  0.003  0.000  0.000  0.012  0.183  0.036  0.333
 
band    10 # energy   27.18534019 # occ.  0.00000000
 
ion      s     py     pz     px    dxy    dyz    dz2    dxz  x2-y2    tot
    1  0.041  0.365  0.009  0.009  0.000  0.000  0.040  0.021  0.119  0.605
 
band    11 # energy   30.38933276 # occ.  0.00000000
 
ion      s     py     pz     px    dxy    dyz    dz2    dxz  x2-y2    tot
    1  0.000  0.084  0.101  0.101  0.006  0.006  0.023  0.005  0.068  0.394
 
band    12 # energy   32.48355304 # occ.  0.00000000
 
ion      s     py     pz     px    dxy    dyz    dz2    dxz  x2-y2    tot
    1  0.009  0.014  0.040  0.040  0.074  0.074  0.021  0.209  0.064  0.544
 

 k-point    10 :    0.36363636 0.09090909 0.00000000     weight = 0.01803156

band     1 # energy    1.64685737 # occ.  1.00000000
 
ion      s     py     pz     px    dxy    dyz    dz2    dxz  x2-y2    tot
    1  0.297  0.056  0.014  0.014  0.085  0.085  0.004  0.065  0.011  0.631
 
band     2 # energy    3.68911488 # occ.  1.00000000
 
ion      s     py     pz     px    dxy    dyz    dz2    dxz  x2-y2    tot
    1  0.029  0.024  0.025  0.025  0.044  0.044  0.010  0.621  0.029  0.850
 
band     3 # energy    3.87111694 # occ.  1.00000000
 
ion      s     py     pz     px    dxy    dyz    dz2    dxz  x2-y2    tot
    1  0.000  0.000  0.001  0.001  0.133  0.133  0.129  0.166  0.386  0.949
 
band     4 # energy    3.98942584 # occ.  1.00000000
 
ion      s     py     pz     px    dxy    dyz    dz2    dxz  x2-y2    tot
    1  0.000  0.000  0.001  0.001  0.288  0.288  0.285  0.000  0.095  0.958
 
band     5 # energy    4.84686188 # occ.  1.00000009
 
ion      s     py     pz     px    dxy    dyz    dz2    dxz  x2-y2    tot
    1  0.000  0.000  0.000  0.000  0.197  0.197  0.444  0.000  0.148  0.985
 
band     6 # energy    4.88825511 # occ.  1.00000043
 
ion      s     py     pz     px    dxy    dyz    dz2    dxz  x2-y2    tot
    1  0.031  0.019  0.007  0.007  0.203  0.203  0.098  0.073  0.293  0.933
 
band     7 # energy   14.02418302 # occ.  0.00000000
 
ion      s     py     pz     px    dxy    dyz    dz2    dxz  x2-y2    tot
    1  0.175  0.049  0.102  0.102  0.057  0.057  0.001  0.087  0.003  0.633
 
band     8 # energy   23.47124854 # occ.  0.00000000
 
ion      s     py     pz     px    dxy    dyz    dz2    dxz  x2-y2    tot
    1  0.000  0.000  0.238  0.238  0.058  0.058  0.029  0.000  0.010  0.632
 
band     9 # energy   24.64471173 # occ.  0.00000000
 
ion      s     py     pz     px    dxy    dyz    dz2    dxz  x2-y2    tot
    1  0.007  0.007  0.002  0.002  0.001  0.001  0.034  0.101  0.101  0.254
 
band    10 # energy   25.31308177 # occ.  0.00000000
 
ion      s     py     pz     px    dxy    dyz    dz2    dxz  x2-y2    tot
    1  0.084  0.391  0.040  0.040  0.003  0.003  0.012  0.062  0.037  0.671
 
band    11 # energy   31.05966881 # occ.  0.00000000
 
ion      s     py     pz     px    dxy    dyz    dz2    dxz  x2-y2    tot
    1  0.001  0.026  0.007  0.007  0.042  0.042  0.061  0.056  0.183  0.425
 
band    12 # energy   32.20873299 # occ.  0.00000000
 
ion      s     py     pz     px    dxy    dyz    dz2    dxz  x2-y2    tot
    1  0.000  0.000  0.064  0.064  0.041  0.041  0.285  0.000  0.095  0.589
 

 k-point    11 :    0.45454545 0.09090909 0.00000000     weight = 0.01803156

band     1 # energy    2.22835072 # occ.  1.00000000
 
ion      s     py     pz     px    dxy    dyz    dz2    dxz  x2-y2    tot
    1  0.149  0.020  0.001  0.001  0.196  0.196  0.002  0.216  0.005  0.786
 
band     2 # energy    3.78882258 # occ.  1.00000000
 
ion      s     py     pz     px    dxy    dyz    dz2    dxz  x2-y2    tot
    1  0.000  0.000  0.001  0.001  0.092  0.092  0.143  0.185  0.429  0.944
 
band     3 # energy    3.93393398 # occ.  1.00000000
 
ion      s     py     pz     px    dxy    dyz    dz2    dxz  x2-y2    tot
    1  0.000  0.000  0.001  0.001  0.233  0.233  0.366  0.000  0.122  0.955
 
band     4 # energy    4.25193135 # occ.  1.00000000
 
ion      s     py     pz     px    dxy    dyz    dz2    dxz  x2-y2    tot
    1  0.019  0.036  0.035  0.035  0.016  0.016  0.050  0.479  0.149  0.836
 
band     5 # energy    4.94525479 # occ.  1.00000323
 
ion      s     py     pz     px    dxy    dyz    dz2    dxz  x2-y2    tot
    1  0.000  0.000  0.000  0.000  0.255  0.255  0.360  0.000  0.120  0.989
 
band     6 # energy    5.78029289 # occ.  0.06663435
 
ion      s     py     pz     px    dxy    dyz    dz2    dxz  x2-y2    tot
    1  0.072  0.086  0.054  0.054  0.139  0.139  0.045  0.016  0.136  0.742
 
band     7 # energy   10.88056949 # occ. -0.00000000
 
ion      s     py     pz     px    dxy    dyz    dz2    dxz  x2-y2    tot
    1  0.291  0.021  0.063  0.063  0.071  0.071  0.001  0.111  0.002  0.695
 
band     8 # energy   23.49720160 # occ.  0.00000000
 
ion      s     py     pz     px    dxy    dyz    dz2    dxz  x2-y2    tot
    1  0.026  0.241  0.019  0.019  0.012  0.012  0.036  0.008  0.108  0.481
 
band     9 # energy   23.61369312 # occ.  0.00000000
 
ion      s     py     pz     px    dxy    dyz    dz2    dxz  x2-y2    tot
    1  0.000  0.000  0.251  0.251  0.031  0.031  0.048  0.000  0.016  0.628
 
band    10 # energy   24.85358863 # occ.  0.00000000
 
ion      s     py     pz     px    dxy    dyz    dz2    dxz  x2-y2    tot
    1  0.057  0.124  0.052  0.052  0.001  0.001  0.004  0.097  0.011  0.398
 
band    11 # energy   30.86000285 # occ.  0.00000000
 
ion      s     py     pz     px    dxy    dyz    dz2    dxz  x2-y2    tot
    1  0.000  0.000  0.059  0.059  0.076  0.075  0.275  0.000  0.087  0.631
 
band    12 # energy   30.87159663 # occ.  0.00000000
 
ion      s     py     pz     px    dxy    dyz    dz2    dxz  x2-y2    tot
    1  0.008  0.015  0.000  0.000  0.012  0.014  0.066  0.137  0.210  0.463
 

 k-point    12 :   -0.45454545 0.09090909-0.00000000     weight = 0.01803156

band     1 # energy    2.31566927 # occ.  1.00000000
 
ion      s     py     pz     px    dxy    dyz    dz2    dxz  x2-y2    tot
    1  0.117  0.003  0.002  0.002  0.220  0.220  0.000  0.259  0.000  0.822
 
band     2 # energy    3.77105150 # occ.  1.00000000
 
ion      s     py     pz     px    dxy    dyz    dz2    dxz  x2-y2    tot
    1  0.000  0.000  0.001  0.001  0.070  0.070  0.139  0.246  0.417  0.944
 
band     3 # energy    3.91033086 # occ.  1.00000000
 
ion      s     py     pz     px    dxy    dyz    dz2    dxz  x2-y2    tot
    1  0.000  0.000  0.000  0.000  0.212  0.212  0.397  0.000  0.132  0.954
 
band     4 # energy    4.47868229 # occ.  1.00000000
 
ion      s     py     pz     px    dxy    dyz    dz2    dxz  x2-y2    tot
    1  0.000  0.029  0.031  0.031  0.101  0.101  0.073  0.288  0.218  0.871
 
band     5 # energy    4.91746856 # occ.  1.00000124
 
ion      s     py     pz     px    dxy    dyz    dz2    dxz  x2-y2    tot
    1  0.000  0.000  0.000  0.000  0.276  0.276  0.326  0.000  0.109  0.988
 
band     6 # energy    6.56364662 # occ. -0.00000000
 
ion      s     py     pz     px    dxy    dyz    dz2    dxz  x2-y2    tot
    1  0.010  0.115  0.122  0.122  0.005  0.005  0.029  0.103  0.087  0.599
 
band     7 # energy    9.56740221 # occ. -0.00000000
 
ion      s     py     pz     px    dxy    dyz    dz2    dxz  x2-y2    tot
    1  0.405  0.022  0.001  0.001  0.118  0.118  0.000  0.107  0.001  0.772
 
band     8 # energy   22.49668406 # occ.  0.00000000
 
ion      s     py     pz     px    dxy    dyz    dz2    dxz  x2-y2    tot