<?xml version="1.0" encoding="ISO-8859-1"?>
<modeling>
 <generator>
  <i name="program" type="string">vasp </i>
  <i name="version" type="string">6.3.0  </i>
  <i name="subversion" type="string">20Jan22 (build Feb 01 2022 16:52:37) complex                          parallel </i>
  <i name="platform" type="string">TETRA_NSC1 </i>
  <i name="date" type="string">2022 02 23 </i>
  <i name="time" type="string">15:19:38 </i>
 </generator>
 <incar>
  <i type="string" name="SYSTEM">fcc Ni</i>
  <i type="int" name="ISTART">     0</i>
  <i type="int" name="ISPIN">     2</i>
  <i type="int" name="ICHARG">     2</i>
  <i name="ENCUT">    270.00000000</i>
  <v name="MAGMOM">      1.00000000</v>
  <i type="int" name="ISMEAR">     1</i>
  <i name="SIGMA">      0.20000000</i>
  <i type="int" name="LORBIT">    11</i>
 </incar>
 <primitive_cell>
  <structure name="primitive_cell" >
   <crystal>
    <varray name="basis" >
     <v>       1.95000000       1.95000000       0.00000000 </v>
     <v>       0.00000000       1.95000000       1.95000000 </v>
     <v>       1.95000000       0.00000000       1.95000000 </v>
    </varray>
    <i name="volume">     14.82975000 </i>
    <varray name="rec_basis" >
     <v>       0.25641026       0.25641026      -0.25641026 </v>
     <v>      -0.25641026       0.25641026       0.25641026 </v>
     <v>       0.25641026      -0.25641026       0.25641026 </v>
    </varray>
   </crystal>
   <varray name="positions" >
    <v>       0.00000000       0.00000000       0.00000000 </v>
   </varray>
  </structure>
  <varray name="primitive_index" >
   <v type="int" >        1 </v>
  </varray>
 </primitive_cell>
 <kpoints>
  <generation param="Monkhorst-Pack">
   <v type="int" name="divisions">      11       11       11 </v>
   <v name="usershift">      0.00000000       0.00000000       0.00000000 </v>
   <v name="genvec1">      0.09090909      -0.00000000      -0.00000000 </v>
   <v name="genvec2">     -0.00000000       0.09090909       0.00000000 </v>
   <v name="genvec3">      0.00000000       0.00000000       0.09090909 </v>
   <v name="shift">      0.00000000       0.00000000       0.00000000 </v>
  </generation>
  <varray name="kpointlist" >
   <v>       0.00000000       0.00000000       0.00000000 </v>
   <v>       0.09090909       0.00000000       0.00000000 </v>
   <v>       0.18181818      -0.00000000       0.00000000 </v>
   <v>       0.27272727      -0.00000000       0.00000000 </v>
   <v>       0.36363636      -0.00000000      -0.00000000 </v>
   <v>       0.45454545       0.00000000      -0.00000000 </v>
   <v>       0.09090909       0.09090909       0.00000000 </v>
   <v>       0.18181818       0.09090909      -0.00000000 </v>
   <v>       0.27272727       0.09090909       0.00000000 </v>
   <v>       0.36363636       0.09090909       0.00000000 </v>
   <v>       0.45454545       0.09090909       0.00000000 </v>
   <v>      -0.45454545       0.09090909      -0.00000000 </v>
   <v>      -0.36363636       0.09090909      -0.00000000 </v>
   <v>      -0.27272727       0.09090909       0.00000000 </v>
   <v>      -0.18181818       0.09090909      -0.00000000 </v>
   <v>      -0.09090909       0.09090909      -0.00000000 </v>
   <v>       0.18181818       0.18181818      -0.00000000 </v>
   <v>       0.27272727       0.18181818      -0.00000000 </v>
   <v>       0.36363636       0.18181818       0.00000000 </v>
   <v>       0.45454545       0.18181818       0.00000000 </v>
   <v>      -0.45454545       0.18181818      -0.00000000 </v>
   <v>      -0.36363636       0.18181818      -0.00000000 </v>
   <v>      -0.27272727       0.18181818       0.00000000 </v>
   <v>      -0.18181818       0.18181818       0.00000000 </v>
   <v>       0.27272727       0.27272727      -0.00000000 </v>
   <v>       0.36363636       0.27272727       0.00000000 </v>
   <v>       0.45454545       0.27272727       0.00000000 </v>
   <v>      -0.45454545       0.27272727      -0.00000000 </v>
   <v>      -0.36363636       0.27272727      -0.00000000 </v>
   <v>      -0.27272727       0.27272727       0.00000000 </v>
   <v>       0.36363636       0.36363636       0.00000000 </v>
   <v>       0.45454545       0.36363636       0.00000000 </v>
   <v>      -0.45454545       0.36363636      -0.00000000 </v>
   <v>      -0.36363636       0.36363636       0.00000000 </v>
   <v>       0.45454545       0.45454545       0.00000000 </v>
   <v>      -0.45454545       0.45454545       0.00000000 </v>
   <v>       0.27272727       0.18181818       0.09090909 </v>
   <v>       0.36363636       0.18181818       0.09090909 </v>
   <v>       0.45454545       0.18181818       0.09090909 </v>
   <v>      -0.45454545       0.18181818       0.09090909 </v>
   <v>       0.36363636       0.27272727       0.09090909 </v>
   <v>       0.45454545       0.27272727       0.09090909 </v>
   <v>      -0.45454545       0.27272727       0.09090909 </v>
   <v>      -0.36363636       0.27272727       0.09090909 </v>
   <v>      -0.27272727       0.27272727       0.09090909 </v>
   <v>      -0.18181818       0.27272727       0.09090909 </v>
   <v>       0.45454545       0.36363636       0.09090909 </v>
   <v>      -0.45454545       0.36363636       0.09090909 </v>
   <v>      -0.36363636       0.36363636       0.09090909 </v>
   <v>      -0.27272727       0.36363636       0.09090909 </v>
   <v>      -0.45454545       0.45454545       0.09090909 </v>
   <v>      -0.36363636       0.45454545       0.09090909 </v>
   <v>      -0.45454545       0.36363636       0.18181818 </v>
   <v>      -0.36363636       0.36363636       0.18181818 </v>
   <v>      -0.36363636       0.45454545       0.18181818 </v>
   <v>      -0.27272727       0.45454545       0.18181818 </v>
  </varray>
  <varray name="weights" >
   <v>       0.00075131 </v>
   <v>       0.00601052 </v>
   <v>       0.00601052 </v>
   <v>       0.00601052 </v>
   <v>       0.00601052 </v>
   <v>       0.00601052 </v>
   <v>       0.00450789 </v>
   <v>       0.01803156 </v>
   <v>       0.01803156 </v>
   <v>       0.01803156 </v>
   <v>       0.01803156 </v>
   <v>       0.01803156 </v>
   <v>       0.01803156 </v>
   <v>       0.01803156 </v>
   <v>       0.01803156 </v>
   <v>       0.00901578 </v>
   <v>       0.00450789 </v>
   <v>       0.01803156 </v>
   <v>       0.01803156 </v>
   <v>       0.01803156 </v>
   <v>       0.01803156 </v>
   <v>       0.01803156 </v>
   <v>       0.01803156 </v>
   <v>       0.00901578 </v>
   <v>       0.00450789 </v>
   <v>       0.01803156 </v>
   <v>       0.01803156 </v>
   <v>       0.01803156 </v>
   <v>       0.01803156 </v>
   <v>       0.00901578 </v>
   <v>       0.00450789 </v>
   <v>       0.01803156 </v>
   <v>       0.01803156 </v>
   <v>       0.00901578 </v>
   <v>       0.00450789 </v>
   <v>       0.00901578 </v>
   <v>       0.01803156 </v>
   <v>       0.03606311 </v>
   <v>       0.03606311 </v>
   <v>       0.03606311 </v>
   <v>       0.01803156 </v>
   <v>       0.03606311 </v>
   <v>       0.03606311 </v>
   <v>       0.03606311 </v>
   <v>       0.03606311 </v>
   <v>       0.01803156 </v>
   <v>       0.01803156 </v>
   <v>       0.03606311 </v>
   <v>       0.03606311 </v>
   <v>       0.01803156 </v>
   <v>       0.01803156 </v>
   <v>       0.01803156 </v>
   <v>       0.01803156 </v>
   <v>       0.03606311 </v>
   <v>       0.01803156 </v>
   <v>       0.01803156 </v>
  </varray>
 </kpoints>
 <parameters>
  <separator name="general" >
   <i type="string" name="SYSTEM">fcc Ni</i>
   <i type="logical" name="LCOMPAT"> F  </i>
  </separator>
  <separator name="electronic" >
   <i type="string" name="PREC">normal</i>
   <i name="ENMAX">    270.00000000</i>
   <i name="ENAUG">    544.56500000</i>
   <i name="EDIFF">      0.00010000</i>
   <i type="int" name="IALGO">    38</i>
   <i type="int" name="IWAVPR">    10</i>
   <i type="int" name="NBANDS">    12</i>
   <i type="int" name="NBANDSLOW">    -1</i>
   <i type="int" name="NBANDSHIGH">    -1</i>
   <i name="NELECT">     10.00000000</i>
   <i type="int" name="TURBO">     0</i>
   <i type="int" name="IRESTART">     0</i>
   <i type="int" name="NREBOOT">     0</i>
   <i type="int" name="NMIN">     0</i>
   <i name="EREF">      0.00000000</i>
   <separator name="electronic smearing" >
    <i type="int" name="ISMEAR">     1</i>
    <i name="SIGMA">      0.20000000</i>
    <i name="KSPACING">      0.50000000</i>
    <i type="logical" name="KGAMMA"> T  </i>
    <i type="logical" name="KBLOWUP"> T  </i>
   </separator>
   <separator name="electronic projectors" >
    <i type="logical" name="LREAL"> F  </i>
    <v name="ROPT">      0.00000000</v>
    <i type="int" name="LMAXPAW">  -100</i>
    <i type="int" name="LMAXMIX">     2</i>
    <i type="logical" name="NLSPLINE"> F  </i>
   </separator>
   <separator name="electronic startup" >
    <i type="int" name="ISTART">     0</i>
    <i type="int" name="ICHARG">     2</i>
    <i type="int" name="INIWAV">     1</i>
   </separator>
   <separator name="electronic spin" >
    <i type="int" name="ISPIN">     2</i>
    <i type="logical" name="LNONCOLLINEAR"> F  </i>
    <v name="MAGMOM">      1.00000000</v>
    <i name="NUPDOWN">     -1.00000000</i>
    <i type="logical" name="LSORBIT"> F  </i>
    <v name="SAXIS">      0.00000000      0.00000000      1.00000000</v>
    <i type="logical" name="LSPIRAL"> F  </i>
    <v name="QSPIRAL">      0.00000000      0.00000000      0.00000000</v>
    <i type="logical" name="LZEROZ"> F  </i>
   </separator>
   <separator name="electronic exchange-correlation" >
    <i type="logical" name="LASPH"> F  </i>
    <i type="logical" name="LMETAGGA"> F  </i>
   </separator>
   <separator name="electronic convergence" >
    <i type="int" name="NELM">    60</i>
    <i type="int" name="NELMDL">    -5</i>
    <i type="int" name="NELMIN">     2</i>
    <i name="ENINI">    270.00000000</i>
    <separator name="electronic convergence detail" >
     <i type="logical" name="LDIAG"> T  </i>
     <i type="logical" name="LSUBROT"> F  </i>
     <i name="WEIMIN">      0.00000000</i>
     <i name="EBREAK">      0.00000208</i>
     <i name="DEPER">      0.30000000</i>
     <i type="int" name="NRMM">     4</i>
     <i name="TIME">      0.40000000</i>
    </separator>
   </separator>
   <separator name="electronic mixer" >
    <i name="AMIX">      0.40000000</i>
    <i name="BMIX">      1.00000000</i>
    <i name="AMIN">      0.10000000</i>
    <i name="AMIX_MAG">      1.60000000</i>
    <i name="BMIX_MAG">      1.00000000</i>
    <separator name="electronic mixer details" >
     <i type="int" name="IMIX">     4</i>
     <i type="logical" name="MIXFIRST"> F  </i>
     <i type="int" name="MAXMIX">   -45</i>
     <i name="WC">    100.00000000</i>
     <i type="int" name="INIMIX">     1</i>
     <i type="int" name="MIXPRE">     1</i>
     <i type="int" name="MREMOVE">     5</i>
    </separator>
   </separator>
   <separator name="electronic dipolcorrection" >
    <i type="logical" name="LDIPOL"> F  </i>
    <i type="logical" name="LMONO"> F  </i>
    <i type="int" name="IDIPOL">     0</i>
    <i name="EPSILON">      1.00000000</i>
    <v name="DIPOL">   -100.00000000   -100.00000000   -100.00000000</v>
    <i name="EFIELD">      0.00000000</i>
   </separator>
  </separator>
  <separator name="grids" >
   <i type="int" name="NGX">    12</i>
   <i type="int" name="NGY">    12</i>
   <i type="int" name="NGZ">    12</i>
   <i type="int" name="NGXF">    24</i>
   <i type="int" name="NGYF">    24</i>
   <i type="int" name="NGZF">    24</i>
   <i type="logical" name="ADDGRID"> F  </i>
  </separator>
  <separator name="ionic" >
   <i type="int" name="NSW">     0</i>
   <i type="int" name="IBRION">    -1</i>
   <i type="int" name="MDALGO">     0</i>
   <i type="int" name="ISIF">     2</i>
   <i name="PSTRESS">      0.00000000</i>
   <i name="EDIFFG">      0.00100000</i>
   <i type="int" name="NFREE">     0</i>
   <i name="POTIM">      0.50000000</i>
   <i name="SMASS">     -3.00000000</i>
   <i name="SCALEE">      1.00000000</i>
  </separator>
  <separator name="ionic md" >
   <i name="TEBEG">      0.00010000</i>
   <i name="TEEND">      0.00010000</i>
   <i type="int" name="NBLOCK">     1</i>
   <i type="int" name="KBLOCK">     1</i>
   <i type="int" name="NPACO">   256</i>
   <i name="APACO">     10.00000000</i>
  </separator>
  <separator name="symmetry" >
   <i type="int" name="ISYM">     2</i>
   <i name="SYMPREC">      0.00001000</i>
  </separator>
  <separator name="dos" >
   <i type="int" name="LORBIT">    11</i>
   <v name="RWIGS">     -1.00000000</v>
   <i type="int" name="NEDOS">   301</i>
   <i name="EMIN">     10.00000000</i>
   <i name="EMAX">    -10.00000000</i>
   <i name="EFERMI">      0.00000000</i>
  </separator>
  <separator name="writing" >
   <i type="int" name="NWRITE">     2</i>
   <i type="logical" name="LWAVE"> T  </i>
   <i type="logical" name="LDOWNSAMPLE"> F  </i>
   <i type="logical" name="LCHARG"> T  </i>
   <i type="logical" name="LPARD"> F  </i>
   <i type="logical" name="LVTOT"> F  </i>
   <i type="logical" name="LVHAR"> F  </i>
   <i type="logical" name="LELF"> F  </i>
   <i type="logical" name="LOPTICS"> F  </i>
   <v name="STM">      0.00000000      0.00000000      0.00000000      0.00000000      0.00000000      0.00000000      0.00000000</v>
  </separator>
  <separator name="performance" >
   <i type="int" name="NPAR">     4</i>
   <i type="int" name="NSIM">     4</i>
   <i type="int" name="NBLK">    -1</i>
   <i type="logical" name="LPLANE"> T  </i>
   <i type="logical" name="LSCALAPACK"> T  </i>
   <i type="logical" name="LSCAAWARE"> F  </i>
   <i type="logical" name="LSCALU"> F  </i>
   <i type="logical" name="LASYNC"> F  </i>
   <i type="logical" name="LORBITALREAL"> F  </i>
  </separator>
  <separator name="miscellaneous" >
   <i type="int" name="IDIOT">     3</i>
   <i type="int" name="PHON_NSTRUCT">    -1</i>
   <i type="logical" name="LMUSIC"> F  </i>
   <v name="POMASS">     58.69000000</v>
   <v name="DARWINR">      0.00000000</v>
   <v name="DARWINV">      1.00000000</v>
   <i type="logical" name="LCORR"> T  </i>
  </separator>
  <i type="logical" name="GGA_COMPAT"> T  </i>
  <i type="logical" name="LBERRY"> F  </i>
  <i type="int" name="ICORELEVEL">     0</i>
  <i type="logical" name="LDAU"> F  </i>
  <i type="int" name="I_CONSTRAINED_M">     0</i>
  <separator name="electronic exchange-correlation" >
   <i type="string" name="GGA">--</i>
   <i type="int" name="VOSKOWN">     0</i>
   <i type="logical" name="LHFCALC"> F  </i>
   <i type="string" name="PRECFOCK"></i>
   <i type="logical" name="LSYMGRAD"> F  </i>
   <i type="logical" name="LHFONE"> F  </i>
   <i type="logical" name="LRHFCALC"> F  </i>
   <i type="logical" name="LTHOMAS"> F  </i>
   <i type="logical" name="LMODELHF"> F  </i>
   <i type="logical" name="LFOCKACE"> F  </i>
   <i name="ENCUT4O">     -1.00000000</i>
   <i type="int" name="EXXOEP">     0</i>
   <i type="int" name="FOURORBIT">     0</i>
   <i name="AEXX">      0.00000000</i>
   <i name="HFALPHA">      0.00000000</i>
   <i name="MCALPHA">      0.00000000</i>
   <i name="ALDAX">      1.00000000</i>
   <i name="AGGAX">      1.00000000</i>
   <i name="ALDAC">      1.00000000</i>
   <i name="AGGAC">      1.00000000</i>
   <i type="int" name="NKREDX">     1</i>
   <i type="int" name="NKREDY">     1</i>
   <i type="int" name="NKREDZ">     1</i>
   <i type="logical" name="SHIFTRED"> F  </i>
   <i type="logical" name="ODDONLY"> F  </i>
   <i type="logical" name="EVENONLY"> F  </i>
   <i type="int" name="LMAXFOCK">     0</i>
   <i type="int" name="NMAXFOCKAE">     0</i>
   <i type="logical" name="LFOCKAEDFT"> F  </i>
   <i name="HFSCREEN">      0.00000000</i>
   <i name="HFSCREENC">      0.00000000</i>
   <i type="int" name="NBANDSGWLOW">     0</i>
  </separator>
  <separator name="vdW DFT" >
   <i type="logical" name="LUSE_VDW"> F  </i>
   <i name="Zab_VDW">     -0.84910000</i>
   <i name="PARAM1">      0.12340000</i>
   <i name="PARAM2">      1.00000000</i>
   <i name="PARAM3">      0.00000000</i>
  </separator>
  <separator name="model GW" >
   <i type="int" name="MODEL_GW">     0</i>
   <i name="MODEL_EPS0">      8.89785000</i>
   <i name="MODEL_ALPHA">      1.00000000</i>
  </separator>
  <separator name="linear response parameters" >
   <i type="logical" name="LEPSILON"> F  </i>
   <i type="logical" name="LRPA"> F  </i>
   <i type="logical" name="LNABLA"> F  </i>
   <i type="logical" name="LVEL"> F  </i>
   <i name="CSHIFT">      0.10000000</i>
   <i name="OMEGAMAX">     -1.00000000</i>
   <i name="DEG_THRESHOLD">      0.00200000</i>
   <i name="RTIME">     -0.10000000</i>
   <i name="WPLASMAI">      0.00000000</i>
   <v name="DFIELD">      0.00000000      0.00000000      0.00000000</v>
   <v name="WPLASMA">      0.00000000      0.00000000      0.00000000      0.00000000      0.00000000      0.00000000      0.00000000      0.00000000      0.00000000</v>
  </separator>
  <separator name="orbital magnetization" >
   <i type="logical" name="NUCIND"> F  </i>
   <v name="MAGPOS">      0.00000000      0.00000000      0.00000000</v>
   <i type="logical" name="LNICSALL"> T  </i>
   <i type="logical" name="ORBITALMAG"> F  </i>
   <i type="logical" name="LMAGBLOCH"> F  </i>
   <i type="logical" name="LCHIMAG"> F  </i>
   <i type="logical" name="LGAUGE"> T  </i>
   <i type="int" name="MAGATOM">     0</i>
   <v name="MAGDIPOL">      0.00000000      0.00000000      0.00000000</v>
   <v name="AVECCONST">      0.00000000      0.00000000      0.00000000</v>
  </separator>
  <separator name="response functions" >
   <i type="logical" name="LFINITE_TEMPERATURE"> F  </i>
   <i type="logical" name="LADDER"> F  </i>
   <i type="logical" name="LRPAFORCE"> F  </i>
   <i type="logical" name="LFXC"> F  </i>
   <i type="logical" name="LHARTREE"> T  </i>
   <i type="int" name="IBSE">     0</i>
   <v type="int" name="KPOINT">    -1     0     0     0</v>
   <i type="logical" name="LTCTC"> F  </i>
   <i type="logical" name="LTCTE"> F  </i>
   <i type="logical" name="LTETE"> F  </i>
   <i type="logical" name="LTRIPLET"> F  </i>
   <i type="logical" name="LFXCEPS"> F  </i>
   <i type="logical" name="LFXHEG"> F  </i>
   <i type="int" name="NATURALO">     2</i>
   <i type="logical" name="LHOLEGF"> F  </i>
   <i type="logical" name="L2ORDER"> F  </i>
   <i type="logical" name="LDMP1"> F  </i>
   <i type="logical" name="LMP2LT"> F  </i>
   <i type="logical" name="LSMP2LT"> F  </i>
   <i type="logical" name="LGWLF"> F  </i>
   <i name="ENCUTGW">     -2.00000000</i>
   <i name="ENCUTGWSOFT">     -2.00000000</i>
   <i name="ENCUTLF">     -1.00000000</i>
   <i type="logical" name="LESF_SPLINES"> F  </i>
   <i type="int" name="LMAXMP2">    -1</i>
   <i name="SCISSOR">      0.00000000</i>
   <i type="int" name="NOMEGA">     0</i>
   <i type="int" name="NOMEGAR">     0</i>
   <i type="int" name="NBANDSGW">    -1</i>
   <i type="int" name="NBANDSO">    -1</i>
   <i type="int" name="NBANDSV">    -1</i>
   <i type="int" name="NELMGW">     1</i>
   <i type="int" name="NELMHF">     1</i>
   <i type="int" name="DIM">     3</i>
   <i type="int" name="IESPILON">     4</i>
   <i type="int" name="ANTIRES">     0</i>
   <i name="OMEGAMAX">    -30.00000000</i>
   <i name="OMEGAMIN">    -30.00000000</i>
   <i name="OMEGATL">   -200.00000000</i>
   <i type="int" name="OMEGAGRID">     0</i>
   <i name="CSHIFT">     -0.10000000</i>
   <i type="logical" name="LSELFENERGY"> F  </i>
   <i type="logical" name="LSPECTRAL"> F  </i>
   <i type="logical" name="LSPECTRALGW"> F  </i>
   <i type="logical" name="LSINGLES"> F  </i>
   <i type="logical" name="LFERMIGW"> F  </i>
   <i type="logical" name="ODDONLYGW"> F  </i>
   <i type="logical" name="EVENONLYGW"> F  </i>
   <i type="int" name="NKREDLFX">     1</i>
   <i type="int" name="NKREDLFY">     1</i>
   <i type="int" name="NKREDLFZ">     1</i>
   <i type="int" name="MAXMEM">  2800</i>
   <i type="int" name="TELESCOPE">     0</i>
   <i type="int" name="NTAUPAR">    -1</i>
   <i type="int" name="NOMEGAPAR">    -1</i>
   <i name="DAMP_NEWTON">      0.80000001</i>
   <i name="LAMBDA">      1.00000000</i>
  </separator>
  <separator name="External order field" >
   <i name="OFIELD_KAPPA">      0.00000000</i>
   <v name="OFIELD_K">      0.00000000      0.00000000      0.00000000</v>
   <i name="OFIELD_Q6_NEAR">      0.00000000</i>
   <i name="OFIELD_Q6_FAR">      0.00000000</i>
   <i name="OFIELD_A">      0.00000000</i>
  </separator>
  <separator name="optional k-points parameters" >
   <i type="int" name="KPOINTS_OPT_MODE">     1</i>
   <i type="logical" name="LKPOINTS_OPT"> F  </i>
  </separator>
 </parameters>
 <atominfo>
  <atoms>       1 </atoms>
  <types>       1 </types>
  <array name="atoms" >
   <dimension dim="1">ion</dimension>
   <field type="string">element</field>
   <field type="int">atomtype</field>
   <set>
    <rc><c>Ni</c><c>   1</c></rc>
   </set>
  </array>
  <array name="atomtypes" >
   <dimension dim="1">type</dimension>
   <field type="int">atomspertype</field>
   <field type="string">element</field>
   <field>mass</field>
   <field>valence</field>
   <field type="string">pseudopotential</field>
   <set>
    <rc><c>   1</c><c>Ni</c><c>     58.69000000</c><c>     10.00000000</c><c>  PAW_PBE Ni 02Aug2007                  </c></rc>
   </set>
  </array>
 </atominfo>
 <structure name="initialpos" >
  <crystal>
   <varray name="basis" >
    <v>       1.95000000       1.95000000       0.00000000 </v>
    <v>       0.00000000       1.95000000       1.95000000 </v>
    <v>       1.95000000       0.00000000       1.95000000 </v>
   </varray>
   <i name="volume">     14.82975000 </i>
   <varray name="rec_basis" >
    <v>       0.25641026       0.25641026      -0.25641026 </v>
    <v>      -0.25641026       0.25641026       0.25641026 </v>
    <v>       0.25641026      -0.25641026       0.25641026 </v>
   </varray>
  </crystal>
  <varray name="positions" >
   <v>       0.00000000       0.00000000       0.00000000 </v>
  </varray>
 </structure>
 <calculation>
  <scstep>
   <time name="dav">    0.16    0.16</time>
   <time name="total">    0.17    0.17</time>
   <energy>
    <i name="alphaZ">     34.38992633 </i>
    <i name="ewald">   -846.42356471 </i>
    <i name="hartreedc">   -291.90772916 </i>
    <i name="XCdc">     30.95345384 </i>
    <i name="pawpsdc">    962.83317360 </i>
    <i name="pawaedc">  -1029.67071227 </i>
    <i name="eentropy">     -0.00181189 </i>
    <i name="bandstr">     82.61143776 </i>
    <i name="atom">   1077.63607467 </i>
    <i name="e_fr_energy">     20.42024817 </i>
    <i name="e_wo_entrp">     20.42206006 </i>
    <i name="e_0_energy">     20.42085213 </i>
   </energy>
  </scstep>
  <scstep>
   <time name="dav">    0.15    0.15</time>
   <time name="total">    0.16    0.16</time>
   <energy>
    <i name="e_fr_energy">     -5.37682016 </i>
    <i name="e_wo_entrp">     -5.37383377 </i>
    <i name="e_0_energy">     -5.37582469 </i>
   </energy>
  </scstep>
  <scstep>
   <time name="dav">    0.18    0.18</time>
   <time name="total">    0.18    0.18</time>
   <energy>
    <i name="e_fr_energy">     -5.91013929 </i>
    <i name="e_wo_entrp">     -5.90833097 </i>
    <i name="e_0_energy">     -5.90953651 </i>
   </energy>
  </scstep>
  <scstep>
   <time name="dav">    0.17    0.17</time>
   <time name="total">    0.17    0.17</time>
   <energy>
    <i name="e_fr_energy">     -5.91314082 </i>
    <i name="e_wo_entrp">     -5.91133677 </i>
    <i name="e_0_energy">     -5.91253947 </i>
   </energy>
  </scstep>
  <scstep>
   <time name="dav">    0.17    0.17</time>
   <time name="total">    0.18    0.18</time>
   <energy>
    <i name="e_fr_energy">     -5.91319052 </i>
    <i name="e_wo_entrp">     -5.91138649 </i>
    <i name="e_0_energy">     -5.91258918 </i>
   </energy>
  </scstep>
  <scstep>
   <time name="dav">    0.17    0.17</time>
   <time name="total">    0.18    0.18</time>
   <energy>
    <i name="e_fr_energy">     -5.70322051 </i>
    <i name="e_wo_entrp">     -5.69554322 </i>
    <i name="e_0_energy">     -5.70066141 </i>
   </energy>
  </scstep>
  <scstep>
   <time name="dav">    0.17    0.17</time>
   <time name="total">    0.18    0.18</time>
   <energy>
    <i name="e_fr_energy">     -4.99553769 </i>
    <i name="e_wo_entrp">     -4.98604208 </i>
    <i name="e_0_energy">     -4.99237249 </i>
   </energy>
  </scstep>
  <scstep>
   <time name="dav">    0.16    0.16</time>
   <time name="total">    0.17    0.17</time>
   <energy>
    <i name="e_fr_energy">     -4.99127325 </i>
    <i name="e_wo_entrp">     -4.98194982 </i>
    <i name="e_0_energy">     -4.98816544 </i>
   </energy>
  </scstep>
  <scstep>
   <time name="dav">    0.19    0.19</time>
   <time name="total">    0.20    0.20</time>
   <energy>
    <i name="e_fr_energy">     -4.98938565 </i>
    <i name="e_wo_entrp">     -4.98014654 </i>
    <i name="e_0_energy">     -4.98630595 </i>
   </energy>
  </scstep>
  <scstep>
   <time name="dav">    0.16    0.16</time>
   <time name="total">    0.17    0.17</time>
   <energy>
    <i name="e_fr_energy">     -4.98881709 </i>
    <i name="e_wo_entrp">     -4.97955957 </i>
    <i name="e_0_energy">     -4.98573125 </i>
   </energy>
  </scstep>
  <scstep>
   <time name="dav">    0.12    0.12</time>
   <time name="total">    0.13    0.13</time>
   <energy>
    <i name="alphaZ">     34.38992633 </i>
    <i name="ewald">   -846.42356471 </i>
    <i name="hartreedc">   -273.28913916 </i>
    <i name="XCdc">     30.07303818 </i>
    <i name="pawpsdc">   1021.96719611 </i>
    <i name="pawaedc">  -1089.30006475 </i>
    <i name="eentropy">     -0.00925663 </i>
    <i name="bandstr">     39.96697317 </i>
    <i name="atom">   1077.63607467 </i>
    <i name="e_fr_energy">     -4.98881678 </i>
    <i name="e_wo_entrp">     -4.97956015 </i>
    <i name="e_0_energy">     -4.98573124 </i>
   </energy>
  </scstep>
  <structure>
   <crystal>
    <varray name="basis" >
     <v>       1.95000000       1.95000000       0.00000000 </v>
     <v>       0.00000000       1.95000000       1.95000000 </v>
     <v>       1.95000000       0.00000000       1.95000000 </v>
    </varray>
    <i name="volume">     14.82975000 </i>
    <varray name="rec_basis" >
     <v>       0.25641026       0.25641026      -0.25641026 </v>
     <v>      -0.25641026       0.25641026       0.25641026 </v>
     <v>       0.25641026      -0.25641026       0.25641026 </v>
    </varray>
   </crystal>
   <varray name="positions" >
    <v>       0.00000000       0.00000000       0.00000000 </v>
   </varray>
  </structure>
  <varray name="forces" >
   <v>      -0.00000000       0.00000000      -0.00000000 </v>
  </varray>
  <varray name="stress" >
   <v>    -309.30143603       0.00000000      -0.00000000 </v>
   <v>       0.00000000    -309.30143603      -0.00000000 </v>
   <v>       0.00000000       0.00000000    -309.30143603 </v>
  </varray>
  <energy>
   <i name="e_fr_energy">     -4.98881678 </i>
   <i name="e_wo_entrp">     -4.97956015 </i>
   <i name="e_0_energy">     -4.98573124 </i>
  </energy>
  <time name="totalsc">    2.00    2.01</time>
  <eigenvalues>
   <array>
    <dimension dim="1">band</dimension>
    <dimension dim="2">kpoint</dimension>
    <dimension dim="3">spin</dimension>
    <field>eigene</field>
    <field>occ</field>
    <set>
     <set comment="spin 1">
      <set comment="kpoint 1">
       <r>   -1.4106    1.0000 </r>
       <r>    3.7931    1.0000 </r>
       <r>    3.7931    1.0000 </r>
       <r>    3.7931    1.0000 </r>
       <r>    4.5576    1.0000 </r>
       <r>    4.5576    1.0000 </r>
       <r>   26.7376    0.0000 </r>
       <r>   28.2876    0.0000 </r>
       <r>   28.2876    0.0000 </r>
       <r>   28.2877    0.0000 </r>
       <r>   30.8107    0.0000 </r>
       <r>   30.8108    0.0000 </r>
      </set>
      <set comment="kpoint 2">
       <r>   -1.1533    1.0000 </r>
       <r>    3.7485    1.0000 </r>
       <r>    3.8384    1.0000 </r>
       <r>    3.8384    1.0000 </r>
       <r>    4.5459    1.0000 </r>
       <r>    4.5459    1.0000 </r>
       <r>   24.4746    0.0000 </r>
       <r>   27.1515    0.0000 </r>
       <r>   27.6379    0.0000 </r>
       <r>   27.6379    0.0000 </r>
       <r>   31.8814    0.0000 </r>
       <r>   31.8815    0.0000 </r>
      </set>
      <set comment="kpoint 3">
       <r>   -0.4064    1.0000 </r>
       <r>    3.6508    1.0000 </r>
       <r>    3.9236    1.0000 </r>
       <r>    3.9236    1.0000 </r>
       <r>    4.5375    1.0000 </r>
       <r>    4.5375    1.0000 </r>
       <r>   20.2553    0.0000 </r>
       <r>   26.7093    0.0000 </r>
       <r>   26.7093    0.0000 </r>
       <r>   26.8729    0.0000 </r>
       <r>   32.3501    0.0000 </r>
       <r>   32.9165    0.0000 </r>
      </set>
      <set comment="kpoint 4">
       <r>    0.7117    1.0000 </r>
       <r>    3.6506    1.0000 </r>
       <r>    3.9442    1.0000 </r>
       <r>    3.9442    1.0000 </r>
       <r>    4.6313    1.0000 </r>
       <r>    4.6313    1.0000 </r>
       <r>   16.2722    0.0000 </r>
       <r>   26.0123    0.0000 </r>
       <r>   26.0124    0.0000 </r>
       <r>   26.3666    0.0000 </r>
       <r>   30.9862    0.0000 </r>
       <r>   30.9863    0.0000 </r>
      </set>
      <set comment="kpoint 5">
       <r>    1.7593    1.0000 </r>
       <r>    3.8916    1.0000 </r>
       <r>    3.8917    1.0000 </r>
       <r>    4.1767    1.0000 </r>
       <r>    4.8044    1.0000 </r>
       <r>    4.8044    1.0000 </r>
       <r>   12.7195    0.0000 </r>
       <r>   25.5845    0.0000 </r>
       <r>   25.5847    0.0000 </r>
       <r>   25.7919    0.0000 </r>
       <r>   29.4828    0.0000 </r>
       <r>   29.4830    0.0000 </r>
      </set>
      <set comment="kpoint 6">
       <r>    2.1559    1.0000 </r>
       <r>    3.8431    1.0000 </r>
       <r>    3.8431    1.0000 </r>
       <r>    4.9289    1.0000 </r>
       <r>    4.9289    1.0000 </r>
       <r>    5.5321    0.9246 </r>
       <r>    9.9640   -0.0000 </r>
       <r>   25.3906    0.0000 </r>
       <r>   25.3909    0.0000 </r>
       <r>   25.4334    0.0000 </r>
       <r>   28.6753    0.0000 </r>
       <r>   28.6757    0.0000 </r>
      </set>
      <set comment="kpoint 7">
       <r>   -1.0678    1.0000 </r>
       <r>    3.7052    1.0000 </r>
       <r>    3.8699    1.0000 </r>
       <r>    3.8699    1.0000 </r>
       <r>    4.4792    1.0000 </r>
       <r>    4.5976    1.0000 </r>
       <r>   25.6615    0.0000 </r>
       <r>   25.9802    0.0000 </r>
       <r>   25.9802    0.0000 </r>
       <r>   27.2086    0.0000 </r>
       <r>   32.4393    0.0000 </r>
       <r>   32.6378    0.0000 </r>
      </set>
      <set comment="kpoint 8">
       <r>   -0.4841    1.0000 </r>
       <r>    3.6003    1.0000 </r>
       <r>    3.9575    1.0000 </r>
       <r>    3.9617    1.0000 </r>
       <r>    4.4153    1.0000 </r>
       <r>    4.6269    1.0000 </r>
       <r>   21.8265    0.0000 </r>
       <r>   24.6975    0.0000 </r>
       <r>   25.6144    0.0000 </r>
       <r>   28.3374    0.0000 </r>
       <r>   29.7172    0.0000 </r>
       <r>   32.7251    0.0000 </r>
      </set>
      <set comment="kpoint 9">
       <r>    0.5207    1.0000 </r>
       <r>    3.5217    1.0000 </r>
       <r>    3.9669    1.0000 </r>
       <r>    4.0180    1.0000 </r>
       <r>    4.5169    1.0000 </r>
       <r>    4.7088    1.0000 </r>
       <r>   17.7455    0.0000 </r>
       <r>   23.8484    0.0000 </r>
       <r>   25.1081    0.0000 </r>
       <r>   27.1853    0.0000 </r>
       <r>   30.3893    0.0000 </r>
       <r>   32.4836    0.0000 </r>
      </set>
      <set comment="kpoint 10">
       <r>    1.6469    1.0000 </r>
       <r>    3.6891    1.0000 </r>
       <r>    3.8711    1.0000 </r>
       <r>    3.9894    1.0000 </r>
       <r>    4.8469    1.0000 </r>
       <r>    4.8883    1.0000 </r>
       <r>   14.0242    0.0000 </r>
       <r>   23.4712    0.0000 </r>
       <r>   24.6447    0.0000 </r>
       <r>   25.3131    0.0000 </r>
       <r>   31.0597    0.0000 </r>
       <r>   32.2087    0.0000 </r>
      </set>
      <set comment="kpoint 11">
       <r>    2.2284    1.0000 </r>
       <r>    3.7888    1.0000 </r>
       <r>    3.9339    1.0000 </r>
       <r>    4.2519    1.0000 </r>
       <r>    4.9453    1.0000 </r>
       <r>    5.7803    0.0666 </r>
       <r>   10.8806   -0.0000 </r>
       <r>   23.4972    0.0000 </r>
       <r>   23.6137    0.0000 </r>
       <r>   24.8536    0.0000 </r>
       <r>   30.8600    0.0000 </r>
       <r>   30.8716    0.0000 </r>
      </set>
      <set comment="kpoint 12">
       <r>    2.3157    1.0000 </r>
       <r>    3.7711    1.0000 </r>
       <r>    3.9103    1.0000 </r>
       <r>    4.4787    1.0000 </r>
       <r>    4.9175    1.0000 </r>
       <r>    6.5636   -0.0000 </r>
       <r>    9.5674   -0.0000 </r>
       <r>   22.4967    0.0000 </r>
       <r>   24.3183    0.0000 </r>
       <r>   25.1127    0.0000 </r>
       <r>   29.9589    0.0000 </r>
       <r>   30.8000    0.0000 </r>
      </set>
      <set comment="kpoint 13">
       <r>    2.1178    1.0000 </r>
       <r>    3.8179    1.0000 </r>
       <r>    3.9392    1.0000 </r>
       <r>    4.1361    1.0000 </r>
       <r>    4.7628    1.0000 </r>
       <r>    5.4795    1.0065 </r>
       <r>   11.8443    0.0000 </r>
       <r>   22.0026    0.0000 </r>
       <r>   25.5845    0.0000 </r>
       <r>   25.8171    0.0000 </r>
       <r>   29.5018    0.0000 </r>
       <r>   30.8060    0.0000 </r>
      </set>
      <set comment="kpoint 14">
       <r>    1.2998    1.0000 </r>
       <r>    3.6100    1.0000 </r>
       <r>    3.9131    1.0000 </r>
       <r>    4.0019    1.0000 </r>
       <r>    4.5464    1.0000 </r>
       <r>    4.9488    1.0000 </r>
       <r>   15.2206    0.0000 </r>
       <r>   22.0031    0.0000 </r>
       <r>   26.9387    0.0000 </r>
       <r>   27.3165    0.0000 </r>
       <r>   29.5207    0.0000 </r>
       <r>   30.6200    0.0000 </r>
      </set>
      <set comment="kpoint 15">
       <r>    0.1492    1.0000 </r>
       <r>    3.5627    1.0000 </r>
       <r>    3.9587    1.0000 </r>
       <r>    4.0055    1.0000 </r>
       <r>    4.4190    1.0000 </r>
       <r>    4.7067    1.0000 </r>
       <r>   19.0791    0.0000 </r>
       <r>   22.4595    0.0000 </r>
       <r>   28.1908    0.0000 </r>
       <r>   28.9678    0.0000 </r>
       <r>   30.2436    0.0000 </r>
       <r>   30.4189    0.0000 </r>
      </set>
      <set comment="kpoint 16">
       <r>   -0.7321    1.0000 </r>
       <r>    3.6665    1.0000 </r>
       <r>    3.9010    1.0000 </r>
       <r>    3.9116    1.0000 </r>
       <r>    4.4634    1.0000 </r>
       <r>    4.5945    1.0000 </r>
       <r>   23.0316    0.0000 </r>
       <r>   23.5607    0.0000 </r>
       <r>   28.1772    0.0000 </r>
       <r>   29.2242    0.0000 </r>
       <r>   31.0036    0.0000 </r>
       <r>   31.2014    0.0000 </r>
      </set>
      <set comment="kpoint 17">
       <r>   -0.0784    1.0000 </r>
       <r>    3.4681    1.0000 </r>
       <r>    4.0852    1.0000 </r>
       <r>    4.0852    1.0000 </r>
       <r>    4.2879    1.0000 </r>
       <r>    4.6884    1.0000 </r>
       <r>   23.1275    0.0000 </r>
       <r>   23.1275    0.0000 </r>
       <r>   24.1552    0.0000 </r>
       <r>   25.3704    0.0000 </r>
       <r>   27.2269    0.0000 </r>
       <r>   36.2744    0.0000 </r>
      </set>
      <set comment="kpoint 18">
       <r>    0.7530    1.0000 </r>
       <r>    3.3364    1.0000 </r>
       <r>    4.0429    1.0000 </r>
       <r>    4.1994    1.0000 </r>
       <r>    4.4479    1.0000 </r>
       <r>    4.7635    1.0000 </r>
       <r>   19.5634    0.0000 </r>
       <r>   22.0474    0.0000 </r>
       <r>   23.8523    0.0000 </r>
       <r>   24.5346    0.0000 </r>
       <r>   27.1499    0.0000 </r>
       <r>   36.0549    0.0000 </r>
      </set>
      <set comment="kpoint 19">
       <r>    1.7959    1.0000 </r>
       <r>    3.3008    1.0000 </r>
       <r>    3.8680    1.0000 </r>
       <r>    4.2134    1.0000 </r>
       <r>    4.8831    1.0000 </r>
       <r>    5.0090    1.0000 </r>
       <r>   15.7491    0.0000 </r>
       <r>   21.4990    0.0000 </r>
       <r>   21.9880    0.0000 </r>
       <r>   24.0766    0.0000 </r>
       <r>   29.9476    0.0000 </r>
       <r>   35.1879    0.0000 </r>
      </set>
      <set comment="kpoint 20">
       <r>    2.4802    1.0000 </r>
       <r>    3.4975    1.0000 </r>
       <r>    3.7878    1.0000 </r>
       <r>    4.1651    1.0000 </r>
       <r>    4.9657    1.0000 </r>
       <r>    6.1434   -0.0015 </r>
       <r>   12.3467    0.0000 </r>
       <r>   20.3049    0.0000 </r>
       <r>   21.5433    0.0000 </r>
       <r>   24.0208    0.0000 </r>
       <r>   33.1466    0.0000 </r>
       <r>   33.9996    0.0000 </r>
      </set>
      <set comment="kpoint 21">
       <r>    2.6414    1.0000 </r>
       <r>    3.5756    1.0000 </r>
       <r>    3.9483    1.0000 </r>
       <r>    4.1209    1.0000 </r>
       <r>    4.9186    1.0000 </r>
       <r>    7.7639   -0.0000 </r>
       <r>    9.8459   -0.0000 </r>
       <r>   19.0639    0.0000 </r>
       <r>   22.2059    0.0000 </r>
       <r>   24.2931    0.0000 </r>
       <r>   32.9102    0.0000 </r>
       <r>   33.4949    0.0000 </r>
      </set>
      <set comment="kpoint 22">
       <r>    2.6037    1.0000 </r>
       <r>    3.6377    1.0000 </r>
       <r>    3.8465    1.0000 </r>
       <r>    4.1196    1.0000 </r>
       <r>    4.7410    1.0000 </r>
       <r>    6.7780   -0.0000 </r>
       <r>   11.3771    0.0000 </r>
       <r>   18.3241    0.0000 </r>
       <r>   23.4708    0.0000 </r>
       <r>   24.9615    0.0000 </r>
       <r>   32.2523    0.0000 </r>
       <r>   32.8506    0.0000 </r>
      </set>
      <set comment="kpoint 23">
       <r>    2.1389    1.0000 </r>
       <r>    3.4938    1.0000 </r>
       <r>    3.7772    1.0000 </r>
       <r>    4.1716    1.0000 </r>
       <r>    4.4830    1.0000 </r>
       <r>    5.5974    0.7298 </r>
       <r>   14.5976    0.0000 </r>
       <r>   18.1069    0.0000 </r>
       <r>   25.2707    0.0000 </r>
       <r>   26.0807    0.0000 </r>
       <r>   31.8781    0.0000 </r>
       <r>   32.0314    0.0000 </r>
      </set>
      <set comment="kpoint 24">
       <r>    1.1014    1.0000 </r>
       <r>    3.4504    1.0000 </r>
       <r>    3.9071    1.0000 </r>
       <r>    4.1810    1.0000 </r>
       <r>    4.3108    1.0000 </r>
       <r>    5.0214    1.0000 </r>
       <r>   18.1046    0.0000 </r>
       <r>   18.5974    0.0000 </r>
       <r>   27.4993    0.0000 </r>
       <r>   27.6139    0.0000 </r>
       <r>   30.4382    0.0000 </r>
       <r>   31.9718    0.0000 </r>
      </set>
      <set comment="kpoint 25">
       <r>    1.3425    1.0000 </r>
       <r>    3.1653    1.0000 </r>
       <r>    4.2479    1.0000 </r>
       <r>    4.4051    1.0000 </r>
       <r>    4.4051    1.0000 </r>
       <r>    4.8096    1.0000 </r>
       <r>   20.7175    0.0000 </r>
       <r>   20.7175    0.0000 </r>
       <r>   21.4534    0.0000 </r>
       <r>   23.0348    0.0000 </r>
       <r>   24.7334    0.0000 </r>
       <r>   39.9126    0.0000 </r>
      </set>
      <set comment="kpoint 26">
       <r>    2.0785    1.0000 </r>
       <r>    3.0532    1.0000 </r>
       <r>    4.1619    1.0000 </r>
       <r>    4.5045    1.0000 </r>
       <r>    4.9033    1.0000 </r>
       <r>    5.0343    1.0001 </r>
       <r>   17.7709    0.0000 </r>
       <r>   19.2172    0.0000 </r>
       <r>   19.9480    0.0000 </r>
       <r>   23.3089    0.0000 </r>
       <r>   25.9336    0.0000 </r>
       <r>   39.0738    0.0000 </r>
      </set>
      <set comment="kpoint 27">
       <r>    2.6227    1.0000 </r>
       <r>    3.0703    1.0000 </r>
       <r>    4.0103    1.0000 </r>
       <r>    4.4836    1.0000 </r>
       <r>    4.9835    1.0000 </r>
       <r>    6.3914   -0.0000 </r>
       <r>   14.3104    0.0000 </r>
       <r>   17.3775    0.0000 </r>
       <r>   19.8105    0.0000 </r>
       <r>   23.3404    0.0000 </r>
       <r>   29.0314    0.0000 </r>
       <r>   37.5122    0.0000 </r>
      </set>
      <set comment="kpoint 28">
       <r>    2.8581    1.0000 </r>
       <r>    3.2249    1.0000 </r>
       <r>    3.8769    1.0000 </r>
       <r>    4.4270    1.0000 </r>
       <r>    4.9338    1.0000 </r>
       <r>    8.4191   -0.0000 </r>
       <r>   11.2678    0.0000 </r>
       <r>   15.9842    0.0000 </r>
       <r>   20.3337    0.0000 </r>
       <r>   23.5468    0.0000 </r>
       <r>   32.7359    0.0000 </r>
       <r>   36.2607    0.0000 </r>
      </set>
      <set comment="kpoint 29">
       <r>    2.9762    1.0000 </r>
       <r>    3.3821    1.0000 </r>
       <r>    3.6999    1.0000 </r>
       <r>    4.3834    1.0000 </r>
       <r>    4.7521    1.0000 </r>
       <r>    8.5552   -0.0000 </r>
       <r>   11.2292    0.0000 </r>
       <r>   15.0920    0.0000 </r>
       <r>   21.4869    0.0000 </r>
       <r>   24.0603    0.0000 </r>
       <r>   35.4113    0.0000 </r>
       <r>   35.6230    0.0000 </r>
      </set>
      <set comment="kpoint 30">
       <r>    2.8447    1.0000 </r>
       <r>    3.4722    1.0000 </r>
       <r>    3.5727    1.0000 </r>
       <r>    4.3417    1.0000 </r>
       <r>    4.5307    1.0000 </r>
       <r>    6.7427   -0.0000 </r>
       <r>   13.9598    0.0000 </r>
       <r>   15.0644    0.0000 </r>
       <r>   23.1731    0.0000 </r>
       <r>   24.9244    0.0000 </r>
       <r>   34.0151    0.0000 </r>
       <r>   34.7026    0.0000 </r>
      </set>
      <set comment="kpoint 31">
       <r>    2.3217    1.0000 </r>
       <r>    2.8952    1.0000 </r>
       <r>    4.7466    1.0000 </r>
       <r>    4.7466    1.0000 </r>
       <r>    4.9230    1.0000 </r>
       <r>    5.2571    1.0084 </r>
       <r>   16.8396    0.0000 </r>
       <r>   18.9382    0.0000 </r>
       <r>   18.9382    0.0000 </r>
       <r>   22.3515    0.0000 </r>
       <r>   23.9941    0.0000 </r>
       <r>   42.8257    0.0000 </r>
      </set>
      <set comment="kpoint 32">
       <r>    2.5247    1.0000 </r>
       <r>    2.8397    1.0000 </r>
       <r>    4.6160    1.0000 </r>
       <r>    4.7917    1.0000 </r>
       <r>    4.9898    1.0000 </r>
       <r>    6.6927   -0.0000 </r>
       <r>   14.9289    0.0000 </r>
       <r>   16.5757    0.0000 </r>
       <r>   18.5755    0.0000 </r>
       <r>   22.7723    0.0000 </r>
       <r>   25.2907    0.0000 </r>
       <r>   41.1548    0.0000 </r>
      </set>
      <set comment="kpoint 33">
       <r>    2.7322    1.0000 </r>
       <r>    2.9183    1.0000 </r>
       <r>    4.3181    1.0000 </r>
       <r>    4.7458    1.0000 </r>
       <r>    4.9567    1.0000 </r>
       <r>    8.6709   -0.0000 </r>
       <r>   13.5186    0.0000 </r>
       <r>   13.5871    0.0000 </r>
       <r>   18.9163    0.0000 </r>
       <r>   23.0263    0.0000 </r>
       <r>   28.5843    0.0000 </r>
       <r>   39.6598    0.0000 </r>
      </set>
      <set comment="kpoint 34">
       <r>    2.9333    1.0000 </r>
       <r>    3.1170    1.0000 </r>
       <r>    3.9552    1.0000 </r>
       <r>    4.6294    1.0000 </r>
       <r>    4.8237    1.0000 </r>
       <r>   10.6491   -0.0000 </r>
       <r>   10.8180   -0.0000 </r>
       <r>   13.1679    0.0000 </r>
       <r>   19.9228    0.0000 </r>
       <r>   23.4166    0.0000 </r>
       <r>   32.5686    0.0000 </r>
       <r>   38.0682    0.0000 </r>
      </set>
      <set comment="kpoint 35">
       <r>    2.4660    1.0000 </r>
       <r>    2.7362    1.0000 </r>
       <r>    4.9717    1.0000 </r>
       <r>    4.9717    1.0000 </r>
       <r>    4.9895    1.0000 </r>
       <r>    7.4210   -0.0000 </r>
       <r>   13.1534    0.0000 </r>
       <r>   17.9749    0.0000 </r>
       <r>   17.9749    0.0000 </r>
       <r>   22.0108    0.0000 </r>
       <r>   23.7053    0.0000 </r>
       <r>   43.6049    0.0000 </r>
      </set>
      <set comment="kpoint 36">
       <r>    2.5417    1.0000 </r>
       <r>    2.7610    1.0000 </r>
       <r>    4.7916    1.0000 </r>
       <r>    4.9458    1.0000 </r>
       <r>    4.9829    1.0000 </r>
       <r>    8.3848   -0.0000 </r>
       <r>   12.4762    0.0000 </r>
       <r>   16.1479    0.0000 </r>
       <r>   18.0931    0.0000 </r>
       <r>   22.6038    0.0000 </r>
       <r>   25.0997    0.0000 </r>
       <r>   42.3861    0.0000 </r>
      </set>
      <set comment="kpoint 37">
       <r>    0.2323    1.0000 </r>
       <r>    3.4778    1.0000 </r>
       <r>    3.9908    1.0000 </r>
       <r>    4.0932    1.0000 </r>
       <r>    4.3718    1.0000 </r>
       <r>    4.7315    1.0000 </r>
       <r>   20.6066    0.0000 </r>
       <r>   21.0237    0.0000 </r>
       <r>   26.7632    0.0000 </r>
       <r>   27.1439    0.0000 </r>
       <r>   28.5102    0.0000 </r>
       <r>   33.3589    0.0000 </r>
      </set>
      <set comment="kpoint 38">
       <r>    1.2887    1.0000 </r>
       <r>    3.4074    1.0000 </r>
       <r>    3.8862    1.0000 </r>
       <r>    4.1659    1.0000 </r>
       <r>    4.5058    1.0000 </r>
       <r>    4.9976    1.0000 </r>
       <r>   16.8297    0.0000 </r>
       <r>   20.2304    0.0000 </r>
       <r>   24.6363    0.0000 </r>
       <r>   27.0844    0.0000 </r>
       <r>   30.2354    0.0000 </r>
       <r>   32.1595    0.0000 </r>
      </set>
      <set comment="kpoint 39">
       <r>    2.2285    1.0000 </r>
       <r>    3.5994    1.0000 </r>
       <r>    3.7485    1.0000 </r>
       <r>    4.1206    1.0000 </r>
       <r>    4.7585    1.0000 </r>
       <r>    5.6321    0.5925 </r>
       <r>   13.2604    0.0000 </r>
       <r>   20.0995    0.0000 </r>
       <r>   22.7989    0.0000 </r>
       <r>   26.6092    0.0000 </r>
       <r>   30.4993    0.0000 </r>
       <r>   33.4843    0.0000 </r>
      </set>
      <set comment="kpoint 40">
       <r>    2.5315    1.0000 </r>
       <r>    3.6486    1.0000 </r>
       <r>    3.9944    1.0000 </r>
       <r>    4.0755    1.0000 </r>
       <r>    4.8938    1.0000 </r>
       <r>    7.0000   -0.0000 </r>
       <r>   10.3395   -0.0000 </r>
       <r>   20.4797    0.0000 </r>
       <r>   21.3940    0.0000 </r>
       <r>   26.3131    0.0000 </r>
       <r>   30.0844    0.0000 </r>
       <r>   34.1980    0.0000 </r>
      </set>
      <set comment="kpoint 41">
       <r>    1.5980    1.0000 </r>
       <r>    3.2118    1.0000 </r>
       <r>    3.9365    1.0000 </r>
       <r>    4.4049    1.0000 </r>
       <r>    4.5830    1.0000 </r>
       <r>    4.9940    1.0000 </r>
       <r>   18.5923    0.0000 </r>
       <r>   18.9716    0.0000 </r>
       <r>   21.7522    0.0000 </r>
       <r>   25.6565    0.0000 </r>
       <r>   26.9838    0.0000 </r>
       <r>   35.4243    0.0000 </r>
      </set>
      <set comment="kpoint 42">
       <r>    2.4404    1.0000 </r>
       <r>    3.1987    1.0000 </r>
       <r>    3.7730    1.0000 </r>
       <r>    4.4299    1.0000 </r>
       <r>    4.7960    1.0000 </r>
       <r>    5.7802    0.0668 </r>
       <r>   15.1117    0.0000 </r>
       <r>   18.5114    0.0000 </r>
       <r>   19.7639    0.0000 </r>
       <r>   25.9017    0.0000 </r>
       <r>   29.4488    0.0000 </r>
       <r>   34.0172    0.0000 </r>
      </set>
      <set comment="kpoint 43">
       <r>    2.8173    1.0000 </r>
       <r>    3.3544    1.0000 </r>
       <r>    3.7086    1.0000 </r>
       <r>    4.3551    1.0000 </r>
       <r>    4.9060    1.0000 </r>
       <r>    7.3718   -0.0000 </r>
       <r>   11.8758    0.0000 </r>
       <r>   18.2022    0.0000 </r>
       <r>   18.7588    0.0000 </r>
       <r>   25.9917    0.0000 </r>
       <r>   31.8631    0.0000 </r>
       <r>   33.9844    0.0000 </r>
      </set>
      <set comment="kpoint 44">
       <r>    2.9077    1.0000 </r>
       <r>    3.4106    1.0000 </r>
       <r>    3.7368    1.0000 </r>
       <r>    4.3026    1.0000 </r>
       <r>    4.8596    1.0000 </r>
       <r>    8.6808   -0.0000 </r>
       <r>   10.2043   -0.0000 </r>
       <r>   17.1084    0.0000 </r>
       <r>   19.5519    0.0000 </r>
       <r>   26.4357    0.0000 </r>
       <r>   31.5415    0.0000 </r>
       <r>   37.2861    0.0000 </r>
      </set>
      <set comment="kpoint 45">
       <r>    2.8353    1.0000 </r>
       <r>    3.4845    1.0000 </r>
       <r>    3.5395    1.0000 </r>
       <r>    4.3398    1.0000 </r>
       <r>    4.6881    1.0000 </r>
       <r>    6.8693   -0.0000 </r>
       <r>   12.9115    0.0000 </r>
       <r>   16.5295    0.0000 </r>
       <r>   20.8399    0.0000 </r>
       <r>   27.3120    0.0000 </r>
       <r>   30.9024    0.0000 </r>
       <r>   34.7273    0.0000 </r>
      </set>
      <set comment="kpoint 46">
       <r>    2.2406    1.0000 </r>
       <r>    3.3344    1.0000 </r>
       <r>    3.7136    1.0000 </r>
       <r>    4.4212    1.0000 </r>
       <r>    4.4256    1.0000 </r>
       <r>    5.6408    0.5564 </r>
       <r>   16.0709    0.0000 </r>
       <r>   16.7328    0.0000 </r>
       <r>   22.5610    0.0000 </r>
       <r>   28.5133    0.0000 </r>
       <r>   29.6676    0.0000 </r>
       <r>   32.5923    0.0000 </r>
      </set>
      <set comment="kpoint 47">
       <r>    2.5100    1.0000 </r>
       <r>    2.9689    1.0000 </r>
       <r>    4.1716    1.0000 </r>
       <r>    4.7419    1.0000 </r>
       <r>    4.8467    1.0000 </r>
       <r>    5.9862   -0.0203 </r>
       <r>   17.0854    0.0000 </r>
       <r>   17.0992    0.0000 </r>
       <r>   17.4890    0.0000 </r>
       <r>   24.6611    0.0000 </r>
       <r>   26.1067    0.0000 </r>
       <r>   37.6097    0.0000 </r>
      </set>
      <set comment="kpoint 48">
       <r>    2.7984    1.0000 </r>
       <r>    3.0151    1.0000 </r>
       <r>    4.0169    1.0000 </r>
       <r>    4.6835    1.0000 </r>
       <r>    4.9292    1.0000 </r>
       <r>    7.7035   -0.0000 </r>
       <r>   13.9918    0.0000 </r>
       <r>   15.4410    0.0000 </r>
       <r>   17.4016    0.0000 </r>
       <r>   25.2297    0.0000 </r>
       <r>   28.8750    0.0000 </r>
       <r>   36.1281    0.0000 </r>
      </set>
      <set comment="kpoint 49">
       <r>    2.9958    1.0000 </r>
       <r>    3.1570    1.0000 </r>
       <r>    3.8080    1.0000 </r>
       <r>    4.5610    1.0000 </r>
       <r>    4.8919    1.0000 </r>
       <r>    9.9560   -0.0000 </r>
       <r>   11.1278    0.0000 </r>
       <r>   14.2718    0.0000 </r>
       <r>   18.0613    0.0000 </r>
       <r>   25.6573    0.0000 </r>
       <r>   32.6070    0.0000 </r>
       <r>   34.8982    0.0000 </r>
      </set>
      <set comment="kpoint 50">
       <r>    3.1412    1.0000 </r>
       <r>    3.3009    1.0000 </r>
       <r>    3.5500    1.0000 </r>
       <r>    4.4820    1.0000 </r>
       <r>    4.7529    1.0000 </r>
       <r>    8.6798   -0.0000 </r>
       <r>   12.3738    0.0000 </r>
       <r>   14.0183    0.0000 </r>
       <r>   19.2386    0.0000 </r>
       <r>   26.4135    0.0000 </r>
       <r>   33.2131    0.0000 </r>
       <r>   35.6591    0.0000 </r>
      </set>
      <set comment="kpoint 51">
       <r>    2.6169    1.0000 </r>
       <r>    2.8263    1.0000 </r>
       <r>    4.5297    1.0000 </r>
       <r>    4.8987    1.0000 </r>
       <r>    4.9717    1.0000 </r>
       <r>    8.1121   -0.0000 </r>
       <r>   13.3536    0.0000 </r>
       <r>   16.2548    0.0000 </r>
       <r>   16.6875    0.0000 </r>
       <r>   24.1833    0.0000 </r>
       <r>   25.7313    0.0000 </r>
       <r>   39.8300    0.0000 </r>
      </set>
      <set comment="kpoint 52">
       <r>    2.7944    1.0000 </r>
       <r>    2.9436    1.0000 </r>
       <r>    4.2027    1.0000 </r>
       <r>    4.7581    1.0000 </r>
       <r>    4.9686    1.0000 </r>
       <r>    9.6151   -0.0000 </r>
       <r>   12.7907    0.0000 </r>
       <r>   13.5972    0.0000 </r>
       <r>   17.0144    0.0000 </r>
       <r>   25.0133    0.0000 </r>
       <r>   28.6866    0.0000 </r>
       <r>   37.7688    0.0000 </r>
      </set>
      <set comment="kpoint 53">
       <r>    2.9496    1.0000 </r>
       <r>    3.1926    1.0000 </r>
       <r>    3.5992    1.0000 </r>
       <r>    4.6186    1.0000 </r>
       <r>    4.7397    1.0000 </r>
       <r>    7.1373   -0.0000 </r>
       <r>   14.5701    0.0000 </r>
       <r>   15.4685    0.0000 </r>
       <r>   17.9219    0.0000 </r>
       <r>   28.6009    0.0000 </r>
       <r>   29.3023    0.0000 </r>
       <r>   33.0671    0.0000 </r>
      </set>
      <set comment="kpoint 54">
       <r>    3.1430    1.0000 </r>
       <r>    3.2624    1.0000 </r>
       <r>    3.5256    1.0000 </r>
       <r>    4.5088    1.0000 </r>
       <r>    4.8809    1.0000 </r>
       <r>    9.1462   -0.0000 </r>
       <r>   11.8123    0.0000 </r>
       <r>   15.5645    0.0000 </r>
       <r>   16.5166    0.0000 </r>
       <r>   28.8178    0.0000 </r>
       <r>   30.8257    0.0000 </r>
       <r>   34.0098    0.0000 </r>
      </set>
      <set comment="kpoint 55">
       <r>    2.9541    1.0000 </r>
       <r>    3.1014    1.0000 </r>
       <r>    3.8359    1.0000 </r>
       <r>    4.6474    1.0000 </r>
       <r>    4.9710    1.0000 </r>
       <r>    9.5695   -0.0000 </r>
       <r>   13.7471    0.0000 </r>
       <r>   14.0022    0.0000 </r>
       <r>   14.8516    0.0000 </r>
       <r>   28.0548    0.0000 </r>
       <r>   29.5673    0.0000 </r>
       <r>   34.5949    0.0000 </r>
      </set>
      <set comment="kpoint 56">
       <r>    3.0836    1.0000 </r>
       <r>    3.2856    1.0000 </r>
       <r>    3.5703    1.0000 </r>
       <r>    4.5429    1.0000 </r>
       <r>    4.9697    1.0000 </r>
       <r>   11.3977    0.0000 </r>
       <r>   11.4824    0.0000 </r>
       <r>   13.5235    0.0000 </r>
       <r>   15.2652    0.0000 </r>
       <r>   29.0924    0.0000 </r>
       <r>   32.6399    0.0000 </r>
       <r>   32.6414    0.0000 </r>
      </set>
     </set>
     <set comment="spin 2">
      <set comment="kpoint 1">
       <r>   -1.4729    1.0000 </r>
       <r>    4.6123    1.0000 </r>
       <r>    4.6123    1.0000 </r>
       <r>    4.6123    1.0000 </r>
       <r>    5.2428    1.0066 </r>
       <r>    5.2428    1.0066 </r>
       <r>   26.5069    0.0000 </r>
       <r>   28.3062    0.0000 </r>
       <r>   28.3062    0.0000 </r>
       <r>   28.3063    0.0000 </r>
       <r>   30.8539    0.0000 </r>
       <r>   30.8541    0.0000 </r>
      </set>
      <set comment="kpoint 2">
       <r>   -1.2154    1.0000 </r>
       <r>    4.5582    1.0000 </r>
       <r>    4.6593    1.0000 </r>
       <r>    4.6593    1.0000 </r>
       <r>    5.2296    1.0053 </r>
       <r>    5.2296    1.0053 </r>
       <r>   24.4590    0.0000 </r>
       <r>   27.0083    0.0000 </r>
       <r>   27.6795    0.0000 </r>
       <r>   27.6795    0.0000 </r>
       <r>   31.8898    0.0000 </r>
       <r>   31.8898    0.0000 </r>
      </set>
      <set comment="kpoint 3">
       <r>   -0.4638    1.0000 </r>
       <r>    4.4296    1.0000 </r>
       <r>    4.7326    1.0000 </r>
       <r>    4.7326    1.0000 </r>
       <r>    5.2370    1.0060 </r>
       <r>    5.2370    1.0060 </r>
       <r>   20.3105    0.0000 </r>
       <r>   26.7070    0.0000 </r>
       <r>   26.7742    0.0000 </r>
       <r>   26.7742    0.0000 </r>
       <r>   32.2497    0.0000 </r>
       <r>   32.8614    0.0000 </r>
      </set>
      <set comment="kpoint 4">
       <r>    0.6910    1.0000 </r>
       <r>    4.3483    1.0000 </r>
       <r>    4.7052    1.0000 </r>
       <r>    4.7052    1.0000 </r>
       <r>    5.3856    1.0336 </r>
       <r>    5.3856    1.0336 </r>
       <r>   16.3798    0.0000 </r>
       <r>   26.0907    0.0000 </r>
       <r>   26.0908    0.0000 </r>
       <r>   26.1875    0.0000 </r>
       <r>   30.9826    0.0000 </r>
       <r>   30.9828    0.0000 </r>
      </set>
      <set comment="kpoint 5">
       <r>    1.9355    1.0000 </r>
       <r>    4.6019    1.0000 </r>
       <r>    4.6154    1.0000 </r>
       <r>    4.6155    1.0000 </r>
       <r>    5.6041    0.7045 </r>
       <r>    5.6041    0.7045 </r>
       <r>   12.9040    0.0000 </r>
       <r>   25.5977    0.0000 </r>
       <r>   25.6665    0.0000 </r>
       <r>   25.6666    0.0000 </r>
       <r>   29.4813    0.0000 </r>
       <r>   29.4815    0.0000 </r>
      </set>
      <set comment="kpoint 6">
       <r>    2.5983    1.0000 </r>
       <r>    4.5512    1.0000 </r>
       <r>    4.5512    1.0000 </r>
       <r>    5.5310    0.9270 </r>
       <r>    5.7506    0.1399 </r>
       <r>    5.7506    0.1398 </r>
       <r>   10.3081   -0.0000 </r>
       <r>   25.2302    0.0000 </r>
       <r>   25.4705    0.0000 </r>
       <r>   25.4706    0.0000 </r>
       <r>   28.6750    0.0000 </r>
       <r>   28.6754    0.0000 </r>
      </set>
      <set comment="kpoint 7">
       <r>   -1.1299    1.0000 </r>
       <r>    4.5132    1.0000 </r>
       <r>    4.6927    1.0000 </r>
       <r>    4.6927    1.0000 </r>
       <r>    5.1559    1.0012 </r>
       <r>    5.2840    1.0126 </r>
       <r>   25.5215    0.0000 </r>
       <r>   26.0311    0.0000 </r>
       <r>   26.0311    0.0000 </r>
       <r>   27.1878    0.0000 </r>
       <r>   32.5173    0.0000 </r>
       <r>   32.6008    0.0000 </r>
      </set>
      <set comment="kpoint 8">
       <r>   -0.5436    1.0000 </r>
       <r>    4.3897    1.0000 </r>
       <r>    4.7717    1.0000 </r>
       <r>    4.7817    1.0000 </r>
       <r>    5.0962    1.0003 </r>
       <r>    5.3232    1.0206 </r>
       <r>   21.8644    0.0000 </r>
       <r>   24.7566    0.0000 </r>
       <r>   25.5368    0.0000 </r>
       <r>   28.2754    0.0000 </r>
       <r>   29.8284    0.0000 </r>
       <r>   32.7077    0.0000 </r>
      </set>
      <set comment="kpoint 9">
       <r>    0.4820    1.0000 </r>
       <r>    4.2667    1.0000 </r>
       <r>    4.7116    1.0000 </r>
       <r>    4.8026    1.0000 </r>
       <r>    5.2585    1.0086 </r>
       <r>    5.4487    1.0277 </r>
       <r>   17.8307    0.0000 </r>
       <r>   23.9109    0.0000 </r>
       <r>   25.0271    0.0000 </r>
       <r>   27.2481    0.0000 </r>
       <r>   30.3483    0.0000 </r>
       <r>   32.4671    0.0000 </r>
      </set>
      <set comment="kpoint 10">
       <r>    1.7363    1.0000 </r>
       <r>    4.2962    1.0000 </r>
       <r>    4.5825    1.0000 </r>
       <r>    4.7315    1.0000 </r>
       <r>    5.6235    0.6278 </r>
       <r>    5.6373    0.5707 </r>
       <r>   14.1691    0.0000 </r>
       <r>   23.5325    0.0000 </r>
       <r>   24.5271    0.0000 </r>
       <r>   25.4123    0.0000 </r>
       <r>   30.9838    0.0000 </r>
       <r>   32.2066    0.0000 </r>
      </set>
      <set comment="kpoint 11">
       <r>    2.6235    1.0000 </r>
       <r>    4.4452    1.0000 </r>
       <r>    4.6509    1.0000 </r>
       <r>    4.7749    1.0000 </r>
       <r>    5.7648    0.1021 </r>
       <r>    6.2454   -0.0001 </r>
       <r>   11.1392    0.0000 </r>
       <r>   23.4838    0.0000 </r>
       <r>   23.6733    0.0000 </r>
       <r>   24.8285    0.0000 </r>
       <r>   30.8072    0.0000 </r>
       <r>   30.8672    0.0000 </r>
      </set>
      <set comment="kpoint 12">
       <r>    2.8044    1.0000 </r>
       <r>    4.4408    1.0000 </r>
       <r>    4.6175    1.0000 </r>
       <r>    5.0299    1.0000 </r>
       <r>    5.7439    0.1593 </r>
       <r>    6.7743   -0.0000 </r>
       <r>    9.9523   -0.0000 </r>
       <r>   22.5151    0.0000 </r>
       <r>   24.3826    0.0000 </r>
       <r>   25.0354    0.0000 </r>
       <r>   29.9690    0.0000 </r>
       <r>   30.7543    0.0000 </r>
      </set>
      <set comment="kpoint 13">
       <r>    2.4163    1.0000 </r>
       <r>    4.5001    1.0000 </r>
       <r>    4.6195    1.0000 </r>
       <r>    4.6517    1.0000 </r>
       <r>    5.5744    0.8096 </r>
       <r>    6.1108   -0.0029 </r>
       <r>   12.0552    0.0000 </r>
       <r>   22.0337    0.0000 </r>
       <r>   25.6645    0.0000 </r>
       <r>   25.7150    0.0000 </r>
       <r>   29.5067    0.0000 </r>
       <r>   30.7732    0.0000 </r>
      </set>
      <set comment="kpoint 14">
       <r>    1.3218    1.0000 </r>
       <r>    4.2850    1.0000 </r>
       <r>    4.6322    1.0000 </r>
       <r>    4.7420    1.0000 </r>
       <r>    5.3195    1.0197 </r>
       <r>    5.7111    0.2694 </r>
       <r>   15.3433    0.0000 </r>
       <r>   22.0409    0.0000 </r>
       <r>   26.8245    0.0000 </r>
       <r>   27.4285    0.0000 </r>
       <r>   29.5018    0.0000 </r>
       <r>   30.5729    0.0000 </r>
      </set>
      <set comment="kpoint 15">
       <r>    0.0992    1.0000 </r>
       <r>    4.3274    1.0000 </r>
       <r>    4.7283    1.0000 </r>
       <r>    4.8145    1.0000 </r>
       <r>    5.1156    1.0005 </r>
       <r>    5.4420    1.0303 </r>
       <r>   19.1487    0.0000 </r>
       <r>   22.4955    0.0000 </r>
       <r>   28.0710    0.0000 </r>
       <r>   29.0901    0.0000 </r>
       <r>   30.1585    0.0000 </r>
       <r>   30.3889    0.0000 </r>
      </set>
      <set comment="kpoint 16">
       <r>   -0.7929    1.0000 </r>
       <r>    4.4632    1.0000 </r>
       <r>    4.7231    1.0000 </r>
       <r>    4.7288    1.0000 </r>
       <r>    5.1389    1.0008 </r>
       <r>    5.2908    1.0138 </r>
       <r>   23.0418    0.0000 </r>
       <r>   23.5970    0.0000 </r>
       <r>   28.0613    0.0000 </r>
       <r>   29.2697    0.0000 </r>
       <r>   30.9015    0.0000 </r>
       <r>   31.2323    0.0000 </r>
      </set>
      <set comment="kpoint 17">
       <r>   -0.1353    1.0000 </r>
       <r>    4.2478    1.0000 </r>
       <r>    4.9203    1.0000 </r>
       <r>    4.9203    1.0000 </r>
       <r>    4.9369    1.0000 </r>
       <r>    5.3801    1.0328 </r>
       <r>   23.1833    0.0000 </r>
       <r>   23.1833    0.0000 </r>
       <r>   24.1034    0.0000 </r>
       <r>   25.2810    0.0000 </r>
       <r>   27.4036    0.0000 </r>
       <r>   36.1815    0.0000 </r>
      </set>
      <set comment="kpoint 18">
       <r>    0.7144    1.0000 </r>
       <r>    4.0937    1.0000 </r>
       <r>    4.7368    1.0000 </r>
       <r>    5.0182    1.0000 </r>
       <r>    5.2149    1.0040 </r>
       <r>    5.4835    1.0024 </r>
       <r>   19.6238    0.0000 </r>
       <r>   22.0989    0.0000 </r>
       <r>   23.7880    0.0000 </r>
       <r>   24.5956    0.0000 </r>
       <r>   27.2282    0.0000 </r>
       <r>   35.9402    0.0000 </r>
      </set>
      <set comment="kpoint 19">
       <r>    1.8493    1.0000 </r>
       <r>    4.0032    1.0000 </r>
       <r>    4.5462    1.0000 </r>
       <r>    4.9835    1.0000 </r>
       <r>    5.6621    0.4662 </r>
       <r>    5.7191    0.2404 </r>
       <r>   15.8512    0.0000 </r>
       <r>   21.5454    0.0000 </r>
       <r>   22.0058    0.0000 </r>
       <r>   24.1032    0.0000 </r>
       <r>   29.9782    0.0000 </r>
       <r>   35.0737    0.0000 </r>
      </set>
      <set comment="kpoint 20">
       <r>    2.8270    1.0000 </r>
       <r>    4.0442    1.0000 </r>
       <r>    4.4827    1.0000 </r>
       <r>    4.8992    1.0000 </r>
       <r>    5.7843    0.0584 </r>
       <r>    6.6409   -0.0000 </r>
       <r>   12.5165    0.0000 </r>
       <r>   20.3480    0.0000 </r>
       <r>   21.5875    0.0000 </r>
       <r>   24.0210    0.0000 </r>
       <r>   33.1551    0.0000 </r>
       <r>   33.9932    0.0000 </r>
      </set>
      <set comment="kpoint 21">
       <r>    3.1785    1.0000 </r>
       <r>    4.1130    1.0000 </r>
       <r>    4.6031    1.0000 </r>
       <r>    4.8339    1.0000 </r>
       <r>    5.7531    0.1328 </r>
       <r>    7.9768   -0.0000 </r>
       <r>   10.1712   -0.0000 </r>
       <r>   19.1187    0.0000 </r>
       <r>   22.2547    0.0000 </r>
       <r>   24.2678    0.0000 </r>
       <r>   32.9122    0.0000 </r>
       <r>   33.4235    0.0000 </r>
      </set>
      <set comment="kpoint 22">
       <r>    3.0442    1.0000 </r>
       <r>    4.2155    1.0000 </r>
       <r>    4.4648    1.0000 </r>
       <r>    4.8225    1.0000 </r>
       <r>    5.5723    0.8162 </r>
       <r>    7.2039   -0.0000 </r>
       <r>   11.5912    0.0000 </r>
       <r>   18.3872    0.0000 </r>
       <r>   23.5308    0.0000 </r>
       <r>   24.9131    0.0000 </r>
       <r>   32.2601    0.0000 </r>
       <r>   32.7735    0.0000 </r>
      </set>
      <set comment="kpoint 23">
       <r>    2.2594    1.0000 </r>
       <r>    4.1778    1.0000 </r>
       <r>    4.4352    1.0000 </r>
       <r>    4.8749    1.0000 </r>
       <r>    5.2993    1.0154 </r>
       <r>    6.2863   -0.0000 </r>
       <r>   14.7249    0.0000 </r>
       <r>   18.1764    0.0000 </r>
       <r>   25.3441    0.0000 </r>
       <r>   26.0151    0.0000 </r>
       <r>   31.7744    0.0000 </r>
       <r>   32.0438    0.0000 </r>
      </set>
      <set comment="kpoint 24">
       <r>    1.0810    1.0000 </r>
       <r>    4.1978    1.0000 </r>
       <r>    4.6179    1.0000 </r>
       <r>    4.9703    1.0000 </r>
       <r>    5.0311    1.0000 </r>
       <r>    5.7796    0.0681 </r>
       <r>   18.1923    0.0000 </r>
       <r>   18.6595    0.0000 </r>
       <r>   27.5358    0.0000 </r>
       <r>   27.5868    0.0000 </r>
       <r>   30.3151    0.0000 </r>
       <r>   32.0073    0.0000 </r>
      </set>
      <set comment="kpoint 25">
       <r>    1.3379    1.0000 </r>
       <r>    3.9102    1.0000 </r>
       <r>    4.8074    1.0000 </r>
       <r>    5.2622    1.0091 </r>
       <r>    5.2622    1.0091 </r>
       <r>    5.5085    0.9693 </r>
       <r>   20.7571    0.0000 </r>
       <r>   20.7571    0.0000 </r>
       <r>   21.4740    0.0000 </r>
       <r>   23.0475    0.0000 </r>
       <r>   24.8390    0.0000 </r>
       <r>   39.7784    0.0000 </r>
      </set>
      <set comment="kpoint 26">
       <r>    2.1904    1.0000 </r>
       <r>    3.7775    1.0000 </r>
       <r>    4.7682    1.0000 </r>
       <r>    5.3156    1.0189 </r>
       <r>    5.6629    0.4627 </r>
       <r>    5.7205    0.2354 </r>
       <r>   17.8294    0.0000 </r>
       <r>   19.2792    0.0000 </r>
       <r>   19.9766    0.0000 </r>
       <r>   23.3440    0.0000 </r>
       <r>   25.9940    0.0000 </r>
       <r>   39.0258    0.0000 </r>
      </set>
      <set comment="kpoint 27">
       <r>    2.9550    1.0000 </r>
       <r>    3.7377    1.0000 </r>
       <r>    4.6589    1.0000 </r>
       <r>    5.2407    1.0064 </r>
       <r>    5.8029    0.0258 </r>
       <r>    6.8367   -0.0000 </r>
       <r>   14.4101    0.0000 </r>
       <r>   17.4598    0.0000 </r>
       <r>   19.8348    0.0000 </r>
       <r>   23.3763    0.0000 </r>
       <r>   29.0667    0.0000 </r>
       <r>   37.4826    0.0000 </r>
      </set>
      <set comment="kpoint 28">
       <r>    3.4130    1.0000 </r>
       <r>    3.7612    1.0000 </r>
       <r>    4.5634    1.0000 </r>
       <r>    5.1479    1.0010 </r>
       <r>    5.7825    0.0621 </r>
       <r>    8.6707   -0.0000 </r>
       <r>   11.4421    0.0000 </r>
       <r>   16.0812    0.0000 </r>
       <r>   20.3640    0.0000 </r>
       <r>   23.5666    0.0000 </r>
       <r>   32.7586    0.0000 </r>
       <r>   36.2371    0.0000 </r>
      </set>
      <set comment="kpoint 29">
       <r>    3.5598    1.0000 </r>
       <r>    3.8714    1.0000 </r>
       <r>    4.3910    1.0000 </r>
       <r>    5.0711    1.0001 </r>
       <r>    5.6171    0.6537 </r>
       <r>    8.8200   -0.0000 </r>
       <r>   11.4173    0.0000 </r>
       <r>   15.1990    0.0000 </r>
       <r>   21.5311    0.0000 </r>
       <r>   24.0552    0.0000 </r>
       <r>   35.3860    0.0000 </r>
       <r>   35.5293    0.0000 </r>
      </set>
      <set comment="kpoint 30">
       <r>    3.1744    1.0000 </r>
       <r>    4.1528    1.0000 </r>
       <r>    4.1758    1.0000 </r>
       <r>    4.9985    1.0000 </r>
       <r>    5.4076    1.0354 </r>
       <r>    7.2369   -0.0000 </r>
       <r>   14.0893    0.0000 </r>
       <r>   15.1685    0.0000 </r>
       <r>   23.2326    0.0000 </r>
       <r>   24.8911    0.0000 </r>
       <r>   33.8909    0.0000 </r>
       <r>   34.6603    0.0000 </r>
      </set>
      <set comment="kpoint 31">
       <r>    2.5791    1.0000 </r>
       <r>    3.6101    1.0000 </r>
       <r>    5.5000    0.9821 </r>
       <r>    5.6286    0.6071 </r>
       <r>    5.6328    0.5899 </r>
       <r>    5.6328    0.5899 </r>
       <r>   16.9358    0.0000 </r>
       <r>   18.9494    0.0000 </r>
       <r>   18.9494    0.0000 </r>
       <r>   22.4080    0.0000 </r>
       <r>   24.0858    0.0000 </r>
       <r>   42.7680    0.0000 </r>
      </set>
      <set comment="kpoint 32">
       <r>    2.9057    1.0000 </r>
       <r>    3.5411    1.0000 </r>
       <r>    5.3605    1.0290 </r>
       <r>    5.5627    0.8456 </r>
       <r>    5.8216    0.0010 </r>
       <r>    6.9315   -0.0000 </r>
       <r>   15.0605    0.0000 </r>
       <r>   16.6154    0.0000 </r>
       <r>   18.5777    0.0000 </r>
       <r>   22.8307    0.0000 </r>
       <r>   25.3589    0.0000 </r>
       <r>   41.1013    0.0000 </r>
      </set>
      <set comment="kpoint 33">
       <r>    3.1999    1.0000 </r>
       <r>    3.5846    1.0000 </r>
       <r>    5.0394    1.0001 </r>
       <r>    5.4638    1.0193 </r>
       <r>    5.8342   -0.0115 </r>
       <r>    8.8325   -0.0000 </r>
       <r>   13.6172    0.0000 </r>
       <r>   13.7395    0.0000 </r>
       <r>   18.9240    0.0000 </r>
       <r>   23.0782    0.0000 </r>
       <r>   28.6245    0.0000 </r>
       <r>   39.5962    0.0000 </r>
      </set>
      <set comment="kpoint 34">
       <r>    3.5075    1.0000 </r>
       <r>    3.6793    1.0000 </r>
       <r>    4.6555    1.0000 </r>
       <r>    5.3053    1.0167 </r>
       <r>    5.7235    0.2252 </r>
       <r>   10.7789   -0.0000 </r>
       <r>   10.9724   -0.0000 </r>
       <r>   13.3445    0.0000 </r>
       <r>   19.9478    0.0000 </r>
       <r>   23.4454    0.0000 </r>
       <r>   32.5943    0.0000 </r>
       <r>   37.9938    0.0000 </r>
      </set>
      <set comment="kpoint 35">
       <r>    2.8879    1.0000 </r>
       <r>    3.4346    1.0000 </r>
       <r>    5.6992    0.3145 </r>
       <r>    5.8819   -0.0342 </r>
       <r>    5.8819   -0.0342 </r>
       <r>    7.3982   -0.0000 </r>
       <r>   13.3485    0.0000 </r>
       <r>   17.9622    0.0000 </r>
       <r>   17.9622    0.0000 </r>
       <r>   22.0907    0.0000 </r>
       <r>   23.8053    0.0000 </r>
       <r>   43.5270    0.0000 </r>
      </set>
      <set comment="kpoint 36">
       <r>    2.9844    1.0000 </r>
       <r>    3.4545    1.0000 </r>
       <r>    5.6170    0.6543 </r>
       <r>    5.6506    0.5147 </r>
       <r>    5.8952   -0.0354 </r>
       <r>    8.3885   -0.0000 </r>
       <r>   12.7108    0.0000 </r>
       <r>   16.1771    0.0000 </r>
       <r>   18.0828    0.0000 </r>
       <r>   22.6711    0.0000 </r>
       <r>   25.1729    0.0000 </r>
       <r>   42.2981    0.0000 </r>
      </set>
      <set comment="kpoint 37">
       <r>    0.1813    1.0000 </r>
       <r>    4.2484    1.0000 </r>
       <r>    4.7448    1.0000 </r>
       <r>    4.9319    1.0000 </r>
       <r>    5.0574    1.0001 </r>
       <r>    5.4593    1.0222 </r>
       <r>   20.6614    0.0000 </r>
       <r>   21.0712    0.0000 </r>
       <r>   26.7117    0.0000 </r>
       <r>   27.0874    0.0000 </r>
       <r>   28.6620    0.0000 </r>
       <r>   33.2651    0.0000 </r>
      </set>
      <set comment="kpoint 38">
       <r>    1.2836    1.0000 </r>
       <r>    4.1384    1.0000 </r>
       <r>    4.5870    1.0000 </r>
       <r>    4.9341    1.0000 </r>
       <r>    5.2556    1.0082 </r>
       <r>    5.7545    0.1288 </r>
       <r>   16.9235    0.0000 </r>
       <r>   20.2827    0.0000 </r>
       <r>   24.6440    0.0000 </r>
       <r>   27.0884    0.0000 </r>
       <r>   30.2492    0.0000 </r>
       <r>   32.1098    0.0000 </r>
      </set>
      <set comment="kpoint 39">
       <r>    2.4399    1.0000 </r>
       <r>    4.1832    1.0000 </r>
       <r>    4.4485    1.0000 </r>
       <r>    4.8444    1.0000 </r>
       <r>    5.5544    0.8694 </r>
       <r>    6.2733   -0.0001 </r>
       <r>   13.4148    0.0000 </r>
       <r>   20.1478    0.0000 </r>
       <r>   22.8282    0.0000 </r>
       <r>   26.5946    0.0000 </r>
       <r>   30.4825    0.0000 </r>
       <r>   33.4457    0.0000 </r>
      </set>
      <set comment="kpoint 40">
       <r>    3.0213    1.0000 </r>
       <r>    4.2299    1.0000 </r>
       <r>    4.6151    1.0000 </r>
       <r>    4.7787    1.0000 </r>
       <r>    5.7222    0.2295 </r>
       <r>    7.3163   -0.0000 </r>
       <r>   10.6214   -0.0000 </r>
       <r>   20.5191    0.0000 </r>
       <r>   21.4368    0.0000 </r>
       <r>   26.2778    0.0000 </r>
       <r>   30.0876    0.0000 </r>
       <r>   34.1288    0.0000 </r>
      </set>
      <set comment="kpoint 41">
       <r>    1.6115    1.0000 </r>
       <r>    3.9506    1.0000 </r>
       <r>    4.6020    1.0000 </r>
       <r>    5.2592    1.0087 </r>
       <r>    5.2638    1.0093 </r>
       <r>    5.7453    0.1550 </r>
       <r>   18.6633    0.0000 </r>
       <r>   19.0216    0.0000 </r>
       <r>   21.7899    0.0000 </r>
       <r>   25.6369    0.0000 </r>
       <r>   27.0634    0.0000 </r>
       <r>   35.3620    0.0000 </r>
      </set>
      <set comment="kpoint 42">
       <r>    2.6225    1.0000 </r>
       <r>    3.8910    1.0000 </r>
       <r>    4.4335    1.0000 </r>
       <r>    5.1762    1.0019 </r>
       <r>    5.5849    0.7745 </r>
       <r>    6.3884   -0.0000 </r>
       <r>   15.2138    0.0000 </r>
       <r>   18.5660    0.0000 </r>
       <r>   19.8205    0.0000 </r>
       <r>   25.9041    0.0000 </r>
       <r>   29.4788    0.0000 </r>
       <r>   33.9830    0.0000 </r>
      </set>
      <set comment="kpoint 43">
       <r>    3.2953    1.0000 </r>
       <r>    3.8995    1.0000 </r>
       <r>    4.3958    1.0000 </r>
       <r>    5.0713    1.0001 </r>
       <r>    5.7448    0.1566 </r>
       <r>    7.7268   -0.0000 </r>
       <r>   12.0449    0.0000 </r>
       <r>   18.2707    0.0000 </r>
       <r>   18.8102    0.0000 </r>
       <r>   25.9869    0.0000 </r>
       <r>   31.8476    0.0000 </r>
       <r>   33.9968    0.0000 </r>
      </set>
      <set comment="kpoint 44">
       <r>    3.4873    1.0000 </r>
       <r>    3.9118    1.0000 </r>
       <r>    4.4197    1.0000 </r>
       <r>    5.0022    1.0000 </r>
       <r>    5.7127    0.2637 </r>
       <r>    8.8845   -0.0000 </r>
       <r>   10.4752   -0.0000 </r>
       <r>   17.1844    0.0000 </r>
       <r>   19.6020    0.0000 </r>
       <r>   26.4199    0.0000 </r>
       <r>   31.5193    0.0000 </r>
       <r>   37.2824    0.0000 </r>
      </set>
      <set comment="kpoint 45">
       <r>    3.2117    1.0000 </r>
       <r>    4.0596    1.0000 </r>
       <r>    4.2331    1.0000 </r>
       <r>    5.0287    1.0000 </r>
       <r>    5.5341    0.9200 </r>
       <r>    7.3250   -0.0000 </r>
       <r>   13.0612    0.0000 </r>
       <r>   16.6111    0.0000 </r>
       <r>   20.8859    0.0000 </r>
       <r>   27.2942    0.0000 </r>
       <r>   30.8639    0.0000 </r>
       <r>   34.7628    0.0000 </r>
      </set>
      <set comment="kpoint 46">
       <r>    2.3398    1.0000 </r>
       <r>    4.0568    1.0000 </r>
       <r>    4.3740    1.0000 </r>
       <r>    5.0718    1.0002 </r>
       <r>    5.2910    1.0138 </r>
       <r>    6.3211   -0.0000 </r>
       <r>   16.1775    0.0000 </r>
       <r>   16.8081    0.0000 </r>
       <r>   22.5961    0.0000 </r>
       <r>   28.5156    0.0000 </r>
       <r>   29.6075    0.0000 </r>
       <r>   32.6297    0.0000 </r>
      </set>
      <set comment="kpoint 47">
       <r>    2.7894    1.0000 </r>
       <r>    3.6801    1.0000 </r>
       <r>    4.8173    1.0000 </r>
       <r>    5.5237    0.9420 </r>
       <r>    5.6288    0.6062 </r>
       <r>    6.4707   -0.0000 </r>
       <r>   17.1477    0.0000 </r>
       <r>   17.1928    0.0000 </r>
       <r>   17.5244    0.0000 </r>
       <r>   24.6669    0.0000 </r>
       <r>   26.1801    0.0000 </r>
       <r>   37.5576    0.0000 </r>
      </set>
      <set comment="kpoint 48">
       <r>    3.2275    1.0000 </r>
       <r>    3.6912    1.0000 </r>
       <r>    4.6921    1.0000 </r>
       <r>    5.3982    1.0350 </r>
       <r>    5.7976    0.0343 </r>
       <r>    7.9878   -0.0000 </r>
       <r>   14.0864    0.0000 </r>
       <r>   15.5526    0.0000 </r>
       <r>   17.4467    0.0000 </r>
       <r>   25.2440    0.0000 </r>
       <r>   28.9159    0.0000 </r>
       <r>   36.0798    0.0000 </r>
      </set>
      <set comment="kpoint 49">
       <r>    3.5438    1.0000 </r>
       <r>    3.7444    1.0000 </r>
       <r>    4.5014    1.0000 </r>
       <r>    5.2450    1.0069 </r>
       <r>    5.7815    0.0641 </r>
       <r>   10.1250   -0.0000 </r>
       <r>   11.2929    0.0000 </r>
       <r>   14.4011    0.0000 </r>
       <r>   18.1110    0.0000 </r>
       <r>   25.6644    0.0000 </r>
       <r>   32.6293    0.0000 </r>
       <r>   34.8420    0.0000 </r>
      </set>
      <set comment="kpoint 50">
       <r>    3.6828    1.0000 </r>
       <r>    3.8435    1.0000 </r>
       <r>    4.2441    1.0000 </r>
       <r>    5.1461    1.0010 </r>
       <r>    5.6452    0.5378 </r>
       <r>    8.9509   -0.0000 </r>
       <r>   12.5056    0.0000 </r>
       <r>   14.1489    0.0000 </r>
       <r>   19.2907    0.0000 </r>
       <r>   26.4082    0.0000 </r>
       <r>   33.1380    0.0000 </r>
       <r>   35.7172    0.0000 </r>
      </set>
      <set comment="kpoint 51">
       <r>    3.0521    1.0000 </r>
       <r>    3.5218    1.0000 </r>
       <r>    5.2885    1.0134 </r>
       <r>    5.6011    0.7160 </r>
       <r>    5.8819   -0.0342 </r>
       <r>    8.2323   -0.0000 </r>
       <r>   13.5332    0.0000 </r>
       <r>   16.3015    0.0000 </r>
       <r>   16.7108    0.0000 </r>
       <r>   24.2033    0.0000 </r>
       <r>   25.8101    0.0000 </r>
       <r>   39.7531    0.0000 </r>
      </set>
      <set comment="kpoint 52">
       <r>    3.2665    1.0000 </r>
       <r>    3.6218    1.0000 </r>
       <r>    4.9277    1.0000 </r>
       <r>    5.4436    1.0298 </r>
       <r>    5.8794   -0.0338 </r>
       <r>    9.7148   -0.0000 </r>
       <r>   12.9933    0.0000 </r>
       <r>   13.6830    0.0000 </r>
       <r>   17.0542    0.0000 </r>
       <r>   25.0330    0.0000 </r>
       <r>   28.7324    0.0000 </r>
       <r>   37.6764    0.0000 </r>
      </set>
      <set comment="kpoint 53">
       <r>    3.2972    1.0000 </r>
       <r>    3.8945    1.0000 </r>
       <r>    4.2470    1.0000 </r>
       <r>    5.2838    1.0125 </r>
       <r>    5.6282    0.6089 </r>
       <r>    7.5396   -0.0000 </r>
       <r>   14.6765    0.0000 </r>
       <r>   15.5504    0.0000 </r>
       <r>   17.9930    0.0000 </r>
       <r>   28.5605    0.0000 </r>
       <r>   29.3361    0.0000 </r>
       <r>   33.0696    0.0000 </r>
      </set>
      <set comment="kpoint 54">
       <r>    3.6310    1.0000 </r>
       <r>    3.8950    1.0000 </r>
       <r>    4.2097    1.0000 </r>
       <r>    5.1843    1.0022 </r>
       <r>    5.7718    0.0853 </r>
       <r>    9.3761   -0.0000 </r>
       <r>   11.9650    0.0000 </r>
       <r>   15.6544    0.0000 </r>
       <r>   16.5961    0.0000 </r>
       <r>   28.8036    0.0000 </r>
       <r>   30.7919    0.0000 </r>
       <r>   34.0399    0.0000 </r>
      </set>
      <set comment="kpoint 55">
       <r>    3.4218    1.0000 </r>
       <r>    3.7915    1.0000 </r>
       <r>    4.5257    1.0000 </r>
       <r>    5.3222    1.0203 </r>
[...]
       </set>
       <set comment="band 5">
        <r>  0.0000  0.0013  0.0008  0.0000  0.1741  0.6665  0.0434  0.0122  0.0807 </r>
       </set>
       <set comment="band 6">
        <r>  0.1184  0.0050  0.0769  0.0369  0.0006  0.0036  0.1041  0.3864  0.0841 </r>
       </set>
       <set comment="band 7">
        <r>  0.1531  0.2151  0.0140  0.0402  0.1170  0.0636  0.0108  0.0187  0.0168 </r>
       </set>
       <set comment="band 8">
        <r>  0.1586  0.1628  0.0293  0.0798  0.0468  0.0252  0.0255  0.0175  0.0570 </r>
       </set>
       <set comment="band 9">
        <r>  0.0711  0.0017  0.2581  0.0501  0.0004  0.0014  0.1621  0.0306  0.0000 </r>
       </set>
       <set comment="band 10">
        <r>  0.0124  0.0080  0.0238  0.2602  0.0055  0.0000  0.0001  0.0504  0.0677 </r>
       </set>
       <set comment="band 11">
        <r>  0.0317  0.0518  0.0024  0.0028  0.2516  0.0163  0.0263  0.0402  0.0638 </r>
       </set>
       <set comment="band 12">
        <r>  0.0592  0.0332  0.0485  0.1273  0.0395  0.0006  0.1667  0.0500  0.0810 </r>
       </set>
      </set>
      <set comment="kpoint 46">
       <set comment="band 1">
        <r>  0.2690  0.0000  0.0966  0.0432  0.0000  0.0000  0.0574  0.1217  0.0069 </r>
       </set>
       <set comment="band 2">
        <r>  0.0000  0.0233  0.0000  0.0000  0.7065  0.1735  0.0000  0.0000  0.0000 </r>
       </set>
       <set comment="band 3">
        <r>  0.0025  0.0000  0.0000  0.0054  0.0000  0.0000  0.4450  0.3128  0.1605 </r>
       </set>
       <set comment="band 4">
        <r>  0.0026  0.0000  0.0082  0.0011  0.0000  0.0000  0.3235  0.0137  0.6068 </r>
       </set>
       <set comment="band 5">
        <r>  0.0000  0.0020  0.0000  0.0000  0.2022  0.7682  0.0000  0.0000  0.0000 </r>
       </set>
       <set comment="band 6">
        <r>  0.0577  0.0000  0.0275  0.0130  0.0000  0.0000  0.1195  0.5189  0.1903 </r>
       </set>
       <set comment="band 7">
        <r>  0.0000  0.3644  0.0000  0.0000  0.1586  0.1001  0.0000  0.0000  0.0000 </r>
       </set>
       <set comment="band 8">
        <r>  0.2383  0.0000  0.0643  0.1626  0.0000  0.0000  0.0268  0.0572  0.0419 </r>
       </set>
       <set comment="band 9">
        <r>  0.0613  0.0000  0.2625  0.0209  0.0000  0.0000  0.1950  0.0165  0.0001 </r>
       </set>
       <set comment="band 10">
        <r>  0.0002  0.0000  0.0439  0.3315  0.0000  0.0000  0.0003  0.0087  0.0633 </r>
       </set>
       <set comment="band 11">
        <r>  0.0000  0.1045  0.0000  0.0000  0.2926  0.0207  0.0000  0.0000  0.0000 </r>
       </set>
       <set comment="band 12">
        <r>  0.0995  0.0000  0.0775  0.0539  0.0000  0.0000  0.1618  0.0844  0.1553 </r>
       </set>
      </set>
      <set comment="kpoint 47">
       <set comment="band 1">
        <r>  0.1376  0.0705  0.0000  0.0094  0.0186  0.0000  0.1348  0.0000  0.3330 </r>
       </set>
       <set comment="band 2">
        <r>  0.0000  0.0000  0.0073  0.0000  0.0000  0.0107  0.0000  0.8822  0.0000 </r>
       </set>
       <set comment="band 3">
        <r>  0.0420  0.0636  0.0000  0.0008  0.5000  0.0000  0.1665  0.0000  0.1003 </r>
       </set>
       <set comment="band 4">
        <r>  0.0047  0.0117  0.0000  0.0016  0.0005  0.0000  0.5252  0.0000  0.4242 </r>
       </set>
       <set comment="band 5">
        <r>  0.0000  0.0000  0.0040  0.0000  0.0000  0.9623  0.0000  0.0141  0.0000 </r>
       </set>
       <set comment="band 6">
        <r>  0.0838  0.0998  0.0000  0.0070  0.4576  0.0000  0.1314  0.0000  0.0690 </r>
       </set>
       <set comment="band 7">
        <r>  0.0000  0.0000  0.4126  0.0000  0.0000  0.0415  0.0000  0.1424  0.0000 </r>
       </set>
       <set comment="band 8">
        <r>  0.1815  0.2240  0.0000  0.0020  0.0046  0.0000  0.0497  0.0000  0.1583 </r>
       </set>
       <set comment="band 9">
        <r>  0.1208  0.0078  0.0000  0.3431  0.0379  0.0000  0.0426  0.0000  0.0119 </r>
       </set>
       <set comment="band 10">
        <r>  0.0000  0.0000  0.0930  0.0000  0.0000  0.0092  0.0000  0.4397  0.0000 </r>
       </set>
       <set comment="band 11">
        <r>  0.2163  0.0546  0.0000  0.1695  0.0083  0.0000  0.0192  0.0000  0.1053 </r>
       </set>
       <set comment="band 12">
        <r>  0.0282  0.0025  0.0000  0.0595  0.0911  0.0000  0.0524  0.0000  0.1581 </r>
       </set>
      </set>
      <set comment="kpoint 48">
       <set comment="band 1">
        <r>  0.0535  0.0264  0.0005  0.0146  0.0173  0.0029  0.2226  0.0235  0.4324 </r>
       </set>
       <set comment="band 2">
        <r>  0.0004  0.0000  0.0178  0.0039  0.0039  0.0120  0.0115  0.8222  0.0158 </r>
       </set>
       <set comment="band 3">
        <r>  0.0232  0.0650  0.0001  0.0002  0.6274  0.0382  0.0909  0.0179  0.0150 </r>
       </set>
       <set comment="band 4">
        <r>  0.0000  0.0062  0.0008  0.0021  0.0013  0.1180  0.4935  0.0019  0.3454 </r>
       </set>
       <set comment="band 5">
        <r>  0.0001  0.0001  0.0012  0.0000  0.0895  0.7815  0.0661  0.0100  0.0397 </r>
       </set>
       <set comment="band 6">
        <r>  0.1133  0.2037  0.0028  0.0133  0.2460  0.0275  0.0553  0.0003  0.0693 </r>
       </set>
       <set comment="band 7">
        <r>  0.1372  0.0047  0.2119  0.0992  0.0072  0.0140  0.0168  0.1202  0.0045 </r>
       </set>
       <set comment="band 8">
        <r>  0.2044  0.1779  0.0059  0.0211  0.0154  0.0024  0.0529  0.0000  0.1504 </r>
       </set>
       <set comment="band 9">
        <r>  0.0821  0.0029  0.1957  0.1727  0.0085  0.0077  0.0571  0.0502  0.0022 </r>
       </set>
       <set comment="band 10">
        <r>  0.0631  0.0074  0.0479  0.0695  0.0008  0.0026  0.0025  0.2935  0.0433 </r>
       </set>
       <set comment="band 11">
        <r>  0.0998  0.0163  0.0454  0.1679  0.0015  0.0018  0.0156  0.1291  0.0809 </r>
       </set>
       <set comment="band 12">
        <r>  0.0386  0.0120  0.0018  0.0376  0.1637  0.0018  0.0402  0.0012  0.1274 </r>
       </set>
      </set>
      <set comment="kpoint 49">
       <set comment="band 1">
        <r>  0.0174  0.0056  0.0007  0.0153  0.0081  0.0031  0.2933  0.0899  0.4140 </r>
       </set>
       <set comment="band 2">
        <r>  0.0088  0.0005  0.0334  0.0151  0.0157  0.0107  0.0490  0.6910  0.0343 </r>
       </set>
       <set comment="band 3">
        <r>  0.0042  0.0633  0.0010  0.0002  0.6593  0.0970  0.0140  0.0420  0.0009 </r>
       </set>
       <set comment="band 4">
        <r>  0.0019  0.0014  0.0017  0.0016  0.0002  0.0499  0.5065  0.0005  0.4020 </r>
       </set>
       <set comment="band 5">
        <r>  0.0004  0.0004  0.0001  0.0000  0.1528  0.7833  0.0260  0.0053  0.0191 </r>
       </set>
       <set comment="band 6">
        <r>  0.0429  0.2829  0.0236  0.0317  0.1498  0.0384  0.0329  0.0057  0.0446 </r>
       </set>
       <set comment="band 7">
        <r>  0.2154  0.0073  0.1544  0.0673  0.0158  0.0127  0.0226  0.1588  0.0072 </r>
       </set>
       <set comment="band 8">
        <r>  0.2679  0.1147  0.0116  0.0417  0.0201  0.0057  0.0493  0.0021  0.1312 </r>
       </set>
       <set comment="band 9">
        <r>  0.0795  0.0009  0.2271  0.1302  0.0014  0.0019  0.0954  0.0482  0.0003 </r>
       </set>
       <set comment="band 10">
        <r>  0.0653  0.0026  0.0273  0.1282  0.0001  0.0004  0.0009  0.2104  0.0710 </r>
       </set>
       <set comment="band 11">
        <r>  0.0373  0.0079  0.0512  0.1771  0.0047  0.0014  0.0253  0.1922  0.0473 </r>
       </set>
       <set comment="band 12">
        <r>  0.0364  0.0310  0.0089  0.0025  0.2411  0.0054  0.0139  0.0007  0.0815 </r>
       </set>
      </set>
      <set comment="kpoint 50">
       <set comment="band 1">
        <r>  0.0389  0.0000  0.0563  0.0374  0.0000  0.0000  0.1594  0.4346  0.0649 </r>
       </set>
       <set comment="band 2">
        <r>  0.0125  0.0000  0.0004  0.0067  0.0000  0.0000  0.2820  0.2888  0.2971 </r>
       </set>
       <set comment="band 3">
        <r>  0.0000  0.0534  0.0000  0.0000  0.6806  0.1506  0.0000  0.0000  0.0000 </r>
       </set>
       <set comment="band 4">
        <r>  0.0012  0.0000  0.0051  0.0001  0.0000  0.0000  0.4285  0.0081  0.5192 </r>
       </set>
       <set comment="band 5">
        <r>  0.0000  0.0013  0.0000  0.0000  0.1914  0.7904  0.0000  0.0000  0.0000 </r>
       </set>
       <set comment="band 6">
        <r>  0.1617  0.0000  0.1312  0.0634  0.0000  0.0000  0.0630  0.2534  0.0406 </r>
       </set>
       <set comment="band 7">
        <r>  0.0000  0.3997  0.0000  0.0000  0.1645  0.0703  0.0000  0.0000  0.0000 </r>
       </set>
       <set comment="band 8">
        <r>  0.3571  0.0000  0.0271  0.0832  0.0000  0.0000  0.0483  0.0144  0.1139 </r>
       </set>
       <set comment="band 9">
        <r>  0.0769  0.0000  0.2444  0.0897  0.0000  0.0000  0.1330  0.0418  0.0000 </r>
       </set>
       <set comment="band 10">
        <r>  0.0458  0.0000  0.0202  0.1856  0.0000  0.0000  0.0000  0.1355  0.0867 </r>
       </set>
       <set comment="band 11">
        <r>  0.0000  0.0679  0.0000  0.0000  0.3102  0.0109  0.0000  0.0000  0.0000 </r>
       </set>
       <set comment="band 12">
        <r>  0.0285  0.0000  0.0003  0.2582  0.0000  0.0000  0.1596  0.1745  0.0363 </r>
       </set>
      </set>
      <set comment="kpoint 51">
       <set comment="band 1">
        <r>  0.0426  0.0063  0.0000  0.0074  0.0012  0.0000  0.2205  0.0000  0.5346 </r>
       </set>
       <set comment="band 2">
        <r>  0.0000  0.0000  0.0078  0.0000  0.0000  0.0011  0.0000  0.8842  0.0000 </r>
       </set>
       <set comment="band 3">
        <r>  0.0065  0.0628  0.0000  0.0004  0.7809  0.0000  0.0576  0.0000  0.0008 </r>
       </set>
       <set comment="band 4">
        <r>  0.0000  0.0046  0.0000  0.0013  0.0392  0.0000  0.6375  0.0000  0.2974 </r>
       </set>
       <set comment="band 5">
        <r>  0.0000  0.0000  0.0007  0.0000  0.0000  0.9885  0.0000  0.0015  0.0000 </r>
       </set>
       <set comment="band 6">
        <r>  0.0593  0.3493  0.0000  0.0027  0.1728  0.0000  0.0192  0.0000  0.0380 </r>
       </set>
       <set comment="band 7">
        <r>  0.3300  0.0806  0.0000  0.0098  0.0041  0.0000  0.0668  0.0000  0.1932 </r>
       </set>
       <set comment="band 8">
        <r>  0.0000  0.0000  0.4416  0.0000  0.0000  0.0055  0.0000  0.1370  0.0000 </r>
       </set>
       <set comment="band 9">
        <r>  0.1289  0.0010  0.0000  0.3689  0.0047  0.0000  0.0461  0.0000  0.0096 </r>
       </set>
       <set comment="band 10">
        <r>  0.0000  0.0000  0.0835  0.0000  0.0000  0.0010  0.0000  0.4810  0.0000 </r>
       </set>
       <set comment="band 11">
        <r>  0.2497  0.0061  0.0000  0.1533  0.0009  0.0000  0.0271  0.0000  0.1451 </r>
       </set>
       <set comment="band 12">
        <r>  0.0108  0.0192  0.0000  0.0234  0.1743  0.0000  0.0228  0.0000  0.0479 </r>
       </set>
      </set>
      <set comment="kpoint 52">
       <set comment="band 1">
        <r>  0.0235  0.0000  0.0009  0.0140  0.0000  0.0000  0.2718  0.0095  0.5125 </r>
       </set>
       <set comment="band 2">
        <r>  0.0008  0.0000  0.0180  0.0029  0.0000  0.0000  0.0032  0.8568  0.0037 </r>
       </set>
       <set comment="band 3">
        <r>  0.0000  0.0739  0.0000  0.0000  0.7594  0.0576  0.0000  0.0000  0.0000 </r>
       </set>
       <set comment="band 4">
        <r>  0.0021  0.0000  0.0004  0.0023  0.0000  0.0000  0.6329  0.0002  0.3373 </r>
       </set>
       <set comment="band 5">
        <r>  0.0000  0.0003  0.0000  0.0000  0.0757  0.9146  0.0000  0.0000  0.0000 </r>
       </set>
       <set comment="band 6">
        <r>  0.0000  0.4223  0.0000  0.0000  0.1750  0.0219  0.0000  0.0000  0.0000 </r>
       </set>
       <set comment="band 7">
        <r>  0.3837  0.0000  0.0050  0.0319  0.0000  0.0000  0.0755  0.0001  0.1999 </r>
       </set>
       <set comment="band 8">
        <r>  0.1199  0.0000  0.2256  0.1057  0.0000  0.0000  0.0219  0.1263  0.0084 </r>
       </set>
       <set comment="band 9">
        <r>  0.0843  0.0000  0.1980  0.1818  0.0000  0.0000  0.0620  0.0481  0.0020 </r>
       </set>
       <set comment="band 10">
        <r>  0.0666  0.0000  0.0468  0.0626  0.0000  0.0000  0.0030  0.3146  0.0493 </r>
       </set>
       <set comment="band 11">
        <r>  0.1172  0.0000  0.0435  0.1616  0.0000  0.0000  0.0165  0.1272  0.1030 </r>
       </set>
       <set comment="band 12">
        <r>  0.0000  0.0398  0.0000  0.0000  0.2620  0.0026  0.0000  0.0000  0.0000 </r>
       </set>
      </set>
      <set comment="kpoint 53">
       <set comment="band 1">
        <r>  0.0907  0.0648  0.0000  0.0307  0.1046  0.0000  0.1971  0.0000  0.2475 </r>
       </set>
       <set comment="band 2">
        <r>  0.0000  0.0000  0.0272  0.0000  0.0000  0.0498  0.0000  0.8158  0.0000 </r>
       </set>
       <set comment="band 3">
        <r>  0.0249  0.0265  0.0000  0.0013  0.5094  0.0000  0.2576  0.0000  0.0724 </r>
       </set>
       <set comment="band 4">
        <r>  0.0002  0.0110  0.0000  0.0020  0.0098  0.0000  0.3640  0.0000  0.5737 </r>
       </set>
       <set comment="band 5">
        <r>  0.0000  0.0000  0.0030  0.0000  0.0000  0.9131  0.0000  0.0650  0.0000 </r>
       </set>
       <set comment="band 6">
        <r>  0.1281  0.1202  0.0000  0.0230  0.3561  0.0000  0.1166  0.0000  0.0483 </r>
       </set>
       <set comment="band 7">
        <r>  0.0000  0.0000  0.3954  0.0000  0.0000  0.0492  0.0000  0.1775  0.0000 </r>
       </set>
       <set comment="band 8">
        <r>  0.2806  0.0265  0.0000  0.1810  0.0237  0.0000  0.0918  0.0000  0.0026 </r>
       </set>
       <set comment="band 9">
        <r>  0.1229  0.2249  0.0000  0.0358  0.0267  0.0000  0.0513  0.0000  0.1326 </r>
       </set>
       <set comment="band 10">
        <r>  0.0000  0.0000  0.0942  0.0000  0.0000  0.0107  0.0000  0.3677  0.0000 </r>
       </set>
       <set comment="band 11">
        <r>  0.0329  0.0485  0.0000  0.3532  0.0041  0.0000  0.0276  0.0000  0.0242 </r>
       </set>
       <set comment="band 12">
        <r>  0.1197  0.0002  0.0000  0.0002  0.1602  0.0000  0.0334  0.0000  0.2635 </r>
       </set>
      </set>
      <set comment="kpoint 54">
       <set comment="band 1">
        <r>  0.0157  0.0229  0.0000  0.0312  0.0525  0.0044  0.4149  0.0291  0.2514 </r>
       </set>
       <set comment="band 2">
        <r>  0.0166  0.0084  0.0284  0.0033  0.2005  0.0411  0.0970  0.4643  0.0110 </r>
       </set>
       <set comment="band 3">
        <r>  0.0079  0.0313  0.0147  0.0011  0.4838  0.0006  0.0390  0.3056  0.0009 </r>
       </set>
       <set comment="band 4">
        <r>  0.0027  0.0051  0.0007  0.0005  0.0094  0.0415  0.2823  0.0002  0.6192 </r>
       </set>
       <set comment="band 5">
        <r>  0.0006  0.0000  0.0011  0.0000  0.0264  0.8743  0.0114  0.0493  0.0236 </r>
       </set>
       <set comment="band 6">
        <r>  0.1238  0.1928  0.0086  0.0437  0.2117  0.0067  0.0636  0.0008  0.0387 </r>
       </set>
       <set comment="band 7">
        <r>  0.1556  0.0005  0.2415  0.0345  0.0090  0.0260  0.0318  0.1532  0.0014 </r>
       </set>
       <set comment="band 8">
        <r>  0.2135  0.0157  0.1555  0.0817  0.0030  0.0073  0.0996  0.0431  0.0000 </r>
       </set>
       <set comment="band 9">
        <r>  0.1259  0.1916  0.0002  0.0730  0.0405  0.0014  0.0565  0.0016  0.1068 </r>
       </set>
       <set comment="band 10">
        <r>  0.0029  0.0215  0.0317  0.2237  0.0260  0.0008  0.0162  0.1107  0.0099 </r>
       </set>
       <set comment="band 11">
        <r>  0.0229  0.0159  0.0282  0.0416  0.1094  0.0051  0.0368  0.1884  0.0390 </r>
       </set>
       <set comment="band 12">
        <r>  0.0795  0.0000  0.0210  0.1327  0.1090  0.0001  0.0001  0.0605  0.1891 </r>
       </set>
      </set>
      <set comment="kpoint 55">
       <set comment="band 1">
        <r>  0.0153  0.0051  0.0000  0.0246  0.0041  0.0000  0.3689  0.0000  0.4122 </r>
       </set>
       <set comment="band 2">
        <r>  0.0000  0.0000  0.0291  0.0000  0.0000  0.0050  0.0000  0.8528  0.0000 </r>
       </set>
       <set comment="band 3">
        <r>  0.0080  0.0648  0.0000  0.0000  0.7785  0.0000  0.0296  0.0000  0.0000 </r>
       </set>
       <set comment="band 4">
        <r>  0.0045  0.0027  0.0000  0.0019  0.0136  0.0000  0.4802  0.0000  0.4638 </r>
       </set>
       <set comment="band 5">
        <r>  0.0000  0.0000  0.0006  0.0000  0.0000  0.9830  0.0000  0.0071  0.0000 </r>
       </set>
       <set comment="band 6">
        <r>  0.0813  0.3046  0.0000  0.0134  0.2042  0.0000  0.0252  0.0000  0.0321 </r>
       </set>
       <set comment="band 7">
        <r>  0.0000  0.0000  0.4160  0.0000  0.0000  0.0067  0.0000  0.1927  0.0000 </r>
       </set>
       <set comment="band 8">
        <r>  0.3339  0.1076  0.0000  0.0273  0.0172  0.0000  0.0420  0.0000  0.1360 </r>
       </set>
       <set comment="band 9">
        <r>  0.2102  0.0001  0.0000  0.2217  0.0053  0.0000  0.1374  0.0000  0.0144 </r>
       </set>
       <set comment="band 10">
        <r>  0.0000  0.0000  0.0905  0.0000  0.0000  0.0012  0.0000  0.4011  0.0000 </r>
       </set>
       <set comment="band 11">
        <r>  0.1001  0.0077  0.0000  0.3202  0.0002  0.0000  0.0164  0.0000  0.1253 </r>
       </set>
       <set comment="band 12">
        <r>  0.0339  0.0355  0.0000  0.0064  0.2552  0.0000  0.0183  0.0000  0.0703 </r>
       </set>
      </set>
      <set comment="kpoint 56">
       <set comment="band 1">
        <r>  0.0010  0.0000  0.0019  0.0308  0.0000  0.0000  0.5216  0.0000  0.2868 </r>
       </set>
       <set comment="band 2">
        <r>  0.0060  0.0000  0.0424  0.0011  0.0000  0.0000  0.0002  0.8250  0.0038 </r>
       </set>
       <set comment="band 3">
        <r>  0.0000  0.0564  0.0000  0.0000  0.8104  0.0157  0.0000  0.0000  0.0000 </r>
       </set>
       <set comment="band 4">
        <r>  0.0097  0.0000  0.0010  0.0003  0.0000  0.0000  0.3374  0.0041  0.6096 </r>
       </set>
       <set comment="band 5">
        <r>  0.0000  0.0005  0.0000  0.0000  0.0221  0.9682  0.0000  0.0000  0.0000 </r>
       </set>
       <set comment="band 6">
        <r>  0.1060  0.0000  0.2646  0.0461  0.0000  0.0000  0.0467  0.1715  0.0062 </r>
       </set>
       <set comment="band 7">
        <r>  0.0000  0.4141  0.0000  0.0000  0.2022  0.0108  0.0000  0.0000  0.0000 </r>
       </set>
       <set comment="band 8">
        <r>  0.3815  0.0000  0.0042  0.0824  0.0000  0.0000  0.0582  0.0012  0.1332 </r>
       </set>
       <set comment="band 9">
        <r>  0.1632  0.0000  0.1456  0.1126  0.0000  0.0000  0.1363  0.0435  0.0036 </r>
       </set>
       <set comment="band 10">
        <r>  0.0182  0.0000  0.0501  0.1362  0.0000  0.0000  0.0022  0.2300  0.0433 </r>
       </set>
       <set comment="band 11">
        <r>  0.0000  0.0676  0.0000  0.0000  0.3369  0.0014  0.0000  0.0000  0.0000 </r>
       </set>
       <set comment="band 12">
        <r>  0.0089  0.0000  0.0245  0.2977  0.0000  0.0000  0.0405  0.1443  0.0347 </r>
       </set>
      </set>
     </set>
    </set>
   </array>
  </projected>
 </calculation>
 <structure name="finalpos" >
  <crystal>
   <varray name="basis" >
    <v>       1.95000000       1.95000000       0.00000000 </v>
    <v>       0.00000000       1.95000000       1.95000000 </v>
    <v>       1.95000000       0.00000000       1.95000000 </v>
   </varray>
   <i name="volume">     14.82975000 </i>
   <varray name="rec_basis" >
    <v>       0.25641026       0.25641026      -0.25641026 </v>
    <v>      -0.25641026       0.25641026       0.25641026 </v>
    <v>       0.25641026      -0.25641026       0.25641026 </v>
   </varray>
  </crystal>
  <varray name="positions" >
   <v>       0.00000000       0.00000000       0.00000000 </v>
  </varray>
 </structure>
</modeling>
