fcc Ni                                  
           1
     1.950000    1.950000    0.000000
     0.000000    1.950000    1.950000
     1.950000    0.000000    1.950000
   Ni
     1
Direct configuration=     1
   0.00000000  0.00000000  0.00000000
